Membrane in water
40344
    1TMC1    C1    1   0.506   2.561  11.453  0.2439 -0.0508 -0.1116
    1TMC1    C2    2   0.396   2.631  11.473 -0.0855 -0.3458 -0.2276
    1TMC1    C3    3   0.401   2.764  11.463 -0.2250 -0.1121  0.1353
    1TMC1    C4    4   0.625   2.613  11.413 -0.2646  0.5227 -0.5155
    1TMC1    C5    5   0.630   2.748  11.396 -0.4637  0.0096 -0.5665
    1TMC1    C6    6   0.520   2.828  11.420 -0.1791  0.2423  0.4220
    1TMC1     C    7   0.496   2.416  11.476 -0.4246  0.5592  0.2624
    1TMC1     O    8   0.393   2.377  11.526  0.4359  0.7466 -0.2589
    1TMC1     H    9   0.314   2.584  11.525 -0.5120  1.7414  0.9444
    1TMC1    H1   10   0.720   2.567  11.440 -0.3755 -0.9565 -2.6460
    1TMC1    H2   11   0.530   2.931  11.387  0.6732  0.0637  0.1116
    1TMC1    C7   12   0.758   2.819  11.383  0.1728  0.9427  0.7140
    1TMC1    C8   13   0.300   2.847  11.525  0.0246 -0.0035  0.2938
    1TMC1    O1   14   0.756   2.939  11.374 -0.5132  0.2255 -0.1154
    1TMC1    O2   15   0.225   2.815  11.614  0.0114 -0.2504 -0.8989
    1TMC1    O3   16   0.825   2.747  11.292  0.1043 -0.1299  0.3594
    1TMC1    H3   17   0.822   2.649  11.293 -2.6380 -0.0578 -1.1682
    1TMC1    O5   18   0.289   2.967  11.460 -0.4381  0.2376 -0.3977
    1TMC1    H5   19   0.344   2.973  11.379 -0.0235 -1.6456 -0.2537
    2MPD2     C   20   0.721   1.985  11.633  0.5164 -0.1144 -0.3277
    2MPD2    C1   21   0.607   2.048  11.676 -0.0885  0.1556 -0.5622
    2MPD2    C2   22   0.571   2.162  11.619 -0.2832  0.1650  0.0944
    2MPD2    C3   23   0.649   2.227  11.521  0.0838 -0.3287  1.2095
    2MPD2    C4   24   0.766   2.167  11.483 -0.4083 -0.1369  0.0986
    2MPD2    C5   25   0.804   2.047  11.541  0.0759 -0.0821 -0.1833
    2MPD2     H   26   0.472   2.192  11.653  0.6177  3.0120  0.1854
    2MPD2    H1   27   0.828   2.198  11.400  0.9825 -0.6226  0.9470
    2MPD2    H2   28   0.759   1.896  11.682 -1.3334 -0.2714  0.8200
    2MPD2    H3   29   0.906   2.013  11.524 -0.0380  0.1669 -1.3772
    2MPD2     N   30   0.616   2.347  11.458 -0.3961 -0.5645  0.1965
    2MPD2    H5   31   0.690   2.391  11.405 -2.1770 -1.4593 -3.1165
    2MPD2    N1   32   0.521   1.994  11.779 -0.3602  0.4322  0.3166
    2MPD2    H7   33   0.438   2.046  11.806 -0.2206  0.3563  0.8916
    3TMC1    C1   34   4.343   2.238  10.485 -1.1659 -0.0660 -0.3511
    3TMC1    C2   35   4.279   2.148  10.419  0.0797  0.2345 -0.3360
    3TMC1    C3   36   4.291   2.142  10.283 -0.3395  1.1953  0.1946
    3TMC1    C4   37   4.436   2.319  10.419  0.0689 -0.4653 -0.4855
    3TMC1    C5   38   4.454   2.307  10.289  0.2109 -0.0237 -0.8026
    3TMC1    C6   39   4.387   2.215  10.210 -0.5416 -0.2140 -0.1910
    3TMC1     C   40   4.275   2.297  10.599 -0.2161  0.4582 -0.1649
    3TMC1     O   41   4.205   2.220  10.664 -0.1375  0.6453  0.0250
    3TMC1     H   42   4.198   2.093  10.465  0.6846  0.7105  1.2859
    3TMC1    H1   43   4.495   2.387  10.480 -0.1834 -0.9639  0.3163
    3TMC1    H2   44   4.394   2.198  10.103  2.1863  1.1837 -0.2587
    3TMC1    C7   45   4.572   2.364  10.235 -0.3344  0.7826  0.3006
    3TMC1    C8   46   4.267   2.011  10.236 -0.1562 -0.4273  0.9994
    3TMC1    O1   47   4.617   2.474  10.260 -0.1999 -0.1928 -0.3651
    3TMC1    O2   48   4.156   1.998  10.185  0.3398  0.4686  0.2546
    3TMC1    O3   49   4.606   2.286  10.131  0.2263 -0.3073  0.4394
    3TMC1    H3   50   4.574   2.194  10.138  0.5807 -0.5960 -1.6814
    3TMC1    O5   51   4.305   1.940  10.342  0.6520 -0.3805 -0.3697
    3TMC1    H5   52   4.390   1.972  10.378 -0.4253  2.7903 -0.6357
    4MPD2     C   53   4.082   2.663  10.881  0.4200 -0.4113 -0.0891
    4MPD2    C1   54   4.172   2.726  10.797  0.1942 -0.2873  0.1062
    4MPD2    C2   55   4.240   2.654  10.701  0.1961 -0.1431  0.1196
    4MPD2    C3   56   4.232   2.516  10.708 -0.3211 -0.2548  0.8024
    4MPD2    C4   57   4.161   2.455  10.810 -0.4618 -1.0227  0.0860
    4MPD2    C5   58   4.075   2.526  10.887  0.1343 -0.5672 -0.0367
    4MPD2     H   59   4.296   2.701  10.621  1.8514 -1.9797  0.1930
    4MPD2    H1   60   4.178   2.350  10.834  0.4131 -0.9453 -0.1953
    4MPD2    H2   61   4.020   2.717  10.951  0.5848  0.6042 -0.7220
    4MPD2    H3   62   4.018   2.473  10.963 -2.4025  1.8173 -0.2595
    4MPD2     N   63   4.294   2.433  10.613  0.5827  0.5375  0.3319
    4MPD2    H5   64   4.347   2.478  10.538 -0.2540  0.2268 -0.4459
    4MPD2    N1   65   4.173   2.864  10.773 -0.8647 -0.2785  0.2476
    4MPD2    H7   66   4.240   2.897  10.705 -1.3198 -2.0725 -1.0799
    5TCq1    O1   67   0.642   3.991  11.899  0.4376 -0.4935 -0.2042
    5TCq1    C1   68   0.612   3.933  11.779 -0.2469  0.1337 -0.1047
    5TCq1    O2   69   0.681   3.842  11.733  0.1539  0.9443 -0.3904
    5TCq1    C2   70   0.518   4.023  11.704 -0.8143 -0.0459 -0.4822
    5TCq1    C3   71   0.423   4.099  11.776  0.8746 -0.0461 -0.1255
    5TCq1    C4   72   0.320   4.152  11.700  0.1808 -0.0866 -0.8738
    5TCq1    C5   73   0.306   4.137  11.566  0.1365 -0.6967 -0.1089
    5TCq1    C6   74   0.402   4.059  11.506  1.0575  0.4391 -0.2371
    5TCq1    C7   75   0.503   4.005  11.569  0.4180 -0.4451  0.1434
    5TCq1    C8   76   0.393   4.019  11.358 -0.0170 -0.3606  0.2737
    5TCq1    O4   77   0.483   3.943  11.316 -0.2879 -0.1061  0.2056
    5TCq1    C9   78   0.210   4.211  11.762 -0.0431 -0.0643 -0.2295
    5TCq1    O5   79   0.217   4.260  11.879 -0.1793 -0.4560 -0.1945
    5TCq1    O6   80   0.103   4.200  11.698 -0.1022  0.4949  0.6345
    5TCq1    H1   81   0.610   4.082  11.917  0.1767 -0.9295  1.5370
    5TCq1    H2   82   0.423   4.106  11.884  2.0956 -0.2039 -0.1115
    5TCq1    H3   83   0.227   4.188  11.512  0.0649 -0.8830 -0.1808
    5TCq1    H4   84   0.573   3.942  11.516  1.7325  1.1702 -0.0549
    6MPD2     C   85   0.142   4.146  11.120  0.0359  0.6110 -0.5524
    6MPD2    C1   86   0.257   4.082  11.155 -0.3548  0.0766 -1.1665
    6MPD2    C2   87   0.304   3.990  11.067  0.0810 -0.1020 -0.1939
    6MPD2    C3   88   0.264   3.970  10.935  0.2179  0.3470 -0.6682
    6MPD2    C4   89   0.159   4.052  10.897  0.0769 -0.6495 -0.1283
    6MPD2    C5   90   0.107   4.140  10.984 -0.7576  0.4702  0.4456
    6MPD2     H   91   0.395   3.936  11.092  0.3404  0.8205  0.8800
    6MPD2    H1   92   0.115   4.064  10.799 -3.1949  0.5920  1.4884
    6MPD2    H2   93   0.098   4.223  11.182  0.9657  0.1144  0.7200
    6MPD2    H3   94   0.025   4.201  10.949 -0.9042  1.7642  3.0652
    6MPD2     N   95   0.328   3.879  10.848 -0.1509  0.2025  0.0272
    6MPD2    H5   96   0.409   3.831  10.885 -0.9537 -2.4391 -1.6697
    6MPD2    N1   97   0.300   4.094  11.289  0.2047 -0.3039 -0.1106
    6MPD2    H7   98   0.248   4.157  11.349  3.3516  1.8265  0.3522
    7TCq1    O1   99   2.838   3.847  12.988 -0.2848 -0.4427  0.7811
    7TCq1    C1  100   2.886   3.816  13.104  0.7872  1.0343  0.2689
    7TCq1    O2  101   2.925   3.902  13.184 -0.1677  0.3954  0.1529
    7TCq1    C2  102   2.869   3.671  13.124 -0.3059 -0.5726 -0.7770
    7TCq1    C3  103   2.772   3.600  13.056  0.3581  0.1034 -0.5727
    7TCq1    C4  104   2.755   3.471  13.089  0.3909  0.0029  0.8385
    7TCq1    C5  105   2.839   3.422  13.186 -0.0653 -0.0447  0.8190
    7TCq1    C6  106   2.934   3.494  13.249 -0.0528 -0.2564 -0.1002
    7TCq1    C7  107   2.956   3.621  13.215 -0.6263 -0.7062 -0.8338
    7TCq1    C8  108   2.996   3.439  13.367  0.4529 -0.0179 -0.5782
    7TCq1    O4  109   2.998   3.315  13.383  0.1768 -0.3757 -0.2990
    7TCq1    C9  110   2.667   3.386  13.012  0.2213  0.6083 -0.1712
    7TCq1    O5  111   2.622   3.434  12.910  0.1279 -0.5918 -0.0792
    7TCq1    O6  112   2.670   3.267  13.047  0.0553  0.2148  0.0856
    7TCq1    H1  113   2.806   3.772  12.933  0.4964  0.2700 -0.6326
    7TCq1    H2  114   2.704   3.650  12.988  0.2751  0.1100 -0.4862
    7TCq1    H3  115   2.842   3.316  13.209 -1.1661 -0.0155  1.1368
    7TCq1    H4  116   3.040   3.678  13.251 -2.3014  0.7217  0.8138
    8MPD2     C  117   3.267   3.484  13.805  0.2508  0.1544 -0.5402
    8MPD2    C1  118   3.244   3.381  13.720 -0.7834 -0.5152 -0.3836
    8MPD2    C2  119   3.163   3.389  13.611 -0.3624 -0.1270  0.0771
    8MPD2    C3  120   3.104   3.509  13.582  0.8584 -1.1357 -0.7404
    8MPD2    C4  121   3.118   3.619  13.668 -0.2099  0.0649  0.8269
    8MPD2    C5  122   3.201   3.606  13.777  0.0449  0.0960 -0.5487
    8MPD2     H  123   3.153   3.301  13.549  2.3563  1.1612 -2.1779
    8MPD2    H1  124   3.070   3.715  13.653 -1.2237 -0.4716  0.6071
    8MPD2    H2  125   3.344   3.476  13.880 -0.3348 -0.5581 -0.0178
    8MPD2    H3  126   3.215   3.688  13.846  0.1018 -0.1563 -0.2641
    8MPD2     N  127   3.036   3.534  13.458 -0.3993 -0.1507  0.0033
    8MPD2    H5  128   3.019   3.631  13.435  1.1919  0.2961  0.7030
    8MPD2    N1  129   3.312   3.261  13.745  0.1717  0.3969 -0.1698
    8MPD2    H7  130   3.381   3.271  13.818  0.6362  2.1115 -0.8451
    9TMC1    C1  131   4.712   2.805  11.266 -0.1513  0.4448  0.5599
    9TMC1    C2  132   0.006   2.817  11.137 -0.0784 -0.1394  0.3078
    9TMC1    C3  133   4.718   2.937  11.076 -0.4120  0.2193 -0.2105
    9TMC1    C4  134   4.657   2.914  11.336  0.2041 -0.3778  0.3184
    9TMC1    C5  135   4.653   3.035  11.272 -0.4213 -0.2386  0.1215
    9TMC1    C6  136   4.685   3.053  11.140 -0.6153 -0.3798  0.0554
    9TMC1     C  137   0.018   2.695  11.340 -0.2341 -0.2166  0.1307
    9TMC1     O  138   0.111   2.630  11.291 -0.5515 -0.3811 -0.0445
    9TMC1     H  139   0.049   2.737  11.078 -3.4757 -3.0673  1.7963
    9TMC1    H1  140   4.614   2.906  11.436  0.5163  1.1233  0.5707
    9TMC1    H2  141   4.699   3.148  11.091 -3.3792  0.0270  0.0686
    9TMC1    C7  142   4.589   3.141  11.346  0.2451 -0.1701 -0.1104
    9TMC1    C8  143   0.052   2.955  10.951 -0.5738  0.0008 -0.2401
    9TMC1    O1  144   4.491   3.119  11.417  0.0879  0.3960 -0.4952
    9TMC1    O2  145   0.148   2.888  10.921 -0.5983 -0.2656 -0.1399
    9TMC1    O3  146   4.679   3.238  11.374  0.0605 -0.4360 -0.2181
    9TMC1    H3  147   0.013   3.237  11.305  1.6929  0.9195  1.3732
    9TMC1    O5  148   4.724   3.048  10.871 -0.4785 -0.0528  0.3518
    9TMC1    H5  149   4.638   3.080  10.905  0.0418  0.4639  1.2090
   10MPD2     C  150   0.065   2.485  11.560  0.2648  0.6281  0.5373
   10MPD2    C1  151   4.720   2.597  11.568  0.1086 -0.2189 -0.6595
   10MPD2    C2  152   4.680   2.633  11.695 -0.0408  0.1862 -0.3765
   10MPD2    C3  153   4.706   2.565  11.812  0.4829  0.6313 -0.1077
   10MPD2    C4  154   0.046   2.452  11.795 -0.2017  0.1385 -0.0696
   10MPD2    C5  155   0.092   2.419  11.675  0.1803  0.0935  0.0292
   10MPD2     H  156   4.602   2.706  11.709 -1.6952 -1.4143 -1.2218
   10MPD2    H1  157   0.066   2.393  11.884 -0.1543 -2.2820 -1.7007
   10MPD2    H2  158   0.109   2.456  11.465 -0.7284  2.1858 -0.3874
   10MPD2    H3  159   0.157   2.332  11.669 -0.5524 -0.3503 -1.5498
   10MPD2     N  160   4.661   2.596  11.943 -0.0835  0.0604  0.4340
   10MPD2    H5  161   4.717   2.557  12.018 -0.8822  0.1251  1.0634
   10MPD2    N1  162   4.692   2.688  11.460 -0.7409 -0.2601 -0.0571
   10MPD2    H7  163   4.625   2.763  11.476 -1.3528 -0.4843 -1.4870
   11TCq1    O1  164   0.696   2.804  14.133  0.0973 -0.9911  0.1642
   11TCq1    C1  165   0.795   2.814  14.232 -0.1258  0.0773 -0.4937
   11TCq1    O2  166   0.841   2.915  14.284  0.0309  0.2029  0.6049
   11TCq1    C2  167   0.854   2.685  14.248 -0.1067 -0.6291 -0.4193
   11TCq1    C3  168   0.990   2.680  14.232  0.2497 -0.1185  0.0213
   11TCq1    C4  169   1.042   2.552  14.199  0.5772 -0.2722  0.7892
   11TCq1    C5  170   0.960   2.442  14.182 -0.0509  0.1899 -0.5511
   11TCq1    C6  171   0.824   2.459  14.202 -0.4414  0.1652 -0.3343
   11TCq1    C7  172   0.767   2.580  14.227  0.3781 -0.1331  0.0103
   11TCq1    C8  173   0.736   2.351  14.148  0.0652  0.0665 -0.5955
   11TCq1    O4  174   0.615   2.375  14.148 -0.7415 -0.0538 -0.4443
   11TCq1    C9  175   1.173   2.554  14.140 -1.0517  0.1836 -0.4672
   11TCq1    O5  176   1.195   2.454  14.063 -0.1429  0.3865 -0.0777
   11TCq1    O6  177   1.230   2.668  14.134  0.0855  0.0224  0.0904
   11TCq1    H1  178   0.705   2.718  14.087  2.8532  0.1192 -1.4007
   11TCq1    H2  179   1.056   2.764  14.212  0.4907 -0.3389 -0.1087
   11TCq1    H3  180   1.006   2.356  14.136  0.7575  0.5362 -0.3864
   11TCq1    H4  181   0.665   2.597  14.258  0.7300 -0.6196  1.4049
   12MPD2     C  182   0.634   2.166  13.931  0.2699  0.1685 -0.9973
   12MPD2    C1  183   0.761   2.163  13.990 -0.6943  0.6400 -0.3738
   12MPD2    C2  184   0.855   2.073  13.944  0.4393 -0.4880  0.0243
   12MPD2    C3  185   0.812   1.982  13.841 -0.3171 -0.1422  0.2521
   12MPD2    C4  186   0.688   1.987  13.787 -0.1100 -0.2599 -0.9147
   12MPD2    C5  187   0.597   2.073  13.842 -0.2480  0.6778  0.0915
   12MPD2     H  188   0.951   2.068  13.994  0.2720 -2.2489  0.1754
   12MPD2    H1  189   0.663   1.924  13.703  0.2441  0.8593 -1.8647
   12MPD2    H2  190   0.558   2.239  13.955  1.3531  0.8565  0.3284
   12MPD2    H3  191   0.495   2.078  13.804  0.6562 -0.0277 -2.4456
   12MPD2     N  192   0.908   1.894  13.781 -0.0413  0.2456 -0.3854
   12MPD2    H5  193   0.870   1.828  13.715  0.9101 -0.0462 -0.6466
   12MPD2    N1  194   0.802   2.247  14.097 -0.4968 -0.0980  0.1812
   12MPD2    H7  195   0.889   2.225  14.145 -1.0879 -0.0277  1.3022
   13TCq1    O1  196   0.270   3.030  10.701 -0.5263 -0.2853  0.5972
   13TCq1    C1  197   0.332   3.149  10.689  0.4679 -0.1731 -0.1039
   13TCq1    O2  198   0.293   3.234  10.607 -0.3331  0.0911 -0.1716
   13TCq1    C2  199   0.361   3.183  10.831 -0.7312  0.2750 -0.8447
   13TCq1    C3  200   0.262   3.256  10.887 -0.5168  0.0754 -0.2226
   13TCq1    C4  201   0.233   3.240  11.022  0.0772 -0.3812  0.6033
   13TCq1    C5  202   0.301   3.150  11.098 -0.2269  0.4103  0.1116
   13TCq1    C6  203   0.396   3.068  11.032 -0.2226 -0.8858 -0.0892
   13TCq1    C7  204   0.428   3.088  10.895 -0.7641 -0.2407 -0.5392
   13TCq1    C8  205   0.422   2.944  11.104 -0.1523  0.1463 -0.8030
   13TCq1    O4  206   0.338   2.917  11.185 -0.1522  0.2121  0.7579
   13TCq1    C9  207   0.139   3.315  11.098 -0.1540  0.3609  0.8883
   13TCq1    O5  208   0.127   3.281  11.220 -0.3452  0.3498 -0.5313
   13TCq1    O6  209   0.092   3.419  11.046 -0.1637  0.9560 -0.6715
   13TCq1    H1  210   0.285   2.990  10.789  0.5902 -0.5249  0.3067
   13TCq1    H2  211   0.209   3.326  10.823  0.6070  1.0488 -0.0903
   13TCq1    H3  212   0.283   3.146  11.205 -1.2823 -0.2831 -0.0819
   13TCq1    H4  213   0.484   3.015  10.837 -0.4101  1.5148 -2.3871
   14MPD2     C  214   0.649   2.679  11.000  0.2434 -0.2750  0.3080
   14MPD2    C1  215   0.542   2.737  11.062  0.1755 -0.5880 -0.0754
   14MPD2    C2  216   0.448   2.653  11.107 -0.1203 -0.2271 -0.2724
   14MPD2    C3  217   0.447   2.518  11.107 -0.2756  0.0383  0.4881
   14MPD2    C4  218   0.558   2.458  11.059 -0.0314  0.4233 -0.8059
   14MPD2    C5  219   0.666   2.543  11.025  0.2309  0.2330  0.6869
   14MPD2     H  220   0.358   2.691  11.155 -0.0104  0.2725 -0.4660
   14MPD2    H1  221   0.570   2.350  11.062  0.2620  0.4298 -1.7118
   14MPD2    H2  222   0.728   2.733  10.949  0.7773 -0.5268  0.8796
   14MPD2    H3  223   0.761   2.504  10.989  0.3997 -2.5275  4.1493
   14MPD2     N  224   0.336   2.457  11.175 -0.2365  0.4672  0.2534
   14MPD2    H5  225   0.269   2.514  11.225  0.5978  0.9569  0.8130
   14MPD2    N1  226   0.532   2.874  11.054  0.5562  0.3236  0.2437
   14MPD2    H7  227   0.603   2.924  11.001 -1.1570  2.9704  0.4124
   15TCq1    O1  228   1.722   0.870   1.162  0.2811 -0.6492  0.0858
   15TCq1    C1  229   1.855   0.844   1.153 -0.1182  0.3869 -0.6613
   15TCq1    O2  230   1.905   0.780   1.062 -0.4525  0.0926 -0.2277
   15TCq1    C2  231   1.940   0.887   1.266 -0.1875  0.5548 -0.4924
   15TCq1    C3  232   1.894   0.964   1.367 -0.3601 -0.2143 -0.4522
   15TCq1    C4  233   1.974   0.998   1.474  0.5805  0.3631 -0.1606
   15TCq1    C5  234   2.102   0.945   1.490  0.1667 -0.4634 -0.2062
   15TCq1    C6  235   2.148   0.861   1.379 -0.3683 -0.6761  0.8212
   15TCq1    C7  236   2.074   0.841   1.264 -0.2245  0.4678  0.3573
   15TCq1    C8  237   2.286   0.813   1.373  0.3708 -0.5808 -0.2952
   15TCq1    O4  238   2.320   0.748   1.275  1.0404 -0.1006  0.3896
   15TCq1    C9  239   1.938   1.100   1.564 -0.3078  0.4491 -0.6620
   15TCq1    O5  240   1.828   1.156   1.548 -0.3523  0.3056  0.0314
   15TCq1    O6  241   2.014   1.130   1.664 -0.8550  0.0872 -0.2320
   15TCq1    H1  242   1.694   0.902   1.250 -2.4790 -1.6928 -0.4123
   15TCq1    H2  243   1.804   1.023   1.354 -0.0382  1.1574  3.4185
   15TCq1    H3  244   2.149   0.964   1.586 -1.4391  0.3548  0.4146
   15TCq1    H4  245   2.104   0.766   1.191 -1.3717 -0.7227  1.1335
   16MPD2     C  246   2.575   0.910   1.574 -0.5161  0.3645 -0.7336
   16MPD2    C1  247   2.506   0.847   1.476 -0.1505 -0.1375 -0.4591
   16MPD2    C2  248   2.576   0.772   1.378  1.2654  0.6506  0.8027
   16MPD2    C3  249   2.714   0.784   1.379  0.4739  0.0904 -0.3514
   16MPD2    C4  250   2.784   0.854   1.478  0.0390 -0.0199 -0.4438
   16MPD2    C5  251   2.709   0.913   1.579 -0.0320 -0.1738 -0.6284
   16MPD2     H  252   2.532   0.716   1.297  2.5109 -1.0635  1.3017
   16MPD2    H1  253   2.891   0.853   1.493  0.1297  0.0835 -1.1212
   16MPD2    H2  254   2.518   0.959   1.652  0.6477 -0.1670  0.4574
   16MPD2    H3  255   2.754   0.945   1.672 -0.0907 -0.8854 -0.3601
   16MPD2     N  256   2.783   0.732   1.267  0.3852 -0.0671  0.4878
   16MPD2    H5  257   2.724   0.694   1.193 -0.2183  2.3602 -0.2943
   16MPD2    N1  258   2.363   0.854   1.475  0.2623  0.0994 -0.7784
   16MPD2    H7  259   2.321   0.918   1.541  0.7291 -0.3104 -0.0857
   17TMC1    C1  260   0.398   1.750  11.579 -0.1084 -0.9214 -0.1737
   17TMC1    C2  261   0.482   1.652  11.628  0.4689  0.4985  0.4945
   17TMC1    C3  262   0.425   1.576  11.727 -0.8239 -0.5764  0.0253
   17TMC1    C4  263   0.270   1.758  11.609  0.6805 -0.4829 -0.0212
   17TMC1    C5  264   0.225   1.684  11.710 -0.2372 -0.2586  0.4969
   17TMC1    C6  265   0.303   1.601  11.781  0.2161 -0.0101  0.7610
   17TMC1     C  266   0.436   1.819  11.453  0.2795  0.1735 -0.2769
   17TMC1     O  267   0.350   1.891  11.404 -0.7119  0.3614  0.2075
   17TMC1     H  268   0.589   1.640  11.614  0.2198  0.4681 -1.3468
   17TMC1    H1  269   0.208   1.833  11.562  1.1825  0.7742  1.3092
   17TMC1    H2  270   0.256   1.537  11.854 -1.3916  1.1483  0.7452
   17TMC1    C7  271   0.096   1.708  11.767  0.1962  0.1036  0.3661
   17TMC1    C8  272   0.509   1.473  11.784 -0.4587  0.5623 -0.0797
   17TMC1    O1  273   0.065   1.678  11.880 -0.0793  0.0511  0.3162
   17TMC1    O2  274   0.463   1.374  11.835  0.1187 -0.0860  0.2038
   17TMC1    O3  275   0.001   1.727  11.673 -0.1282  0.2814  0.1460
   17TMC1    H3  276   0.030   1.739  11.580  1.1301 -1.1840  0.3589
   17TMC1    O5  277   0.619   1.532  11.836  0.4109  0.4386  0.3766
   17TMC1    H5  278   0.624   1.627  11.814  0.8416  0.4870  0.6778
   18MPD2     C  279   0.595   1.965  11.238 -0.0140 -0.4744 -0.3722
   18MPD2    C1  280   0.636   1.849  11.304 -0.8913 -0.2138  0.3030
   18MPD2    C2  281   0.768   1.801  11.282 -0.4377  0.0827  0.4176
   18MPD2    C3  282   0.857   1.860  11.196  0.2306  0.2347  0.0675
   18MPD2    C4  283   0.813   1.977  11.142 -0.2898  0.5240 -0.0747
   18MPD2    C5  284   0.685   2.023  11.163 -0.7086 -0.1371 -0.0894
   18MPD2     H  285   0.794   1.720  11.350  0.6987 -0.0928 -0.2274
   18MPD2    H1  286   0.875   2.022  11.066 -1.5037  0.9046 -0.8422
   18MPD2    H2  287   0.504   2.019  11.263 -0.3631 -1.8850  1.3719
   18MPD2    H3  288   0.667   2.120  11.118 -0.8013  0.1830  0.6328
   18MPD2     N  289   0.991   1.823  11.176  0.2938 -0.0348 -0.3129
   18MPD2    H5  290   1.037   1.888  11.113  1.9629 -0.6782  0.2464
   18MPD2    N1  291   0.564   1.784  11.410  0.3134 -0.3064 -0.1186
   18MPD2    H7  292   0.611   1.711  11.462  1.0046 -0.7927 -1.4252
   19TMC2    C1  293   2.134   2.987  14.346 -0.3584  1.1609  0.2030
   19TMC2    C2  294   2.056   3.096  14.313  0.1954 -0.1443 -0.0758
   19TMC2    C3  295   1.919   3.091  14.314  0.0569 -0.1310  0.3337
   19TMC2    C4  296   2.076   2.873  14.369 -0.1520 -0.0937 -0.1171
   19TMC2    C5  297   1.938   2.869  14.382 -0.4033  0.7530 -0.1796
   19TMC2    C6  298   1.856   2.979  14.354  0.2016 -1.0130 -0.4496
   19TMC2     C  299   2.268   2.993  14.286 -0.5684 -0.7214 -0.2817
   19TMC2     O  300   2.294   3.100  14.233  0.4771 -0.5046 -0.0207
   19TMC2     H  301   2.101   3.187  14.276  0.7312 -0.5851 -0.5089
   19TMC2    H1  302   2.136   2.782  14.371 -1.3741 -0.8653  1.3916
   19TMC2    H2  303   1.753   2.980  14.389  0.0366  2.1994 -1.0897
   19TMC2    C7  304   1.870   2.742  14.390  0.4798  0.0363  0.0825
   19TMC2    C8  305   1.838   3.213  14.300  0.3482 -0.0389  0.2938
   19TMC2    O1  306   1.930   2.657  14.454 -0.0839 -0.3355  0.4187
   19TMC2    O2  307   1.876   3.326  14.335 -0.3129 -0.4900 -0.1077
   19TMC2    O5  308   1.741   3.189  14.214 -0.3288  0.4920  0.0365
   19TMC2    H5  309   1.719   3.093  14.204 -0.4898  0.4371  0.9363
   20MPD2     C  310   2.522   2.923  14.145 -0.1570 -0.5841  0.3228
   20MPD2    C1  311   2.466   2.841  14.237  0.5151  0.2373 -0.0297
   20MPD2    C2  312   2.518   2.717  14.254  0.6490  0.6501 -0.5439
   20MPD2    C3  313   2.637   2.664  14.194  0.1114  0.1266  0.5465
   20MPD2    C4  314   2.694   2.763  14.106  0.1885 -0.2460 -0.0663
   20MPD2    C5  315   2.637   2.885  14.085 -0.3576 -0.2308 -0.1109
   20MPD2     H  316   2.468   2.659  14.331  0.1191 -1.6574 -2.5972
   20MPD2    H1  317   2.788   2.745  14.056 -0.4094  2.2873 -2.0711
   20MPD2    H2  318   2.491   3.024  14.121  1.3254  0.4753  2.7666
   20MPD2    H3  319   2.678   2.953  14.011  1.0100  1.4454  2.1603
   20MPD2     N  320   2.707   2.551  14.243 -0.1461  0.5986 -0.1605
   20MPD2    H5  321   2.774   2.512  14.178  0.9949  1.7381  0.3366
   20MPD2    N1  322   2.342   2.875  14.297  0.3955 -0.2815 -0.0541
   20MPD2    H7  323   2.301   2.804  14.356 -0.5337 -0.2921 -0.7157
   21TMC2    C1  324   4.668   2.469  13.759 -0.1795  0.0669  0.1521
   21TMC2    C2  325   0.063   2.425  13.763  0.4606  0.0541 -0.5266
   21TMC2    C3  326   0.100   2.338  13.862  0.1633 -0.6784 -0.0955
   21TMC2    C4  327   4.578   2.417  13.845 -0.1578  0.9091 -0.2966
   21TMC2    C5  328   4.616   2.328  13.933 -0.3576 -0.6675  0.0297
   21TMC2    C6  329   0.006   2.280  13.942 -0.6773 -0.2061 -0.4105
   21TMC2     C  330   4.635   2.584  13.678  0.0857 -0.2365  0.1618
   21TMC2     O  331   4.660   2.553  13.564 -0.3089  0.1386  0.4910
   21TMC2     H  332   0.140   2.466  13.698  0.3299 -0.7109 -1.1640
   21TMC2    H1  333   4.473   2.438  13.830 -0.5875 -2.3753 -1.9586
   21TMC2    H2  334   0.036   2.207  14.016 -3.0121 -1.7880 -1.0247
   21TMC2    C7  335   4.538   2.298  14.052  0.1154  0.4463  0.6308
   21TMC2    C8  336   0.242   2.302  13.886 -1.1217  0.2056  0.4524
   21TMC2    O1  337   4.589   2.219  14.133 -0.2635 -0.4809 -0.2980
   21TMC2    O2  338   0.287   2.317  14.004  0.3463 -0.0658 -0.2093
   21TMC2    O5  339   0.300   2.294  13.765  0.1475 -0.1806 -0.8592
   21TMC2    H5  340   0.226   2.273  13.704 -1.9598  1.8568  1.0151
   22MPD2     C  341   4.408   2.722  14.121  0.3359 -0.2184 -0.1297
   22MPD2    C1  342   4.540   2.691  14.097  0.1133  0.5182 -0.1310
   22MPD2    C2  343   4.581   2.691  13.967 -0.4902 -0.1423 -0.6578
   22MPD2    C3  344   4.500   2.707  13.858 -0.8269 -0.2386 -0.1457
   22MPD2    C4  345   4.375   2.748  13.886  0.1273  0.2637  0.3778
   22MPD2    C5  346   4.328   2.755  14.016  0.3949  0.5402  0.2218
   22MPD2     H  347   4.685   2.660  13.960 -1.3128 -2.6062 -1.8448
   22MPD2    H1  348   4.304   2.766  13.806  0.3794 -0.0474  0.0825
   22MPD2    H2  349   4.364   2.725  14.220 -1.2078  0.1069 -0.8232
   22MPD2    H3  350   4.225   2.780  14.039 -0.2938 -1.4865 -0.6235
   22MPD2     N  351   4.535   2.678  13.720 -0.6996 -0.5076 -0.8170
   22MPD2    H5  352   4.469   2.716  13.653 -1.6235  0.8815  0.8621
   22MPD2    N1  353   4.630   2.653  14.204 -0.5205 -0.0363 -0.2113
   22MPD2    H7  354   4.713   2.602  14.176  0.0983  0.9768 -0.2314
   23TMC2    C1  355   0.906   3.864  14.530  0.2616 -0.1275 -0.1693
   23TMC2    C2  356   0.870   3.993  14.524 -0.1506  0.3470  0.6405
   23TMC2    C3  357   0.733   4.014  14.510  0.3022 -1.1408  0.3311
   23TMC2    C4  358   0.819   3.759  14.509 -0.2413 -0.7798  0.2496
   23TMC2    C5  359   0.688   3.787  14.476  0.1867 -0.6308 -0.3865
   23TMC2    C6  360   0.645   3.917  14.473  0.0319  0.3792 -0.0755
   23TMC2     C  361   1.019   3.830  14.619  0.1796  0.3695 -0.2288
   23TMC2     O  362   1.002   3.728  14.682  0.1202  0.8759  0.1735
   23TMC2     H  363   0.933   4.061  14.580 -1.5677 -0.2569  2.9830
   23TMC2    H1  364   0.857   3.660  14.529  1.0044 -0.6801 -1.7200
   23TMC2    H2  365   0.542   3.944  14.451 -1.1900 -3.8695  0.4213
   23TMC2    C7  366   0.597   3.668  14.472 -0.3657  0.1297  0.0277
   23TMC2    C8  367   0.671   4.148  14.529 -0.7039  0.5060 -0.2751
   23TMC2    O1  368   0.651   3.560  14.469 -0.6734  0.7280  0.0357
   23TMC2    O2  369   0.552   4.156  14.521 -0.2594 -1.0485 -0.1961
   23TMC2    O5  370   0.765   4.243  14.518  0.0908 -0.1195 -0.3686
   23TMC2    H5  371   0.858   4.213  14.509 -0.7356 -2.7177 -0.2346
   24MPD2     C  372   1.379   3.984  14.939  0.2958 -0.3883  0.1074
   24MPD2    C1  373   1.339   3.860  14.912  0.3060 -0.6408 -0.5507
   24MPD2    C2  374   1.250   3.835  14.812 -0.9156 -0.1263 -0.4451
   24MPD2    C3  375   1.206   3.938  14.735  1.4806 -0.2891 -0.3136
   24MPD2    C4  376   1.263   4.065  14.758 -0.3843 -0.4416  0.2669
   24MPD2    C5  377   1.348   4.086  14.859 -0.6117  0.0346 -0.1960
   24MPD2     H  378   1.209   3.736  14.800  0.3925 -0.6883 -0.3311
   24MPD2    H1  379   1.232   4.154  14.704  0.9999 -0.4026 -0.4517
   24MPD2    H2  380   1.450   3.996  15.020 -1.7073  0.5401  1.7442
   24MPD2    H3  381   1.393   4.183  14.876  0.3017 -0.4259  0.0181
   24MPD2     N  382   1.112   3.927  14.634 -0.1789  0.3660  0.3907
   24MPD2    H5  383   1.103   4.004  14.568  0.4107  0.3262  0.2627
   24MPD2    N1  384   1.390   3.754  14.993  0.1016  0.0731  0.0684
   24MPD2    H7  385   1.446   3.788  15.070 -1.3040  0.5062  0.8973
   25TMC2    C1  386   0.135   0.572  11.802 -0.3088  0.0310  0.2435
   25TMC2    C2  387   0.244   0.567  11.880  0.5610  0.2898 -0.1136
   25TMC2    C3  388   0.313   0.684  11.903 -0.3755  0.5087 -0.3499
   25TMC2    C4  389   0.095   0.690  11.741  0.1949 -0.4372 -0.1372
   25TMC2    C5  390   0.143   0.812  11.793  0.1060  0.0845  0.3411
   25TMC2    C6  391   0.262   0.807  11.860  0.2648  0.2983 -0.1396
   25TMC2     C  392   0.023   0.494  11.855 -0.2508  0.1551  0.2288
   25TMC2     O  393   0.041   0.442  11.965 -0.4568  0.2067 -0.1636
   25TMC2     H  394   0.267   0.474  11.930 -1.5479  0.1484  0.5791
   25TMC2    H1  395   0.010   0.700  11.674  0.8692  1.3377 -0.7351
   25TMC2    H2  396   0.303   0.898  11.902 -1.0704  0.8430  0.0134
   25TMC2    C7  397   0.040   0.905  11.843 -0.6210 -0.3206  0.0821
   25TMC2    C8  398   0.347   0.668  12.043 -0.4052 -0.3175 -0.6923
   25TMC2    O1  399   0.062   0.974  11.942 -0.3951  0.2053  0.2388
   25TMC2    O2  400   0.262   0.638  12.126 -0.0942 -0.3977  0.1232
   25TMC2    O5  401   0.433   0.769  12.056 -0.4307  0.4688  0.5234
   25TMC2    H5  402   0.479   0.789  11.972  2.3282 -0.5370  1.8147
   26MPD2     C  403   4.274   0.369  11.920  0.1128  0.2264  0.0389
   26MPD2    C1  404   4.289   0.404  11.787  0.5137 -1.0264 -0.6844
   26MPD2    C2  405   4.411   0.455  11.744 -1.1280 -0.3504  0.0183
   26MPD2    C3  406   4.513   0.469  11.836 -0.6131  0.1698 -0.0431
   26MPD2    C4  407   4.491   0.437  11.972  0.1561 -0.6286 -0.1664
   26MPD2    C5  408   4.366   0.392  12.012 -0.2119  0.5561 -0.5652
   26MPD2     H  409   4.440   0.457  11.639  2.3791 -2.3224  0.9744
   26MPD2    H1  410   4.562   0.461  12.050  0.1167  1.5091 -0.7939
   26MPD2    H2  411   4.181   0.338  11.966  1.5377 -3.4150  0.5257
   26MPD2    H3  412   4.360   0.349  12.111 -0.7871  0.3834 -0.6740
   26MPD2     N  413   4.637   0.509  11.784 -0.4425 -0.6319 -0.1750
   26MPD2    H5  414   4.641   0.543  11.688 -1.0216 -2.7640 -0.9569
   26MPD2    N1  415   4.183   0.379  11.696  0.1494  0.2428  0.4360
   26MPD2    H7  416   4.097   0.331  11.724  0.5076 -1.3913 -1.3098
   27TMC2    C1  417   3.484   3.370  11.915  0.1612 -0.1214 -0.5930
   27TMC2    C2  418   3.516   3.342  11.788  0.3310 -0.8597 -0.0498
   27TMC2    C3  419   3.617   3.412  11.734  0.5164 -0.0333 -0.4169
   27TMC2    C4  420   3.548   3.468  11.986 -0.2037 -0.2913  0.1497
   27TMC2    C5  421   3.644   3.543  11.929 -0.2976 -0.4144 -0.3514
   27TMC2    C6  422   3.679   3.518  11.799  0.6653  0.1821 -0.1721
   27TMC2     C  423   3.408   3.268  11.989 -0.0745 -0.8270 -0.7730
   27TMC2     O  424   3.339   3.300  12.088 -0.2742  0.4135  0.9949
   27TMC2     H  425   3.469   3.270  11.724 -0.9705  1.1479 -1.3517
   27TMC2    H1  426   3.498   3.489  12.079  1.3455  0.9523  0.7080
   27TMC2    H2  427   3.773   3.561  11.765  0.9107  0.7233  1.2118
   27TMC2    C7  428   3.741   3.604  12.017  0.4463  0.2533 -0.2750
   27TMC2    C8  429   3.624   3.386  11.592 -0.7228 -1.0476  0.5370
   27TMC2    O1  430   3.845   3.644  11.972  0.0679 -0.0275  0.0221
   27TMC2    O2  431   3.546   3.310  11.535 -0.1544  0.5911  0.1829
   27TMC2    O5  432   3.740   3.433  11.543 -0.2923 -0.5220  0.1452
   27TMC2    H5  433   3.802   3.480  11.602  2.0768 -1.6560 -1.4045
   28MPD2     C  434   3.510   2.821  12.238  0.0253  0.1079  0.5432
   28MPD2    C1  435   3.417   2.914  12.260 -0.3307  0.2146  0.6018
   28MPD2    C2  436   3.404   3.021  12.172 -0.1644  0.3564  0.0176
   28MPD2    C3  437   3.487   3.036  12.063 -0.0655  0.8958 -0.4844
   28MPD2    C4  438   3.576   2.933  12.032 -0.0104 -0.2641 -0.0457
   28MPD2    C5  439   3.588   2.832  12.125 -0.2101 -0.3447  0.1064
   28MPD2     H  440   3.319   3.088  12.179  0.8737  1.4633  1.9396
   28MPD2    H1  441   3.636   2.916  11.943  1.6597 -0.1489  1.0718
   28MPD2    H2  442   3.527   2.730  12.294  1.3118 -0.5230 -0.8802
   28MPD2    H3  443   3.661   2.755  12.103  0.7173  0.1564  1.4171
   28MPD2     N  444   3.477   3.150  11.978  0.6218  0.4508  0.2767
   28MPD2    H5  445   3.553   3.160  11.912  1.5752 -2.3579  0.9727
   28MPD2    N1  446   3.344   2.903  12.376 -0.2882  0.2892  0.3199
   28MPD2    H7  447   3.357   2.822  12.436 -0.7747 -1.2406 -1.6454
   29TMC2    C1  448   3.247   0.915  14.482  0.8389 -0.1656  0.3201
   29TMC2    C2  449   3.292   0.962  14.602  0.0199 -0.3115  0.6084
   29TMC2    C3  450   3.367   1.074  14.593  0.6441  0.0313 -0.6083
   29TMC2    C4  451   3.256   0.977  14.367  0.2833  0.8604 -0.2096
   29TMC2    C5  452   3.346   1.082  14.360  0.0030  0.1956 -0.9453
   29TMC2    C6  453   3.407   1.131  14.471 -0.0976  0.5457 -0.3248
   29TMC2     C  454   3.201   0.779  14.490  0.0285  0.2262  0.0636
   29TMC2     O  455   3.209   0.725  14.599  0.0247 -0.0349 -0.0170
   29TMC2     H  456   3.272   0.903  14.691  1.6666  0.3842  1.4432
   29TMC2    H1  457   3.212   0.939  14.275 -0.0236  1.5396 -0.3396
   29TMC2    H2  458   3.465   1.222  14.473 -0.4078  0.6851  3.3469
   29TMC2    C7  459   3.393   1.137  14.237 -0.0799  0.3771 -0.4845
   29TMC2    C8  460   3.451   1.110  14.707  0.1326  0.0264 -0.5649
   29TMC2    O1  461   3.380   1.073  14.137 -0.1577 -0.2946 -0.3615
   29TMC2    O2  462   3.522   1.209  14.708  0.3674  0.7033 -0.3909
   29TMC2    O5  463   3.438   1.025  14.815 -0.5606 -0.4154 -0.2719
   29TMC2    H5  464   3.389   0.940  14.806 -0.9506 -0.2493  0.3085
   30MPD2     C  465   3.028   0.345  14.288  0.4191 -0.8690  0.3526
   30MPD2    C1  466   3.107   0.371  14.397 -0.5608  0.2370  0.3279
   30MPD2    C2  467   3.140   0.505  14.430  0.0752  0.1362 -0.3939
   30MPD2    C3  468   3.099   0.601  14.349  0.1217 -0.6412  0.4001
   30MPD2    C4  469   3.014   0.573  14.246 -0.0520 -0.9757  0.7964
   30MPD2    C5  470   2.976   0.444  14.213  0.5353  0.3711 -0.7771
   30MPD2     H  471   3.191   0.526  14.523 -1.2571  3.6164 -0.4282
   30MPD2    H1  472   2.976   0.652  14.182 -0.2575 -1.6262  0.1174
   30MPD2    H2  473   2.985   0.248  14.265 -0.6524 -0.4476  0.5487
   30MPD2    H3  474   2.913   0.415  14.130  0.2976  0.0638 -0.4873
   30MPD2     N  475   3.135   0.729  14.375  0.4235  0.4139 -0.3506
   30MPD2    H5  476   3.108   0.798  14.305  1.4535 -1.4658 -2.6009
   30MPD2    N1  477   3.162   0.275  14.484  0.0582  0.2920 -0.4095
   30MPD2    H7  478   3.215   0.306  14.565  0.4476 -0.6255 -0.3118
   31TMC2    C1  479   1.083   4.631  15.525  0.0952 -0.1317  0.0322
   31TMC2    C2  480   0.989   4.723  15.560  0.2212  0.2942  0.1759
   31TMC2    C3  481   0.975   0.022  15.695  0.6290 -0.3604  0.0179
   31TMC2    C4  482   1.160   4.560  15.620 -0.3983  0.0428  0.2896
   31TMC2    C5  483   1.139   4.595  15.751 -0.0749  0.1677  0.0806
   31TMC2    C6  484   1.046   4.693  15.796 -1.3404  0.1915 -0.7744
   31TMC2     C  485   1.123   4.629  15.387 -0.1669  0.4369 -0.4871
   31TMC2     O  486   1.061   4.713  15.320 -0.2710 -0.1653  0.8903
   31TMC2     H  487   0.939   0.058  15.493  0.7085  0.8060  0.3433
   31TMC2    H1  488   1.240   4.492  15.594  0.8760  1.3557  0.7242
   31TMC2    H2  489   1.028   4.712  15.901 -0.4156 -0.9590 -0.4048
   31TMC2    C7  490   1.210   4.515  15.848  0.8667  0.0220  0.1409
   31TMC2    C8  491   0.858   0.089  15.735 -0.5146 -0.2179 -0.3946
   31TMC2    O1  492   1.236   4.396  15.830 -0.3738 -0.0546  0.1955
   31TMC2    O2  493   0.853   0.138  15.846  0.4001 -0.2585 -0.5266
   31TMC2    O5  494   0.747   0.055  15.659  0.1247  0.6647  0.0406
   31TMC2    H5  495   0.769   0.032  15.566  0.7198 -2.6342  1.0177
   32MPD2     C  496   1.437   4.538  14.996 -0.4798 -0.2789 -0.2832
   32MPD2    C1  497   1.346   4.642  15.008 -0.2720  0.5156  0.6025
   32MPD2    C2  498   1.259   4.635  15.118 -0.0823 -0.1750 -0.0178
   32MPD2    C3  499   1.269   4.531  15.217  0.3065  0.7793  0.2039
   32MPD2    C4  500   1.369   4.434  15.194  0.4804 -0.3913  0.2270
   32MPD2    C5  501   1.442   4.433  15.081  0.2801  0.2079 -0.1346
   32MPD2     H  502   1.185   4.713  15.130  0.5249  0.0801  2.1504
   32MPD2    H1  503   1.385   4.354  15.266 -0.3877 -2.0999 -1.4606
   32MPD2    H2  504   1.497   4.530  14.907 -0.4633 -1.9796 -0.1203
   32MPD2    H3  505   1.520   4.364  15.052  0.2981 -0.7065  2.1301
   32MPD2     N  506   1.224   4.537  15.348 -0.3481  0.7028 -0.0784
   32MPD2    H5  507   1.252   4.465  15.414 -0.7303  1.0690  0.4861
   32MPD2    N1  508   1.354   0.009  14.913 -0.0801 -0.0958 -0.6396
   32MPD2    H7  509   1.433   0.005  14.849 -0.3462  2.9430 -1.1805
   33TMC2    C1  510   1.109   2.258  10.472  0.6980  0.6842  0.3986
   33TMC2    C2  511   1.006   2.176  10.432  0.2538  0.8511 -0.3027
   33TMC2    C3  512   0.908   2.241  10.356  0.0180 -0.2812 -0.1054
   33TMC2    C4  513   1.122   2.396  10.445  0.1738  0.5506  0.0676
   33TMC2    C5  514   1.025   2.447  10.358  1.1180 -0.2049  0.2727
   33TMC2    C6  515   0.917   2.374  10.328 -1.1244  0.4265 -0.1320
   33TMC2     C  516   1.171   2.208  10.597 -0.7215  0.3920  0.7369
   33TMC2     O  517   1.132   2.095  10.637 -0.1472 -0.0344  0.1021
   33TMC2     H  518   1.000   2.074  10.468 -0.2314  0.4239 -1.5828
   33TMC2    H1  519   1.205   2.453  10.487 -0.6899  1.2528  0.8475
   33TMC2    H2  520   0.830   2.418  10.280  0.1340  0.4755 -2.3950
   33TMC2    C7  521   1.033   2.595  10.346  0.6041 -0.6161 -0.0027
   33TMC2    C8  522   0.801   2.171  10.297 -0.4597  0.4854  1.1421
   33TMC2    O1  523   1.144   2.650  10.354 -0.1024  0.0256 -0.4924
   33TMC2    O2  524   0.687   2.211  10.294  0.0170  0.3108  0.9642
   33TMC2    O5  525   0.851   2.045  10.282 -0.2531  0.0724  0.5441
   33TMC2    H5  526   0.948   2.045  10.291  0.1996 -1.6997 -4.4916
   34MPD2     C  527   1.474   2.206  11.014 -0.2422 -0.1456 -0.1118
   34MPD2    C1  528   1.418   2.102  10.945 -0.1584 -0.4505  0.0200
   34MPD2    C2  529   1.353   2.133  10.822 -0.3901  0.5666  0.2760
   34MPD2    C3  530   1.357   2.259  10.761 -0.0465  0.5668 -0.2771
   34MPD2    C4  531   1.420   2.356  10.832 -0.4019  0.3571 -0.3736
   34MPD2    C5  532   1.485   2.328  10.949 -0.1980 -0.1368  0.1412
   34MPD2     H  533   1.310   2.050  10.767 -0.1379  1.2477 -0.9527
   34MPD2    H1  534   1.426   2.459  10.797 -1.1431  0.5820  0.1408
   34MPD2    H2  535   1.526   2.194  11.108  2.4394 -0.2346 -1.6214
   34MPD2    H3  536   1.548   2.402  10.996 -0.1630 -0.1523  0.1182
   34MPD2     N  537   1.276   2.288  10.646  0.2699 -0.1944 -0.7780
   34MPD2    H5  538   1.278   2.382  10.607  0.5084  0.7963  1.6213
   34MPD2    N1  539   1.408   1.968  10.996  0.0108 -0.5824 -0.2713
   34MPD2    H7  540   1.427   1.945  11.093  2.0801 -1.7142 -0.9534
   35TMC2    C1  541   2.210   3.494  11.345  0.3549 -0.2398  0.4434
   35TMC2    C2  542   2.122   3.549  11.251  0.3391 -0.2704 -0.2225
   35TMC2    C3  543   2.000   3.491  11.235  0.8722 -0.4065 -0.6996
   35TMC2    C4  544   2.166   3.391  11.426 -0.1720 -0.6266 -0.3496
   35TMC2    C5  545   2.040   3.335  11.408  0.0796  0.2569 -0.1493
   35TMC2    C6  546   1.957   3.380  11.306 -0.3207 -0.6975  0.4852
   35TMC2     C  547   2.301   3.594  11.404  0.2885  0.1102 -0.1945
   35TMC2     O  548   2.276   3.713  11.377 -0.3144  0.3202 -0.5684
   35TMC2     H  549   2.167   3.621  11.184 -1.9670  0.5746 -0.8455
   35TMC2    H1  550   2.242   3.345  11.488 -0.6075 -1.7607 -0.6679
   35TMC2    H2  551   1.857   3.345  11.287 -1.1912  1.8987  0.3711
   35TMC2    C7  552   2.006   3.207  11.458  0.0567  0.4898  0.1539
   35TMC2    C8  553   1.922   3.531  11.122 -0.4721  0.6919 -0.4828
   35TMC2    O1  554   1.899   3.160  11.423  0.2450 -0.1638  0.0257
   35TMC2    O2  555   1.817   3.472  11.096  0.5782  0.8645 -0.0957
   35TMC2    O5  556   1.940   3.659  11.091 -0.4560 -0.3913  0.0822
   35TMC2    H5  557   2.003   3.696  11.156  1.3648 -1.2333 -1.2004
   36MPD2     C  558   2.704   3.749  11.705  0.4878  0.1219  0.3264
   36MPD2    C1  559   2.693   3.613  11.711  0.9749  0.0674  0.2252
   36MPD2    C2  560   2.588   3.545  11.641  0.2279 -0.3453 -0.2029
   36MPD2    C3  561   2.498   3.617  11.563 -0.1312 -0.0069  0.2047
   36MPD2    C4  562   2.509   3.753  11.562 -0.8405  0.4315  0.2635
   36MPD2    C5  563   2.612   3.817  11.630 -0.0529  0.5162 -0.4625
   36MPD2     H  564   2.585   3.438  11.656  0.8376 -0.7771 -3.2451
   36MPD2    H1  565   2.441   3.821  11.512 -1.8342 -0.3078  0.6343
   36MPD2    H2  566   2.784   3.801  11.757 -0.6597  1.3139  0.9074
   36MPD2    H3  567   2.626   3.923  11.613  1.7175  0.4754  0.7788
   36MPD2     N  568   2.396   3.549  11.489  0.2163 -0.2277 -0.4308
   36MPD2    H5  569   2.408   3.449  11.497 -1.1730 -0.6451 -3.2730
   36MPD2    N1  570   2.786   3.553  11.802  0.1018 -0.5950 -0.4119
   36MPD2    H7  571   2.850   3.622  11.837 -0.9317  0.8914 -1.4282
   37TMC2    C1  572   4.041   3.986  11.889 -0.3228  0.5063 -0.4013
   37TMC2    C2  573   3.914   3.944  11.870 -0.6324  0.0583 -0.0845
   37TMC2    C3  574   3.862   3.933  11.743  0.8773 -0.0431 -0.0635
   37TMC2    C4  575   4.115   4.012  11.775 -0.1114 -0.4006 -0.3551
   37TMC2    C5  576   4.064   3.990  11.652  0.0193  0.7879 -0.8663
   37TMC2    C6  577   3.940   3.941  11.630  0.1709 -0.0398  0.0480
   37TMC2     C  578   4.098   4.008  12.018 -0.9283 -0.1637  0.0030
   37TMC2     O  579   4.017   4.025  12.111  0.0969  0.0367  0.2262
   37TMC2     H  580   3.853   3.916  11.955 -2.3822 -0.0228 -1.3675
   37TMC2    H1  581   4.216   4.051  11.779 -0.2636 -0.3206  2.5783
   37TMC2    H2  582   3.896   3.939  11.531 -0.2359  0.1307  0.2245
   37TMC2    C7  583   4.157   3.971  11.545 -0.1291  0.7442  0.3461
   37TMC2    C8  584   3.741   3.866  11.702  0.2008  0.6611 -0.2205
   37TMC2    O1  585   4.269   3.950  11.583  0.2807 -0.4571  0.2677
   37TMC2    O2  586   3.715   3.816  11.595  0.2426  0.3420 -0.4341
   37TMC2    O5  587   3.665   3.853  11.817  0.5011  0.1448  0.2250
   37TMC2    H5  588   3.685   3.910  11.894 -1.3716 -0.5406  1.2207
   38MPD2     C  589   4.488   3.946  12.366 -0.6344 -0.2994  1.0588
   38MPD2    C1  590   4.525   3.911  12.241 -0.6618 -0.2758  0.6695
   38MPD2    C2  591   4.446   3.931  12.130 -0.1718 -0.9345 -0.7853
   38MPD2    C3  592   4.318   3.970  12.136 -0.5239 -0.5742 -0.8296
   38MPD2    C4  593   4.271   3.993  12.265 -0.0615 -0.3909 -0.1730
   38MPD2    C5  594   4.355   3.983  12.377  0.2349 -0.0823 -0.2862
   38MPD2     H  595   4.491   3.915  12.032 -0.4596  1.0569 -1.2468
   38MPD2    H1  596   4.168   4.025  12.281 -0.3798 -1.0743 -0.8659
   38MPD2    H2  597   4.563   3.950  12.445 -1.3874  0.8073  1.7172
   38MPD2    H3  598   4.308   4.010  12.470  0.0682 -0.0871 -0.3694
   38MPD2     N  599   4.229   3.969  12.021 -0.9811 -0.2903 -0.7236
   38MPD2    H5  600   4.281   3.940  11.938 -1.2773  0.9091 -1.3184
   38MPD2    N1  601   4.642   3.838  12.219  0.5104  0.4086 -0.0798
   38MPD2    H7  602   4.675   3.836  12.123  1.1155  0.1951  0.1350
   39TMC2    C1  603   2.912   0.441   1.513 -0.2582 -0.4730 -0.5422
   39TMC2    C2  604   2.824   0.460   1.619 -0.7308  0.5902  0.3355
   39TMC2    C3  605   2.861   0.505   1.744  0.1767 -0.0859 -0.7171
   39TMC2    C4  606   3.035   0.503   1.527  0.0450 -0.2327 -0.1470
   39TMC2    C5  607   3.057   0.582   1.644  0.8597 -0.2666  0.7005
   39TMC2    C6  608   2.975   0.578   1.748 -0.3213 -0.3826 -0.1804
   39TMC2     C  609   2.866   0.393   1.383 -0.5089  0.5362 -0.5672
   39TMC2     O  610   2.749   0.362   1.379 -0.0401  0.1486 -0.1415
   39TMC2     H  611   2.721   0.430   1.607 -1.4043  2.2757  1.7753
   39TMC2    H1  612   3.114   0.500   1.454 -0.1179 -1.8653 -0.2436
   39TMC2    H2  613   3.004   0.635   1.835 -3.4126  0.5841  0.2303
   39TMC2    C7  614   3.183   0.655   1.659  0.5533 -0.4676  0.6332
   39TMC2    C8  615   2.750   0.542   1.830 -0.7348  0.0095  0.0691
   39TMC2    O1  616   3.228   0.669   1.774 -0.2799 -0.2593 -0.2676
   39TMC2    O2  617   2.640   0.549   1.778  0.4919 -1.2652 -0.2277
   39TMC2    O5  618   2.793   0.601   1.944 -0.1055  0.0046  0.0938
   39TMC2    H5  619   2.882   0.578   1.979  0.1963 -0.6087 -1.0572
   40MPD2     C  620   3.042   0.302   1.067 -0.0741  0.4298  0.5683
   40MPD2    C1  621   2.936   0.349   1.154  0.9463 -0.3492 -0.1855
   40MPD2    C2  622   2.818   0.394   1.099 -0.3426 -0.1620  0.4797
   40MPD2    C3  623   2.800   0.389   0.966  0.0526  0.4106 -0.3338
   40MPD2    C4  624   2.894   0.332   0.882 -0.1595  0.1472  0.0678
   40MPD2    C5  625   3.016   0.296   0.931  0.3209 -0.4939 -0.3904
   40MPD2     H  626   2.746   0.447   1.160 -0.9949  0.7825 -1.1155
   40MPD2    H1  627   2.884   0.335   0.775  2.8451  0.6153 -0.2005
   40MPD2    H2  628   3.133   0.266   1.114 -0.8072 -2.2374 -0.0141
   40MPD2    H3  629   3.095   0.260   0.866 -2.3521 -4.2327 -1.6265
   40MPD2     N  630   2.687   0.455   0.905  0.0092 -0.4649 -0.0796
   40MPD2    H5  631   2.672   0.442   0.806  0.4515  0.0138 -0.2085
   40MPD2    N1  632   2.964   0.380   1.286  0.2675  0.4819  0.4833
   40MPD2    H7  633   3.062   0.375   1.312  0.2707  0.1304  0.4132
   41TMC2    C1  634   1.573   3.572  13.220  0.0984  0.0751  0.5294
   41TMC2    C2  635   1.700   3.564  13.271 -0.5911  0.7482  0.3316
   41TMC2    C3  636   1.808   3.593  13.189  0.0198 -0.0771 -0.2219
   41TMC2    C4  637   1.551   3.612  13.090 -0.3868  0.5710  0.0813
   41TMC2    C5  638   1.657   3.632  13.013  0.0892 -0.4197 -0.0406
   41TMC2    C6  639   1.786   3.620  13.059  0.3103 -0.2846 -0.0016
   41TMC2     C  640   1.467   3.564  13.311  0.1268  0.0378 -0.8307
   41TMC2     O  641   1.358   3.548  13.263 -0.4099  0.1380 -0.1040
   41TMC2     H  642   1.715   3.523  13.370 -2.1052 -2.5877 -0.7963
   41TMC2    H1  643   1.454   3.619  13.043 -0.8333  0.5565  0.9975
   41TMC2    H2  644   1.874   3.638  12.998  0.0279  0.7660 -0.1009
   41TMC2    C7  645   1.630   3.646  12.866 -0.0104  0.1426 -0.4552
   41TMC2    C8  646   1.943   3.580  13.246  0.0254  0.2867 -0.0882
   41TMC2    O1  647   1.520   3.683  12.824  0.0681 -0.2265  0.3500
   41TMC2    O2  648   1.962   3.590  13.368  0.0340  0.1052  0.6041
   41TMC2    O5  649   2.017   3.498  13.167 -0.4788  0.6893 -0.4648
   41TMC2    H5  650   1.994   3.484  13.073 -0.3523  1.0007 -0.5415
   42MPD2     C  651   1.261   3.611  13.526 -0.3278 -0.5887 -0.3214
   42MPD2    C1  652   1.399   3.626  13.541 -0.4842  0.0235 -0.0350
   42MPD2    C2  653   1.453   3.661  13.661  0.5198  0.5355  0.3378
   42MPD2    C3  654   1.377   3.674  13.773  0.4702 -0.1865  0.2815
   42MPD2    C4  655   1.239   3.667  13.759  0.6328  0.2622 -0.5902
   42MPD2    C5  656   1.186   3.636  13.637 -0.5772 -0.1108  1.1980
   42MPD2     H  657   1.561   3.657  13.655  0.4230  0.7054 -1.7281
   42MPD2    H1  658   1.171   3.679  13.842 -1.5761  0.3004 -2.3939
   42MPD2    H2  659   1.218   3.584  13.431 -0.1548 -2.3075  0.0728
   42MPD2    H3  660   1.079   3.624  13.624  0.1783 -3.9530 -1.5861
   42MPD2     N  661   1.422   3.716  13.904  0.2826  0.3579 -0.0163
   42MPD2    H5  662   1.358   3.754  13.973  2.2991  1.8223  1.0215
   42MPD2    N1  663   1.493   3.608  13.434 -0.2673 -0.0187 -0.1925
   42MPD2    H7  664   1.589   3.617  13.465 -0.4046 -2.2706  0.8886
   43TMC2    C1  665   3.650   2.294   0.460 -0.1250  0.1949  0.3027
   43TMC2    C2  666   3.671   2.398   0.374 -0.5414  0.2591  0.3584
   43TMC2    C3  667   3.664   2.525   0.429 -0.0318 -0.8515 -0.0368
   43TMC2    C4  668   3.624   2.303   0.590  0.0018  0.1757 -0.0997
   43TMC2    C5  669   3.629   2.427   0.639  0.2777  0.2085  0.3573
   43TMC2    C6  670   3.641   2.539   0.563 -0.0593  0.5327  1.0415
   43TMC2     C  671   3.634   2.163   0.402 -0.5950  0.3823 -1.0299
   43TMC2     O  672   3.704   2.120   0.310  0.0843  0.5944 -0.0112
   43TMC2     H  673   3.694   2.374   0.271 -1.9510 -0.8596  0.3081
   43TMC2    H1  674   3.617   2.219   0.657 -1.3965  2.5819  2.7511
   43TMC2    H2  675   3.661   2.640   0.597  1.6594 -0.0939  1.8821
   43TMC2    C7  676   3.588   2.442   0.775  0.4319 -0.3285 -0.2593
   43TMC2    C8  677   3.689   2.645   0.356 -0.4461 -0.5863 -0.4487
   43TMC2    O1  678   3.592   2.340   0.844 -0.4566  0.3349  0.5251
   43TMC2    O2  679   3.762   2.639   0.259 -0.3314  0.1641 -0.8032
   43TMC2    O5  680   3.612   2.750   0.385  0.6466  0.7276  0.6376
   43TMC2    H5  681   3.546   2.723   0.453 -0.9994 -1.3520 -1.7951
   44MPD2     C  682   3.396   1.704   0.366  0.1241 -1.0075  0.1490
   44MPD2    C1  683   3.526   1.737   0.339  0.3528  0.0220  0.8345
   44MPD2    C2  684   3.562   1.868   0.368 -0.4687 -0.2555 -0.1525
   44MPD2    C3  685   3.484   1.963   0.420  0.2693 -0.3839  1.1613
   44MPD2    C4  686   3.357   1.926   0.454 -0.5136  0.0653 -0.6236
   44MPD2    C5  687   3.312   1.802   0.414  0.3249  0.3010  0.2760
   44MPD2     H  688   3.666   1.895   0.357 -1.2799  1.4924 -3.8230
   44MPD2    H1  689   3.295   2.000   0.502 -0.7088  0.7750 -1.9685
   44MPD2    H2  690   3.345   1.610   0.348 -1.2732  0.0691 -1.5555
   44MPD2    H3  691   3.205   1.797   0.430  0.4044  1.5682  1.1979
   44MPD2     N  692   3.522   2.097   0.454  0.2602  0.0313 -1.2197
   44MPD2    H5  693   3.458   2.151   0.511  0.8623  0.9391 -1.4062
   44MPD2    N1  694   3.616   1.653   0.277 -0.1299 -0.3735 -0.2262
   44MPD2    H7  695   3.699   1.691   0.232 -0.3936  1.1967  0.6102
   45TMC2    C1  696   4.348   3.670   9.675  0.2812  0.4627 -0.1470
   45TMC2    C2  697   4.471   3.638   9.718 -0.1271 -0.1292 -0.1735
   45TMC2    C3  698   4.545   3.737   9.771 -0.1903 -0.1159  0.6835
   45TMC2    C4  699   4.282   3.784   9.691 -0.4716  0.2121 -0.0623
   45TMC2    C5  700   4.358   3.876   9.747 -0.1444 -0.0820  0.4697
   45TMC2    C6  701   4.488   3.862   9.781 -0.0529 -0.6622 -0.0566
   45TMC2     C  702   4.284   3.564   9.593  0.7979  0.4743  0.1256
   45TMC2     O  703   4.352   3.465   9.567 -0.2873 -0.6169 -0.2040
   45TMC2     H  704   4.497   3.533   9.711  1.4815  0.2741 -0.3019
   45TMC2    H1  705   4.178   3.811   9.673  0.8681  3.6381 -2.5679
   45TMC2    H2  706   4.536   3.927   9.854 -1.2938  1.9729 -1.5882
   45TMC2    C7  707   4.299   3.995   9.804  0.2228  0.0295 -0.8185
   45TMC2    C8  708   4.685   3.713   9.784 -0.3406 -0.1161 -0.2211
   45TMC2    O1  709   4.185   3.991   9.850  0.2020 -0.3440 -0.0643
   45TMC2    O2  710   4.733   3.599   9.782  0.0275 -0.0528  0.3304
   45TMC2    O5  711   0.001   3.820   9.715  0.3738 -0.2773  0.0398
   45TMC2    H5  712   4.713   3.908   9.753  2.2168 -0.0549  0.6782
   46MPD2     C  713   4.072   3.375   9.494  0.6108  0.4856 -0.1485
   46MPD2    C1  714   4.058   3.511   9.502  0.7612 -0.2689 -0.5182
   46MPD2    C2  715   3.939   3.568   9.469  0.8100  0.3080 -0.1149
   46MPD2    C3  716   3.828   3.497   9.438 -0.3843  0.5719  0.9700
   46MPD2    C4  717   3.839   3.356   9.443  0.0454  0.3854  0.1916
   46MPD2    C5  718   3.958   3.299   9.469 -0.4737  0.7825 -0.1885
   46MPD2     H  719   3.920   3.675   9.466 -1.1536  0.0386  2.5508
   46MPD2    H1  720   3.753   3.291   9.442  0.6414 -0.3930 -1.2579
   46MPD2    H2  721   4.161   3.320   9.521  0.5183  0.2830 -0.2587
   46MPD2    H3  722   3.966   3.191   9.471  0.2629  0.7842 -2.9479
   46MPD2     N  723   3.703   3.561   9.436 -0.0917 -0.2353 -0.2521
   46MPD2    H5  724   3.700   3.663   9.432 -1.4370 -0.3882 -3.2944
   46MPD2    N1  725   4.156   3.601   9.551 -0.2208  0.8909 -0.3546
   46MPD2    H7  726   4.129   3.699   9.554  1.0794  1.1719  2.4898
   47TMC2    C1  727   0.712   0.088   9.408  0.3010  0.0152 -0.5907
   47TMC2    C2  728   0.675   4.714   9.332 -0.6403  0.5934 -0.1074
   47TMC2    C3  729   0.545   4.669   9.323 -0.1231 -0.3508  0.4036
   47TMC2    C4  730   0.618   0.165   9.471 -0.8445 -0.0684  0.3921
   47TMC2    C5  731   0.483   0.119   9.469  0.2402  0.2131  0.3081
   47TMC2    C6  732   0.451   0.009   9.394 -0.0932 -0.0483 -0.0480
   47TMC2     C  733   0.850   0.123   9.412  0.0945  0.5651  0.1060
   47TMC2     O  734   0.876   0.246   9.413  0.0110  0.0268  0.4128
   47TMC2     H  735   0.757   4.653   9.295  0.5361  0.7304  2.2878
   47TMC2    H1  736   0.658   0.239   9.539  1.4164 -0.3158 -0.6738
   47TMC2    H2  737   0.351   4.704   9.405  0.7230 -2.5999 -1.7196
   47TMC2    C7  738   0.418   0.115   9.599 -0.0524 -0.8990 -0.0700
   47TMC2    C8  739   0.523   4.550   9.246 -0.2207  0.2412  0.0822
   47TMC2    O1  740   0.366   0.004   9.627 -0.1048  0.2480 -0.2039
   47TMC2    O2  741   0.418   4.483   9.247 -0.7939 -0.3277 -0.3355
   47TMC2    O5  742   0.587   4.565   9.132 -0.9783 -0.3053 -0.6592
   47TMC2    H5  743   0.638   4.649   9.127 -1.0187  0.0220  3.8977
   48MPD2     C  744   1.146   0.129   9.413 -0.0742  0.4510 -0.2214
   48MPD2    C1  745   1.072   0.021   9.460  0.4187  0.2914  1.1207
   48MPD2    C2  746   1.141   4.653   9.521  0.2930 -0.2864  0.0492
   48MPD2    C3  747   1.282   4.646   9.518 -0.0467  0.2054  0.3636
   48MPD2    C4  748   1.353   0.020   9.468  0.4550 -0.3193 -0.4372
   48MPD2    C5  749   1.285   0.136   9.424 -0.2849 -0.1968  0.2157
   48MPD2     H  750   1.088   4.566   9.560  1.4620 -1.2604 -0.5636
   48MPD2    H1  751   1.461   0.014   9.463  0.4940 -1.2086  1.5478
   48MPD2    H2  752   1.099   0.221   9.380  1.5951  2.1044  1.9819
   48MPD2    H3  753   1.338   0.214   9.370  0.5900  0.8638  2.6051
   48MPD2     N  754   1.335   4.529   9.572 -0.4432  0.1551 -0.3951
   48MPD2    H5  755   1.271   4.455   9.600 -0.0700 -0.4555 -1.1513
   48MPD2    N1  756   0.926   0.014   9.449  0.5535  0.2571  0.7162
   48MPD2    H7  757   0.872   4.673   9.490  1.5700  0.1523  1.8712
   49TMC2    C1  758   0.411   1.557  10.990  0.9691 -0.4532 -0.2409
   49TMC2    C2  759   0.511   1.610  10.919  0.3909 -0.0133 -0.0072
   49TMC2    C3  760   0.504   1.607  10.782  0.4533 -0.5416 -0.7112
   49TMC2    C4  761   0.311   1.482  10.927 -0.0851 -0.2898 -0.3320
   49TMC2    C5  762   0.316   1.469  10.790  0.0454  0.1569  0.1758
   49TMC2    C6  763   0.414   1.531  10.716 -0.0296  0.3353 -0.0778
   49TMC2     C  764   0.439   1.519  11.125 -0.9567 -0.1127  0.4332
   49TMC2     O  765   0.555   1.501  11.158 -0.4820  0.6573 -0.2924
   49TMC2     H  766   0.602   1.644  10.967  0.6112 -0.8691  0.1828
   49TMC2    H1  767   0.234   1.440  10.991 -0.3646  1.9092  0.7733
   49TMC2    H2  768   0.425   1.495  10.615 -0.6807 -0.0787  0.0003
   49TMC2    C7  769   0.205   1.430  10.711 -0.6333 -0.1109  0.4002
   49TMC2    C8  770   0.607   1.667  10.707 -0.2122  0.6606 -0.0565
   49TMC2    O1  771   0.209   1.452  10.589 -0.2669  0.0426 -0.1768
   49TMC2    O2  772   0.644   1.626  10.595 -0.5051 -0.2211 -0.0026
   49TMC2    O5  773   0.620   1.793  10.754  0.3480  0.0378  0.9347
   49TMC2    H5  774   0.566   1.812  10.834 -0.7721  0.8534 -0.0155
   50MPD2     C  775   0.419   1.372  11.397  0.1033 -0.7929  0.1569
   50MPD2    C1  776   0.320   1.439  11.330  0.2750  0.7450 -0.0906
   50MPD2    C2  777   0.196   1.438  11.389 -0.0364  0.4496  0.6001
   50MPD2    C3  778   0.159   1.377  11.507  0.5527 -0.3843 -0.8145
   50MPD2    C4  779   0.257   1.303  11.568  0.1406  0.4726 -0.1315
   50MPD2    C5  780   0.389   1.306  11.519  0.0472 -0.1594 -0.3482
   50MPD2     H  781   0.114   1.484  11.334 -1.0453 -1.1597  0.7805
   50MPD2    H1  782   0.246   1.250  11.662 -2.2898 -0.2721 -0.8388
   50MPD2    H2  783   0.524   1.374  11.370  0.6893  1.7851  2.6347
   50MPD2    H3  784   0.469   1.249  11.565  0.5661  0.4212 -0.5226
   50MPD2     N  785   0.025   1.403  11.552 -0.3042  0.0431  0.3925
   50MPD2    H5  786   4.691   1.441  11.488 -0.4495  0.7997  0.9987
   50MPD2    N1  787   0.324   1.497  11.197 -0.1277 -0.1743 -0.3094
   50MPD2    H7  788   0.241   1.535  11.150 -0.7026 -1.7454 -0.5584
   51TMC2    C1  789   0.739   0.060   2.133  0.4228  0.6738 -0.2724
   51TMC2    C2  790   0.820   4.697   2.182 -0.3494 -0.5324  0.5195
   51TMC2    C3  791   0.958   4.724   2.203 -0.2387  0.0992  0.0461
   51TMC2    C4  792   0.790   0.183   2.089  1.0381 -0.3627 -0.5052
   51TMC2    C5  793   0.919   0.206   2.121 -0.0293  0.0862 -0.3458
   51TMC2    C6  794   1.002   0.117   2.177 -0.1733 -0.0101 -0.4130
   51TMC2     C  795   0.606   0.033   2.072 -0.7884 -0.1600  0.1589
   51TMC2     O  796   0.572   0.094   1.971 -0.5922 -0.3178  0.1124
   51TMC2     H  797   0.776   4.601   2.205 -1.7142 -0.1486 -0.4854
   51TMC2    H1  798   0.729   0.253   2.034  1.5202  0.7889  0.4073
   51TMC2    H2  799   1.108   0.140   2.172  0.4104 -2.4356  1.0508
   51TMC2    C7  800   0.984   0.335   2.079  0.3842  0.2012 -0.0885
   51TMC2    C8  801   1.034   4.624   2.270  0.3627  0.3658 -0.3582
   51TMC2    O1  802   1.093   0.326   2.033  0.3200 -0.0324 -0.1639
   51TMC2    O2  803   1.018   4.500   2.270  0.1517  0.0445 -0.0806
   51TMC2    O5  804   1.082   4.694   2.370  0.0564  0.1765  0.0203
   51TMC2    H5  805   1.056   0.054   2.370 -0.2635  0.0799  1.5729
   52MPD2     C  806   0.188   4.479   2.032  0.4603  0.4876  0.1362
   52MPD2    C1  807   0.259   4.547   1.930  0.3645  0.3242  0.5930
   52MPD2    C2  808   0.369   4.619   1.973 -0.6255  0.2744 -0.0176
   52MPD2    C3  809   0.415   4.609   2.103 -0.5476  0.4653  0.0820
   52MPD2    C4  810   0.342   4.543   2.204  0.0767 -0.5288 -0.1143
   52MPD2    C5  811   0.232   4.476   2.163  0.1653  0.6341  0.1383
   52MPD2     H  812   0.425   4.671   1.896  1.0356 -1.9543 -0.2940
   52MPD2    H1  813   0.376   4.536   2.306 -0.5403  0.5196  0.1638
   52MPD2    H2  814   0.101   4.422   2.003 -0.0090  2.5113 -2.5074
   52MPD2    H3  815   0.178   4.416   2.235 -0.3458 -0.5590 -1.2275
   52MPD2     N  816   0.532   4.672   2.144  0.6653 -0.2545  0.2315
   52MPD2    H5  817   0.566   4.647   2.237 -0.8235 -0.0282  0.8427
   52MPD2    N1  818   0.225   4.545   1.788 -0.1912 -0.2245  0.2325
   52MPD2    H7  819   0.293   4.582   1.722  1.9600 -2.0081  1.4497
   53TMC2    C1  820   0.009   3.783  11.158 -0.6127 -0.7911 -0.5841
   53TMC2    C2  821   0.103   3.722  11.078  0.1503 -0.0722  0.1512
   53TMC2    C3  822   0.218   3.674  11.142 -0.1593 -0.0189  0.5114
   53TMC2    C4  823   0.028   3.804  11.296 -0.1829 -0.1115  1.0924
   53TMC2    C5  824   0.141   3.756  11.355 -0.4081  0.5864 -0.0189
   53TMC2    C6  825   0.242   3.695  11.273 -0.4565  0.3477  0.0292
   53TMC2     C  826   4.616   3.815  11.105  0.4962 -0.1317  0.2824
   53TMC2     O  827   4.602   3.801  10.985 -0.0133  0.0181 -0.2522
   53TMC2     H  828   0.096   3.722  10.969  0.1109  1.6794  0.1634
   53TMC2    H1  829   4.693   3.866  11.350 -3.0553 -0.1588 -2.5286
   53TMC2    H2  830   0.330   3.663  11.327 -0.2238 -1.4707 -1.4429
   53TMC2    C7  831   0.165   3.770  11.498  0.6933  0.2668 -0.9254
   53TMC2    C8  832   0.326   3.634  11.059  0.2230  0.5680 -0.0426
   53TMC2    O1  833   0.083   3.844  11.546 -0.1737 -0.1211  0.3176
   53TMC2    O2  834   0.435   3.693  11.061  0.0984 -0.1384 -0.1785
   53TMC2    O5  835   0.278   3.570  10.956  0.1037  0.3112  0.8090
   53TMC2    H5  836   0.206   3.513  10.991  1.1740  0.2321  2.8962
   54MPD2     C  837   4.324   3.879  11.058 -0.3823 -0.1531  1.1056
   54MPD2    C1  838   4.391   3.874  11.183  0.0873  0.6823 -0.5373
   54MPD2    C2  839   4.318   3.911  11.294  0.2541 -0.1918  0.9223
   54MPD2    C3  840   4.181   3.951  11.294 -0.1996 -0.1833  0.1024
   54MPD2    C4  841   4.115   3.945  11.171  0.5000 -0.2761 -0.5168
   54MPD2    C5  842   4.191   3.919  11.055  0.3216 -0.3937 -0.6349
   54MPD2     H  843   4.372   3.890  11.386  0.4418 -1.1593  0.5972
   54MPD2    H1  844   4.010   3.963  11.155  0.3953  0.6531  1.1965
   54MPD2    H2  845   4.374   3.846  10.967 -1.8846 -0.2468  0.3037
   54MPD2    H3  846   4.139   3.925  10.960 -1.2737  0.6667  0.3005
   54MPD2     N  847   4.107   3.978  11.414 -0.9908 -0.2240 -0.4101
   54MPD2    H5  848   4.008   3.999  11.403 -1.1725 -0.0696  1.5558
   54MPD2    N1  849   4.521   3.835  11.202  0.0319 -0.8669 -0.3242
   54MPD2    H7  850   4.548   3.825  11.299 -0.3192 -3.8390 -0.5495
   55TMC2    C1  851   1.253   2.667   0.216  0.0719 -0.7069 -0.0140
   55TMC2    C2  852   1.316   2.774   0.158  0.5559 -0.2864  0.1902
   55TMC2    C3  853   1.406   2.740   0.061 -0.2143 -0.8238  0.5878
   55TMC2    C4  854   1.293   2.541   0.211 -0.5020 -0.1057  0.1371
   55TMC2    C5  855   1.394   2.510   0.121 -0.3839 -0.1776  0.1328
   55TMC2    C6  856   1.442   2.606   0.038  0.3798 -0.2852 -0.3580
   55TMC2     C  857   1.129   2.698   0.284  0.0668 -0.0566  0.4902
   55TMC2     O  858   1.085   2.609   0.359  0.0554  0.8869  0.2728
   55TMC2     H  859   1.303   2.878   0.189  0.5550 -0.4408  0.7138
   55TMC2    H1  860   1.248   2.460   0.267  2.2905 -0.3406  2.0576
   55TMC2    H2  861   1.528   2.578  17.717  1.5342  1.1777  0.6222
   55TMC2    C7  862   1.448   2.373   0.111  0.5290  0.3290  0.0997
   55TMC2    C8  863   1.464   2.851  17.724  0.7732 -0.3738 -1.2809
   55TMC2    O1  864   1.485   2.343  17.735 -0.4572 -0.3104  0.1809
   55TMC2    O2  865   1.516   2.948   0.043 -0.1995  0.2407  0.4378
   55TMC2    O5  866   1.521   2.795  17.611  0.8484  0.1398 -0.1023
   55TMC2    H5  867   1.471   2.717  17.580 -0.5172  0.1933  1.9748
   56MPD2     C  868   0.883   2.970   0.216  0.1258  0.2886 -0.4027
   56MPD2    C1  869   0.933   2.849   0.267 -0.5113 -0.3026  0.0270
   56MPD2    C2  870   0.840   2.772   0.333  0.0873  0.4030 -0.2236
   56MPD2    C3  871   0.706   2.809   0.343 -0.2148  0.1094 -0.1667
   56MPD2    C4  872   0.662   2.927   0.287  0.6513  0.4874 -0.3765
   56MPD2    C5  873   0.755   3.005   0.222  0.1798  0.5167  0.2785
   56MPD2     H  874   0.875   2.686   0.390  0.6846  0.1198 -1.0283
   56MPD2    H1  875   0.569   2.977   0.314  1.7133  1.8051  0.8430
   56MPD2    H2  876   0.948   3.034   0.157  1.0763  0.6054  0.9767
   56MPD2    H3  877   0.733   3.104   0.184 -2.2346 -0.1488 -0.0409
   56MPD2     N  878   0.632   2.728   0.427 -0.5560 -0.8100  0.1617
   56MPD2    H5  879   0.673   2.641   0.458  2.2891  0.5456  0.1673
   56MPD2    N1  880   1.067   2.808   0.235  0.2347  0.0955 -0.6817
   56MPD2    H7  881   1.121   2.861   0.167 -1.0343 -0.1119 -1.8436
   57TMC2    C1  882   0.477   2.501  13.559 -0.1467  0.5227  0.4995
   57TMC2    C2  883   0.413   2.408  13.475  0.0866  0.1239  0.8827
   57TMC2    C3  884   0.474   2.285  13.464  0.6046 -0.8788  0.5013
   57TMC2    C4  885   0.603   2.489  13.606  0.1918 -0.7803  0.7863
   57TMC2    C5  886   0.656   2.362  13.606  0.0723 -0.2537 -0.6334
   57TMC2    C6  887   0.591   2.262  13.541  0.3950 -0.1276  0.1361
   57TMC2     C  888   0.391   2.583  13.639  0.4849  0.3182  0.9653
   57TMC2     O  889   0.296   2.633  13.580 -0.0695 -0.0132  0.2050
   57TMC2     H  890   0.318   2.435  13.432  1.3663  0.9963 -1.3663
   57TMC2    H1  891   0.655   2.568  13.660  1.5868 -0.1462 -1.5190
   57TMC2    H2  892   0.634   2.163  13.541  0.6925 -0.0009  0.7552
   57TMC2    C7  893   0.793   2.349  13.660  0.6594  0.6063 -0.0866
   57TMC2    C8  894   0.411   2.178  13.398 -0.0858 -0.2313 -0.0994
   57TMC2    O1  895   0.832   2.436  13.741 -0.6863  0.5715 -0.0275
   57TMC2    O2  896   0.291   2.182  13.367 -0.9092  0.8213 -0.1438
   57TMC2    O5  897   0.514   2.098  13.352  0.5848  0.0997 -0.5235
   57TMC2    H5  898   0.603   2.140  13.353 -0.0220  1.3040  3.5933
   58MPD2     C  899   0.259   2.794  14.085  0.4182  0.3574 -0.3972
   58MPD2    C1  900   0.210   2.819  13.960  0.1752 -0.2978 -0.2369
   58MPD2    C2  901   0.256   2.743  13.849 -0.2687  0.6689  0.4503
   58MPD2    C3  902   0.371   2.665  13.873  0.6629 -0.1669 -0.5787
   58MPD2    C4  903   0.428   2.646  13.998 -0.1963  0.8306 -0.4470
   58MPD2    C5  904   0.369   2.710  14.105  0.8943 -0.0016  0.5656
   58MPD2     H  905   0.213   2.748  13.749  3.7392 -0.6413 -1.3154
   58MPD2    H1  906   0.510   2.579  14.023 -0.8044  0.1656 -0.2232
   58MPD2    H2  907   0.206   2.833  14.172  0.6416  1.3697 -0.7136
   58MPD2    H3  908   0.402   2.698  14.207 -0.5798  0.3370  1.0788
   58MPD2     N  909   0.426   2.587  13.768  0.4419  0.3115 -0.0294
   58MPD2    H5  910   0.502   2.523  13.785 -0.1243 -0.5029 -0.5868
   58MPD2    N1  911   0.108   2.913  13.938 -0.1169 -0.2329 -0.2719
   58MPD2    H7  912   0.080   2.916  13.841 -0.6264 -0.1298 -0.1214
   59TMC2    C1  913   2.939   2.294  12.660  0.6836 -0.1285 -0.1377
   59TMC2    C2  914   2.805   2.310  12.653  0.4654 -0.4630  0.1359
   59TMC2    C3  915   2.750   2.392  12.557  0.3261  0.0832  0.1758
   59TMC2    C4  916   3.022   2.357  12.566  0.1787 -0.2748  0.4062
   59TMC2    C5  917   2.960   2.430  12.463 -0.6319 -0.6028  0.3648
   59TMC2    C6  918   2.826   2.452  12.466 -0.3463  0.0891 -0.0272
   59TMC2     C  919   2.993   2.237  12.787  0.3642  0.2213  0.1233
   59TMC2     O  920   2.940   2.141  12.839  0.8928  0.5561 -0.6123
   59TMC2     H  921   2.741   2.259  12.724  0.5558 -3.6628 -2.0808
   59TMC2    H1  922   3.130   2.350  12.567  0.2205 -0.0326 -1.9431
   59TMC2    H2  923   2.779   2.501  12.381 -0.1734 -2.0491 -1.3689
   59TMC2    C7  924   3.051   2.492  12.371 -0.5965  0.2035 -0.2760
   59TMC2    C8  925   2.612   2.399  12.542 -0.5004  0.0910  0.5162
   59TMC2    O1  926   3.149   2.430  12.342  0.4137  0.1255 -0.9331
   59TMC2    O2  927   2.536   2.314  12.591  0.0775  0.4301 -0.1496
   59TMC2    O5  928   2.592   2.538  12.541  0.4445  0.3386  0.1576
   59TMC2    H5  929   2.663   2.596  12.507  0.8492 -0.6566 -0.7061
   60MPD2     C  930   3.141   2.195  13.036 -0.1704 -0.3572  0.2663
   60MPD2    C1  931   3.174   2.299  12.946 -0.9026 -0.3648 -0.8871
   60MPD2    C2  932   3.269   2.392  12.983 -0.2729  0.0164  0.3636
   60MPD2    C3  933   3.355   2.387  13.097  0.2728 -0.2966 -0.3346
   60MPD2    C4  934   3.316   2.289  13.183 -0.1735 -0.2296 -0.6161
   60MPD2    C5  935   3.207   2.203  13.157  0.1996  0.5723  0.0584
   60MPD2     H  936   3.291   2.468  12.909 -1.8327 -1.7776 -1.9739
   60MPD2    H1  937   3.374   2.266  13.272 -1.0301  2.3051  0.5951
   60MPD2    H2  938   3.068   2.116  13.018 -0.4738 -0.8841  3.7668
   60MPD2    H3  939   3.190   2.126  13.231 -0.5889 -0.4730 -1.2173
   60MPD2     N  940   3.462   2.474  13.124  0.0229  0.1709 -0.2500
   60MPD2    H5  941   3.515   2.448  13.206  0.2605 -1.0101 -0.7793
   60MPD2    N1  942   3.099   2.315  12.825  0.4719 -0.4140 -1.0108
   60MPD2    H7  943   3.119   2.400  12.773 -0.6292 -0.6662 -1.8594
   61TMC2    C1  944   1.910   4.411  15.642 -0.4760  0.3549  0.4022
   61TMC2    C2  945   1.907   4.324  15.745  0.4867  0.0687  0.0778
   61TMC2    C3  946   1.940   4.367  15.871  0.1278 -0.6242  0.6026
   61TMC2    C4  947   1.960   4.540  15.657 -0.5303  0.0986 -0.0364
   61TMC2    C5  948   1.980   4.583  15.783 -0.6016  0.1722 -0.4416
   61TMC2    C6  949   1.974   4.497  15.891  0.4607  0.2393 -0.0338
   61TMC2     C  950   1.839   4.371  15.519 -0.3203  0.0135  0.3131
   61TMC2     O  951   1.770   4.267  15.519 -0.2520 -0.6783  0.2839
   61TMC2     H  952   1.885   4.220  15.722  0.3200  0.6828 -2.6032
   61TMC2    H1  953   1.956   4.612  15.577  0.2981 -0.6316 -0.7274
   61TMC2    H2  954   2.024   4.524  15.983  2.4473 -1.7549 -0.5104
   61TMC2    C7  955   2.068   4.699  15.800 -0.4136 -0.6000 -0.0247
   61TMC2    C8  956   1.999   4.266  15.955 -0.0482 -0.3646 -0.1178
   61TMC2    O1  957   2.137   4.729  15.708 -0.2025 -0.5050 -0.5597
   61TMC2    O2  958   2.015   4.286  16.073  0.4808  0.3487 -0.5170
   61TMC2    O5  959   2.075   4.181  15.884  0.9547  0.0089 -0.7052
   61TMC2    H5  960   2.062   4.188  15.787  0.6841  0.4141 -0.6393
   62MPD2     C  961   1.772   4.301  15.230  0.3715  0.3029 -0.3973
   62MPD2    C1  962   1.855   4.406  15.268  0.2732 -0.2907 -0.4869
   62MPD2    C2  963   1.904   4.482  15.166 -0.3625  0.5446  0.5613
   62MPD2    C3  964   1.864   4.471  15.032 -0.6317  0.4709 -0.0557
   62MPD2    C4  965   1.774   4.373  15.006 -0.1106  0.2115  0.2349
   62MPD2    C5  966   1.746   4.277  15.098 -0.3184  0.1012 -0.0089
   62MPD2     H  967   1.978   4.558  15.191  0.8654 -1.1867  2.1231
   62MPD2    H1  968   1.737   4.350  14.906  0.0388 -0.1936  0.2707
   62MPD2    H2  969   1.729   4.227  15.296  0.3952 -0.2223 -0.9712
   62MPD2    H3  970   1.689   4.188  15.072 -1.8565  1.2379 -0.5019
   62MPD2     N  971   1.918   4.550  14.931  0.1571 -0.6451  0.4199
   62MPD2    H5  972   1.901   4.522  14.835 -0.5775  2.3774 -0.3183
   62MPD2    N1  973   1.885   4.439  15.410  0.3651  0.2807 -0.4855
   62MPD2    H7  974   1.956   4.511  15.415 -0.8240  1.3817  0.7149
   63TMC2    C1  975   1.280   4.013  10.430 -0.3671  0.0674 -0.0500
   63TMC2    C2  976   1.390   4.011  10.506  0.1600  0.1656 -0.1162
   63TMC2    C3  977   1.485   4.108  10.502  0.0428 -0.3257 -0.6681
   63TMC2    C4  978   1.259   4.124  10.349 -0.3482  0.0588  0.4464
   63TMC2    C5  979   1.355   4.214  10.343  0.0932 -0.2261  0.6244
   63TMC2    C6  980   1.473   4.209  10.410 -0.2863  0.0886 -0.8093
   63TMC2     C  981   1.177   3.919  10.426  0.0799  0.7262  0.3932
   63TMC2     O  982   1.064   3.963  10.417  0.2911  0.4630  0.0589
   63TMC2     H  983   1.413   3.930  10.574 -0.7024 -0.5628 -0.6817
   63TMC2    H1  984   1.175   4.123  10.281 -1.3106 -0.5480  1.6260
   63TMC2    H2  985   1.536   4.296  10.418 -1.7606  1.1900 -1.2601
   63TMC2    C7  986   1.342   4.308  10.233  0.8529  0.2776  0.4857
   63TMC2    C8  987   1.602   4.089  10.577  1.1028 -0.9425  0.0326
   63TMC2    O1  988   1.232   4.320  10.181 -0.3354 -0.3088  0.4099
   63TMC2    O2  989   1.605   4.008  10.671 -0.7055  0.0029 -0.2964
   63TMC2    O5  990   1.705   4.155  10.525  0.0977 -0.5526 -0.2151
   63TMC2    H5  991   1.695   4.208  10.443  1.2133 -1.1124 -0.7114
   64MPD2     C  992   0.972   3.452  10.544 -0.5691  0.8145 -0.1434
   64MPD2    C1  993   1.109   3.444  10.557 -0.1333  0.0093 -0.5457
   64MPD2    C2  994   1.181   3.563  10.547 -0.4595  0.3575  0.4318
   64MPD2    C3  995   1.122   3.681  10.500 -0.2704  0.8054 -0.0208
   64MPD2    C4  996   0.990   3.681  10.487 -0.2432 -0.0544  0.6616
   64MPD2    C5  997   0.914   3.567  10.514  0.1590 -0.2920 -0.9039
   64MPD2     H  998   1.288   3.564  10.561 -0.6901  0.6815  2.2299
   64MPD2    H1  999   0.952   3.775  10.447  1.0886 -0.5704 -1.7902
   64MPD2    H2 1000   0.907   3.366  10.557  0.3505 -0.1525 -2.0132
   64MPD2    H3 1001   0.806   3.571  10.501  0.1107  0.5396 -0.2816
   64MPD2     N 1002   1.214   3.796  10.478 -0.2461  0.0493 -0.0285
   64MPD2    H5 1003   1.313   3.776  10.488 -0.2733 -0.2540 -0.3574
   64MPD2    N1 1004   1.172   3.319  10.585 -0.0772 -0.4711  0.5252
   64MPD2    H7 1005   1.274   3.312  10.580  0.1414  1.9962  1.6737
   65TMC2    C1 1006   3.251   3.914  15.399  1.2073 -0.1419  0.9441
   65TMC2    C2 1007   3.271   3.857  15.274  0.3473 -0.5241  0.5073
   65TMC2    C3 1008   3.266   3.946  15.166 -0.0227 -0.3381  0.0152
   65TMC2    C4 1009   3.222   4.051  15.417 -0.2611  0.3203  0.7136
   65TMC2    C5 1010   3.213   4.129  15.307  0.0679 -0.2391  0.0110
   65TMC2    C6 1011   3.231   4.076  15.185 -0.8103 -0.0945 -0.5972
   65TMC2     C 1012   3.256   3.829  15.520  0.0300 -0.1206 -0.0212
   65TMC2     O 1013   3.284   3.883  15.623 -0.3388  0.0500 -0.5567
   65TMC2     H 1014   3.297   3.753  15.257  2.3852 -0.0125  0.5444
   65TMC2    H1 1015   3.213   4.091  15.517  1.7692 -2.7962  2.1456
   65TMC2    H2 1016   3.244   4.146  15.103  1.9318  0.1284  0.0381
   65TMC2    C7 1017   3.210   4.278  15.316  0.9933 -0.0117  0.3520
   65TMC2    C8 1018   3.345   3.902  15.051 -0.0227  0.2967  0.4232
   65TMC2    O1 1019   3.240   4.342  15.214  0.2661  0.2191  0.4400
   65TMC2    O2 1020   3.430   3.811  15.063 -0.6732  0.1666  0.1498
   65TMC2    O5 1021   3.328   3.982  14.943 -0.0675  0.3459 -0.2030
   65TMC2    H5 1022   3.260   4.052  14.957 -1.3249 -0.6447 -1.2960
   66MPD2     C 1023   3.245   3.606  15.722  0.6023  0.6276 -0.2156
   66MPD2    C1 1024   3.214   3.595  15.586 -0.4813 -0.0859  0.4470
   66MPD2    C2 1025   3.184   3.469  15.541  0.1603 -0.1468 -0.1982
   66MPD2    C3 1026   3.179   3.359  15.623 -0.2145 -0.2738 -0.7287
   66MPD2    C4 1027   3.215   3.370  15.756  0.1057  0.5886  0.2089
   66MPD2    C5 1028   3.254   3.493  15.800  0.7843 -0.4153  0.1212
   66MPD2     H 1029   3.156   3.454  15.437  0.6457  1.4067 -0.5505
   66MPD2    H1 1030   3.234   3.288  15.823 -2.4562  1.2262  1.7070
   66MPD2    H2 1031   3.259   3.703  15.767 -0.3696 -0.1376  1.7413
   66MPD2    H3 1032   3.284   3.512  15.903  2.2968 -0.9299 -0.2257
   66MPD2     N 1033   3.124   3.234  15.579  0.2385 -0.6805  0.1454
   66MPD2    H5 1034   3.122   3.160  15.649  2.9522 -1.0729 -0.1852
   66MPD2    N1 1035   3.204   3.707  15.495 -0.6413  0.2837 -0.2897
   66MPD2    H7 1036   3.164   3.685  15.404 -2.9057 -2.8964  1.4758
   67TMC2    C1 1037   3.077   2.849  14.454  0.1073  0.6178 -0.2572
   67TMC2    C2 1038   3.088   2.740  14.537 -0.5267 -0.2967  0.0113
   67TMC2    C3 1039   3.090   2.765  14.664 -0.3115 -0.3493  0.1031
   67TMC2    C4 1040   3.070   2.980  14.504  0.0691 -0.7285  0.5813
   67TMC2    C5 1041   3.073   2.997  14.642  0.9953 -0.5397  0.3933
   67TMC2    C6 1042   3.079   2.886  14.725  0.0424 -0.3907 -0.4212
   67TMC2     C 1043   3.072   2.822  14.309 -0.0895 -0.2795  0.1356
   67TMC2     O 1044   3.085   2.700  14.280 -0.5968 -0.4780 -0.0379
   67TMC2     H 1045   3.108   2.642  14.494 -0.7989  0.2655 -1.4249
   67TMC2    H1 1046   3.061   3.067  14.440  0.6278 -1.6848 -0.8068
   67TMC2    H2 1047   3.073   2.889  14.833  2.2204  1.4474 -0.3303
   67TMC2    C7 1048   3.104   3.123  14.699  0.0614 -0.2071  0.0851
   67TMC2    C8 1049   3.068   2.661  14.762  0.5628 -0.5037  0.2718
   67TMC2    O1 1050   3.094   3.219  14.626 -0.2374 -0.1226 -0.0033
   67TMC2    O2 1051   3.157   2.621  14.842  0.1078  0.2579 -0.7599
   67TMC2    O5 1052   2.973   2.579  14.704  0.0946 -0.6630  0.4100
   67TMC2    H5 1053   2.904   2.631  14.657  0.9136 -0.8507 -1.0011
   68MPD2     C 1054   3.055   2.813  14.013  0.0631 -0.0956 -0.2269
   68MPD2    C1 1055   3.027   2.925  14.085 -0.3893 -0.2004 -0.3126
   68MPD2    C2 1056   2.998   3.044  14.023  0.2270 -0.4673  0.5607
   68MPD2    C3 1057   2.988   3.049  13.885 -0.1462 -0.5618 -0.9494
   68MPD2    C4 1058   3.026   2.938  13.811  0.4826 -0.7960  0.3762
   68MPD2    C5 1059   3.068   2.824  13.878  0.5883  0.2554  1.1939
   68MPD2     H 1060   2.985   3.132  14.085  0.6697  0.1883 -0.2787
   68MPD2    H1 1061   3.028   2.935  13.702 -1.1622 -0.9584  0.3481
   68MPD2    H2 1062   3.088   2.720  14.058  1.0866  1.3853  2.0945
   68MPD2    H3 1063   3.093   2.740  13.814  0.4548  1.2530 -0.1806
   68MPD2     N 1064   2.938   3.157  13.813  0.7508 -0.5239 -0.4674
   68MPD2    H5 1065   2.926   3.141  13.713 -0.0820  1.9800 -0.7574
   68MPD2    N1 1066   3.037   2.930  14.227 -0.3024 -0.1982  0.1630
   68MPD2    H7 1067   3.024   3.019  14.273  0.7279  0.5461 -1.0036
   69TMC2    C1 1068   0.423   4.366  12.264 -0.0290 -0.6088  0.4241
   69TMC2    C2 1069   0.366   4.491  12.269 -0.3421  0.5204 -0.9153
   69TMC2    C3 1070   0.403   4.576  12.168  0.1469  0.3006 -0.0897
   69TMC2    C4 1071   0.509   4.327  12.166  0.7842 -0.1509  0.2702
   69TMC2    C5 1072   0.507   4.405  12.056  0.3646 -0.3938  0.9121
   69TMC2    C6 1073   0.471   4.536  12.056 -0.0407 -0.0390 -0.4730
   69TMC2     C 1074   0.424   4.297  12.395 -0.3217  0.1472 -0.7559
   69TMC2     O 1075   0.345   4.336  12.477 -0.4182 -0.0157 -0.4242
   69TMC2     H 1076   0.325   4.529  12.362  1.9575 -1.4582  0.9010
   69TMC2    H1 1077   0.537   4.223  12.155  0.2928 -0.4931  2.2732
   69TMC2    H2 1078   0.480   4.606  11.974  0.5536 -0.8366 -1.0924
   69TMC2    C7 1079   0.577   4.355  11.931 -0.1956  0.2072 -0.7901
   69TMC2    C8 1080   0.327   4.699  12.171  0.7392 -0.6355 -0.5875
   69TMC2    O1 1081   0.635   4.250  11.940  0.4439  0.9117  0.5077
   69TMC2    O2 1082   0.296   0.025  12.276 -0.0833  0.5164 -0.3476
   69TMC2    O5 1083   0.254   4.699  12.056  0.5300  0.4353 -0.7027
   69TMC2    H5 1084   0.276   4.615  12.011 -0.7108 -1.4022  2.1365
   70MPD2     C 1085   0.653   4.045  12.539 -0.4157 -0.8159  0.2593
   70MPD2    C1 1086   0.537   4.127  12.538  0.0750 -0.2909 -0.1793
   70MPD2    C2 1087   0.455   4.129  12.647 -0.6279 -0.4754 -0.2965
   70MPD2    C3 1088   0.473   4.044  12.754  0.3658 -0.4799 -0.4443
   70MPD2    C4 1089   0.569   3.944  12.747 -0.7867  0.8842  0.8495
   70MPD2    C5 1090   0.656   3.954  12.642 -0.1872 -0.0197  0.0187
   70MPD2     H 1091   0.370   4.196  12.644  0.5781  1.0399 -0.5246
   70MPD2    H1 1092   0.596   3.874  12.825 -1.3747  0.7621  0.9384
   70MPD2    H2 1093   0.735   4.040  12.469 -0.2237 -0.9016  0.4911
   70MPD2    H3 1094   0.735   3.880  12.643 -0.5543 -0.4190 -0.5288
   70MPD2     N 1095   0.394   4.045  12.865 -0.1055 -0.5571  0.0313
   70MPD2    H5 1096   0.416   3.985  12.944  0.2882 -0.6092 -0.1198
   70MPD2    N1 1097   0.523   4.202  12.421  0.1706 -0.8475 -0.5612
   70MPD2    H7 1098   0.595   4.200  12.350  0.4751  0.0432 -0.2765
   71TMC2    C1 1099   2.420   0.029   0.951  0.4899  0.3368 -0.1944
   71TMC2    C2 1100   2.506   0.106   1.017 -0.7260  0.5594  0.3854
   71TMC2    C3 1101   2.566   0.059   1.129 -0.0460 -0.1616 -0.3237
   71TMC2    C4 1102   2.379   4.647   0.999 -0.0669 -0.1351 -0.4465
   71TMC2    C5 1103   2.431   4.606   1.119 -0.4097  0.7568  0.4069
   71TMC2    C6 1104   2.535   4.671   1.181  0.1546 -0.6803 -0.2400
   71TMC2     C 1105   2.396   0.065   0.810 -0.5112  0.9128 -0.3271
   71TMC2     O 1106   2.490   0.125   0.756  0.6741 -0.5454  0.2534
   71TMC2     H 1107   2.540   0.203   0.984  0.5977 -0.3774 -1.0087
   71TMC2    H1 1108   2.329   4.570   0.941 -0.8399 -0.4363  0.6152
   71TMC2    H2 1109   2.577   4.631   1.273  0.5250  1.3630  0.4710
   71TMC2    C7 1110   2.369   4.500   1.199 -0.3194  0.1634  0.5183
   71TMC2    C8 1111   2.711   0.066   1.098 -0.3881 -0.2677 -0.2972
   71TMC2    O1 1112   2.419   4.468   1.306 -0.3907  0.3727  0.2158
   71TMC2    O2 1113   2.748   0.021   0.992  0.5956  0.3397  0.6573
   71TMC2    O5 1114   2.782   0.052   1.210 -0.1802  0.6284  0.2252
   71TMC2    H5 1115   2.741   0.087   1.292 -0.3244 -0.8038  0.7689
   72MPD2     C 1116   2.211   4.714   0.332 -0.5189  0.0263 -0.2559
   72MPD2    C1 1117   2.296   0.076   0.380 -0.2911 -0.3160 -0.6505
   72MPD2    C2 1118   2.314   0.082   0.517  0.0828  0.7769  1.1550
   72MPD2    C3 1119   2.249   0.008   0.610 -0.0482  0.0262 -0.6675
   72MPD2    C4 1120   2.169   4.643   0.554  0.2641  0.1684 -0.5147
   72MPD2    C5 1121   2.149   4.626   0.425  0.2207  0.3024  0.8328
   72MPD2     H 1122   2.371   0.165   0.557  1.3033  0.4729  0.0608
   72MPD2    H1 1123   2.130   4.572   0.626  1.7319  0.2767  0.3916
   72MPD2    H2 1124   2.189   4.689   0.230  1.0674 -1.1864 -0.3048
   72MPD2    H3 1125   2.086   4.544   0.394 -0.9073  1.8513 -0.9708
   72MPD2     N 1126   2.284   0.005   0.748 -0.4304  0.0187  0.9692
   72MPD2    H5 1127   2.229   4.676   0.805  0.2967 -1.5921 -0.1473
   72MPD2    N1 1128   2.357   0.182   0.308 -0.2729 -0.5244 -0.0623
   72MPD2    H7 1129   2.398   0.247   0.374 -1.9443 -2.1226  2.5499
   73TMC2    C1 1130   2.298   2.343  14.168  0.1085  0.1555 -0.1577
   73TMC2    C2 1131   2.260   2.443  14.260 -0.2819 -0.5608  0.5651
   73TMC2    C3 1132   2.274   2.399  14.391 -0.5214 -0.3923 -0.3795
   73TMC2    C4 1133   2.319   2.213  14.208  0.0479  0.0675 -0.5472
   73TMC2    C5 1134   2.354   2.191  14.340 -0.5029  0.7624 -0.0417
   73TMC2    C6 1135   2.317   2.281  14.436 -0.5847 -0.5947  0.0585
   73TMC2     C 1136   2.378   2.384  14.054 -0.6936 -0.5594  0.6352
   73TMC2     O 1137   2.467   2.306  14.025 -0.1298 -0.3214 -0.2794
   73TMC2     H 1138   2.239   2.547  14.238  2.1082 -0.3077 -0.5735
   73TMC2    H1 1139   2.316   2.141  14.127  1.4172  1.5919 -1.9755
   73TMC2    H2 1140   2.342   2.269  14.541 -1.2815  3.7495  0.7362
   73TMC2    C7 1141   2.491   2.146  14.358 -0.1949  1.1781  0.0516
   73TMC2    C8 1142   2.252   2.503  14.484  0.1911 -0.3167 -0.3645
   73TMC2    O1 1143   2.527   2.125  14.472 -0.1414  0.5076  0.4095
   73TMC2    O2 1144   2.286   2.622  14.461 -0.2619  0.2497  0.6124
   73TMC2    O5 1145   2.131   2.475  14.545  0.4876 -0.4511 -0.4003
   73TMC2    H5 1146   2.102   2.389  14.507  0.2308 -1.0951  1.2239
   74MPD2     C 1147   2.532   2.704  13.683  0.7963  0.5103 -0.1736
   74MPD2    C1 1148   2.607   2.616  13.769  0.3330 -0.1291  0.0810
   74MPD2    C2 1149   2.541   2.552  13.874  0.5598 -0.2737 -0.1979
   74MPD2    C3 1150   2.409   2.576  13.901  0.4647 -0.7157 -0.7252
   74MPD2    C4 1151   2.340   2.672  13.834 -0.2973 -0.0708 -0.0354
   74MPD2    C5 1152   2.406   2.730  13.727 -0.2676 -0.0594  0.7054
   74MPD2     H 1153   2.593   2.474  13.928  2.5123  1.8020  0.9401
   74MPD2    H1 1154   2.232   2.680  13.842 -0.6805 -0.8459 -4.3587
   74MPD2    H2 1155   2.573   2.750  13.593 -2.3751  1.0367 -1.3715
   74MPD2    H3 1156   2.348   2.801  13.668 -0.7127 -0.9623  0.0595
   74MPD2     N 1157   2.335   2.496  13.991 -0.1235 -0.1129 -0.3796
   74MPD2    H5 1158   2.239   2.523  14.011 -0.4351 -2.2884  1.0647
   74MPD2    N1 1159   2.745   2.585  13.743  0.4632 -0.3395  0.3241
   74MPD2    H7 1160   2.777   2.622  13.654 -0.1835 -0.5004  0.0177
   75TMC2    C1 1161   2.830   3.358  13.774  0.6361  0.0763 -0.0473
   75TMC2    C2 1162   2.817   3.486  13.812  0.0755 -0.6054 -0.1318
   75TMC2    C3 1163   2.760   3.570  13.721  0.4234  0.3049  0.6680
   75TMC2    C4 1164   2.766   3.295  13.663  0.3547  0.1322 -0.6007
   75TMC2    C5 1165   2.702   3.382  13.584 -0.3401 -0.3442 -0.1035
   75TMC2    C6 1166   2.707   3.515  13.603  0.3065  0.2420 -0.1571
   75TMC2     C 1167   2.898   3.272  13.868 -0.0530 -0.5988 -0.1618
   75TMC2     O 1168   2.922   3.320  13.977  0.1701 -0.1068  0.0357
   75TMC2     H 1169   2.870   3.532  13.894 -1.8408  2.4452 -0.5842
   75TMC2    H1 1170   2.771   3.188  13.645  2.3494  0.1801 -0.3512
   75TMC2    H2 1171   2.629   3.575  13.557  1.6400  1.3633 -0.9319
   75TMC2    C7 1172   2.614   3.321  13.489  0.1529  0.3676  0.3083
   75TMC2    C8 1173   2.762   3.712  13.735  0.4306 -1.1395 -0.7761
   75TMC2    O1 1174   2.602   3.202  13.486  0.4425 -0.5174  0.2977
   75TMC2    O2 1175   2.761   3.791  13.642  0.0625  0.0243  0.2500
   75TMC2    O5 1176   2.707   3.739  13.854  0.1163  0.5873 -0.0295
   75TMC2    H5 1177   2.712   3.664  13.918  0.3649 -0.3354 -1.1426
   76TMC2    C1 1178   1.374   2.999  11.592 -0.0374 -0.7786  0.4782
   76TMC2    C2 1179   1.301   2.912  11.508  0.6149  0.6036 -0.0040
   76TMC2    C3 1180   1.290   2.783  11.530  0.2618  1.0091 -0.0452
   76TMC2    C4 1181   1.452   2.948  11.698  0.7923 -0.2405  0.5346
   76TMC2    C5 1182   1.432   2.813  11.720  0.3457 -1.5769 -0.2314
   76TMC2    C6 1183   1.351   2.734  11.645  0.1291  0.1641  0.1311
   76TMC2     C 1184   1.348   3.144  11.567 -0.1058 -0.3957 -0.1295
   76TMC2     O 1185   1.241   3.174  11.515  0.4524  0.5803  0.1155
   76TMC2     H 1186   1.239   2.948  11.427 -0.2383 -3.7376 -1.2805
   76TMC2    H1 1187   1.500   3.025  11.758  2.8111 -1.2962  0.2825
   76TMC2    H2 1188   1.341   2.631  11.679 -2.2855  0.3398 -0.0117
   76TMC2    C7 1189   1.534   2.739  11.788 -0.1458  0.1735 -0.8670
   76TMC2    C8 1190   1.196   2.702  11.458 -0.0089 -0.4416 -0.0910
   76TMC2    O1 1191   1.509   2.625  11.821 -0.7256  0.4115 -0.0706
   76TMC2    O2 1192   1.110   2.757  11.391  0.4101 -0.0789 -0.0184
   76TMC2    O5 1193   1.193   2.575  11.500  0.2599  0.7764 -0.1707
   76TMC2    H5 1194   1.278   2.541  11.534  0.1259 -0.2734 -0.8843
   77MPD2     C 1195   1.504   3.626  11.627  0.0343  0.9465 -0.5399
   77MPD2    C1 1196   1.385   3.577  11.573 -0.2589  0.7577  0.5214
   77MPD2    C2 1197   1.370   3.438  11.556  0.4348  0.0493 -0.1246
   77MPD2    C3 1198   1.475   3.362  11.596 -0.5071  0.4673  0.0451
   77MPD2    C4 1199   1.598   3.415  11.639 -0.7961 -0.4233  0.0990
   77MPD2    C5 1200   1.603   3.545  11.666 -0.3039 -0.2924  0.5341
   77MPD2     H 1201   1.273   3.403  11.526  1.2095 -1.4632 -0.8656
   77MPD2    H1 1202   1.681   3.353  11.668  0.4508 -0.2005 -2.9362
   77MPD2    H2 1203   1.519   3.731  11.648  1.5124  0.6972 -0.3872
   77MPD2    H3 1204   1.696   3.574  11.713  0.5583 -1.6914 -0.3194
   77MPD2     N 1205   1.462   3.218  11.593  0.4226  0.3283  0.7023
   77MPD2    H5 1206   1.539   3.164  11.630 -0.1456 -1.2769 -0.4780
   77MPD2    N1 1207   1.270   3.651  11.535  0.5523 -0.4422 -0.3046
   77MPD2    H7 1208   1.197   3.607  11.480  0.4535  0.4576 -0.9004
   78TMC2    C1 1209   2.244   0.048   1.457  0.2545  0.1343  0.3958
   78TMC2    C2 1210   2.182   0.014   1.574  0.5291 -0.8234  0.6823
   78TMC2    C3 1211   2.250   4.731   1.688  0.5269 -0.6964 -0.3753
   78TMC2    C4 1212   2.378   0.064   1.452 -0.3489 -0.2482  0.1990
   78TMC2    C5 1213   2.442   0.055   1.571  0.7479 -0.1473  0.0377
   78TMC2    C6 1214   2.386   0.025   1.695  0.0919 -0.2604 -0.7017
   78TMC2     C 1215   2.155   0.070   1.345 -0.2470 -0.2405 -0.4025
   78TMC2     O 1216   2.040   0.031   1.346 -0.3059 -0.2127 -0.4301
   78TMC2     H 1217   2.073   0.017   1.578  0.4381 -1.1140 -1.3887
   78TMC2    H1 1218   2.425   0.083   1.357  0.1403 -1.2748  0.2335
   78TMC2    H2 1219   2.445   4.726   1.779 -1.1123 -0.9709 -0.1344
   78TMC2    C7 1220   2.589   0.061   1.562 -0.1502 -0.0498  0.4229
   78TMC2    C8 1221   2.166   0.012   1.807  0.5354  0.2955  0.3059
   78TMC2    O1 1222   2.647   0.044   1.459  0.4724  0.3236 -0.1087
   78TMC2    O2 1223   2.050   0.004   1.800 -0.2819 -0.3294 -0.1706
   78TMC2    O5 1224   2.237   0.095   1.896  0.6158 -0.2610  0.1749
   78TMC2    H5 1225   2.332   0.107   1.876  1.1090 -1.9140  1.5095
   79MPD1     C 1226   2.058   0.242   0.874 -0.0944  0.7637  0.3767
   79MPD1    C1 1227   1.978   0.168   0.959 -0.9429  0.0772 -0.1001
   79MPD1    C2 1228   2.036   0.136   1.080 -0.2100  0.0039  0.7853
   79MPD1    C3 1229   2.154   0.188   1.124  0.1158  0.3261 -0.1130
   79MPD1    C4 1230   2.226   0.271   1.037  0.5724  0.5452 -0.1297
   79MPD1    C5 1231   2.175   0.301   0.914  0.2152 -0.6570  1.0152
   79MPD1     H 1232   1.980   0.064   1.139  2.0719 -1.2593  1.4119
   79MPD1    H1 1233   2.320   0.320   1.061  0.5428  0.9913 -0.9364
   79MPD1    H2 1234   2.023   0.281   0.779  2.5198 -0.9210 -1.2821
   79MPD1    H3 1235   2.222   0.379   0.855 -3.1661  0.1847 -0.6148
   79MPD1     N 1236   2.213   0.145   1.248 -0.0588  0.8136  0.1491
   79MPD1    H5 1237   2.302   0.188   1.269  0.1338  0.1629  0.6411
   79MPD1    N1 1238   1.874   0.094   0.909  0.7571  0.3351  0.1645
   79MPD1    H6 1239   1.804   0.090   0.983  1.4237  0.1758  0.7900
   79MPD1    H7 1240   1.821   0.136   0.833  0.5549  1.2325  0.8117
   80TMC2    C1 1241   4.216   3.038  11.890 -0.4701 -0.3338 -0.5448
   80TMC2    C2 1242   4.098   3.087  11.841 -0.2213 -0.3410 -0.2444
   80TMC2    C3 1243   4.000   3.116  11.931 -0.0854 -0.0890  0.0294
   80TMC2    C4 1244   4.232   3.002  12.019 -0.3467  0.3985  0.0166
   80TMC2    C5 1245   4.131   3.015  12.101  0.3759 -0.2980  0.3424
   80TMC2    C6 1246   4.013   3.076  12.066 -0.0290 -1.0187  0.5052
   80TMC2     C 1247   4.329   3.032  11.798 -0.4731 -0.4207 -0.1382
   80TMC2     O 1248   4.317   2.981  11.687 -0.2756  0.2667  0.3721
   80TMC2     H 1249   4.089   3.119  11.738 -1.8254 -2.2229 -0.6739
   80TMC2    H1 1250   4.322   2.951  12.051 -1.0453  0.7130  2.4232
   80TMC2    H2 1251   3.937   3.095  12.140 -0.7911 -0.6741 -0.3692
   80TMC2    C7 1252   4.131   2.940  12.229 -0.0543  0.2461  0.7541
   80TMC2    C8 1253   3.869   3.180  11.895  0.7639  0.2441  0.2154
   80TMC2    O1 1254   4.015   2.910  12.262  0.1441  0.2670 -0.1916
   80TMC2    O2 1255   3.772   3.187  11.971 -0.3309  0.2444 -0.4649
   80TMC2    O5 1256   3.878   3.243  11.774  0.0030 -0.5853 -0.3299
   80TMC2    H5 1257   3.958   3.227  11.719  1.7283  1.2335  1.6671
   81MPD2     C 1258   4.619   3.039  11.714  0.8737  0.1320  0.3883
   81MPD2    C1 1259   4.565   3.100  11.826 -0.7526 -0.0771 -0.0830
   81MPD2    C2 1260   4.641   3.191  11.890  0.2539  0.1267  0.2211
   81MPD2    C3 1261   0.041   3.217  11.867 -0.4635 -0.0800  0.1792
   81MPD2    C4 1262   0.100   3.147  11.761  0.4156 -0.3357 -0.1703
   81MPD2    C5 1263   0.013   3.069  11.687  0.1004  0.3916  0.4322
   81MPD2     H 1264   4.596   3.250  11.968  0.7480  0.2778  0.3951
   81MPD2    H1 1265   0.202   3.164  11.728  1.6227 -2.4178  2.5431
   81MPD2    H2 1266   4.563   2.971  11.651  1.1519  0.1462  0.1240
   81MPD2    H3 1267   0.054   3.027  11.596  0.0208 -0.1709  0.6548
   81MPD2     N 1268   0.107   3.326  11.934 -0.0230 -0.1652 -0.1414
   81MPD2    H5 1269   0.207   3.333  11.918 -0.3946  1.7555 -1.6909
   81MPD2    N1 1270   4.436   3.078  11.868 -0.1579  0.0809  0.6655
   81MPD2    H7 1271   4.416   3.107  11.963 -2.1701 -0.1861  0.3064
   82TMC2    C1 1272   3.488   2.287  10.927 -0.5619 -0.6020  0.1107
   82TMC2    C2 1273   3.617   2.319  10.964  0.0754 -0.2388 -0.3111
   82TMC2    C3 1274   3.645   2.269  11.091 -0.0393 -0.6763 -0.1969
   82TMC2    C4 1275   3.399   2.241  11.011  0.4796  0.7168 -0.7072
   82TMC2    C5 1276   3.425   2.214  11.137 -0.0573 -0.8327 -1.0183
   82TMC2    C6 1277   3.552   2.233  11.183  0.4457  0.1451  0.3819
   82TMC2     C 1278   3.432   2.363  10.820  0.3486  0.0737 -0.5447
   82TMC2     O 1279   3.323   2.406  10.842 -0.3013 -0.1314 -0.7000
   82TMC2     H 1280   3.700   2.346  10.900  1.9222  0.5982  2.4235
   82TMC2    H1 1281   3.294   2.255  10.989 -0.1731 -2.5096  0.2999
   82TMC2    H2 1282   3.584   2.203  11.282 -1.4369 -1.0077  0.6432
   82TMC2    C7 1283   3.337   2.127  11.209  0.1346  0.3688 -0.4300
   82TMC2    C8 1284   3.770   2.293  11.161  0.3222 -0.2030 -0.2279
   82TMC2    O1 1285   3.345   2.125  11.330  0.2459  0.6381 -0.1110
   82TMC2    O2 1286   3.808   2.205  11.240  0.7384  0.0295 -0.2349
   82TMC2    O5 1287   3.849   2.377  11.094  0.2235 -0.1583  0.5015
   82TMC2    H5 1288   3.802   2.449  11.047  0.5580 -0.2420  0.0423
   83MPD2     C 1289   3.409   2.566  10.362  0.0985  0.2091 -0.3002
   83MPD2    C1 1290   3.332   2.586  10.471 -0.3683 -0.1869  0.1714
   83MPD2    C2 1291   3.364   2.517  10.581 -0.0027  0.3564 -0.6697
   83MPD2    C3 1292   3.471   2.425  10.589  0.0208 -0.0769 -0.3810
   83MPD2    C4 1293   3.556   2.416  10.481  0.0570  0.2131  0.0353
   83MPD2    C5 1294   3.519   2.487  10.373  0.7470 -0.7329  0.1498
   83MPD2     H 1295   3.296   2.531  10.664  2.7642  1.7214  1.3738
   83MPD2    H1 1296   3.641   2.350  10.489 -1.2873 -1.8195 -2.4646
   83MPD2    H2 1297   3.380   2.620  10.273  1.4467 -0.4033 -1.1265
   83MPD2    H3 1298   3.581   2.473  10.286  1.4849  3.7922 -0.0981
   83MPD2     N 1299   3.504   2.356  10.710  0.0900  1.0032  0.8282
   83MPD2    H5 1300   3.593   2.308  10.717 -0.1290  0.8868  3.0626
   83MPD2    N1 1301   3.219   2.661  10.455  0.0675  0.7561  0.1712
   83MPD2    H7 1302   3.196   2.695  10.362 -0.9164  0.4353  0.2977
   84TMC2    C1 1303   4.408   1.607  11.634  1.2062 -0.3275  0.0085
   84TMC2    C2 1304   4.395   1.652  11.759 -0.3616  0.5399  0.1165
   84TMC2    C3 1305   4.480   1.602  11.852  0.3278 -0.5072 -0.0913
   84TMC2    C4 1306   4.508   1.512  11.599  0.3674 -0.5823 -0.3301
   84TMC2    C5 1307   4.591   1.461  11.700 -0.1965  0.7281 -0.2111
   84TMC2    C6 1308   4.573   1.504  11.835  0.6100  0.1598  0.9064
   84TMC2     C 1309   4.354   1.693  11.530 -0.4564  0.8692 -0.8534
   84TMC2     O 1310   4.270   1.777  11.555 -0.5733 -0.2574 -0.3101
   84TMC2     H 1311   4.319   1.725  11.782  0.2289  0.2740  2.8807
   84TMC2    H1 1312   4.513   1.479  11.496  0.9943  1.5294 -0.9908
   84TMC2    H2 1313   4.640   1.472  11.914 -0.8349  1.1080  2.5300
   84TMC2    C7 1314   4.716   1.383  11.678 -0.5519  0.6246 -0.3530
   84TMC2    C8 1315   4.456   1.652  11.984 -0.1555  0.2804  0.0229
   84TMC2    O1 1316   0.042   1.339  11.774  0.6832 -0.3554 -0.5356
   84TMC2    O2 1317   4.352   1.711  12.010 -0.0287 -0.5519  0.2127
   84TMC2    O5 1318   4.578   1.684  12.035 -0.2075  0.0972  0.5275
   84TMC2    H5 1319   4.645   1.669  11.965 -1.0692 -0.8474 -0.0903
   85TMC2    C1 1320   1.015   0.501  15.956  0.0867  0.0385  0.5860
   85TMC2    C2 1321   0.922   0.463  15.860  0.7776 -0.1634 -0.7874
   85TMC2    C3 1322   0.916   0.545  15.750 -0.1892  0.7155 -0.0081
   85TMC2    C4 1323   1.068   0.626  15.947  0.3230 -0.3111  0.4607
   85TMC2    C5 1324   1.047   0.703  15.839 -0.3928  0.1211  0.8326
   85TMC2    C6 1325   0.970   0.665  15.733 -0.0591 -0.3260 -0.0876
   85TMC2     C 1326   1.064   0.412  16.064 -0.2199 -0.5053 -0.0427
   85TMC2     O 1327   1.147   0.457  16.145  0.2729  0.6698  0.1381
   85TMC2     H 1328   0.863   0.373  15.857  0.4271  0.0911 -1.7448
   85TMC2    H1 1329   1.138   0.651  16.025  1.7464 -3.6668  0.2685
   85TMC2    H2 1330   0.949   0.726  15.646 -0.4449 -0.7238 -0.2744
   85TMC2    C7 1331   1.155   0.808  15.826  0.2330 -0.2431  0.9868
   85TMC2    C8 1332   0.835   0.490  15.639 -0.3683  0.1789  0.1367
   85TMC2    O1 1333   1.236   0.815  15.919 -0.0699 -0.2688 -0.1151
   85TMC2    O2 1334   0.806   0.369  15.617  0.5879  0.7233  0.3753
   85TMC2    O5 1335   0.763   0.589  15.588  0.2593 -0.6017 -0.2428
   85TMC2    H5 1336   0.798   0.677  15.614  0.3063 -0.9011  0.6942
   86MPD2     C 1337   0.973   0.018  16.375  0.2325  0.1557 -0.1168
   86MPD2    C1 1338   0.893   0.007  16.268 -0.1784  0.2856  0.1878
   86MPD2    C2 1339   0.895   0.097  16.165 -0.4975 -0.1926  0.3666
   86MPD2    C3 1340   0.989   0.202  16.166 -0.0911 -0.4131 -0.0270
   86MPD2    C4 1341   1.077   0.207  16.274 -0.5923 -0.0703 -0.3836
   86MPD2    C5 1342   1.069   0.119  16.380  0.2786 -0.0673  0.1276
   86MPD2     H 1343   0.823   0.086  16.085  0.1141 -0.7049 -0.1129
   86MPD2    H1 1344   1.150   0.286  16.287 -0.0761  0.0004 -3.7485
   86MPD2    H2 1345   0.948   4.698  16.465  1.2622  0.9889  0.6732
   86MPD2    H3 1346   1.132   0.145  16.464 -0.2074 -2.0975  1.1248
   86MPD2     N 1347   0.989   0.297  16.062 -0.0314  0.9336  0.6088
   86MPD2    H5 1348   0.923   0.287  15.986  1.0532  0.1006 -0.2379
   86MPD2    N1 1349   0.788   4.644  16.260 -0.5167 -0.6239  0.7370
   86MPD2    H7 1350   0.733   4.644  16.174 -0.5172 -1.9032  0.7346
   87TMC2    C1 1351   2.933   3.768   0.547  0.2371  0.2648 -0.2892
   87TMC2    C2 1352   3.036   3.853   0.584 -0.4684 -0.3185  0.0757
   87TMC2    C3 1353   3.030   3.916   0.702  0.0635 -0.3121  0.7374
   87TMC2    C4 1354   2.825   3.752   0.621 -0.2924 -0.5182  0.0715
   87TMC2    C5 1355   2.813   3.824   0.734  0.3361 -0.3780  0.8976
   87TMC2    C6 1356   2.913   3.900   0.779  0.7350  0.2446  0.3980
   87TMC2     C 1357   2.965   3.668   0.447  0.1596 -0.6836 -0.1354
   87TMC2     O 1358   2.890   3.566   0.450 -0.0733  0.0296 -0.2686
   87TMC2     H 1359   3.126   3.874   0.526  1.0242 -1.5050  1.9473
   87TMC2    H1 1360   2.739   3.710   0.571 -0.0974  1.4684 -1.9435
   87TMC2    H2 1361   2.919   3.954   0.872  0.5737 -0.8138  1.0194
   87TMC2    C7 1362   2.693   3.800   0.824  0.0822  1.0190 -0.2636
   87TMC2    C8 1363   3.153   3.998   0.742  0.1264 -0.0298  0.3386
   87TMC2    O1 1364   2.679   3.885   0.914  0.2139  0.2826 -0.1172
   87TMC2    O2 1365   3.268   3.954   0.729  0.0451  0.1164 -0.4310
   87TMC2    O5 1366   3.125   4.117   0.810  0.1888  0.1262 -0.1812
   87TMC2    H5 1367   3.028   4.130   0.814  0.1222 -0.3254 -0.4059
   88MPD2     C 1368   2.397   3.590   0.756 -0.2130  0.2795 -0.3692
   88MPD2    C1 1369   2.473   3.691   0.810 -0.0664 -0.0525 -0.6354
   88MPD2    C2 1370   2.405   3.764   0.901  0.2392 -0.5818  0.0369
   88MPD2    C3 1371   2.270   3.750   0.929  0.4655 -0.1219 -0.2558
   88MPD2    C4 1372   2.201   3.654   0.864 -0.2773  0.6917  0.1820
   88MPD2    C5 1373   2.266   3.574   0.780  0.0373 -0.7942 -0.5320
   88MPD2     H 1374   2.463   3.843   0.948 -2.0615  0.4745  1.0650
   88MPD2    H1 1375   2.095   3.637   0.879  0.3720 -3.8845 -0.3541
   88MPD2    H2 1376   2.457   3.518   0.703  2.2055  0.2256  2.4611
   88MPD2    H3 1377   2.217   3.486   0.739  2.2548 -1.8945 -0.8184
   88MPD2     N 1378   2.194   3.843   1.009 -0.5646 -0.3349  0.0065
   88MPD2    H5 1379   2.095   3.833   0.993 -0.4631 -2.1108  0.4975
   88MPD2    N1 1380   2.607   3.711   0.768 -0.4744  0.0501  0.5438
   88MPD2    H7 1381   2.640   3.654   0.690 -1.2201  1.3096 -0.6677
   89TMC2    C1 1382   3.458   1.120   1.016 -0.1179  0.4596 -0.1831
   89TMC2    C2 1383   3.375   1.039   0.943  0.6691 -0.4694 -0.5599
   89TMC2    C3 1384   3.387   1.042   0.806  0.0236  0.1679  0.8826
   89TMC2    C4 1385   3.536   1.219   0.956 -0.6210  0.6351 -0.5211
   89TMC2    C5 1386   3.553   1.204   0.822 -0.3276 -1.1934 -0.1350
   89TMC2    C6 1387   3.473   1.132   0.746 -0.5412  0.4082  0.8385
   89TMC2     C 1388   3.499   1.084   1.154 -0.9844 -0.6076 -0.2308
   89TMC2     O 1389   3.597   1.136   1.208  0.2571  0.1767  0.3084
   89TMC2     H 1390   3.301   0.970   0.983  2.1572 -2.2129 -0.8419
   89TMC2    H1 1391   3.611   1.268   1.016 -0.3920  1.9161 -1.8594
   89TMC2    H2 1392   3.491   1.125   0.640 -0.4011  2.1274  0.7460
   89TMC2    C7 1393   3.640   1.302   0.754  0.0996  0.5759  0.2105
   89TMC2    C8 1394   3.270   1.009   0.742  0.2708  0.2976  0.3748
   89TMC2    O1 1395   3.636   1.420   0.785  0.6824 -0.0203  0.3887
   89TMC2    O2 1396   3.185   0.941   0.800  0.0471 -0.3216 -0.0861
   89TMC2    O5 1397   3.235   1.118   0.664  0.3079 -0.5983 -0.2008
   89TMC2    H5 1398   3.300   1.174   0.618 -1.9798  2.4491  0.2525
   90MPD2     C 1399   3.446   0.796   1.582  0.1723 -0.4668  0.5201
   90MPD2    C1 1400   3.332   0.789   1.507 -1.1594 -0.1679  0.0278
   90MPD2    C2 1401   3.329   0.852   1.384 -0.4880  0.1280  0.6896
   90MPD2    C3 1402   3.433   0.928   1.339  0.4886 -0.1830  0.3317
   90MPD2    C4 1403   3.548   0.932   1.415 -1.0494  1.1503  0.3646
   90MPD2    C5 1404   3.559   0.855   1.530 -0.5705  0.2635  0.6556
   90MPD2     H 1405   3.234   0.860   1.334 -1.2090 -1.4224  1.8205
   90MPD2    H1 1406   3.639   0.985   1.390 -0.3995 -0.0969  0.1072
   90MPD2    H2 1407   3.446   0.743   1.676  0.7642 -0.7221  0.3717
   90MPD2    H3 1408   3.654   0.860   1.581 -0.3704  0.6102  0.2537
   90MPD2     N 1409   3.406   1.006   1.223 -0.2123  0.0163 -0.0982
   90MPD2    H5 1410   3.326   0.988   1.164  2.2584  0.1493 -3.5242
   90MPD2    N1 1411   3.216   0.715   1.542  0.6804  0.5068 -0.1771
   90MPD2    H7 1412   3.140   0.710   1.475 -0.6303  0.7165  1.2925
   91TMC2    C1 1413   0.848   1.309  16.305 -0.0492 -0.1666  0.0914
   91TMC2    C2 1414   0.972   1.375  16.281  0.3031  0.5197  0.2514
   91TMC2    C3 1415   0.978   1.496  16.219  0.4431  0.1581  0.1165
   91TMC2    C4 1416   0.739   1.378  16.259  0.9495 -0.0330  0.1936
   91TMC2    C5 1417   0.750   1.503  16.200  0.2540  0.4482  0.2750
   91TMC2    C6 1418   0.869   1.563  16.185  0.5274 -0.0580  0.1923
   91TMC2     C 1419   0.838   1.181  16.370  0.4779 -0.1210 -0.2167
   91TMC2     O 1420   0.731   1.119  16.341 -0.5002 -0.2164 -0.7075
   91TMC2     H 1421   1.065   1.328  16.311  0.4940  1.1413  0.6507
   91TMC2    H1 1422   0.642   1.337  16.284  1.7513 -2.9612 -1.5708
   91TMC2    H2 1423   0.877   1.657  16.132  3.7357  0.3957  1.5013
   91TMC2    C7 1424   0.634   1.564  16.142 -0.5783  0.0838  0.4026
   91TMC2    C8 1425   1.103   1.557  16.229  0.4843 -0.0377  0.0353
   91TMC2    O1 1426   0.646   1.685  16.115  0.5072 -0.2185  0.3398
   91TMC2    O2 1427   1.201   1.495  16.262  0.5639 -0.3362  0.4177
   91TMC2    O5 1428   1.089   1.684  16.266  0.2195  0.1022 -0.0748
   91TMC2    H5 1429   0.996   1.713  16.251 -0.0561 -0.6669  0.1763
   92MPD2     C 1430   0.852   0.914  16.511  0.7947  0.0285 -0.4290
   92MPD2    C1 1431   0.942   1.017  16.518 -0.6535 -0.0167  0.4664
   92MPD2    C2 1432   1.061   0.994  16.592 -0.0164 -0.4340 -0.2355
   92MPD2    C3 1433   1.069   0.888  16.678  0.9250 -0.6733  0.0034
   92MPD2    C4 1434   0.965   0.788  16.679  0.6804 -0.1803 -0.1453
   92MPD2    C5 1435   0.868   0.797  16.579  0.1942  0.0324  0.1246
   92MPD2     H 1436   1.136   1.073  16.590  0.3914 -0.8156 -0.0121
   92MPD2    H1 1437   0.972   0.704  16.747  2.4748  0.5038  0.5284
   92MPD2    H2 1438   0.768   0.919  16.444  0.5596 -1.0851 -0.2107
   92MPD2    H3 1439   0.794   0.719  16.573  2.1295 -1.8405  0.6405
   92MPD2     N 1440   1.184   0.881  16.761  0.7435 -0.1361  0.6098
   92MPD2    H5 1441   1.249   0.959  16.752  2.2542 -1.4535  0.1528
   92MPD2    N1 1442   0.936   1.140  16.455  0.1205 -0.3382 -0.0154
   92MPD2    H7 1443   1.016   1.199  16.474  1.3510 -2.0300 -0.0024
   93TMC2    C1 1444   2.357   0.360  13.892 -0.2338  0.0701  0.1259
   93TMC2    C2 1445   2.365   0.309  14.016 -0.1625  0.0967 -0.3563
   93TMC2    C3 1446   2.482   0.299  14.091 -0.3644  0.0336 -0.9047
   93TMC2    C4 1447   2.466   0.422  13.835 -0.1250  0.7041 -0.3909
   93TMC2    C5 1448   2.574   0.431  13.921 -0.3011 -0.6415  0.5309
   93TMC2    C6 1449   2.592   0.371  14.041  1.4261  0.6047  0.0408
   93TMC2     C 1450   2.219   0.389  13.836 -0.3304 -0.1979  0.2488
   93TMC2     O 1451   2.125   0.334  13.893  0.0603 -0.0873 -0.4943
   93TMC2     H 1452   2.273   0.282  14.066 -0.0727 -0.4701 -0.4931
   93TMC2    H1 1453   2.477   0.441  13.729 -0.7379 -0.0162 -0.5863
   93TMC2    H2 1454   2.684   0.382  14.097  1.6353  1.0405 -0.3927
   93TMC2    C7 1455   2.698   0.487  13.861 -0.0445 -0.8780 -0.3459
   93TMC2    C8 1456   2.460   0.310  14.235 -0.0665  0.1003  0.5625
   93TMC2    O1 1457   2.802   0.447  13.908 -0.4099  0.2111 -0.5143
   93TMC2    O2 1458   2.360   0.365  14.284  0.4594 -0.5435 -0.2694
   93TMC2    O5 1459   2.576   0.321  14.296 -0.4136 -0.0285  0.8283
   93TMC2    H5 1460   2.649   0.281  14.244 -0.1482 -0.1922  1.3200
   94MPD2     C 1461   1.970   0.488  13.717 -0.1113 -0.5854 -0.9833
   94MPD2    C1 1462   2.095   0.548  13.689 -0.4155 -0.3987  0.0959
   94MPD2    C2 1463   2.094   0.667  13.626  0.5275  0.0685 -0.4027
   94MPD2    C3 1464   1.974   0.725  13.591 -0.2199 -0.0364 -0.0542
   94MPD2    C4 1465   1.853   0.665  13.618  0.1356  0.5790 -0.1863
   94MPD2    C5 1466   1.852   0.549  13.683 -0.0571  0.6156 -0.3833
   94MPD2     H 1467   2.186   0.721  13.608  0.8430 -0.1398  0.6267
   94MPD2    H1 1468   1.758   0.708  13.586 -0.7475 -0.2384  1.3400
   94MPD2    H2 1469   1.954   0.394  13.768 -0.3516 -0.4686 -0.8413
   94MPD2    H3 1470   1.755   0.508  13.710  1.5445 -2.7613  0.0947
   94MPD2     N 1471   1.965   0.851  13.523 -0.6194  0.3866  0.3669
   94MPD2    H5 1472   1.870   0.869  13.494 -0.2167  0.5445 -0.8307
   94MPD2    N1 1473   2.215   0.491  13.742 -0.4750  0.0305  0.7886
   94MPD2    H7 1474   2.301   0.532  13.707 -1.3072 -0.8653 -2.3458
   95TMC2    C1 1475   2.303   2.746  16.090  0.1094 -0.6099 -0.4023
   95TMC2    C2 1476   2.212   2.643  16.066 -0.2373 -0.3185 -0.3843
   95TMC2    C3 1477   2.154   2.601  16.178 -0.7043 -0.1358  0.5151
   95TMC2    C4 1478   2.321   2.811  16.210 -0.2033  0.5316 -0.0427
   95TMC2    C5 1479   2.244   2.772  16.317  0.6409 -0.1006 -0.0391
   95TMC2    C6 1480   2.155   2.671  16.297 -0.2989 -0.1039 -0.2299
   95TMC2     C 1481   2.370   2.798  15.970 -0.0060 -0.9180  0.5120
   95TMC2     O 1482   2.404   2.732  15.873 -0.1610 -0.4444 -0.0896
   95TMC2     H 1483   2.191   2.616  15.963  0.0504 -1.0623 -0.2468
   95TMC2    H1 1484   2.399   2.885  16.225 -0.2562  0.2761  1.4445
   95TMC2    H2 1485   2.095   2.627  16.376  0.2937 -2.0004 -0.8213
   95TMC2    C7 1486   2.276   2.798  16.452 -0.3579 -0.0376  0.3340
   95TMC2    C8 1487   2.037   2.520  16.158 -0.8513 -0.0704  0.8525
   95TMC2    O1 1488   2.231   2.721  16.537 -0.0726 -0.2259  0.1474
   95TMC2    O2 1489   1.931   2.536  16.219 -0.5014 -0.5552  0.2761
   95TMC2    O5 1490   2.070   2.409  16.091  0.3782  0.2019 -0.0982
   95TMC2    H5 1491   2.165   2.404  16.067 -0.1460  1.7949 -2.4758
   96MPD2     C 1492   2.597   3.222  15.769  0.3487 -0.1268 -0.1987
   96MPD2    C1 1493   2.604   3.092  15.722 -0.0214 -0.2858  0.1768
   96MPD2    C2 1494   2.533   2.992  15.788 -0.3023  0.3397  0.4233
   96MPD2    C3 1495   2.454   3.022  15.898 -0.3793 -0.2829  0.0422
   96MPD2    C4 1496   2.453   3.147  15.946 -0.1224  0.5936  0.3121
   96MPD2    C5 1497   2.524   3.246  15.876  0.6235 -0.3022 -0.9080
   96MPD2     H 1498   2.559   2.892  15.754 -1.6613 -0.6615  2.3584
   96MPD2    H1 1499   2.384   3.181  16.022 -0.7282  1.0843 -0.4596
   96MPD2    H2 1500   2.645   3.301  15.713 -0.7447 -1.0261 -2.4060
   96MPD2    H3 1501   2.506   3.350  15.900  1.1469 -0.2837 -0.5829
   96MPD2     N 1502   2.386   2.929  15.982 -0.0810  0.2257 -0.2069
   96MPD2    H5 1503   2.351   2.971  16.068  0.9019  3.1146 -1.2185
   96MPD2    N1 1504   2.704   3.064  15.620  0.1590  0.2473  0.0934
   96MPD2    H7 1505   2.752   3.151  15.597  0.2844 -0.0105 -0.6183
   97TMC2    C1 1506   0.118   0.546  17.349 -0.3429 -0.0302  0.3140
   97TMC2    C2 1507   0.047   0.539  17.233 -0.0142 -0.3303  0.6656
   97TMC2    C3 1508   0.026   0.651  17.162  0.4037  0.2032 -0.1412
   97TMC2    C4 1509   0.157   0.666  17.393 -0.4114 -0.1250 -0.5522
   97TMC2    C5 1510   0.148   0.778  17.312 -0.1476  0.2247  0.3007
   97TMC2    C6 1511   0.087   0.769  17.193  0.4625 -0.2502 -0.2352
   97TMC2     C 1512   0.131   0.439  17.446  0.3183  0.0543 -0.5211
   97TMC2     O 1513   0.173   0.459  17.560 -0.6394 -0.1647 -0.0456
   97TMC2     H 1514   0.001   0.446  17.200 -0.0179  0.2641 -1.0163
   97TMC2    H1 1515   0.214   0.680  17.484 -1.0469  1.6361 -0.4186
   97TMC2    H2 1516   0.066   0.852  17.126 -0.0864 -0.8469 -0.7919
   97TMC2    C7 1517   0.236   0.894  17.340 -0.4767 -0.6028  0.6102
   97TMC2    C8 1518   4.639   0.651  17.077  0.4786  0.1762  0.1428
   97TMC2    O1 1519   0.258   0.922  17.455 -0.1454  0.0378 -0.1242
   97TMC2    O2 1520   4.599   0.554  17.011  0.2292  0.5602  0.0177
   97TMC2    O5 1521   4.568   0.759  17.115 -0.3541 -0.4748 -0.1828
   97TMC2    H5 1522   4.609   0.816  17.183  0.8575 -3.8681  1.9084
   98MPD2     C 1523   4.709   4.691  17.603 -0.1432 -0.1344 -0.1143
   98MPD2    C1 1524   0.030   0.062  17.674 -0.0363 -0.3868  0.4123
   98MPD2    C2 1525   0.068   0.189  17.617  0.2940  0.7165  0.4329
   98MPD2    C3 1526   0.052   0.201  17.477  0.2542 -0.4981 -0.0808
   98MPD2    C4 1527   4.726   0.092  17.410  0.2268  0.6347 -1.0397
   98MPD2    C5 1528   4.686   4.711  17.467  0.2300 -0.4571  0.1668
   98MPD2     H 1529   0.100   0.276  17.672  1.3014  0.1651  0.7054
   98MPD2    H1 1530   4.702   0.098  17.304 -0.4763  1.0224 -0.8584
   98MPD2    H2 1531   4.671   4.604  17.656 -1.3637  1.1683  1.1236
   98MPD2    H3 1532   4.631   4.634  17.414  0.9571  0.0436 -1.3230
   98MPD2     N 1533   0.068   0.318  17.406 -0.3156  0.6405  0.1536
   98MPD2    H5 1534   0.026   0.315  17.313 -1.4265 -1.0274  0.7155
   98MPD2    N1 1535   0.044   0.041   0.077 -0.0771  0.4264  0.0675
   98MPD2    H7 1536   4.727   4.696   0.113 -0.3331 -0.1349 -1.5505
   99TMC2    C1 1537   3.138   3.047   1.139  0.1904  0.3741  0.0034
   99TMC2    C2 1538   3.215   3.143   1.078 -0.4665  0.5232  0.3693
   99TMC2    C3 1539   3.181   3.274   1.089 -1.0950  0.1875 -0.4290
   99TMC2    C4 1540   3.037   3.084   1.221 -0.4696 -0.1444  0.5264
   99TMC2    C5 1541   3.008   3.217   1.234 -0.0985 -0.0255 -0.3159
   99TMC2    C6 1542   3.071   3.314   1.166 -0.4248 -0.2146  0.0906
   99TMC2     C 1543   3.187   2.914   1.155 -0.8954  0.4255 -0.0021
   99TMC2     O 1544   3.170   2.858   1.262 -0.1574 -0.0896 -0.2937
   99TMC2     H 1545   3.306   3.108   1.031  1.3500  1.8895  2.8634
   99TMC2    H1 1546   2.991   2.995   1.263  0.8872 -0.5077  1.2446
   99TMC2    H2 1547   3.053   3.420   1.183  1.4653 -0.0266  0.9521
   99TMC2    C7 1548   2.886   3.249   1.307  0.4830 -0.0851 -0.0329
   99TMC2    C8 1549   3.280   3.373   1.062  0.3194 -0.2645  0.5304
   99TMC2    O1 1550   2.866   3.368   1.318 -0.8635  0.4713  0.4190
   99TMC2    O2 1551   3.273   3.479   1.118 -0.3208 -0.4698 -0.2314
   99TMC2    O5 1552   3.324   3.346   0.932 -0.4367  0.5420 -0.2258
   99TMC2    H5 1553   3.302   3.254   0.906 -1.1619  0.3807  0.9577
  100MPD2     C 1554   3.338   2.660   1.166 -0.3138  0.6110 -0.3911
  100MPD2    C1 1555   3.330   2.743   1.054 -0.0283  0.2261  0.5774
  100MPD2    C2 1556   3.392   2.702   0.938 -0.5965  0.3261  0.5610
  100MPD2    C3 1557   3.474   2.593   0.936  0.1755  0.1933  0.6086
  100MPD2    C4 1558   3.486   2.519   1.051 -0.6106 -0.4379 -0.3515
  100MPD2    C5 1559   3.425   2.559   1.166 -0.6303  0.6378 -0.0798
  100MPD2     H 1560   3.385   2.768   0.852  0.6037 -0.1676  0.0650
  100MPD2    H1 1561   3.548   2.431   1.054  0.1951  0.2120  2.9176
  100MPD2    H2 1562   3.293   2.675   1.264  3.4743  4.4413  0.7733
  100MPD2    H3 1563   3.434   2.509   1.262 -0.2239 -0.6427 -0.7781
  100MPD2     N 1564   3.536   2.562   0.813 -0.2459 -0.4260 -0.6568
  100MPD2    H5 1565   3.516   2.626   0.737 -1.3236  0.5803  0.4597
  100MPD2    N1 1566   3.264   2.867   1.048  0.6520  0.1908 -0.9898
  100MPD2    H7 1567   3.259   2.916   0.960 -0.4386  0.2681 -0.8830
  101TMC2    C1 1568   4.197   3.597  13.004 -0.4302 -0.2230 -0.0039
  101TMC2    C2 1569   4.102   3.691  12.996 -0.2701 -0.2561 -0.0738
  101TMC2    C3 1570   4.126   3.804  12.922 -0.5564 -0.3791  1.1867
  101TMC2    C4 1571   4.315   3.624  12.944  0.8986  0.6689  0.4818
  101TMC2    C5 1572   4.346   3.748  12.898 -0.2825 -0.4841 -0.1624
  101TMC2    C6 1573   4.246   3.839  12.875 -0.5489  0.3243 -0.8102
  101TMC2     C 1574   4.158   3.457  13.024 -0.4732  0.1903 -0.5484
  101TMC2     O 1575   4.060   3.438  13.097 -0.5983 -0.6921 -0.8947
  101TMC2     H 1576   4.006   3.672  13.041 -1.5907  1.2014 -2.2684
  101TMC2    H1 1577   4.391   3.547  12.952 -3.2005 -3.4793  0.0678
  101TMC2    H2 1578   4.264   3.941  12.841 -1.0108  0.4482 -0.6770
  101TMC2    C7 1579   4.466   3.770  12.826 -0.8680 -0.2322  0.9507
  101TMC2    C8 1580   4.017   3.885  12.885 -0.1236  0.4300 -0.4973
  101TMC2    O1 1581   4.464   3.825  12.720  0.2430 -0.4481 -0.4681
  101TMC2    O2 1582   4.034   4.003  12.852  0.1647  0.4019 -0.4188
  101TMC2    O5 1583   3.937   3.787  12.834 -0.1040  0.4417  0.1595
  101TMC2    H5 1584   3.970   3.694  12.837 -0.1733  0.3954 -0.4335
  102MPD2     C 1585   4.237   3.169  12.811  0.4829 -0.9392  0.0724
  102MPD2    C1 1586   4.178   3.235  12.914 -0.1288 -0.4911 -0.2330
  102MPD2    C2 1587   4.096   3.162  12.995  0.6121  0.5815  0.0987
  102MPD2    C3 1588   4.060   3.026  12.962  0.4186  0.0625 -0.2308
  102MPD2    C4 1589   4.114   2.973  12.848  0.4394 -0.4043 -0.1777
  102MPD2    C5 1590   4.199   3.043  12.778 -0.1363 -0.5720  0.8074
  102MPD2     H 1591   4.048   3.209  13.080  2.1825 -0.3145  1.4648
  102MPD2    H1 1592   4.099   2.873  12.809 -2.1448 -0.5217  1.1218
  102MPD2    H2 1593   4.305   3.223  12.745  1.6264 -1.2864  0.9603
  102MPD2    H3 1594   4.238   3.002  12.686 -0.4072 -0.3652  0.6018
  102MPD2     N 1595   3.980   2.947  13.047  0.2560 -0.3997  0.0225
  102MPD2    H5 1596   3.954   3.000  13.130 -1.9454 -0.5928 -0.5357
  102MPD2    N1 1597   4.219   3.367  12.939  0.7566 -0.5140 -0.0182
  102MPD2    H7 1598   4.289   3.410  12.880 -0.3657 -1.8794 -2.3458
  103TMC2    C1 1599   2.124   3.079  12.192 -1.0186  0.2115  0.6741
  103TMC2    C2 1600   2.226   3.006  12.248  0.1486 -0.1011  0.2535
  103TMC2    C3 1601   2.274   3.042  12.366  0.4184 -0.5079  0.0175
  103TMC2    C4 1602   2.067   3.186  12.244  0.0243  0.1009 -0.1314
  103TMC2    C5 1603   2.117   3.218  12.374 -0.9355 -0.7235 -0.4162
  103TMC2    C6 1604   2.221   3.153  12.430 -0.8023 -0.2605  0.3590
  103TMC2     C 1605   2.057   3.021  12.079  0.1763 -0.2560 -0.1484
  103TMC2     O 1606   1.985   3.097  12.014 -0.2942  0.4489 -0.5634
  103TMC2     H 1607   2.273   2.932  12.185  1.5105 -0.8824  2.2058
  103TMC2    H1 1608   1.971   3.216  12.202  1.1880  1.6753 -1.6455
  103TMC2    H2 1609   2.264   3.185  12.525  0.3521 -0.1776 -0.1900
  103TMC2    C7 1610   2.034   3.293  12.460  0.3139 -0.3397 -0.6512
  103TMC2    C8 1611   2.326   2.933  12.443  0.2733 -0.8872 -0.8032
  103TMC2    O1 1612   2.064   3.286  12.579  0.5341  0.2066 -0.5872
  103TMC2    O2 1613   2.355   2.826  12.388 -0.4486 -0.3428  0.4944
  103TMC2    O5 1614   2.244   2.929  12.545  0.3162 -0.0568  0.1296
  103TMC2    H5 1615   2.255   3.012  12.598 -1.3415  0.5073 -0.4077
  104MPD2     C 1616   2.001   2.673  12.016 -0.0893  0.2611 -0.8025
  104MPD2    C1 1617   1.981   2.807  11.998  0.2370 -0.4355 -0.3660
  104MPD2    C2 1618   1.870   2.854  11.926  0.3835  0.0659 -0.4805
  104MPD2    C3 1619   1.769   2.764  11.883  0.4006  0.3104 -0.2012
  104MPD2    C4 1620   1.792   2.630  11.903  0.6430 -0.2974  0.3987
  104MPD2    C5 1621   1.906   2.590  11.972  0.0480  0.2533 -0.3041
  104MPD2     H 1622   1.846   2.959  11.918  2.0214  0.4276 -0.7374
  104MPD2    H1 1623   1.734   2.544  11.871  3.9221 -1.4641 -2.4300
  104MPD2    H2 1624   2.091   2.631  12.060 -0.6695  0.0601  0.1813
  104MPD2    H3 1625   1.904   2.483  11.989 -0.7573  0.2059 -0.6598
  104MPD2     N 1626   1.648   2.815  11.821 -0.0289  0.2909 -0.6067
  104MPD2    H5 1627   1.646   2.906  11.776 -0.3682  1.3094  1.4410
  104MPD2    N1 1628   2.070   2.887  12.061  0.3732  0.0220 -0.4230
  104MPD2    H7 1629   2.126   2.833  12.126  0.5369  0.0464 -0.5411
  105TMC2    C1 1630   3.096   2.825  17.710 -0.8445 -0.3363 -1.1024
  105TMC2    C2 1631   2.968   2.821   0.002 -0.1739 -0.0031 -0.1010
  105TMC2    C3 1632   2.918   2.924   0.082 -0.0000  0.9534  0.1566
  105TMC2    C4 1633   3.173   2.944   0.002 -0.0631  0.4238  0.3120
  105TMC2    C5 1634   3.119   3.045   0.078  0.2542  0.0515 -0.6388
  105TMC2    C6 1635   2.989   3.036   0.120  0.0296 -0.4523 -0.0215
  105TMC2     C 1636   3.148   2.723  17.628 -0.0104 -0.4153  0.4126
  105TMC2     O 1637   3.072   2.629  17.611 -0.1064 -0.1211  0.0470
  105TMC2     H 1638   2.913   2.729   0.012  0.1589 -0.2994 -1.0430
  105TMC2    H1 1639   3.277   2.957  17.713 -0.0896 -0.3497 -0.1618
  105TMC2    H2 1640   2.944   3.114   0.179 -1.8601 -0.1171 -1.9125
  105TMC2    C7 1641   3.181   3.181   0.067  0.1183  0.1318 -0.3744
  105TMC2    C8 1642   2.779   2.916   0.116  0.1297 -0.2793  0.1922
  105TMC2    O1 1643   3.280   3.185  17.735 -0.0988 -0.7085 -0.1877
  105TMC2    O2 1644   2.736   2.949   0.228  0.3840  0.4098 -0.1617
  105TMC2    O5 1645   2.704   2.915   0.003 -0.6931 -0.1524  0.1860
  105TMC2    H5 1646   2.756   2.900  17.659 -1.3961  0.3797 -0.3540
  106MPD2     C 1647   3.469   2.529  17.275 -0.6097 -1.1296  0.0296
  106MPD2    C1 1648   3.499   2.659  17.298 -0.2386 -0.6627  0.7239
  106MPD2    C2 1649   3.427   2.732  17.386 -0.4275 -0.1222  0.8176
  106MPD2    C3 1650   3.324   2.684  17.455  0.2199 -0.3023 -0.1659
  106MPD2    C4 1651   3.288   2.550  17.433 -0.7615  0.7082  0.6077
  106MPD2    C5 1652   3.362   2.477  17.343 -0.3657  0.4741 -0.2329
  106MPD2     H 1653   3.453   2.834  17.411  3.7073 -1.0971  0.5030
  106MPD2    H1 1654   3.201   2.504  17.479  0.7669  0.8965  3.7001
  106MPD2    H2 1655   3.524   2.470  17.203  3.0795  2.4754 -0.0818
  106MPD2    H3 1656   3.333   2.379  17.308 -0.9072  0.0302  1.4264
  106MPD2     N 1657   3.263   2.766  17.555 -0.0834 -0.4631 -0.4780
  106MPD2    H5 1658   3.286   2.864  17.564  0.1897 -0.5121 -0.6514
  106MPD2    N1 1659   3.608   2.724  17.241 -0.2662  0.4174 -0.0157
  106MPD2    H7 1660   3.610   2.823  17.260  2.7423  0.1432  1.0052
  107TMC2    C1 1661   4.035   2.426  11.412 -0.1377  0.5980  0.7647
  107TMC2    C2 1662   4.049   2.562  11.381 -0.8868  0.2824  0.2418
  107TMC2    C3 1663   4.143   2.593  11.286 -0.1856 -0.2607  0.1638
  107TMC2    C4 1664   4.101   2.323  11.353 -0.2402  0.6762  0.3316
  107TMC2    C5 1665   4.188   2.366  11.256  0.2739 -0.7944 -0.3534
  107TMC2    C6 1666   4.213   2.494  11.218 -0.0542 -0.0528 -0.4741
  107TMC2     C 1667   3.974   2.394  11.541 -0.6903  0.1805 -0.7543
  107TMC2     O 1668   4.003   2.292  11.599 -0.5888  0.2653  0.2175
  107TMC2     H 1669   3.996   2.641  11.433 -0.3047  0.4818  0.5366
  107TMC2    H1 1670   4.060   2.223  11.352 -1.6714  1.2752 -1.0973
  107TMC2    H2 1671   4.282   2.507  11.136  1.4045 -0.9858  0.6140
  107TMC2    C7 1672   4.273   2.264  11.199  0.0140 -0.0052  0.5876
  107TMC2    C8 1673   4.166   2.726  11.245 -0.1896 -0.1676 -0.8026
  107TMC2    O1 1674   4.324   2.281  11.087 -0.7834  0.4089 -0.0041
  107TMC2    O2 1675   4.081   2.815  11.231 -0.2173 -0.3403  0.5731
  107TMC2    O5 1676   4.295   2.742  11.205 -0.8047  0.3158 -0.3417
  107TMC2    H5 1677   4.351   2.669  11.239 -0.0339  0.7926 -0.5873
  108MPD2     C 1678   3.670   2.556  11.678  0.4309  0.0958 -0.0221
  108MPD2    C1 1679   3.779   2.472  11.677  0.4777  0.2080  0.6481
  108MPD2    C2 1680   3.804   2.404  11.793  0.2405  0.2650  0.3605
  108MPD2    C3 1681   3.730   2.409  11.906  0.2611 -0.0875 -0.1786
  108MPD2    C4 1682   3.629   2.492  11.904 -0.2243 -0.0090 -0.1730
  108MPD2    C5 1683   3.596   2.570  11.795  0.0309  0.2353  0.0059
  108MPD2     H 1684   3.899   2.350  11.795  1.2731  2.1634  2.4169
  108MPD2    H1 1685   3.561   2.508  11.986  0.4518  3.8776 -0.3890
  108MPD2    H2 1686   3.633   2.606  11.589  1.5429  1.6182  0.3590
  108MPD2    H3 1687   3.516   2.642  11.801 -0.3257  0.0231 -2.0651
  108MPD2     N 1688   3.750   2.339  12.021  0.5449  0.5719  0.1614
  108MPD2    H5 1689   3.688   2.369  12.095  0.1522  0.2507 -0.0387
  108MPD2    N1 1690   3.862   2.469  11.562  0.1228 -1.1277 -0.8466
  108MPD2    H7 1691   3.839   2.530  11.484 -4.5026 -2.7562 -0.7534
  109TMC2    C1 1692   3.670   4.593   0.374 -0.3455 -0.1762  0.5480
  109TMC2    C2 1693   3.642   4.475   0.307  0.5198 -0.0528 -0.0799
  109TMC2    C3 1694   3.748   4.389   0.281 -0.2804 -0.7288 -0.2275
  109TMC2    C4 1695   3.795   4.618   0.430 -0.2958  0.0242  0.0349
  109TMC2    C5 1696   3.900   4.538   0.390 -0.4811 -0.2470 -0.5707
  109TMC2    C6 1697   3.876   4.423   0.314 -0.6097  0.4401  0.3633
  109TMC2     C 1698   3.550   4.663   0.416 -0.9012 -0.8086  0.1560
  109TMC2     O 1699   3.467   4.684   0.325 -0.4336 -0.1040 -0.5519
  109TMC2     H 1700   3.539   4.453   0.285  0.8684 -2.2309  0.5082
  109TMC2    H1 1701   3.813   4.717   0.471  0.7212  0.1681 -0.7530
  109TMC2    H2 1702   3.963   4.359   0.303  0.4485  1.9786 -0.2721
  109TMC2    C7 1703   4.035   4.553   0.445 -1.0187 -0.1482  0.5382
  109TMC2    C8 1704   3.706   4.255   0.254  1.2675  0.8080 -0.2896
  109TMC2    O1 1705   4.131   4.503   0.389  0.3808 -0.2947  0.3460
  109TMC2    O2 1706   3.602   4.206   0.296 -0.1722 -0.1663 -0.1706
  109TMC2    O5 1707   3.802   4.194   0.187  0.5077  0.0112 -0.4342
  109TMC2    H5 1708   3.842   4.260   0.127  1.9744  0.6009  1.1949
  110MPD2     C 1709   3.201   0.033   0.785 -0.0034 -0.0996  0.1005
  110MPD2    C1 1710   3.317   4.722   0.843 -0.0549  0.5731 -0.1530
  110MPD2    C2 1711   3.436   4.705   0.770 -0.3362  0.5215 -0.0282
  110MPD2    C3 1712   3.431   4.722   0.632  0.5168 -0.1105  0.8746
  110MPD2    C4 1713   3.314   0.029   0.575 -0.4291  0.1352  1.1285
  110MPD2    C5 1714   3.202   0.057   0.650  0.0246 -0.1675  0.0672
  110MPD2     H 1715   3.525   4.659   0.811  0.3914  0.8540 -1.2313
  110MPD2    H1 1716   3.306   0.055   0.470  1.6659 -1.2080  0.6286
  110MPD2    H2 1717   3.107   0.038   0.838  0.2086  0.8669  0.3926
  110MPD2    H3 1718   3.115   0.092   0.596 -0.4413 -1.1827  0.1645
  110MPD2     N 1719   3.539   4.678   0.555  0.3366 -0.0050 -0.2590
  110MPD2    H5 1720   3.621   4.654   0.609 -0.9727  2.4761  2.8322
  110MPD2    N1 1721   3.300   4.676   0.980 -0.7881  0.2467  0.1857
  110MPD2    H7 1722   3.211   4.699   1.025 -0.2031  0.5341  1.1936
  111TMC2    C1 1723   3.816   4.296  11.970 -0.2407 -0.4716 -0.2052
  111TMC2    C2 1724   3.753   4.274  12.091 -0.5396  0.3783  0.3935
  111TMC2    C3 1725   3.833   4.272  12.201  0.0785 -0.6441  0.5412
  111TMC2    C4 1726   3.950   4.321  11.958  0.3164  0.8829  0.8645
  111TMC2    C5 1727   4.020   4.326  12.073 -0.8609 -0.8913 -1.0682
  111TMC2    C6 1728   3.966   4.296  12.199  0.5189  0.1073  0.2083
  111TMC2     C 1729   3.741   4.267  11.850  0.1460 -0.2620 -0.3071
  111TMC2     O 1730   3.804   4.282  11.745  0.0486  0.2424 -0.0314
  111TMC2     H 1731   3.651   4.244  12.108 -0.4647 -0.3464 -0.4427
  111TMC2    H1 1732   3.985   4.342  11.858 -1.5400  2.3520  0.5137
  111TMC2    H2 1733   4.028   4.277  12.285  1.5952 -0.8799 -0.7788
  111TMC2    C7 1734   4.160   4.330  12.063  0.5462 -1.0194  0.8419
  111TMC2    C8 1735   3.784   4.192  12.307  0.3641 -0.0367 -0.1839
  111TMC2    O1 1736   4.220   4.320  12.172  0.2520  0.4675 -0.1405
  111TMC2    O2 1737   3.672   4.200  12.357  0.6032 -0.7558  0.2876
  111TMC2    O5 1738   3.865   4.084  12.307 -0.1929  0.2891  0.2017
  111TMC2    H5 1739   3.945   4.081  12.251 -0.9028 -2.3459 -0.7063
  112MPD2     C 1740   3.356   4.069  11.598 -0.1606 -0.5120  0.0246
  112MPD2    C1 1741   3.456   4.146  11.548 -0.1501  0.3215  0.2041
  112MPD2    C2 1742   3.550   4.186  11.638  0.8708 -0.7627 -0.5368
  112MPD2    C3 1743   3.541   4.153  11.772  0.3990 -0.1425  0.0889
  112MPD2    C4 1744   3.439   4.079  11.822 -0.0087 -0.1919  0.2078
  112MPD2    C5 1745   3.354   4.035  11.725  0.1478 -0.2354 -0.5214
  112MPD2     H 1746   3.632   4.245  11.599  0.0695  0.6627 -0.0594
  112MPD2    H1 1747   3.430   4.038  11.922  2.7094 -0.9563  0.1605
  112MPD2    H2 1748   3.275   4.038  11.532 -1.0863  0.9615  0.4923
  112MPD2    H3 1749   3.276   3.969  11.762 -1.9349  1.3942 -1.9811
  112MPD2     N 1750   3.632   4.191  11.869 -0.2076  0.0594 -0.4879
  112MPD2    H5 1751   3.604   4.165  11.963 -0.6241 -0.1265 -0.6625
  112MPD2    N1 1752   3.467   4.189  11.417 -0.1881  0.4551  0.3002
  112MPD2    H7 1753   3.543   4.250  11.390 -0.7372  1.1120  0.2281
  113TMC2    C1 1754   1.802   2.648   0.982  0.0277 -0.0302 -0.5899
  113TMC2    C2 1755   1.692   2.740   0.981  0.3018  0.0355 -0.3318
  113TMC2    C3 1756   1.593   2.722   0.891 -0.3494 -0.0058 -0.0521
  113TMC2    C4 1757   1.797   2.539   0.894 -0.1298  0.4497  0.4347
  113TMC2    C5 1758   1.688   2.523   0.816 -0.8191  0.2388 -0.4580
  113TMC2    C6 1759   1.582   2.611   0.810  0.5475 -0.1388  0.5026
  113TMC2     C 1760   1.926   2.722   1.020  0.1040  0.0855 -0.4208
  113TMC2     O 1761   1.920   2.843   1.030 -0.0953  0.0715  0.1043
  113TMC2     H 1762   1.682   2.826   1.047 -1.7355 -1.9167  1.9101
  113TMC2    H1 1763   1.883   2.475   0.878 -1.0474 -0.7064  0.0724
  113TMC2    H2 1764   1.496   2.588   0.747  0.9956 -1.2866  0.2960
  113TMC2    C7 1765   1.691   2.426   0.715 -0.9654 -0.2813 -0.0865
  113TMC2    C8 1766   1.499   2.827   0.883  0.0462  0.1652  0.3428
  113TMC2    O1 1767   1.621   2.447   0.616  0.0321 -0.0562  0.8540
  113TMC2    O2 1768   1.525   2.940   0.923 -0.3050  0.0603 -0.1378
  113TMC2    O5 1769   1.405   2.797   0.798  0.1576  0.0870 -0.3181
  113TMC2    H5 1770   1.381   2.703   0.813  1.5436 -0.1533  0.4306
  114MPD2     C 1771   2.450   2.780   1.040  0.1372 -0.3333 -0.6757
  114MPD2    C1 1772   2.345   2.866   1.060 -0.1515  0.9048 -0.1439
  114MPD2    C2 1773   2.212   2.830   1.047 -0.1474 -0.5743 -0.2777
  114MPD2    C3 1774   2.179   2.698   1.021 -0.3878  0.1788 -1.1217
  114MPD2    C4 1775   2.281   2.610   1.017  0.0234 -0.4990 -0.5304
  114MPD2    C5 1776   2.412   2.647   1.031  0.1210 -0.2772 -0.0495
  114MPD2     H 1777   2.131   2.900   1.057  0.9350  0.5495  0.6392
  114MPD2    H1 1778   2.268   2.503   1.007 -0.2298 -0.5204  0.0269
  114MPD2    H2 1779   2.555   2.805   1.049  0.1374 -0.9566  1.0472
  114MPD2    H3 1780   2.485   2.570   1.006  1.0347  0.9588 -1.2081
  114MPD2     N 1781   2.045   2.649   1.008  0.0133  0.3228  0.6656
  114MPD2    H5 1782   2.036   2.550   0.989 -0.5745  0.1081  2.1287
  114MPD2    N1 1783   2.372   3.009   1.089 -0.1621 -0.1616  0.0595
  114MPD2    H7 1784   2.300   3.070   1.127 -0.2720  1.0346 -2.0364
  115TMC2    C1 1785   3.189   4.479  17.580  0.1306 -0.3490  0.3767
  115TMC2    C2 1786   3.318   4.507  17.569  0.0526 -0.3935 -0.3571
  115TMC2    C3 1787   3.359   4.628  17.620  0.2840 -0.3200 -0.3106
  115TMC2    C4 1788   3.096   4.561  17.637 -0.2756 -0.0557  0.0955
  115TMC2    C5 1789   3.137   4.677  17.694 -0.5177 -0.4126 -0.1952
  115TMC2    C6 1790   3.268   4.711  17.685  1.0610 -0.5463 -0.0532
  115TMC2     C 1791   3.139   4.373  17.491 -0.3177 -0.5044  0.3006
  115TMC2     O 1792   3.208   4.327  17.397 -0.0405  0.8195 -0.4805
  115TMC2     H 1793   3.376   4.445  17.501 -0.9286 -2.6142  0.8101
  115TMC2    H1 1794   2.991   4.536  17.647 -0.1408 -1.2189 -1.3402
  115TMC2    H2 1795   3.297   0.072  17.727  0.7929 -0.8026  0.7171
  115TMC2    C7 1796   3.035   0.037  17.725  0.2482 -0.1537  0.0543
  115TMC2    C8 1797   3.499   4.675  17.622  0.2954 -0.1457  0.1047
  115TMC2    O1 1798   2.930   4.721   0.024  0.1190 -0.3729 -0.1109
  115TMC2    O2 1799   3.522   0.054  17.664 -0.0810 -0.1364 -0.1333
  115TMC2    O5 1800   3.575   4.573  17.654 -0.0377  0.0432 -0.1150
  115TMC2    H5 1801   3.544   4.482  17.637 -1.0943  0.5530 -0.8767
  116MPD2     C 1802   2.734   4.157  17.281  0.3856 -0.3039 -0.1821
  116MPD2    C1 1803   2.870   4.136  17.257 -1.0690  1.1551  0.0901
  116MPD2    C2 1804   2.965   4.193  17.338  0.3431 -0.4904  1.2700
  116MPD2    C3 1805   2.924   4.259  17.447  0.5435  0.5221 -0.2591
  116MPD2    C4 1806   2.790   4.261  17.482  0.2666 -0.4487 -0.6788
  116MPD2    C5 1807   2.700   4.207  17.403  0.2778 -1.2531  0.4607
  116MPD2     H 1808   3.069   4.194  17.308  0.7079 -2.4889  2.4664
  116MPD2    H1 1809   2.761   4.308  17.575 -0.0517  1.2855 -1.6512
  116MPD2    H2 1810   2.664   4.098  17.222 -1.0626  0.6495  0.5645
  116MPD2    H3 1811   2.598   4.209  17.441  0.2185  3.4202 -0.0137
  116MPD2     N 1812   3.009   4.332  17.529 -0.1909  0.3238 -0.3074
  116MPD2    H5 1813   2.963   4.386  17.601  0.2656  0.9311 -0.4696
  116MPD2    N1 1814   2.893   4.053  17.145 -0.6948  0.1840 -0.0952
  116MPD2    H7 1815   2.820   4.044  17.074 -0.7111  1.6326 -0.2717
  117TMC2    C1 1816   1.906   1.841  14.347  0.4948 -0.3797  0.3673
  117TMC2    C2 1817   1.995   1.814  14.453  0.0627  0.5451  0.2620
  117TMC2    C3 1818   2.059   1.924  14.508 -0.0763 -0.0644  0.6918
  117TMC2    C4 1819   1.866   1.969  14.309  0.2500 -0.5135  0.6041
  117TMC2    C5 1820   1.929   2.072  14.381 -0.5606  0.4767  0.1840
  117TMC2    C6 1821   2.023   2.049  14.472  0.1328 -0.5389  0.3006
  117TMC2     C 1822   1.889   1.732  14.253 -0.4283 -0.0256 -0.2054
  117TMC2     O 1823   1.986   1.656  14.248  0.3575  0.4362 -0.1531
  117TMC2     H 1824   2.022   1.713  14.481 -1.5879 -0.0859 -0.4534
  117TMC2    H1 1825   1.810   1.999  14.221 -1.0598 -3.7556  0.3487
  117TMC2    H2 1826   2.055   2.131  14.536 -0.1838 -0.1006 -0.1090
  117TMC2    C7 1827   1.892   2.216  14.362 -0.1091  0.0563  0.3226
  117TMC2    C8 1828   2.156   1.917  14.614 -0.4682 -0.2096  0.1944
  117TMC2    O1 1829   1.969   2.299  14.411 -0.4526  0.0649  0.4826
  117TMC2    O2 1830   2.212   2.022  14.646 -0.2648 -0.5323  0.2495
  117TMC2    O5 1831   2.209   1.795  14.623 -0.1906  0.1984  0.0292
  117TMC2    H5 1832   2.142   1.724  14.608 -0.4122  0.1545  1.2114
  118MPD2     C 1833   1.613   2.362  14.175  0.3809 -0.0988 -0.3385
  118MPD2    C1 1834   1.732   2.357  14.246  0.2489  0.1654  0.1262
  118MPD2    C2 1835   1.770   2.480  14.297 -0.1689 -0.2238  0.7812
  118MPD2    C3 1836   1.708   2.602  14.261  0.0044  0.3501  0.2483
  118MPD2    C4 1837   1.608   2.604  14.173  0.0646 -0.6259  0.0009
  118MPD2    C5 1838   1.555   2.480  14.138  0.7671 -1.1567  0.1627
  118MPD2     H 1839   1.860   2.481  14.358  0.7541  2.3937 -0.6039
  118MPD2    H1 1840   1.554   2.695  14.149  0.9523 -0.2081 -0.4151
  118MPD2    H2 1841   1.565   2.270  14.141  2.6107 -1.3000 -0.2925
  118MPD2    H3 1842   1.465   2.470  14.079 -0.2169 -1.0832  1.6362
  118MPD2     N 1843   1.767   2.729  14.306  0.1355 -0.0727  0.3636
  118MPD2    H5 1844   1.729   2.812  14.263 -1.1144 -0.7955  0.0738
  118MPD2    N1 1845   1.785   2.234  14.282  0.1807  0.4073  0.1944
  118MPD2    H7 1846   1.735   2.157  14.240  0.6483  0.5692 -0.6501
  119TMC2    C1 1847   0.085   3.133  13.160  0.2653  0.5123  0.3098
  119TMC2    C2 1848   0.034   3.240  13.091 -0.4955  0.0134 -0.8824
  119TMC2    C3 1849   4.675   3.223  12.992 -0.4763 -0.0711  0.1640
  119TMC2    C4 1850   0.023   3.012  13.141  1.1140 -0.1293 -0.0995
  119TMC2    C5 1851   4.660   2.998  13.053  0.0659 -0.2295  0.3276
  119TMC2    C6 1852   4.624   3.102  12.967 -0.7153  0.4756  0.1807
  119TMC2     C 1853   0.124   3.159  13.292 -0.0440  0.2697  0.0492
  119TMC2     O 1854   0.049   3.237  13.341  0.7537  0.6296 -0.0271
  119TMC2     H 1855   0.070   3.339  13.116  0.8487 -0.9214  0.8766
  119TMC2    H1 1856   0.058   2.929  13.201 -1.0867 -1.4246 -0.6150
  119TMC2    H2 1857   4.532   3.088  12.911  0.3661 -0.7581 -1.3053
  119TMC2    C7 1858   4.585   2.877  13.027  0.3666 -0.4526 -0.2050
  119TMC2    C8 1859   4.597   3.342  12.977 -0.1887 -0.5634  0.0553
  119TMC2    O1 1860   4.539   2.872  12.912 -0.5917  0.4350 -0.4085
  119TMC2    O2 1861   4.595   3.442  13.042 -0.1250 -0.2287 -0.3335
  119TMC2    O5 1862   4.507   3.322  12.879 -0.2818  0.7083 -0.3206
  119TMC2    H5 1863   4.534   3.249  12.818 -1.7682 -1.1446  1.2405
  120MPD2     C 1864   0.394   3.107  13.723  0.6441  0.8347 -0.5186
  120MPD2    C1 1865   0.310   3.212  13.687  0.4659 -0.1693  0.5041
  120MPD2    C2 1866   0.271   3.214  13.550  0.8856 -0.4359  0.1561
  120MPD2    C3 1867   0.294   3.106  13.465  0.1893  0.1886  0.4696
  120MPD2    C4 1868   0.360   2.990  13.513 -0.4304  0.2324 -0.0922
  120MPD2    C5 1869   0.425   3.005  13.630 -0.5661 -0.5775 -0.4675
  120MPD2     H 1870   0.204   3.294  13.522  0.2639 -1.0734 -0.1941
  120MPD2    H1 1871   0.391   2.915  13.441 -1.5261  0.4785 -0.8300
  120MPD2    H2 1872   0.435   3.096  13.823  0.3688  4.6649  0.0209
  120MPD2    H3 1873   0.486   2.920  13.660  0.3623 -0.1586 -1.1693
  120MPD2     N 1874   0.228   3.085  13.341  0.4183  0.1372  0.3494
  120MPD2    H5 1875   0.261   3.006  13.288  0.8504  1.3372 -1.1628
  120MPD2    N1 1876   0.258   3.300  13.782 -0.4740  0.4657 -0.4192
  120MPD2    H7 1877   0.287   3.276  13.877 -1.2578  0.1435 -0.2624
  121TMC2    C1 1878   1.488   4.401  14.258  0.0607  0.5586  0.4970
  121TMC2    C2 1879   1.551   4.385  14.376 -0.1480  0.0180 -0.0729
  121TMC2    C3 1880   1.496   4.298  14.469  0.3164 -0.1320 -0.4809
  121TMC2    C4 1881   1.371   4.333  14.229  0.0963 -1.2559  0.6462
  121TMC2    C5 1882   1.311   4.260  14.331  0.5453 -0.3594  0.4302
  121TMC2    C6 1883   1.373   4.232  14.450  0.3249  0.2571  0.2067
  121TMC2     C 1884   1.489   4.537  14.218 -0.6964 -0.7922 -0.8118
  121TMC2     O 1885   1.481   4.622  14.303 -0.2551 -0.2428  0.0102
  121TMC2     H 1886   1.642   4.433  14.410 -1.7291  1.1651  2.5895
  121TMC2    H1 1887   1.319   4.359  14.138  0.1996 -1.1582  0.6142
  121TMC2    H2 1888   1.335   4.150  14.509  0.3729 -0.1043 -0.2711
  121TMC2    C7 1889   1.175   4.215  14.319  0.5166  1.1357  0.0743
  121TMC2    C8 1890   1.561   4.275  14.595 -0.1870  0.1848 -0.4115
  121TMC2    O1 1891   1.126   4.157  14.414 -0.4925 -0.1060 -0.5363
  121TMC2    O2 1892   1.622   4.363  14.652  0.5461 -0.1160  0.3346
  121TMC2    O5 1893   1.579   4.141  14.629  0.1672 -0.1176 -0.2212
  121TMC2    H5 1894   1.545   4.077  14.563 -2.0653  0.6699  0.1797
  122MPD2     C 1895   1.444   0.054  14.064 -0.1421  0.4447 -0.1760
  122MPD2    C1 1896   1.424   4.663  14.009  0.0474 -1.0520 -0.1606
  122MPD2    C2 1897   1.389   4.642  13.875 -0.0898 -0.1007 -0.0099
  122MPD2    C3 1898   1.381   0.019  13.793  0.4034 -0.5820  0.0806
  122MPD2    C4 1899   1.407   0.146  13.848 -0.1494  0.2592 -0.7541
  122MPD2    C5 1900   1.436   0.160  13.983 -0.0321  0.5824  0.3850
  122MPD2     H 1901   1.375   4.540  13.841  1.4230  0.4373 -2.2429
  122MPD2    H1 1902   1.385   0.236  13.792  1.3888  0.8432 -0.3988
  122MPD2    H2 1903   1.466   0.073  14.168 -0.2140 -0.9568  0.0897
  122MPD2    H3 1904   1.459   0.256  14.029 -2.1530  1.2343  0.0861
  122MPD2     N 1905   1.354   0.019  13.655  0.0056  0.7480 -0.9983
  122MPD2    H5 1906   1.351   0.112  13.615  2.9527  0.6769 -1.4343
  122MPD2    N1 1907   1.447   4.547  14.083 -0.0255  0.1716  0.0624
  122MPD2    H7 1908   1.438   4.460  14.032  2.1509  1.8571 -3.1127
  123TMC2    C1 1909   0.241   2.452  10.003  0.4486  0.1550 -0.1289
  123TMC2    C2 1910   0.361   2.513  10.004 -0.3754  0.2446  0.3574
  123TMC2    C3 1911   0.447   2.463  10.095  0.6626 -0.2929  0.3847
  123TMC2    C4 1912   0.215   2.334  10.080  0.3619  0.7804  0.5501
  123TMC2    C5 1913   0.307   2.291  10.167  0.2713 -1.0583  0.2756
  123TMC2    C6 1914   0.425   2.358  10.174 -0.0168  0.1136  0.0852
  123TMC2     C 1915   0.143   2.513   9.915  0.3355 -0.1619  0.5166
  123TMC2     O 1916   0.178   2.619   9.871  0.3174 -0.3215  0.2495
  123TMC2     H 1917   0.384   2.602   9.946 -0.8917  0.6103  0.7121
  123TMC2    H1 1918   0.116   2.290  10.078  1.0888 -0.7853 -1.0003
  123TMC2    H2 1919   0.493   2.341  10.257  2.6145  1.0192 -1.8838
  123TMC2    C7 1920   0.286   2.174  10.244  0.7770  0.4355 -0.4663
  123TMC2    C8 1921   0.587   2.508  10.093  0.2105 -0.2214  0.7099
  123TMC2    O1 1922   0.168   2.141  10.248 -0.7304  0.7385  0.3999
  123TMC2    O2 1923   0.643   2.526  10.201 -0.3475 -0.2742 -0.1160
  123TMC2    O5 1924   0.615   2.550   9.970 -0.3982 -0.8828 -0.7812
  123TMC2    H5 1925   0.549   2.512   9.908 -0.8371  2.3792 -2.3640
  124MPD2     C 1926   4.419   2.570   9.725 -0.1903  0.2034  0.1052
  124MPD2    C1 1927   4.415   2.451   9.792  0.0003 -0.0583  0.2218
  124MPD2    C2 1928   4.536   2.405   9.843  0.6372  0.2266 -0.3550
  124MPD2    C3 1929   4.650   2.480   9.830 -0.2153  0.2075 -0.1608
  124MPD2    C4 1930   4.652   2.603   9.764  0.6267 -0.5181  0.2302
  124MPD2    C5 1931   4.536   2.645   9.710 -0.2887 -0.2947 -0.5780
  124MPD2     H 1932   4.528   2.306   9.887 -0.7737  0.1038 -0.8554
  124MPD2    H1 1933   0.001   2.669   9.745  0.2397  0.0098  0.3456
  124MPD2    H2 1934   4.329   2.593   9.669 -0.9982 -0.9320  0.9422
  124MPD2    H3 1935   4.522   2.746   9.674  2.0842  0.1493 -0.2528
  124MPD2     N 1936   0.026   2.438   9.901 -0.3551  0.2698  0.3634
  124MPD2    H5 1937   0.017   2.351   9.953 -2.1899  0.7912  0.9348
  124MPD2    N1 1938   4.286   2.390   9.803  0.3305 -0.3229 -0.3820
  124MPD2    H7 1939   4.204   2.449   9.805 -0.3878 -1.4029  1.7700
  125TMC2    C1 1940   0.082   4.481  10.356  0.2871  0.8565 -0.0500
  125TMC2    C2 1941   0.160   4.386  10.299 -0.0665 -0.4799 -0.0037
  125TMC2    C3 1942   0.251   4.424  10.206  0.3324 -0.5537 -0.1954
  125TMC2    C4 1943   0.090   4.617  10.324  0.7043  0.1383 -0.4238
  125TMC2    C5 1944   0.189   4.650  10.235 -0.4814 -0.4366  0.6092
  125TMC2    C6 1945   0.270   4.557  10.177 -0.3367 -0.5116  0.0021
  125TMC2     C 1946   4.723   4.438  10.460 -0.1270  0.3085 -0.0225
  125TMC2     O 1947   4.651   4.526  10.508 -0.1241 -0.4370 -0.3293
  125TMC2     H 1948   0.129   4.283  10.303  0.6170 -0.6045  2.1601
  125TMC2    H1 1949   0.036   4.697  10.374  2.0986 -0.7484  2.4840
  125TMC2    H2 1950   0.354   4.587  10.115  0.1876 -0.4007  0.7701
  125TMC2    C7 1951   0.185   0.052  10.192  0.1352 -0.3429 -0.5845
  125TMC2    C8 1952   0.356   4.336  10.156 -0.2411  1.1133  0.2408
  125TMC2    O1 1953   0.120   0.135  10.260 -0.3779 -0.7001 -0.5710
  125TMC2    O2 1954   0.441   4.364  10.073 -0.0494 -0.1888 -0.3370
  125TMC2    O5 1955   0.393   4.284  10.281  0.1375 -0.3439 -0.0666
  125TMC2    H5 1956   0.318   4.282  10.344  0.3648  1.7466  0.2667
  126MPD1     C 1957   4.496   4.086  10.744 -0.8158  0.4726 -0.4367
  126MPD1    C1 1958   4.591   4.018  10.677 -0.3091 -0.0627 -0.1335
  126MPD1    C2 1959   4.653   4.093  10.578  0.3742 -0.0032 -0.6130
  126MPD1    C3 1960   4.642   4.234  10.575 -1.1644 -0.2323 -0.4162
  126MPD1    C4 1961   4.553   4.296  10.658  0.5861  0.7913  0.4608
  126MPD1    C5 1962   4.482   4.218  10.740  0.1539  0.4645  0.1202
  126MPD1     H 1963   4.719   4.049  10.503  1.0408 -1.5434  0.8857
  126MPD1    H1 1964   4.548   4.403  10.673 -0.9034  0.9324 -1.0928
  126MPD1    H2 1965   4.427   4.042  10.815 -1.1460  0.9557 -0.4525
  126MPD1    H3 1966   4.404   4.261  10.802  1.5192  1.5013  1.1000
  126MPD1     N 1967   4.723   4.304  10.481 -0.3171  0.1774  0.2237
  126MPD1    H5 1968   0.061   4.255  10.429 -0.2618 -2.6543  2.9170
  126MPD1    N1 1969   4.604   3.879  10.690 -0.0196 -0.0675  0.1093
  126MPD1    H6 1970   4.600   3.844  10.786 -1.9413 -1.6234 -0.5280
  126MPD1    H7 1971   4.690   3.834  10.660  0.5887  0.8870  0.4070
  127TMC2    C1 1972   1.250   3.508  10.123  1.2554 -0.6676 -0.3154
  127TMC2    C2 1973   1.350   3.483  10.207 -0.6033 -0.6376 -0.4305
  127TMC2    C3 1974   1.343   3.362  10.279 -0.0902  0.3989 -0.1099
  127TMC2    C4 1975   1.153   3.420  10.091 -0.9375 -0.4293 -0.2291
  127TMC2    C5 1976   1.156   3.303  10.160 -0.3912 -0.5500  0.4840
  127TMC2    C6 1977   1.245   3.273  10.259  0.2049 -0.5055  0.2656
  127TMC2     C 1978   1.269   3.600  10.014 -0.3681  0.3353 -0.2243
  127TMC2     O 1979   1.333   3.697  10.056  0.0691  0.8698  0.3698
  127TMC2     H 1980   1.422   3.562  10.224  0.5714 -2.2093  1.8548
  127TMC2    H1 1981   1.063   3.455  10.042 -0.6078  1.3486  0.4287
  127TMC2    H2 1982   1.243   3.191  10.330  2.7925 -0.4322  0.3929
  127TMC2    C7 1983   1.036   3.224  10.151  0.2616 -0.2015  0.2818
  127TMC2    C8 1984   1.445   3.331  10.387 -0.0279 -0.4619 -0.1327
  127TMC2    O1 1985   0.938   3.261  10.088  0.2915 -0.6997  0.0164
  127TMC2    O2 1986   1.429   3.249  10.475 -0.4942 -0.2581  0.1044
  127TMC2    O5 1987   1.561   3.394  10.366  0.3030  0.4707 -0.0145
  127TMC2    H5 1988   1.554   3.442  10.280 -0.9775  1.3535  0.5761
  128MPD2     C 1989   1.182   3.572   9.656 -0.0156 -0.5282 -0.1911
  128MPD2    C1 1990   1.242   3.626   9.769 -0.0974 -0.2600  0.0890
  128MPD2    C2 1991   1.321   3.739   9.756 -0.6651  0.9131 -0.2297
  128MPD2    C3 1992   1.331   3.801   9.636 -0.0784  0.2658  0.1868
  128MPD2    C4 1993   1.247   3.763   9.532 -1.1208 -0.2145  0.2056
  128MPD2    C5 1994   1.178   3.646   9.543  0.7343  0.5971 -0.5153
  128MPD2     H 1995   1.371   3.777   9.845  1.3550 -1.7494 -0.2231
  128MPD2    H1 1996   1.247   3.809   9.434  1.5767  1.0804  0.7970
  128MPD2    H2 1997   1.121   3.483   9.666 -1.3171  0.5114  1.1297
  128MPD2    H3 1998   1.129   3.605   9.456 -1.3895  0.4920  0.7441
  128MPD2     N 1999   1.414   3.907   9.630  0.5899  0.7732  0.1552
  128MPD2    H5 2000   1.473   3.921   9.711 -1.5852 -1.6164  2.1639
  128MPD2    N1 2001   1.228   3.555   9.892 -0.0622 -0.0551 -0.0485
  128MPD2    H7 2002   1.183   3.464   9.887 -3.6304  1.7545 -0.4306
  129TMC2    C1 2003   4.001   3.891   1.513 -0.0962  0.1067 -0.2314
  129TMC2    C2 2004   3.953   4.007   1.557 -0.0287 -0.0132  0.2045
  129TMC2    C3 2005   3.863   4.005   1.661  0.5491  0.0012  0.4781
  129TMC2    C4 2006   3.974   3.770   1.570 -0.1629 -0.4250  0.0258
  129TMC2    C5 2007   3.883   3.771   1.682  0.3645 -0.8615  0.3601
  129TMC2    C6 2008   3.834   3.892   1.731 -1.0917  0.1574 -0.3615
  129TMC2     C 2009   4.078   3.876   1.393  0.0632 -0.6268 -0.6878
  129TMC2     O 2010   4.084   3.768   1.341 -0.0570  0.3332  0.3082
  129TMC2     H 2011   3.964   4.099   1.501 -0.1895  0.1417  0.4266
  129TMC2    H1 2012   3.976   3.676   1.517 -1.7005 -0.9396  0.8582
  129TMC2    H2 2013   3.762   3.884   1.812  1.2449 -1.5313  1.5776
  129TMC2    C7 2014   3.844   3.639   1.737 -0.0433  0.1404 -0.1969
  129TMC2    C8 2015   3.816   4.122   1.734 -0.0107  0.1940 -0.1402
  129TMC2    O1 2016   3.732   3.615   1.781  0.2666 -0.1526 -0.8816
  129TMC2    O2 2017   3.734   4.123   1.822  0.6024 -0.3965 -0.1081
  129TMC2    O5 2018   3.894   4.227   1.708  0.5994  0.0025 -0.8883
  129TMC2    H5 2019   3.960   4.211   1.637  1.9965  1.4485  0.0899
  130MPD2     C 2020   4.337   3.876   1.244 -0.3516 -0.1400  0.2345
  130MPD2    C1 2021   4.289   3.980   1.321  0.3086 -0.3312 -0.3435
  130MPD2    C2 2022   4.373   4.082   1.366 -0.4801 -0.6786  0.1985
  130MPD2    C3 2023   4.509   4.078   1.341 -0.2168 -0.3959 -0.1040
  130MPD2    C4 2024   4.557   3.967   1.276 -0.3709 -0.1532 -0.0540
  130MPD2    C5 2025   4.474   3.867   1.232 -1.0270  0.3831  0.3050
  130MPD2     H 2026   4.330   4.165   1.421 -0.1576 -0.3363 -0.0670
  130MPD2    H1 2027   4.664   3.951   1.265 -0.4182  0.2445 -1.0360
  130MPD2    H2 2028   4.281   3.785   1.228 -0.1920 -0.4408  1.3177
  130MPD2    H3 2029   4.513   3.774   1.191  0.0914  1.6507 -1.4808
  130MPD2     N 2030   4.593   4.185   1.381 -0.1385  0.4117 -0.2004
  130MPD2    H5 2031   4.563   4.245   1.457  1.8834  0.1437  0.8116
  130MPD2    N1 2032   4.167   3.982   1.385 -0.0313 -0.2302 -0.1752
  130MPD2    H7 2033   4.146   4.067   1.437  0.1512 -0.6802  0.6387
  131TMC2    C1 2034   3.879   3.151   9.775 -0.0774 -0.0206  0.8733
  131TMC2    C2 2035   3.769   3.234   9.768  0.6454 -0.0766  0.2557
  131TMC2    C3 2036   3.799   3.369   9.790 -0.1315  0.2149 -0.0088
  131TMC2    C4 2037   4.002   3.191   9.821 -0.2068 -0.8225 -0.2255
  131TMC2    C5 2038   4.013   3.313   9.878  0.6241  0.1502  0.3090
  131TMC2    C6 2039   3.913   3.412   9.860  1.4390  0.4759 -0.1199
  131TMC2     C 2040   3.863   3.014   9.723 -0.0314  0.4469 -0.6172
  131TMC2     O 2041   3.958   2.940   9.740  0.2626 -0.2361 -0.1156
  131TMC2     H 2042   3.679   3.220   9.709  1.4584  1.3449 -1.3247
  131TMC2    H1 2043   4.075   3.114   9.846  0.4968 -0.3265 -0.7653
  131TMC2    H2 2044   3.919   3.509   9.908 -1.2332  0.8849 -0.5994
  131TMC2    C7 2045   4.152   3.343   9.934  0.3645  0.0468  0.9265
  131TMC2    C8 2046   3.692   3.467   9.776  0.1019 -0.0249  0.2689
  131TMC2    O1 2047   4.232   3.252   9.920 -0.0226 -0.5194  0.4100
  131TMC2    O2 2048   3.576   3.445   9.737 -0.0939 -0.5378 -0.0180
  131TMC2    O5 2049   3.744   3.593   9.762 -0.2490 -0.0251  0.9934
  131TMC2    H5 2050   3.841   3.602   9.774 -0.2134  0.1048  0.6195
  132MPD2     C 2051   3.605   2.816   9.541 -0.9566  0.6219  0.6719
  132MPD2    C1 2052   3.714   2.846   9.626 -0.2051 -0.8967  0.4512
  132MPD2    C2 2053   3.769   2.736   9.689 -0.0248  0.1883  0.0945
  132MPD2    C3 2054   3.736   2.597   9.654 -0.2492  0.5555  0.2055
  132MPD2    C4 2055   3.635   2.574   9.565 -0.1789 -0.9844 -0.2473
  132MPD2    C5 2056   3.578   2.688   9.509  0.6192  0.6761  0.5169
  132MPD2     H 2057   3.844   2.748   9.767  0.0844 -0.2960  0.0632
  132MPD2    H1 2058   3.625   2.476   9.519 -1.7996 -0.3645 -1.1956
  132MPD2    H2 2059   3.548   2.888   9.483  3.4491  2.4560 -1.3699
  132MPD2    H3 2060   3.514   2.679   9.422 -0.8959 -0.4952  1.7532
  132MPD2     N 2061   3.813   2.491   9.705 -0.5551 -0.1802  0.2189
  132MPD2    H5 2062   3.896   2.509   9.761  1.0217  0.4803 -2.3239
  132MPD2    N1 2063   3.743   2.982   9.670  0.2744  0.0925  0.3706
  132MPD2    H7 2064   3.670   3.050   9.650 -1.0311 -2.2958 -3.0718
  133TMC2    C1 2065   3.867   4.457   9.687  0.9699  0.5133  0.8480
  133TMC2    C2 2066   3.837   4.535   9.797 -0.7858 -0.2546  0.5426
  133TMC2    C3 2067   3.921   4.636   9.822  0.0689  0.2107 -0.3581
  133TMC2    C4 2068   3.976   4.471   9.608  0.6532 -0.0422 -0.2445
  133TMC2    C5 2069   4.052   4.581   9.636 -0.1207  0.2945  0.0834
  133TMC2    C6 2070   4.033   4.658   9.752  0.3329  0.2669 -0.6805
  133TMC2     C 2071   3.764   4.354   9.662  0.1693  0.1838  0.0198
  133TMC2     O 2072   3.797   4.242   9.627  0.3676 -0.4228  0.5020
  133TMC2     H 2073   3.755   4.514   9.865 -0.9520  1.4717  0.8632
  133TMC2    H1 2074   3.999   4.407   9.523  0.9308 -0.7433  0.3582
  133TMC2    H2 2075   4.104   0.000   9.778 -0.3000  1.4185 -2.3238
  133TMC2    C7 2076   4.165   4.605   9.552 -0.7507 -0.1306  0.7801
  133TMC2    C8 2077   3.884   4.727   9.925 -0.3545 -0.8565  0.0950
  133TMC2    O1 2078   4.201   4.510   9.482  0.0440  0.0982  0.1113
  133TMC2    O2 2079   3.807   4.693  10.015  0.1720 -0.3548  0.3119
  133TMC2    O5 2080   3.911   0.118   9.896 -0.4750 -0.2094  0.2735
  133TMC2    H5 2081   3.933   0.138   9.803  0.6519 -1.4156  0.2854
  134MPD2     C 2082   3.417   4.423   9.705  0.4646  0.2053  0.5340
  134MPD2    C1 2083   3.517   4.341   9.669 -0.3049  0.5974  0.4950
  134MPD2    C2 2084   3.495   4.212   9.628  0.3786  0.3029 -0.0106
  134MPD2    C3 2085   3.363   4.167   9.604 -0.2817 -0.1650  0.1849
  134MPD2    C4 2086   3.257   4.253   9.618  0.1456 -0.1388 -0.0047
  134MPD2    C5 2087   3.290   4.375   9.679  0.7530 -0.1241  0.1093
  134MPD2     H 2088   3.580   4.147   9.610  0.5374 -0.5158  3.7169
  134MPD2    H1 2089   3.154   4.221   9.608  0.4401 -1.4387  1.0192
  134MPD2    H2 2090   3.433   4.525   9.735 -1.4860  0.9654 -0.9788
  134MPD2    H3 2091   3.202   4.430   9.708  0.4293 -1.0574  0.8873
  134MPD2     N 2092   3.339   4.032   9.565 -0.7350 -0.2096 -0.5344
  134MPD2    H5 2093   3.243   4.008   9.542 -0.9304 -1.0843  1.1750
  134MPD2    N1 2094   3.643   4.406   9.682  0.2869 -0.2250  0.5798
  134MPD2    H7 2095   3.629   4.505   9.701 -0.8820 -0.2220 -0.2723
  135TMC2    C1 2096   4.731   0.414   9.637  0.0544 -0.0960  1.1303
  135TMC2    C2 2097   4.601   0.379   9.667  0.2789 -0.1550  0.3174
  135TMC2    C3 2098   4.548   0.416   9.789  0.3107 -0.5735 -0.2988
  135TMC2    C4 2099   0.061   0.491   9.723  0.5394 -0.0275 -0.6565
  135TMC2    C5 2100   0.003   0.532   9.842  0.1471  0.5749  0.2670
  135TMC2    C6 2101   4.611   0.498   9.884  0.3008 -0.5276 -0.0716
  135TMC2     C 2102   0.075   0.352   9.530 -0.0453 -0.4210  0.3642
  135TMC2     O 2103   0.186   0.397   9.496  0.3204  0.3833  0.0991
  135TMC2     H 2104   4.540   0.321   9.599  0.7379  1.1648 -1.2325
  135TMC2    H1 2105   0.165   0.518   9.710  1.0405 -1.1819  0.9651
  135TMC2    H2 2106   4.564   0.530   9.977  0.9747 -1.1355  0.4731
  135TMC2    C7 2107   0.081   0.607   9.932  1.0339 -0.0731  0.0122
  135TMC2    C8 2108   4.425   0.356   9.833  0.0947 -0.0893  0.7047
  135TMC2    O1 2109   0.173   0.676   9.892  0.3393 -0.0872  0.1231
  135TMC2    O2 2110   4.325   0.340   9.765 -0.3684 -0.1445 -0.0362
  135TMC2    O5 2111   4.433   0.307   9.957  0.2691  0.1390 -0.6209
  135TMC2    H5 2112   4.520   0.318  10.002  0.2994  0.3728 -0.7340
  136MPD2     C 2113   0.159   0.186   9.289 -0.7292  0.0116  0.8135
  136MPD2    C1 2114   0.084   0.146   9.396 -0.1292 -0.4996  0.0364
  136MPD2    C2 2115   0.059   0.014   9.412  0.5472 -1.1636 -0.4810
  136MPD2    C3 2116   0.111   4.655   9.330 -0.1409 -0.2174  0.5049
  136MPD2    C4 2117   0.178   4.693   9.220  0.5966 -0.4900 -0.6345
  136MPD2    C5 2118   0.209   0.095   9.209 -0.5466  0.4720  0.3527
  136MPD2     H 2119   0.004   4.721   9.501 -0.8052 -0.9336 -1.2415
  136MPD2    H1 2120   0.221   4.624   9.148  0.3312 -1.6400  0.3351
  136MPD2    H2 2121   0.172   0.293   9.278 -0.3196 -0.0759  0.4186
  136MPD2    H3 2122   0.259   0.136   9.122  1.6034 -0.2165  1.2690
  136MPD2     N 2123   0.083   4.522   9.347 -0.5490 -0.6877  0.4128
  136MPD2    H5 2124   0.119   4.459   9.276  1.6649  2.6521 -1.3838
  136MPD2    N1 2125   0.025   0.230   9.492  0.2031 -0.2223 -0.7032
  136MPD2    H7 2126   4.696   0.177   9.551  2.2964 -0.1854  1.5694
  137TMC2    C1 2127   0.587   4.194   9.755 -0.0616 -0.5186  0.0246
  137TMC2    C2 2128   0.669   4.289   9.708 -0.7499 -0.0912 -0.5913
  137TMC2    C3 2129   0.613   4.394   9.642 -0.4081  0.1083  0.0166
  137TMC2    C4 2130   0.450   4.197   9.732 -0.5373  0.0649  0.2005
  137TMC2    C5 2131   0.396   4.305   9.671 -0.6392  0.3301  0.0052
  137TMC2    C6 2132   0.478   4.403   9.632 -0.0721  0.0354  0.1998
  137TMC2     C 2133   0.617   4.150   9.891  0.6764 -0.0402 -0.7806
  137TMC2     O 2134   0.701   4.216   9.946 -0.3444 -0.0791  0.4046
  137TMC2     H 2135   0.775   4.285   9.730 -0.6072  0.6304 -1.1616
  137TMC2    H1 2136   0.387   4.117   9.769 -0.7544 -0.5114 -1.4383
  137TMC2    H2 2137   0.427   4.484   9.581 -3.0577 -0.8977  1.6487
  137TMC2    C7 2138   0.263   4.340   9.725  0.6063  0.2938 -0.5763
  137TMC2    C8 2139   0.694   4.508   9.614 -0.8376 -0.1358  0.1959
  137TMC2    O1 2140   0.192   4.246   9.751  0.1167 -0.0316 -0.3949
  137TMC2    O2 2141   0.801   4.516   9.556 -0.1117  0.0247 -0.0853
  137TMC2    O5 2142   0.625   4.613   9.661  0.6390 -0.0040  0.0694
  137TMC2    H5 2143   0.550   4.581   9.716  0.3853  0.1881 -0.1655
  138MPD2     C 2144   0.556   3.834  10.066 -0.8409 -0.1754 -0.6302
  138MPD2    C1 2145   0.575   3.970  10.051  0.0646  0.3157  0.7857
  138MPD2    C2 2146   0.598   4.047  10.166 -0.3318 -0.1736 -0.0819
  138MPD2    C3 2147   0.595   3.988  10.290 -0.3918  0.1618  0.2716
  138MPD2    C4 2148   0.570   3.855  10.309 -0.2047 -0.0960 -0.7085
  138MPD2    C5 2149   0.544   3.779  10.194 -0.2150  0.9357  0.4524
  138MPD2     H 2150   0.612   4.155  10.159 -1.0549  0.0474  1.7038
  138MPD2    H1 2151   0.591   3.803  10.401  0.4811  0.3230 -0.6265
  138MPD2    H2 2152   0.548   3.769   9.980  1.4996 -0.0328 -0.9369
  138MPD2    H3 2153   0.532   3.673  10.213  1.1453  0.9748  1.5267
  138MPD2     N 2154   0.593   4.081  10.397  0.1437  0.3666 -0.0493
  138MPD2    H5 2155   0.569   4.178  10.378 -1.2895  0.2521  1.1587
  138MPD2    N1 2156   0.569   4.026   9.920 -0.2340 -0.2647 -0.4108
  138MPD2    H7 2157   0.520   3.974   9.848  3.1037 -2.0440 -1.4177
  139TMC2    C1 2158   1.325   2.420  13.465 -0.6011  0.0413  0.3717
  139TMC2    C2 2159   1.287   2.336  13.360  0.0660 -0.0185  0.2455
  139TMC2    C3 2160   1.160   2.347  13.307  0.7150 -0.0247  0.7613
  139TMC2    C4 2161   1.238   2.517  13.517 -0.0896  0.3606  0.1588
  139TMC2    C5 2162   1.110   2.517  13.470  1.0928 -0.0526 -0.1815
  139TMC2    C6 2163   1.071   2.434  13.367  0.1753 -0.6314  0.7401
  139TMC2     C 2164   1.466   2.415  13.504  0.2064  0.5026  0.1891
  139TMC2     O 2165   1.540   2.338  13.443  0.7184 -0.0882 -0.2310
  139TMC2     H 2166   1.355   2.260  13.322  0.7807  0.1650  1.1518
  139TMC2    H1 2167   1.273   2.600  13.577  1.0164  0.0380 -0.0358
  139TMC2    H2 2168   0.967   2.430  13.338  0.3457 -1.5089  0.2737
  139TMC2    C7 2169   1.026   2.616  13.520 -0.0974 -1.0337  0.9170
  139TMC2    C8 2170   1.104   2.264  13.205  0.0069  0.3617  0.0481
  139TMC2    O1 2171   0.935   2.659  13.452 -0.5486  0.0952  0.1870
  139TMC2    O2 2172   0.991   2.221  13.218  0.1298  0.4581 -0.3110
  139TMC2    O5 2173   1.198   2.182  13.161 -0.3040  0.1586 -0.1682
  139TMC2    H5 2174   1.293   2.207  13.159 -0.9672  2.5090 -2.2681
  140MPD2     C 2175   1.630   2.572  13.795 -0.2158  0.6943 -0.2005
  140MPD2    C1 2176   1.617   2.503  13.677 -0.0327  0.3781  0.3206
  140MPD2    C2 2177   1.737   2.455  13.624 -0.3504 -0.4308  0.2289
  140MPD2    C3 2178   1.858   2.461  13.687 -1.1088 -0.1441  0.2150
  140MPD2    C4 2179   1.865   2.539  13.810 -0.2676  0.2021 -0.8179
  140MPD2    C5 2180   1.750   2.598  13.860 -0.5264  0.2925  0.4854
  140MPD2     H 2181   1.732   2.402  13.530 -1.0286 -0.4707  0.2826
  140MPD2    H1 2182   1.961   2.558  13.856 -0.4765 -0.1076 -0.2493
  140MPD2    H2 2183   1.541   2.609  13.845 -0.5238  1.2441 -1.1680
  140MPD2    H3 2184   1.755   2.657  13.951 -0.5711 -2.1325  2.0568
  140MPD2     N 2185   1.970   2.395  13.633 -0.2191  0.1981 -0.1371
  140MPD2    H5 2186   1.977   2.356  13.540 -0.5622 -0.6822  0.1949
  140MPD2    N1 2187   1.487   2.481  13.622 -0.5695 -0.2912  0.4652
  140MPD2    H7 2188   1.406   2.500  13.680  0.3261  2.1451  0.9017
  141TMC2    C1 2189   1.583   3.832  14.038  0.4588 -0.0188 -0.0247
  141TMC2    C2 2190   1.503   3.820  14.147 -0.1659 -0.7568 -0.3666
  141TMC2    C3 2191   1.532   3.903  14.249 -0.8016 -0.3105  0.0867
  141TMC2    C4 2192   1.690   3.912  14.031  0.5182  0.5062  0.2350
  141TMC2    C5 2193   1.704   4.004  14.133  0.2652  0.8621  0.7386
  141TMC2    C6 2194   1.629   4.000  14.243 -0.1509 -0.1654 -0.1957
  141TMC2     C 2195   1.557   3.744  13.928 -0.3313 -0.7115  0.2507
  141TMC2     O 2196   1.654   3.724  13.861 -0.2471 -0.2729  0.0546
  141TMC2     H 2197   1.436   3.738  14.166  0.2451 -0.8408  0.7183
  141TMC2    H1 2198   1.758   3.920  13.947  1.6428 -1.3586  0.9615
  141TMC2    H2 2199   1.627   4.078  14.318  1.2550 -0.3684  0.0652
  141TMC2    C7 2200   1.742   4.141  14.104 -1.2062 -0.9737  0.1710
  141TMC2    C8 2201   1.461   3.891  14.375  0.0134  0.6148  0.1580
  141TMC2    O1 2202   1.736   4.175  13.987 -0.9444 -0.0091 -0.2097
  141TMC2    O2 2203   1.514   3.951  14.468 -0.0037 -0.7794  1.0884
  141TMC2    O5 2204   1.336   3.915  14.346 -1.0116  0.0355  0.3361
  141TMC2    H5 2205   1.302   3.865  14.268 -0.1361 -0.3522  0.1938
  142TMC2    C1 2206   4.477   1.652  10.524 -0.1668 -0.3908 -0.5326
  142TMC2    C2 2207   4.502   1.662  10.656 -0.0541  0.0062 -0.6078
  142TMC2    C3 2208   4.635   1.670  10.695 -0.7683  0.6135 -0.3153
  142TMC2    C4 2209   4.575   1.632  10.435 -0.4017 -0.1801 -0.2025
  142TMC2    C5 2210   4.704   1.644  10.476 -0.5713  0.8688 -0.1516
  142TMC2    C6 2211   0.002   1.661  10.599 -0.1361 -0.9235  0.3383
  142TMC2     C 2212   4.336   1.633  10.490  0.5366 -0.4576 -0.3047
  142TMC2     O 2213   4.321   1.564  10.390  0.6074 -0.2601 -0.6621
  142TMC2     H 2214   4.433   1.650  10.738  1.3597 -0.3739  0.5232
  142TMC2    H1 2215   4.548   1.623  10.330  2.1278  0.5609 -0.9241
  142TMC2    H2 2216   0.101   1.694  10.627 -0.0364 -0.7323 -0.2562
  142TMC2    C7 2217   0.048   1.724  10.389 -0.0133 -0.2998  0.6583
  142TMC2    C8 2218   4.681   1.674  10.829 -0.2758 -0.1692  0.4708
  142TMC2    O1 2219   0.000   1.815  10.322 -0.7233 -0.5160 -0.8239
  142TMC2    O2 2220   4.628   1.629  10.930  0.4306 -0.4371 -0.4443
  142TMC2    O5 2221   0.045   1.761  10.843 -0.3064 -0.0886 -0.1900
  142TMC2    H5 2222   0.062   1.818  10.766 -1.8039  3.2428  1.9669
  143MPD2     C 2223   3.837   1.708  10.578 -0.1852 -0.0614 -0.6819
  143MPD2    C1 2224   3.898   1.612  10.498  0.0649 -0.3950  0.1506
  143MPD2    C2 2225   4.037   1.608  10.490 -0.1628 -0.2341  0.2286
  143MPD2    C3 2226   4.112   1.698  10.569  0.1350 -0.0191 -0.4591
  143MPD2    C4 2227   4.044   1.786  10.649  0.3858  0.3295  0.3985
  143MPD2    C5 2228   3.910   1.797  10.647  0.0082 -0.1019 -0.0265
  143MPD2     H 2229   4.085   1.554  10.409 -0.4994  1.1226 -0.8862
  143MPD2    H1 2230   4.100   1.854  10.711  0.0200  0.3712  0.6791
  143MPD2    H2 2231   3.729   1.717  10.587  0.2628  2.4262  2.2582
  143MPD2    H3 2232   3.862   1.861  10.720  0.1014 -0.9599  0.7980
  143MPD2     N 2233   4.248   1.699  10.574 -0.5236  0.0847 -0.1637
  143MPD2    H5 2234   4.284   1.772  10.636  2.6495 -2.9864  1.5981
  143MPD2    N1 2235   3.804   1.534  10.421 -0.8490 -0.0402 -0.5165
  143MPD2    H7 2236   3.706   1.560  10.428 -0.8877 -0.2350 -0.3529
  144TMC2    C1 2237   2.455   1.568   1.057 -0.3947  0.0177  0.1484
  144TMC2    C2 2238   2.532   1.460   1.043 -0.0025 -0.0248 -0.6353
  144TMC2    C3 2239   2.631   1.428   1.130 -0.0046 -0.8158 -0.5875
  144TMC2    C4 2240   2.468   1.654   1.155 -0.3087  0.4012 -0.5108
  144TMC2    C5 2241   2.564   1.622   1.249 -0.1756 -0.5099  0.5065
  144TMC2    C6 2242   2.649   1.513   1.237  0.2840 -0.4003 -0.7125
  144TMC2     C 2243   2.360   1.585   0.954  0.1151 -0.2423 -0.0056
  144TMC2     O 2244   2.333   1.485   0.885  0.5215 -0.1626  0.3203
  144TMC2     H 2245   2.521   1.395   0.957  0.7176 -0.1246 -0.6548
  144TMC2    H1 2246   2.398   1.734   1.176 -1.9982 -1.2016 -0.1338
  144TMC2    H2 2247   2.727   1.488   1.308  1.3874  1.5201 -1.2656
  144TMC2    C7 2248   2.597   1.716   1.354 -0.3019 -0.1964  0.3492
  144TMC2    C8 2249   2.751   1.407   1.052 -0.6393  0.2312  0.7391
  144TMC2    O1 2250   2.667   1.672   1.446 -0.0606  0.4023 -0.3962
  144TMC2    O2 2251   2.770   1.468   0.950 -0.0025  0.3745 -0.1045
  144TMC2    O5 2252   2.848   1.355   1.133 -0.3177  0.2033 -0.3083
  144TMC2    H5 2253   2.804   1.311   1.209 -0.0097 -0.5695 -0.5757
  145MPD2     C 2254   2.093   1.906   0.652  0.3019  0.0244 -0.4819
  145MPD2    C1 2255   2.123   1.776   0.640  0.2361 -0.3646 -0.2933
  145MPD2    C2 2256   2.194   1.702   0.730  1.0826  0.5119 -0.1879
  145MPD2    C3 2257   2.242   1.769   0.840 -0.4398 -0.0199  0.7414
  145MPD2    C4 2258   2.227   1.908   0.849 -0.6147 -0.3704  0.1656
  145MPD2    C5 2259   2.150   1.978   0.755  0.1974 -0.8940  0.6090
  145MPD2     H 2260   2.204   1.594   0.722 -1.3967  0.3264 -0.5760
  145MPD2    H1 2261   2.264   1.962   0.935 -1.6491 -2.7554  2.1020
  145MPD2    H2 2262   2.037   1.968   0.582  1.3775  1.9467  0.3646
  145MPD2    H3 2263   2.119   2.080   0.775  0.5659 -0.6502 -0.0893
  145MPD2     N 2264   2.323   1.720   0.937  0.3712  0.8273 -0.0339
  145MPD2    H5 2265   2.362   1.790   0.999 -1.5845  0.9276  1.0792
  145MPD2    N1 2266   2.091   1.716   0.520 -0.2098  0.6708 -0.1029
  145MPD2    H7 2267   2.131   1.623   0.506 -4.0067 -0.7604 -1.4027
  146TMC2    C1 2268   3.463   4.312  12.685  0.1209 -0.7952 -0.1812
  146TMC2    C2 2269   3.444   4.289  12.551  0.0995 -0.1602 -0.1844
  146TMC2    C3 2270   3.411   4.157  12.517  0.0477  0.2653  0.4880
  146TMC2    C4 2271   3.473   4.207  12.773 -0.6242 -0.6660 -0.3276
  146TMC2    C5 2272   3.459   4.079  12.728 -0.4154  0.0193  0.2469
  146TMC2    C6 2273   3.419   4.052  12.601  0.4475 -0.4206  0.2651
  146TMC2     C 2274   3.452   4.446  12.722  0.1199  1.1304  0.4327
  146TMC2     O 2275   3.401   4.524  12.644  0.5789 -0.2575  0.2710
  146TMC2     H 2276   3.456   4.360  12.470 -1.7066  2.1051  1.5579
  146TMC2    H1 2277   3.475   4.222  12.880 -1.1137  0.6807 -0.5057
  146TMC2    H2 2278   3.426   3.955  12.552 -0.0769  0.8524 -2.3618
  146TMC2    C7 2279   3.508   3.956  12.795 -0.2574  0.0349  0.2674
  146TMC2    C8 2280   3.363   4.121  12.384  0.7241  0.1242  1.0961
  146TMC2    O1 2281   3.472   3.847  12.746 -0.2343 -0.6894 -0.0030
  146TMC2    O2 2282   3.270   4.041  12.366 -0.0482 -0.5853 -0.0040
  146TMC2    O5 2283   3.423   4.201  12.292  0.1842  0.5607  0.6675
  146TMC2    H5 2284   3.512   4.221  12.328  0.8167 -0.3653 -0.3794
  147MPD2     C 2285   3.697   3.734  13.204 -0.8538  0.4533 -0.6763
  147MPD2    C1 2286   3.721   3.871  13.209 -1.1076  0.3604 -0.2495
  147MPD2    C2 2287   3.675   3.952  13.110  0.2635  0.2535  0.0965
  147MPD2    C3 2288   3.612   3.899  13.006 -0.0814  0.3182 -0.4913
  147MPD2    C4 2289   3.584   3.762  12.997  0.0022  0.3832 -0.0453
  147MPD2    C5 2290   3.623   3.677  13.097  0.2964  0.9352  0.2246
  147MPD2     H 2291   3.682   4.058  13.130 -3.2257  0.8617 -1.7445
  147MPD2    H1 2292   3.538   3.722  12.908 -1.5915 -0.2205  1.0565
  147MPD2    H2 2293   3.736   3.676  13.286  1.4541 -2.4391 -3.8078
  147MPD2    H3 2294   3.598   3.572  13.090 -0.4517  1.2035 -1.0784
  147MPD2     N 2295   3.580   3.991  12.906 -0.2891 -0.0294 -0.3407
  147MPD2    H5 2296   3.615   4.085  12.921 -0.4906 -0.1160  0.6516
  147MPD2    N1 2297   3.775   3.924  13.330 -0.6091  0.0828 -0.4240
  147MPD2    H7 2298   3.802   3.850  13.394 -2.8866 -1.1485 -0.8671
  148TMC2    C1 2299   3.568   3.508  10.546 -0.4778  0.7190  0.2653
  148TMC2    C2 2300   3.653   3.603  10.604 -0.2197 -0.0408  0.2987
  148TMC2    C3 2301   3.781   3.567  10.637  0.0869  1.0632  0.0138
  148TMC2    C4 2302   3.600   3.382  10.525  0.7011 -0.5164  0.2921
  148TMC2    C5 2303   3.727   3.351  10.557  0.1582 -0.3014 -0.7781
  148TMC2    C6 2304   3.824   3.443  10.602  0.3217 -0.1809 -0.7649
  148TMC2     C 2305   3.456   3.564  10.471 -0.0425 -0.4525 -0.4494
  148TMC2     O 2306   3.419   3.673  10.503 -0.2786  0.3018  0.1450
  148TMC2     H 2307   3.609   3.698  10.631 -0.4636  0.1908 -0.9103
  148TMC2    H1 2308   3.536   3.313  10.472 -0.8247  1.4443 -0.4239
  148TMC2    H2 2309   3.925   3.421  10.635  0.1226 -1.8240 -1.2529
  148TMC2    C7 2310   3.769   3.218  10.523  0.0910 -0.0709 -0.3811
  148TMC2    C8 2311   3.861   3.651  10.725  0.2232 -0.4205  0.2145
  148TMC2    O1 2312   3.683   3.131  10.505  0.4759  0.0239 -0.0030
  148TMC2    O2 2313   3.983   3.659  10.710 -0.3782 -0.4317 -0.3569
  148TMC2    O5 2314   3.785   3.744  10.784  0.5054  0.1693  0.3296
  148TMC2    H5 2315   3.692   3.714  10.795  1.4226 -2.8639 -0.2872
  149MPD2     C 2316   3.245   3.625  10.260  0.0778  0.0424 -0.0751
  149MPD2    C1 2317   3.316   3.506  10.278 -0.0107  0.2848 -0.1593
  149MPD2    C2 2318   3.281   3.397  10.195 -0.0848 -0.0109  0.0969
  149MPD2    C3 2319   3.168   3.406  10.107  0.8641  0.1028  0.3192
  149MPD2    C4 2320   3.096   3.529  10.099 -0.0751  0.1720  0.1989
  149MPD2    C5 2321   3.139   3.635  10.175 -0.1433 -0.6873  0.8322
  149MPD2     H 2322   3.336   3.304  10.204  2.1518  1.3782  0.7549
  149MPD2    H1 2323   3.008   3.544  10.038 -0.7519 -0.0101  1.1217
  149MPD2    H2 2324   3.268   3.709  10.325 -2.1481 -2.2220  3.7023
  149MPD2    H3 2325   3.080   3.725  10.168 -0.4252 -0.9824 -0.6031
  149MPD2     N 2326   3.122   3.291  10.037  0.2082 -0.5054 -0.2767
  149MPD2    H5 2327   3.033   3.303   9.991  0.4712  1.0821 -0.3821
  149MPD2    N1 2328   3.415   3.483  10.368  0.0062  0.3155 -0.2164
  149MPD2    H7 2329   3.451   3.388  10.361  0.3905  0.4851 -0.5424
  150TMC2    C1 2330   0.872   2.806  12.376 -0.1915  0.1733 -0.3374
  150TMC2    C2 2331   0.814   2.918  12.342  0.0858 -0.3654 -0.0857
  150TMC2    C3 2332   0.867   2.985  12.235 -0.3539 -0.5036  0.2072
  150TMC2    C4 2333   0.966   2.747  12.300 -0.1537  0.1920 -0.2542
  150TMC2    C5 2334   1.009   2.811  12.190  0.2148 -0.2646  0.0747
  150TMC2    C6 2335   0.963   2.933  12.154  0.6052  0.0237 -0.6493
  150TMC2     C 2336   0.796   2.715  12.464  0.3711  0.1651 -0.7189
  150TMC2     O 2337   0.860   2.634  12.528  0.0177  0.0900 -0.1615
  150TMC2     H 2338   0.748   2.968  12.412  2.9129  1.2479  1.3994
  150TMC2    H1 2339   0.995   2.644  12.319 -0.5010  0.7400  3.1868
  150TMC2    H2 2340   1.014   2.996  12.081 -0.1488  0.0433 -1.1605
  150TMC2    C7 2341   1.143   2.791  12.140 -0.0710 -0.7833  0.5718
  150TMC2    C8 2342   0.843   3.128  12.224  1.1657 -0.1864  0.8967
  150TMC2    O1 2343   1.174   2.851  12.039  0.5678 -0.0632  0.4845
  150TMC2    O2 2344   0.809   3.196  12.316 -0.0699 -0.3301 -0.3238
  150TMC2    O5 2345   0.835   3.167  12.095  0.6311  0.1638  0.8442
  150TMC2    H5 2346   0.854   3.100  12.026  5.2013  0.4143  1.8557
  151MPD2     C 2347   0.364   2.484  12.540 -0.3348 -0.4602 -0.2214
  151MPD2    C1 2348   0.332   2.590  12.457 -0.1114  0.0329 -0.2891
  151MPD2    C2 2349   0.439   2.680  12.430 -0.4598  0.8385  0.9623
  151MPD2    C3 2350   0.557   2.655  12.487 -0.1332  0.5449 -0.4864
  151MPD2    C4 2351   0.579   2.556  12.575 -0.3755 -0.2371 -0.3778
  151MPD2    C5 2352   0.487   2.460  12.595  0.1477 -0.6360  0.2870
  151MPD2     H 2353   0.435   2.767  12.365  2.1202  0.4664  0.2945
  151MPD2    H1 2354   0.677   2.538  12.618 -1.2505 -1.2509  1.2077
  151MPD2    H2 2355   0.292   2.404  12.554 -0.7866  0.0694  0.4392
  151MPD2    H3 2356   0.505   2.373  12.658  2.6265 -0.6768 -0.4801
  151MPD2     N 2357   0.666   2.739  12.439 -0.6820 -0.3797 -0.1223
  151MPD2    H5 2358   0.641   2.802  12.364 -2.4153  0.3246  1.0489
  151MPD2    N1 2359   0.201   2.593  12.408 -0.5779  0.3497 -0.0206
  151MPD2    H7 2360   0.144   2.511  12.427  0.4525 -0.8453 -2.0132
  152TMC2    C1 2361   0.949   2.336  12.911  0.0881 -0.6966  0.6719
  152TMC2    C2 2362   0.975   2.210  12.877  0.0466 -0.1380 -0.2355
  152TMC2    C3 2363   1.108   2.183  12.835  0.7650  0.6028 -0.1917
  152TMC2    C4 2364   1.047   2.436  12.906  0.3654 -0.5287 -0.6113
  152TMC2    C5 2365   1.180   2.400  12.886  0.1663  0.3637  0.4125
  152TMC2    C6 2366   1.211   2.275  12.856  0.3524  0.1250  0.9336
  152TMC2     C 2367   0.812   2.382  12.941  0.1261 -0.2647  0.1286
  152TMC2     O 2368   0.793   2.501  12.923  0.2676 -0.2013 -0.4616
  152TMC2     H 2369   0.894   2.149  12.838  1.2020 -0.8257 -1.5984
  152TMC2    H1 2370   1.006   2.536  12.912  0.6123 -0.5468  1.5379
  152TMC2    H2 2371   1.308   2.258  12.812  0.7228  0.7080  1.5310
  152TMC2    C7 2372   1.264   2.511  12.848  0.0456 -0.2212 -0.8509
  152TMC2    C8 2373   1.138   2.078  12.751 -0.4382 -0.1077 -0.4838
  152TMC2    O1 2374   1.210   2.599  12.778  0.1339  0.6016 -0.2340
  152TMC2    O2 2375   1.179   2.087  12.638  0.4343 -0.3760  0.0289
  152TMC2    O5 2376   1.085   1.962  12.799 -0.0411 -0.0464 -0.2216
  152TMC2    H5 2377   1.053   1.983  12.889 -1.7984  0.1504 -0.8832
  153MPD2     C 2378   0.512   2.184  13.041 -0.0445  0.1858  0.0986
  153MPD2    C1 2379   0.579   2.295  13.001  0.0825 -0.4868 -0.1666
  153MPD2    C2 2380   0.504   2.409  12.978 -0.8216 -0.7360 -0.3950
  153MPD2    C3 2381   0.371   2.412  12.988 -0.4722  0.0403  0.2348
  153MPD2    C4 2382   0.306   2.305  13.047  0.1236 -0.5966  0.7126
  153MPD2    C5 2383   0.373   2.191  13.065 -0.1137 -0.6548 -0.0647
  153MPD2     H 2384   0.557   2.500  12.951 -1.4132 -0.1015  0.5769
  153MPD2    H1 2385   0.200   2.306  13.072 -0.5933 -0.9242 -2.3331
  153MPD2    H2 2386   0.560   2.091  13.069 -0.4002 -0.1681 -0.4695
  153MPD2    H3 2387   0.322   2.106  13.109  1.5959 -2.4541 -1.5132
  153MPD2     N 2388   0.307   2.527  12.944  0.2167 -0.9387  0.0235
  153MPD2    H5 2389   0.372   2.580  12.888  0.5720 -1.0940  0.2875
  153MPD2    N1 2390   0.724   2.284  12.988 -0.4808  0.1763  0.4094
  153MPD2    H7 2391   0.762   2.191  12.991 -0.2960  0.2257 -0.3632
  154TMC2    C1 2392   1.895   2.648   0.501  0.5090 -0.3695 -0.0984
  154TMC2    C2 2393   1.838   2.572   0.397 -0.1022 -0.1458 -0.3574
  154TMC2    C3 2394   1.883   2.452   0.370 -0.2969 -0.7400 -0.1338
  154TMC2    C4 2395   2.005   2.604   0.560 -0.2269  0.6214  0.5422
  154TMC2    C5 2396   2.065   2.487   0.516 -0.5643 -0.4369 -0.1133
  154TMC2    C6 2397   2.000   2.404   0.429  0.2257 -0.4786 -0.1173
  154TMC2     C 2398   1.824   2.759   0.541  0.7132 -0.5485  0.0714
  154TMC2     O 2399   1.832   2.791   0.659  0.1354 -0.3018  0.0006
  154TMC2     H 2400   1.746   2.599   0.345  0.0139  0.2278 -0.3694
  154TMC2    H1 2401   2.039   2.664   0.644 -1.1380  0.7514  0.8109
  154TMC2    H2 2402   2.032   2.303   0.408 -0.4862 -0.8355  0.5668
  154TMC2    C7 2403   2.140   2.413   0.612  0.7102  0.1340  0.4744
  154TMC2    C8 2404   1.827   2.375   0.264  0.0708 -0.1453 -0.4138
  154TMC2    O1 2405   2.106   2.303   0.653  0.0268 -0.2020  0.3896
  154TMC2    O2 2406   1.823   2.251   0.271  0.2305  0.1408 -0.2761
  154TMC2    O5 2407   1.772   2.451   0.164  0.6487  0.1637 -0.4955
  154TMC2    H5 2408   1.808   2.542   0.167  0.4484  0.2507 -0.6994
  155MPD2     C 2409   1.605   2.979   0.339 -0.8382  0.4727  0.1108
  155MPD2    C1 2410   1.656   2.923   0.452  0.0139 -0.2591 -0.3859
  155MPD2    C2 2411   1.621   2.974   0.573 -0.0289 -0.4150  0.3766
  155MPD2    C3 2412   1.532   3.076   0.583  0.1468  0.3895  0.0388
  155MPD2    C4 2413   1.482   3.135   0.464 -0.3520 -0.2692  0.0832
  155MPD2    C5 2414   1.528   3.089   0.341  0.1193 -0.1509  0.1298
  155MPD2     H 2415   1.641   2.914   0.661 -0.9268  0.6675  1.3233
  155MPD2    H1 2416   1.413   3.219   0.462 -0.4551 -0.3738 -0.8254
  155MPD2    H2 2417   1.636   2.954   0.238  1.8824  0.1177  1.0337
  155MPD2    H3 2418   1.506   3.133   0.244 -1.7133 -1.5351 -0.0977
  155MPD2     N 2419   1.494   3.121   0.715  0.4427  0.3984  0.3448
  155MPD2    H5 2420   1.529   3.065   0.792  0.3324  0.5954  0.5382
  155MPD2    N1 2421   1.748   2.814   0.442 -0.8099 -0.2284 -0.3487
  155MPD2    H7 2422   1.769   2.790   0.345 -2.2010  4.0073 -1.7093
  156TMC2    C1 2423   1.182   0.234  11.248 -0.0167  0.3974 -0.3376
  156TMC2    C2 2424   1.277   0.233  11.154  0.5082 -0.1068 -0.2531
  156TMC2    C3 2425   1.259   0.315  11.040  0.2536  0.3613  0.1091
  156TMC2    C4 2426   1.064   0.299  11.219  0.4640  0.1624  1.2802
  156TMC2    C5 2427   1.049   0.392  11.116 -0.2590  0.0596 -0.1704
  156TMC2    C6 2428   1.154   0.403  11.027 -0.5754  0.3787  0.7705
  156TMC2     C 2429   1.200   0.196  11.385 -0.9281  0.0991 -0.3840
  156TMC2     O 2430   1.130   0.250  11.470  0.2816 -0.2594 -0.0467
  156TMC2     H 2431   1.369   0.182  11.177 -0.3529 -0.1538  3.1018
  156TMC2    H1 2432   0.987   0.286  11.295  0.7718 -2.5207  1.1277
  156TMC2    H2 2433   1.145   0.463  10.936  0.8839  0.1246  0.4579
  156TMC2    C7 2434   0.967   0.510  11.144 -0.1926 -0.1432  0.1558
  156TMC2    C8 2435   1.383   0.340  10.960  0.2598  0.1294  0.4957
  156TMC2    O1 2436   0.996   0.619  11.094 -0.5836 -0.6959  0.1285
  156TMC2    O2 2437   1.494   0.310  10.997 -0.1605  0.0500  0.2427
  156TMC2    O5 2438   1.348   0.389  10.835  0.3436  0.6457  0.2888
  156TMC2    H5 2439   1.250   0.392  10.831  0.1447 -0.0082  4.0924
  157MPD2     C 2440   1.416   4.685  11.545 -0.2439  0.5272  0.2281
  157MPD2    C1 2441   1.321   0.049  11.533  1.1968  0.1746 -0.2609
  157MPD2    C2 2442   1.265   0.095  11.649 -0.3970  0.4769 -0.1789
  157MPD2    C3 2443   1.271   0.026  11.771  0.4846  0.3037  0.0043
  157MPD2    C4 2444   1.363   4.656  11.777  1.0572 -0.6204  0.1783
  157MPD2    C5 2445   1.438   4.624  11.665 -0.6874 -0.1496 -0.0142
  157MPD2     H 2446   1.199   0.181  11.659 -0.1031  0.4323  2.3121
  157MPD2    H1 2447   1.375   4.591  11.863  0.0487 -1.1984 -0.1226
  157MPD2    H2 2448   1.480   4.657  11.461 -2.2301 -0.9024 -0.8097
  157MPD2    H3 2449   1.495   4.532  11.667  1.8607  1.3821 -1.4422
  157MPD2     N 2450   1.191   0.069  11.877 -0.3709 -0.3541  0.4453
  157MPD2    H5 2451   1.119   0.138  11.858  0.3784 -0.0087 -1.1734
  157MPD2    N1 2452   1.297   0.110  11.406 -0.6571 -0.0706  0.2768
  157MPD2    H7 2453   1.351   0.078  11.327 -0.4514  1.4450 -0.1877
  158TMC2    C1 2454   1.575   3.213  12.891 -0.3130  0.8764 -0.3829
  158TMC2    C2 2455   1.608   3.150  12.770 -0.2909 -0.4320 -0.0581
  158TMC2    C3 2456   1.545   3.202  12.657 -0.3587  0.6755  0.0525
  158TMC2    C4 2457   1.485   3.316  12.899 -0.9059  0.1445 -0.7972
  158TMC2    C5 2458   1.416   3.354  12.783  0.8862 -0.3622 -0.4472
  158TMC2    C6 2459   1.442   3.290  12.660 -0.4693 -0.3880  1.1469
  158TMC2     C 2460   1.678   3.197  12.996  0.4351  0.7008  0.3145
  158TMC2     O 2461   1.792   3.174  12.955 -0.6914  0.2453  0.0951
  158TMC2     H 2462   1.687   3.076  12.769 -0.0166 -0.1539  0.8926
  158TMC2    H1 2463   1.468   3.368  12.993 -0.2339 -0.9711 -0.0491
  158TMC2    H2 2464   1.403   3.335  12.569  1.2562 -1.6225 -0.1929
  158TMC2    C7 2465   1.306   3.438  12.798 -0.2144 -0.7972  0.3842
  158TMC2    C8 2466   1.601   3.142  12.535  0.0390  0.0626 -0.5212
  158TMC2    O1 2467   1.269   3.494  12.698 -0.2595 -0.0231  0.6012
  158TMC2    O2 2468   1.686   3.058  12.537  0.2353 -0.0957 -0.3021
  158TMC2    O5 2469   1.547   3.208  12.426 -0.0878 -0.3268 -0.4673
  158TMC2    H5 2470   1.478   3.278  12.430 -0.9153 -1.1157 -0.9858
  159MPD2     C 2471   1.846   3.264  13.483  0.2596 -0.1747  0.2558
  159MPD2    C1 2472   1.709   3.252  13.481  0.2030 -0.2417 -0.8179
  159MPD2    C2 2473   1.648   3.219  13.363  0.0259  0.5601 -0.0614
  159MPD2    C3 2474   1.718   3.214  13.243  0.1625  0.1269 -0.9942
  159MPD2    C4 2475   1.848   3.227  13.241 -1.0440 -1.1532  0.1902
  159MPD2    C5 2476   1.903   3.244  13.362 -0.3175  0.3746  0.5135
  159MPD2     H 2477   1.543   3.199  13.349  0.4890 -2.1122  0.2456
  159MPD2    H1 2478   1.903   3.211  13.149 -1.8844 -0.8786 -0.3569
  159MPD2    H2 2479   1.898   3.278  13.577  0.0128  1.4361  0.1484
  159MPD2    H3 2480   2.010   3.258  13.352 -0.3275 -0.8251 -1.3730
  159MPD2     N 2481   1.639   3.218  13.128  0.0720 -0.3728  0.5771
  159MPD2    H5 2482   1.538   3.228  13.135 -0.0936 -1.6729  0.1494
  159MPD2    N1 2483   1.636   3.265  13.607 -0.4722 -0.2555  0.0996
  159MPD2    H7 2484   1.692   3.280  13.691  0.9590  2.2624 -1.2905
  160TMC2    C1 2485   1.174   1.626   1.347  0.4704 -0.1858 -0.0838
  160TMC2    C2 2486   1.246   1.561   1.445  0.4671  0.3277 -0.4224
  160TMC2    C3 2487   1.385   1.576   1.442 -0.0845  0.3449 -0.2656
  160TMC2    C4 2488   1.229   1.716   1.263 -0.1565  0.2629  0.5431
  160TMC2    C5 2489   1.370   1.725   1.269 -0.0584  0.6597 -0.0532
  160TMC2    C6 2490   1.451   1.655   1.349 -0.2469 -0.1900  0.3500
  160TMC2     C 2491   1.030   1.598   1.329 -0.0523  0.5852  0.1495
  160TMC2     O 2492   1.000   1.481   1.357 -0.2926  0.4979 -0.4948
  160TMC2     H 2493   1.194   1.498   1.516  0.5677 -0.6750 -1.2382
  160TMC2    H1 2494   1.170   1.762   1.184  0.9150 -2.8009 -2.0211
  160TMC2    H2 2495   1.559   1.662   1.339 -0.3938  1.7584 -0.0105
  160TMC2    C7 2496   1.425   1.826   1.176  0.1063 -0.1108  0.3183
  160TMC2    C8 2497   1.475   1.492   1.522  0.8262 -0.0986  0.4780
  160TMC2    O1 2498   1.508   1.786   1.099  0.1056  0.2984  0.5996
  160TMC2    O2 2499   1.588   1.465   1.481 -0.1638  1.1867 -0.2391
  160TMC2    O5 2500   1.409   1.408   1.607  0.2309  0.3062 -0.1782
  160TMC2    H5 2501   1.343   1.453   1.665  1.6894  1.9207  0.2265
  161MPD2     C 2502   0.781   1.544   1.174 -0.2724 -0.0213 -0.0912
  161MPD2    C1 2503   0.833   1.673   1.203  0.1422 -0.0380 -0.2345
  161MPD2    C2 2504   0.763   1.779   1.156  0.1960  0.5235  0.1287
  161MPD2    C3 2505   0.644   1.766   1.091  0.0741  0.2721  0.0700
  161MPD2    C4 2506   0.586   1.640   1.075 -0.3378 -0.0296  0.2335
  161MPD2    C5 2507   0.656   1.532   1.115 -0.6008  0.5805  0.1121
  161MPD2     H 2508   0.805   1.876   1.181 -0.9251  0.7338  1.1890
  161MPD2    H1 2509   0.491   1.636   1.022 -0.0990  1.4988 -0.3082
  161MPD2    H2 2510   0.835   1.454   1.201  0.1625  0.4892  0.7322
  161MPD2    H3 2511   0.620   1.432   1.091 -1.0920  0.4952  1.2470
  161MPD2     N 2512   0.566   1.876   1.045 -0.0541  0.1609  0.1216
  161MPD2    H5 2513   0.479   1.853   0.998 -0.5944 -0.0618  1.2379
  161MPD2    N1 2514   0.960   1.697   1.269 -0.7001  0.2226 -0.0467
  161MPD2    H7 2515   0.994   1.792   1.267 -1.2074  0.4478  2.3029
  162TMC2    C1 2516   3.409   3.819   1.073  0.2633  0.2124  0.1074
  162TMC2    C2 2517   3.375   3.947   1.053 -0.1092 -0.4935  0.3487
  162TMC2    C3 2518   3.302   4.003   1.147 -0.7888 -0.4260  0.6335
  162TMC2    C4 2519   3.372   3.755   1.188  0.5196  0.4157  0.1725
  162TMC2    C5 2520   3.288   3.812   1.276 -0.0312  0.3260  0.2867
  162TMC2    C6 2521   3.256   3.942   1.259  0.3687  0.8460  0.6230
  162TMC2     C 2522   3.506   3.756   0.981  0.3547 -0.3998  0.4806
  162TMC2     O 2523   3.565   3.823   0.898 -0.3014  0.1169  0.2399
  162TMC2     H 2524   3.424   3.993   0.968  0.2293 -0.2798  0.6611
  162TMC2    H1 2525   3.403   3.652   1.205  1.9226  0.9339  0.7505
  162TMC2    H2 2526   3.209   3.996   1.340 -1.4965  0.8866 -0.4823
  162TMC2    C7 2527   3.213   3.737   1.387 -0.9165 -0.0971 -0.4684
  162TMC2    C8 2528   3.301   4.146   1.150  0.9331 -0.4551  0.0640
  162TMC2    O1 2529   3.142   3.806   1.465  0.0232  0.9154 -0.3866
  162TMC2    O2 2530   3.384   4.213   1.087  0.1109 -0.0474 -0.5293
  162TMC2    O5 2531   3.181   4.183   1.183 -0.1354  0.0318 -0.0679
  162TMC2    H5 2532   3.123   4.108   1.208  2.0230 -0.9419  2.0178
  163MPD2     C 2533   3.838   3.377   0.866 -0.6699  0.1295 -0.5467
  163MPD2    C1 2534   3.802   3.490   0.792  0.4536  0.6336  0.4098
  163MPD2    C2 2535   3.705   3.576   0.845 -0.1057 -0.8529 -0.5176
  163MPD2    C3 2536   3.620   3.538   0.945  0.2684 -0.5033 -0.4733
  163MPD2    C4 2537   3.642   3.417   1.004  0.2337  0.3651  0.3813
  163MPD2    C5 2538   3.759   3.347   0.971 -0.6484 -0.4010  0.6458
  163MPD2     H 2539   3.689   3.667   0.789  0.4803 -0.4667 -0.0574
  163MPD2    H1 2540   3.589   3.378   1.090  0.1551 -1.5257 -0.5196
  163MPD2    H2 2541   3.915   3.311   0.828 -1.8472 -0.2438 -2.2498
  163MPD2    H3 2542   3.767   3.254   1.027 -1.8820 -0.7059  0.3149
  163MPD2     N 2543   3.513   3.620   0.990 -0.3435 -0.8783 -0.6093
  163MPD2    H5 2544   3.447   3.572   1.051  1.6042 -0.7199  1.5932
  163MPD2    N1 2545   3.881   3.514   0.681  0.2305 -0.8354  0.2706
  163MPD2    H7 2546   3.964   3.459   0.659 -0.6902 -1.3472 -1.9050
  164TMC2    C1 2547   4.120   3.090  10.799  0.3550 -0.0651  0.5175
  164TMC2    C2 2548   4.253   3.104  10.842 -0.6271  0.2746  1.0268
  164TMC2    C3 2549   4.280   3.210  10.923 -0.0497 -0.3376 -1.0764
  164TMC2    C4 2550   4.027   3.180  10.840  0.0714  0.1360  0.5095
  164TMC2    C5 2551   4.062   3.290  10.917  0.1231  0.5233  1.3195
  164TMC2    C6 2552   4.191   3.317  10.948  0.1531 -0.7498 -0.1701
  164TMC2     C 2553   4.075   2.950  10.815  0.8285  0.1654  0.0321
  164TMC2     O 2554   3.981   2.926  10.887 -0.2130  0.6328 -0.5341
  164TMC2     H 2555   4.328   3.039  10.800  0.0753  3.0819 -2.0961
  164TMC2    H1 2556   3.923   3.155  10.822  0.7768 -0.9817 -2.0014
  164TMC2    H2 2557   4.218   3.408  11.001 -1.0500  0.3564 -1.4436
  164TMC2    C7 2558   3.951   3.370  10.962  0.5502  0.3130  0.5150
  164TMC2    C8 2559   4.413   3.204  10.977  0.2968  0.1457 -0.0090
  164TMC2    O1 2560   3.854   3.349  10.891 -0.1832 -0.6733 -0.0139
  164TMC2    O2 2561   4.490   3.125  10.937 -0.1250  0.2751 -0.6774
  164TMC2    O5 2562   4.384   3.228  11.110  0.8223  0.0703  0.3617
  164TMC2    H5 2563   4.294   3.266  11.120 -0.6428 -3.0762 -0.6222
  165TMC2    C1 2564   1.413   0.713   1.725 -0.2191 -0.5152  0.3521
  165TMC2    C2 2565   1.535   0.673   1.772 -0.1566  0.9635  0.5419
  165TMC2    C3 2566   1.643   0.712   1.694  0.4145  0.1127 -0.1995
  165TMC2    C4 2567   1.390   0.785   1.615 -0.5088  0.8380 -0.1708
  165TMC2    C5 2568   1.502   0.830   1.549 -0.0139 -0.1407  0.2796
  165TMC2    C6 2569   1.630   0.791   1.583 -0.1048 -0.1977 -0.3755
  165TMC2     C 2570   1.299   0.656   1.789 -0.2482 -0.4385  0.5159
  165TMC2     O 2571   1.312   0.555   1.856  0.3692 -0.1197 -0.0679
  165TMC2     H 2572   1.540   0.621   1.867 -1.3474  0.5749  0.4001
  165TMC2    H1 2573   1.295   0.817   1.574 -0.6509  1.3131  0.5251
  165TMC2    H2 2574   1.721   0.828   1.538  0.1901  0.2602  0.6035
  165TMC2    C7 2575   1.493   0.932   1.441 -0.1067 -0.4761 -0.1925
  165TMC2    C8 2576   1.777   0.701   1.745 -0.4829  0.6196 -0.0216
  165TMC2    O1 2577   1.585   0.942   1.363  0.2621  0.6033 -0.5151
  165TMC2    O2 2578   1.853   0.791   1.718  0.8958 -0.1154  0.0134
  165TMC2    O5 2579   1.796   0.598   1.836 -0.0735 -0.5287 -0.5320
  165TMC2    H5 2580   1.731   0.526   1.822 -0.3728  0.2840 -3.2441
  166MPD2     C 2581   0.846   0.676   2.014 -0.5097  0.3822  0.2642
  166MPD2    C1 2582   0.938   0.570   2.012 -0.4004 -0.2089  0.7880
  166MPD2    C2 2583   1.042   0.584   1.920 -0.8698 -0.5241  0.4058
  166MPD2    C3 2584   1.065   0.704   1.851  0.3146 -0.6083  0.1462
  166MPD2    C4 2585   0.968   0.800   1.852  0.1695 -0.3465 -0.8343
  166MPD2    C5 2586   0.861   0.787   1.933 -0.3688 -0.0506 -0.6720
  166MPD2     H 2587   1.111   0.503   1.902 -0.0187 -0.4050  3.1766
  166MPD2    H1 2588   0.980   0.892   1.796  4.9181 -0.9968 -0.9569
  166MPD2    H2 2589   0.757   0.676   2.076 -0.8833 -0.7282 -0.2667
  166MPD2    H3 2590   0.793   0.872   1.936 -0.7868 -0.3694 -1.0817
  166MPD2     N 2591   1.185   0.731   1.785 -0.1621 -0.2745 -0.1526
  166MPD2    H5 2592   1.185   0.819   1.736 -1.6131 -0.0623  0.2273
  166MPD2    N1 2593   0.900   0.448   2.076 -0.1123 -0.0660 -0.4888
  166MPD2    H7 2594   0.805   0.439   2.109  0.1106 -0.6832 -0.0098
  167TMC2    C1 2595   3.821   3.338  12.799  0.5989  0.6143 -0.4427
  167TMC2    C2 2596   3.804   3.362  12.933 -1.0403 -0.9510 -0.2129
  167TMC2    C3 2597   3.741   3.269  13.011  0.2028 -0.9149 -0.4132
  167TMC2    C4 2598   3.774   3.223  12.736  0.6396  0.2832  0.8200
  167TMC2    C5 2599   3.704   3.141  12.820 -0.7191 -0.0476 -0.5304
  167TMC2    C6 2600   3.690   3.160  12.957 -0.5276  0.8794  0.7788
  167TMC2     C 2601   3.869   3.446  12.718 -0.6249  0.5495  0.2025
  167TMC2     O 2602   3.941   3.531  12.774 -0.3169  0.3425  0.7094
  167TMC2     H 2603   3.848   3.453  12.972 -2.2321 -0.2056 -0.6116
  167TMC2    H1 2604   3.780   3.210  12.629 -1.5699 -0.2586  0.7567
  167TMC2    H2 2605   3.624   3.098  13.016  0.1369 -0.2929  0.3095
  167TMC2    C7 2606   3.663   3.007  12.772  0.5007 -0.2982  0.0633
  167TMC2    C8 2607   3.719   3.281  13.162  0.2113  0.3048  0.0998
  167TMC2    O1 2608   3.583   2.940  12.839  0.3715 -0.2439 -0.0846
  167TMC2    O2 2609   3.665   3.186  13.224  0.2627  0.0715 -0.0328
  167TMC2    O5 2610   3.825   3.351  13.208  0.1192  0.1787  0.5793
  167TMC2    H5 2611   3.883   3.400  13.146 -1.8984 -1.0589 -2.2934
  168MPD2     C 2612   3.939   3.644  12.505 -0.1104  0.2917  0.3283
  168MPD2    C1 2613   3.832   3.557  12.501 -0.5179 -0.2204  0.1005
  168MPD2    C2 2614   3.761   3.544  12.383 -0.2055 -0.0198  0.1559
  168MPD2    C3 2615   3.791   3.594  12.264  0.2951  0.0583 -0.3304
  168MPD2    C4 2616   3.903   3.680  12.265  0.3233 -0.2555  0.1444
  168MPD2    C5 2617   3.972   3.706  12.383  0.4322 -0.2592  0.9884
  168MPD2     H 2618   3.673   3.480  12.388 -1.8508  2.4233  2.7461
  168MPD2    H1 2619   3.923   3.740  12.177 -0.2394  0.9719  0.8552
  168MPD2    H2 2620   3.995   3.654  12.597  0.6923  0.2581 -0.1615
  168MPD2    H3 2621   4.059   3.771  12.377 -2.9262  3.9111 -2.2147
  168MPD2     N 2622   3.715   3.575  12.148 -0.4802 -0.7560  0.7718
  168MPD2    H5 2623   3.633   3.517  12.162 -1.2250 -0.0850 -0.7825
  168MPD2    N1 2624   3.799   3.464  12.598 -0.3806  0.7397  0.8824
  168MPD2    H7 2625   3.713   3.410  12.597  0.2327 -0.2149 -1.3367
  169MPD1     C 2626   0.304   3.288   9.664 -0.1635  0.5125  0.3572
  169MPD1    C1 2627   0.426   3.343   9.640  0.1479  0.4145  0.0209
  169MPD1    C2 2628   0.540   3.270   9.675 -0.1728 -0.9734  0.4232
  169MPD1    C3 2629   0.523   3.140   9.729  0.1444  0.0109  0.8111
  169MPD1    C4 2630   0.400   3.089   9.751  0.6024  0.5168 -0.3124
  169MPD1    C5 2631   0.289   3.162   9.717  0.4901 -0.0373 -0.6524
  169MPD1     H 2632   0.642   3.306   9.674 -1.5962  3.0311 -1.1336
  169MPD1    H1 2633   0.395   2.994   9.804 -0.1103  1.7743  1.8626
  169MPD1    H2 2634   0.216   3.349   9.650  0.5228  2.1023  2.9365
  169MPD1    H3 2635   0.186   3.139   9.742  0.8068 -1.2721 -0.4963
  169MPD1     N 2636   0.640   3.086   9.780  0.7961 -0.0582  0.5346
  169MPD1    H5 2637   0.724   3.142   9.772 -0.4645  1.4248 -2.3798
  169MPD1    N1 2638   0.437   3.479   9.600 -0.2348 -0.3754  0.2230
  169MPD1    H6 2639   0.524   3.498   9.550  0.1493  0.5794  1.2492
  169MPD1    H7 2640   0.360   3.497   9.536  1.3513  2.4419 -0.9144
  170MPD1     C 2641   0.383   0.274  13.119  0.8358  0.3210 -0.9318
  170MPD1    C1 2642   0.265   0.338  13.076  0.1557  0.0870  0.9520
  170MPD1    C2 2643   0.239   0.466  13.124  0.2857  0.4034  0.8975
  170MPD1    C3 2644   0.339   0.545  13.181  0.6758  0.5798 -0.1469
  170MPD1    C4 2645   0.452   0.480  13.224 -0.8161  0.7061  0.1331
  170MPD1    C5 2646   0.468   0.347  13.201 -0.0716  0.1598 -0.3758
  170MPD1     H 2647   0.145   0.517  13.105 -0.1437 -0.3433  1.0244
  170MPD1    H1 2648   0.530   0.525  13.285 -0.9135  0.8909  0.1238
  170MPD1    H2 2649   0.405   0.168  13.110 -1.5600 -0.2127 -0.5634
  170MPD1    H3 2650   0.558   0.297  13.234 -0.8130 -0.2437  1.0087
  170MPD1     N 2651   0.301   0.681  13.209  0.3688 -0.1390  1.2631
  170MPD1    H5 2652   0.208   0.710  13.180  0.7008  1.2421  1.6171
  170MPD1    N1 2653   0.166   0.270  12.994 -0.7035 -0.9163 -0.0885
  170MPD1    H6 2654   0.132   0.342  12.930  3.4030  2.8697  1.9705
  170MPD1    H7 2655   0.213   0.196  12.943  0.2597 -0.8949  0.7741
  171MPD1     C 2656   3.142   2.249  15.513 -0.0016  0.9234 -0.0479
  171MPD1    C1 2657   3.067   2.152  15.570  0.1583 -0.2707  0.0768
  171MPD1    C2 2658   3.134   2.052  15.639 -0.2508 -0.5954 -0.1120
  171MPD1    C3 2659   3.271   2.038  15.631 -0.4327 -0.2279 -0.9176
  171MPD1    C4 2660   3.335   2.126  15.557  0.1436  0.4770 -0.0221
  171MPD1    C5 2661   3.279   2.226  15.499 -0.6348  0.4942  0.7852
  171MPD1     H 2662   3.074   1.993  15.706 -0.1242 -0.4066  0.1673
  171MPD1    H1 2663   3.443   2.122  15.543 -0.0696  0.7613 -1.7999
  171MPD1    H2 2664   3.091   2.331  15.463 -3.0491 -0.0635  1.4544
  171MPD1    H3 2665   3.344   2.295  15.446  0.7059 -1.0533  0.4458
  171MPD1     N 2666   3.352   1.941  15.687 -0.5660  0.0701  0.3010
  171MPD1    H5 2667   3.451   1.957  15.672 -1.4317  1.9654 -3.3848
  171MPD1    N1 2668   2.933   2.186  15.589  0.2288  0.4284  0.1471
  171MPD1    H6 2669   2.897   2.224  15.502 -0.0215 -0.0446  0.0428
  171MPD1    H7 2670   2.881   2.106  15.624 -0.3545  0.7065 -0.0896
  172MPD1     C 2671   2.543   1.342   0.258 -0.2548  0.4942 -0.6533
  172MPD1    C1 2672   2.520   1.456   0.186 -0.0451  0.3797  0.1101
  172MPD1    C2 2673   2.508   1.574   0.250 -0.0844 -0.8076 -1.3189
  172MPD1    C3 2674   2.515   1.584   0.385  0.2625  0.7088  0.3723
  172MPD1    C4 2675   2.556   1.478   0.455  0.1340 -0.6911  0.2161
  172MPD1    C5 2676   2.568   1.356   0.395  0.7451 -0.6525 -0.6952
  172MPD1     H 2677   2.502   1.666   0.192  0.2693 -1.4583 -2.3809
  172MPD1    H1 2678   2.577   1.491   0.560  1.5278 -1.9532  0.0930
  172MPD1    H2 2679   2.557   1.245   0.211 -2.7630  0.1667 -0.7220
  172MPD1    H3 2680   2.588   1.269   0.457 -2.7545 -0.0966  1.2475
  172MPD1     N 2681   2.494   1.701   0.461  0.6305  0.4391 -0.8165
  172MPD1    H5 2682   2.513   1.697   0.560  0.0508  0.5141 -0.7016
  172MPD1    N1 2683   2.531   1.448   0.045 -0.3359  0.2708  0.1275
  172MPD1    H6 2684   2.461   1.511   0.006 -0.0312 -0.6628 -1.9198
  172MPD1    H7 2685   2.513   1.355   0.007 -1.8650  1.2664 -1.6219
  173MPD1     C 2686   3.483   0.449  14.272  0.2015 -0.1704 -0.2595
  173MPD1    C1 2687   3.550   0.394  14.377 -0.5273 -0.1357  0.2005
  173MPD1    C2 2688   3.593   0.479  14.480  0.5360  0.4173  0.1147
  173MPD1    C3 2689   3.577   0.615  14.466 -0.3657  0.4912 -0.6989
  173MPD1    C4 2690   3.516   0.667  14.354 -0.1434  0.0536 -0.7143
  173MPD1    C5 2691   3.471   0.578  14.259 -0.2676 -0.8505  0.2633
  173MPD1     H 2692   3.634   0.447  14.575 -2.0944 -0.7897  0.8438
  173MPD1    H1 2693   3.493   0.772  14.336  1.1726  0.1143 -2.0408
  173MPD1    H2 2694   3.430   0.375  14.212  1.0545 -1.8375  1.0352
  173MPD1    H3 2695   3.414   0.618  14.175 -0.6342 -2.0797 -0.0703
  173MPD1     N 2696   3.628   0.696  14.577  0.1251  0.5717 -0.2467
  173MPD1    H5 2697   3.676   0.649  14.653 -0.0122 -0.0945 -0.5730
  173MPD1    N1 2698   3.553   0.259  14.406 -0.0003 -0.0106  0.9192
  173MPD1    H6 2699   3.641   0.237  14.453 -0.0577 -1.5545  0.3104
  173MPD1    H7 2700   3.550   0.209  14.318  1.7283  2.0595 -0.2886
  174MPD1     C 2701   3.837   1.664  14.606 -0.0273  0.2603 -0.6411
  174MPD1    C1 2702   3.736   1.587  14.553  0.0360 -0.0303  0.0811
  174MPD1    C2 2703   3.741   1.450  14.561  0.4011  0.1549 -0.0855
  174MPD1    C3 2704   3.839   1.391  14.645 -0.6248  0.0874  0.3622
  174MPD1    C4 2705   3.947   1.466  14.692  1.0720 -0.1845 -0.1364
  174MPD1    C5 2706   3.938   1.604  14.674  0.2255 -0.1756 -0.1319
  174MPD1     H 2707   3.656   1.394  14.524  2.4062 -1.6158 -1.9544
  174MPD1    H1 2708   4.025   1.431  14.759 -0.9376 -0.9241  1.7996
  174MPD1    H2 2709   3.838   1.773  14.605 -1.8087  0.2556 -2.2598
  174MPD1    H3 2710   4.017   1.669  14.710  1.3084 -0.3787 -2.0978
  174MPD1     N 2711   3.820   1.256  14.683  0.2664 -0.8637  0.0702
  174MPD1    H5 2712   3.745   1.205  14.639 -0.3652 -1.0543  1.3949
  174MPD1    N1 2713   3.651   1.654  14.456  0.1508  0.1472 -0.1782
  174MPD1    H6 2714   3.555   1.620  14.455  0.4900 -0.8320  0.9585
  174MPD1    H7 2715   3.659   1.755  14.454 -0.9537  0.2173 -1.0678
  175MPD1     C 2716   2.537   2.784  15.090 -0.9355  0.1602  0.3428
  175MPD1    C1 2717   2.623   2.677  15.123 -0.0623  0.4824 -0.0620
  175MPD1    C2 2718   2.581   2.591  15.224 -0.4266  0.5008  0.2335
  175MPD1    C3 2719   2.472   2.616  15.299 -0.0825 -0.6181 -0.2871
  175MPD1    C4 2720   2.402   2.728  15.271 -0.6502  0.1653 -0.3259
  175MPD1    C5 2721   2.426   2.807  15.165 -0.2618  0.6292 -0.3980
  175MPD1     H 2722   2.647   2.507  15.244 -0.1891  1.1359  2.0901
  175MPD1    H1 2723   2.313   2.747  15.330 -1.1599  2.3498 -1.8027
  175MPD1    H2 2724   2.547   2.846  15.002  0.5697  0.0508  0.4370
  175MPD1    H3 2725   2.354   2.882  15.137 -1.6341 -0.9686 -1.1523
  175MPD1     N 2726   2.432   2.542  15.412 -0.1952  0.0284 -0.2989
  175MPD1    H5 2727   2.362   2.589  15.468 -1.2096 -1.4715 -0.3263
  175MPD1    N1 2728   2.728   2.647  15.036  0.3731 -0.2801  0.1808
  175MPD1    H6 2729   2.772   2.726  14.990 -2.5117  0.7886 -0.7616
  175MPD1    H7 2730   2.802   2.586  15.071  0.8978  1.3744  1.9131
  176MPD1     C 2731   3.841   3.958  17.387  0.6786  0.0368  0.1533
  176MPD1    C1 2732   3.980   3.966  17.373 -1.1157 -0.3721  0.3926
  176MPD1    C2 2733   4.049   4.076  17.431  0.1409  0.5622 -0.4835
  176MPD1    C3 2734   3.978   4.157  17.513 -0.1768  0.0970 -0.1812
  176MPD1    C4 2735   3.844   4.139  17.542  0.1242 -0.2051 -0.5734
  176MPD1    C5 2736   3.773   4.032  17.478  0.1913 -0.0409 -1.5025
  176MPD1     H 2737   4.152   4.101  17.410 -0.0517  1.9237  0.2002
  176MPD1    H1 2738   3.780   4.204  17.600 -0.7159 -2.5640  1.1710
  176MPD1    H2 2739   3.777   3.895  17.326 -1.0450  1.2026  0.7627
  176MPD1    H3 2740   3.666   4.027  17.491  0.2759 -0.8910 -1.1842
  176MPD1     N 2741   4.052   4.275  17.552 -0.2130  0.1924  0.5714
  176MPD1    H5 2742   4.147   4.289  17.518  0.5503 -4.0772  0.8336
  176MPD1    N1 2743   4.052   3.887  17.280 -0.4098  0.4319  0.9276
  176MPD1    H6 2744   4.017   3.794  17.261  2.1575 -0.1699 -0.8912
  176MPD1    H7 2745   4.151   3.888  17.302 -0.3635  0.5683  0.7175
  177MPD1     C 2746   2.143   3.976  10.044  1.1100  0.7866 -0.7652
  177MPD1    C1 2747   2.063   3.880   9.991  0.7255 -0.9079  0.1946
  177MPD1    C2 2748   1.952   3.910   9.907  0.3735  0.8495 -0.1912
  177MPD1    C3 2749   1.927   4.044   9.875  0.0574  0.0403  0.1384
  177MPD1    C4 2750   2.016   4.140   9.921  1.3467 -0.0656  0.1636
  177MPD1    C5 2751   2.120   4.101  10.007 -0.6530  0.6951 -0.3952
  177MPD1     H 2752   1.891   3.830   9.866  1.6398 -0.7236  0.9918
  177MPD1    H1 2753   2.025   4.243   9.890  3.3888  0.0603  1.1831
  177MPD1    H2 2754   2.225   3.952  10.111 -0.8049 -0.7382  1.0244
  177MPD1    H3 2755   2.199   4.175  10.019 -2.0153  2.3673 -1.6465
  177MPD1     N 2756   1.820   4.079   9.789  0.4034 -0.2867 -0.2439
  177MPD1    H5 2757   1.755   4.002   9.779  0.8510 -0.6423 -0.4044
  177MPD1    N1 2758   2.074   3.746  10.031  0.8612  0.0804  0.0673
  177MPD1    H6 2759   2.165   3.720  10.067  0.8631  2.2296  1.5831
  177MPD1    H7 2760   2.021   3.675   9.979 -0.6077  0.2030  1.3914
  178MPD1     C 2761   0.500   0.260   0.792 -0.0029  1.3323 -0.3882
  178MPD1    C1 2762   0.442   0.138   0.768  0.4244  0.1879 -0.1220
  178MPD1    C2 2763   0.421   0.094   0.638  0.0052 -0.2149 -0.2529
  178MPD1    C3 2764   0.477   0.166   0.534 -0.0556 -0.5900  0.6759
  178MPD1    C4 2765   0.542   0.285   0.567 -0.1294 -0.5244 -0.4934
  178MPD1    C5 2766   0.548   0.333   0.692 -0.1691 -0.1754 -0.0016
  178MPD1     H 2767   0.384   4.728   0.620  1.5719 -0.7620 -0.4250
  178MPD1    H1 2768   0.594   0.344   0.493 -0.0302 -1.2723 -1.0140
  178MPD1    H2 2769   0.519   0.293   0.893 -2.1634 -0.2679  0.5209
  178MPD1    H3 2770   0.605   0.423   0.710 -2.2552  2.1697 -4.8842
  178MPD1     N 2771   0.479   0.132   0.394 -0.3026  0.1567 -0.5719
  178MPD1    H5 2772   0.527   0.199   0.334  0.7695  0.3261  0.4654
  178MPD1    N1 2773   0.397   0.061   0.876 -0.2703  0.1891  0.4281
  178MPD1    H6 2774   0.362   4.704   0.847 -0.1745  0.4001 -0.3473
  178MPD1    H7 2775   0.466   0.053   0.950  3.5276  0.4622 -3.0850
  179MPD1     C 2776   4.496   3.744  15.320  0.1187 -0.1674 -0.0111
  179MPD1    C1 2777   4.442   3.621  15.300 -0.3664 -1.0446  0.6467
  179MPD1    C2 2778   4.378   3.560  15.412 -0.4689  0.2017  0.1943
  179MPD1    C3 2779   4.373   3.620  15.536 -0.1704  0.1475 -0.7344
  179MPD1    C4 2780   4.444   3.735  15.555  0.4098  0.2261 -0.4025
  179MPD1    C5 2781   4.499   3.793  15.442  0.0258  0.7085 -0.3723
  179MPD1     H 2782   4.347   3.457  15.400 -0.9746  0.3632  0.1161
  179MPD1    H1 2783   4.438   3.797  15.644 -0.1972 -2.6306  1.5280
  179MPD1    H2 2784   4.535   3.797  15.234 -0.8815 -0.0273 -0.3727
  179MPD1    H3 2785   4.542   3.893  15.446 -0.8219  1.0022  1.7066
  179MPD1     N 2786   4.311   3.560  15.654  0.5319 -0.1654  0.3118
  179MPD1    H5 2787   4.317   3.619  15.737 -0.7815 -0.4017  0.5817
  179MPD1    N1 2788   4.430   3.567  15.169  0.6107 -0.0012  0.0423
  179MPD1    H6 2789   4.438   3.466  15.181  0.9101  0.2242  1.8115
  179MPD1    H7 2790   4.501   3.606  15.107  1.1108  0.3489  0.8312
  180MPD1     C 2791   0.433   4.622  15.221  0.3708 -0.0940  0.8516
  180MPD1    C1 2792   0.335   4.530  15.256  0.6325 -0.0322 -0.1284
  180MPD1    C2 2793   0.216   4.545  15.180  0.1419 -0.2145  0.9144
  180MPD1    C3 2794   0.198   4.644  15.079  0.8170  0.3307 -0.0600
  180MPD1    C4 2795   0.306   4.732  15.053 -0.1000 -0.0139  0.5418
  180MPD1    C5 2796   0.426   4.714  15.119 -0.5286 -0.4548  0.4737
  180MPD1     H 2797   0.129   4.480  15.188 -0.4989  0.6384  0.9572
  180MPD1    H1 2798   0.291   0.071  14.974 -1.0077 -0.1511  0.5778
  180MPD1    H2 2799   0.525   4.625  15.279  0.7314 -1.6375  0.3669
  180MPD1    H3 2800   0.503   0.051  15.092  0.8382 -0.9000  3.1203
  180MPD1     N 2801   0.080   4.652  15.004 -0.9606  0.4799 -0.1668
  180MPD1    H5 2802   0.002   4.598  15.039  0.6948 -1.3983  0.6716
  180MPD1    N1 2803   0.353   4.418  15.337  0.2571  0.2565  0.7369
  180MPD1    H6 2804   0.429   4.443  15.400  0.3152  2.4113 -0.1780
  180MPD1    H7 2805   0.272   4.398  15.395  1.2554 -1.3926  1.5418
  181MPD1     C 2806   4.631   1.035   9.934 -0.5887  0.2969  0.4196
  181MPD1    C1 2807   4.672   1.162   9.899 -0.0149 -0.6637  0.5948
  181MPD1    C2 2808   0.070   1.190   9.892 -0.3081 -0.0638  0.6912
  181MPD1    C3 2809   0.163   1.094   9.926 -0.3396 -0.0166 -0.4510
  181MPD1    C4 2810   0.121   0.967   9.962  0.7745  0.5871  0.2074
  181MPD1    C5 2811   4.722   0.937   9.970  0.5118 -0.5706  0.8360
  181MPD1     H 2812   0.095   1.290   9.859  2.1679 -0.9138  0.0265
  181MPD1    H1 2813   0.194   0.889   9.982  2.1320  1.5600 -0.9012
  181MPD1    H2 2814   4.526   1.011   9.923 -0.1889  0.1078 -2.8982
  181MPD1    H3 2815   4.682   0.843  10.006 -0.7853  1.2149  3.9679
  181MPD1     N 2816   0.298   1.108   9.900  0.1286 -0.2298  0.3173
  181MPD1    H5 2817   0.359   1.031   9.924 -0.2350  0.2362  2.7113
  181MPD1    N1 2818   4.578   1.247   9.835  0.3702 -0.0591  0.3630
  181MPD1    H6 2819   4.601   1.346   9.838  0.6620 -0.1094 -0.1706
  181MPD1    H7 2820   4.480   1.237   9.862  0.4549 -1.6262  0.0618
  182MPD1     C 2821   2.271   0.376   1.664  0.6413  0.2591  0.6860
  182MPD1    C1 2822   2.284   0.442   1.547 -0.4312 -1.0567 -0.6096
  182MPD1    C2 2823   2.193   0.438   1.440 -0.3972  0.7635  0.3897
  182MPD1    C3 2824   2.066   0.394   1.478 -0.2330 -0.6687  0.6063
  182MPD1    C4 2825   2.051   0.335   1.601 -0.6963  0.7221  0.7216
  182MPD1    C5 2826   2.148   0.331   1.691 -0.4799 -0.1552  0.1055
  182MPD1     H 2827   2.211   0.478   1.341  1.6647  0.2932  0.5781
  182MPD1    H1 2828   1.956   0.297   1.635 -1.6780  1.5303 -1.1208
  182MPD1    H2 2829   2.352   0.359   1.735  0.3496 -0.9381  0.7254
  182MPD1    H3 2830   2.124   0.293   1.790 -4.1044 -0.7316 -0.9650
  182MPD1     N 2831   1.950   0.405   1.397  0.0790  0.2776  0.3440
  182MPD1    H5 2832   1.861   0.362   1.421  0.5588 -0.7947  0.2122
  182MPD1    N1 2833   2.417   0.482   1.520  0.1009  0.0850 -0.1548
  182MPD1    H6 2834   2.409   0.550   1.444  2.3266  0.5993  0.0852
  182MPD1    H7 2835   2.473   0.518   1.597  1.2144  0.3966 -1.1154
  183MPD1     C 2836   0.964   4.183   8.416  0.4208  0.1880  0.0424
  183MPD1    C1 2837   0.864   4.281   8.407  0.4404  0.1916  0.3733
  183MPD1    C2 2838   0.881   4.389   8.485 -0.0495  0.4784 -0.3317
  183MPD1    C3 2839   1.010   4.424   8.529  0.4994 -0.1460  0.5102
  183MPD1    C4 2840   1.115   4.335   8.522 -0.1596  0.1310 -0.1708
  183MPD1    C5 2841   1.087   4.222   8.453  0.4734 -0.2226 -1.1746
  183MPD1     H 2842   0.802   4.464   8.487 -1.0316 -0.5267 -1.5037
  183MPD1    H1 2843   1.220   4.353   8.543 -0.5389  0.8889  1.1444
  183MPD1    H2 2844   0.951   4.087   8.367  1.7921  0.1847 -0.3186
  183MPD1    H3 2845   1.169   4.156   8.427  1.4553  1.1395 -1.5439
  183MPD1     N 2846   1.033   4.552   8.592 -0.2660 -0.0086 -0.1295
  183MPD1    H5 2847   0.953   4.613   8.595 -0.5760 -0.4643  0.7456
  183MPD1    N1 2848   0.736   4.259   8.347  0.7981 -0.2685  0.3190
  183MPD1    H6 2849   0.739   4.181   8.282 -1.7348 -0.5140  0.4817
  183MPD1    H7 2850   0.680   4.335   8.309  1.8483 -1.2031 -3.0328
  184MPD1     C 2851   0.572   3.362  10.134 -0.6757  0.4537 -0.0077
  184MPD1    C1 2852   0.676   3.399  10.210  0.2374  0.0041 -0.3231
  184MPD1    C2 2853   0.758   3.513  10.168  0.3784 -0.0142  0.1117
  184MPD1    C3 2854   0.738   3.567  10.038  0.0407  0.6579  0.0703
  184MPD1    C4 2855   0.628   3.520   9.968  0.5810  0.4501  1.1651
  184MPD1    C5 2856   0.552   3.416  10.012  0.2446 -0.1639 -0.2700
  184MPD1     H 2857   0.841   3.556  10.222 -1.2398  4.2225 -0.8110
  184MPD1    H1 2858   0.599   3.560   9.872  0.6907 -0.7161  0.6409
  184MPD1    H2 2859   0.502   3.285  10.162  1.3606 -0.3743  2.8169
  184MPD1    H3 2860   0.475   3.370   9.951  1.6990 -2.2936 -0.4863
  184MPD1     N 2861   0.814   3.671   9.972 -0.2251 -0.2234 -0.1659
  184MPD1    H5 2862   0.787   3.701   9.878 -0.1939  2.0659  0.5536
  184MPD1    N1 2863   0.680   3.353  10.343 -0.3152  0.2596  0.1305
  184MPD1    H6 2864   0.655   3.254  10.353 -1.2538  0.3300 -1.4725
  184MPD1    H7 2865   0.771   3.364  10.387  0.7015 -1.2044 -1.5996
  185MPD1     C 2866   0.834   4.340   9.247 -0.6294  0.3629 -0.3978
  185MPD1    C1 2867   0.748   4.250   9.301 -0.0439 -0.0362 -0.5509
  185MPD1    C2 2868   0.790   4.181   9.417  0.4790 -0.2506 -0.1396
  185MPD1    C3 2869   0.904   4.215   9.487  0.3345 -0.5876  0.1328
  185MPD1    C4 2870   0.979   4.317   9.431  0.6867  0.9646 -0.2079
  185MPD1    C5 2871   0.947   4.369   9.315 -0.4170  0.1380 -0.5244
  185MPD1     H 2872   0.734   4.093   9.443  0.9850 -0.8172 -0.9761
  185MPD1    H1 2873   1.080   4.333   9.469  2.0049 -2.2015 -2.3476
  185MPD1    H2 2874   0.808   4.396   9.158 -0.3931  0.1586 -0.5966
  185MPD1    H3 2875   1.005   4.449   9.271 -2.1443  1.9834  0.5618
  185MPD1     N 2876   0.955   4.152   9.601 -0.6853 -0.2625 -0.5821
  185MPD1    H5 2877   1.049   4.182   9.627 -1.2521  0.7602  0.3171
  185MPD1    N1 2878   0.643   4.198   9.226  0.4451  0.0842  0.1490
  185MPD1    H6 2879   0.603   4.254   9.150 -2.1752  0.4829  1.8437
  185MPD1    H7 2880   0.572   4.145   9.276 -0.5890  1.0724 -0.2611
  186MPD1     C 2881   4.539   4.111  15.750 -0.0999 -0.6636  0.5701
  186MPD1    C1 2882   4.654   4.169  15.795  0.3492 -1.0125  0.0930
  186MPD1    C2 2883   4.728   4.102  15.892 -0.1714  0.0183  0.4992
  186MPD1    C3 2884   4.686   3.995  15.966 -0.1418 -1.3263  0.7591
  186MPD1    C4 2885   4.562   3.947  15.929  0.4933  0.2039 -0.1215
  186MPD1    C5 2886   4.495   4.007  15.826 -0.3138  0.4106 -0.5208
  186MPD1     H 2887   0.088   4.142  15.925 -0.2014 -0.0312  0.6437
  186MPD1    H1 2888   4.520   3.856  15.972  1.8398 -1.4728 -2.3485
  186MPD1    H2 2889   4.490   4.157  15.665 -1.4048  0.0323  1.6920
  186MPD1    H3 2890   4.401   3.956  15.808 -0.9837  1.2842  0.5479
  186MPD1     N 2891   0.029   3.931  16.067 -0.9391 -0.5003  0.2370
  186MPD1    H5 2892   4.726   3.847  16.109 -0.5644 -0.5735  0.4300
  186MPD1    N1 2893   4.720   4.268  15.723 -0.0101 -0.7482  0.0383
  186MPD1    H6 2894   0.051   4.335  15.763  0.4472 -1.9512  1.3330
  186MPD1    H7 2895   4.654   4.313  15.661  0.9281  0.5931  0.0239
  187MPD1     C 2896   4.461   0.355   0.412  0.0452 -0.6699 -0.3618
  187MPD1    C1 2897   4.532   0.418   0.313 -0.4919  0.3988 -0.9919
  187MPD1    C2 2898   4.475   0.457   0.196 -0.1210  0.6428  0.4479
  187MPD1    C3 2899   4.339   0.466   0.184 -1.5988  0.7707 -0.2919
  187MPD1    C4 2900   4.263   0.411   0.287 -0.1599  0.3734  0.2985
  187MPD1    C5 2901   4.325   0.352   0.394 -0.0367  0.5653 -0.2755
  187MPD1     H 2902   4.541   0.493   0.118  1.3414 -1.0143  0.9306
  187MPD1    H1 2903   4.155   0.411   0.285 -0.1712  0.3551  0.8748
  187MPD1    H2 2904   4.503   0.322   0.506  0.6138  1.9374  0.2733
  187MPD1    H3 2905   4.258   0.315   0.471  0.5056  0.3701  0.1051
  187MPD1     N 2906   4.268   0.505   0.064  0.7602  0.5483  0.3935
  187MPD1    H5 2907   4.167   0.505   0.073  0.4559  2.0752 -3.1605
  187MPD1    N1 2908   4.673   0.425   0.328  0.2485  0.5029 -0.2725
  187MPD1    H6 2909   4.707   0.508   0.281  2.0062  0.3736  0.7807
  187MPD1    H7 2910   4.712   0.424   0.422 -1.5256  0.0333  0.4745
  188MPD1     C 2911   3.052   4.505   9.977 -0.1061 -0.1602 -1.1653
  188MPD1    C1 2912   3.177   4.475  10.017  0.5057  0.1792  0.1038
  188MPD1    C2 2913   3.212   4.345  10.032 -1.1668 -0.5667  0.0474
  188MPD1    C3 2914   3.128   4.236  10.001  0.0100  0.1225 -0.5921
  188MPD1    C4 2915   3.000   4.265   9.975  0.0495  0.0476  0.8542
  188MPD1    C5 2916   2.964   4.397   9.959  0.0984 -0.2886 -0.2053
  188MPD1     H 2917   3.314   4.322  10.060 -0.9244 -1.2098 -1.3588
  188MPD1    H1 2918   2.942   4.186   9.927  0.8838  1.0015 -1.7075
  188MPD1    H2 2919   3.005   4.602   9.967 -0.4179 -0.1322  0.5710
  188MPD1    H3 2920   2.861   4.421   9.933  0.9268  1.9195 -1.3992
  188MPD1     N 2921   3.175   4.100   9.999 -0.1726 -0.3119  0.2593
  188MPD1    H5 2922   3.113   4.030   9.959 -1.8887  2.2763 -1.5757
  188MPD1    N1 2923   3.266   4.578  10.060  0.7075 -0.0385  0.1535
  188MPD1    H6 2924   3.354   4.533  10.083  0.7762  0.2925  0.5268
  188MPD1    H7 2925   3.288   4.647   9.988 -2.2052  0.8867  0.1505
  189MPD1     C 2926   1.106   1.207   0.490  0.0789 -0.3503  0.6324
  189MPD1    C1 2927   1.073   1.127   0.384 -0.5164  0.0906  0.3893
  189MPD1    C2 2928   0.990   1.188   0.287 -0.3092 -0.0658  0.5641
  189MPD1    C3 2929   0.921   1.311   0.308  0.0880 -0.3025 -0.0786
  189MPD1    C4 2930   0.946   1.380   0.423 -0.1734 -0.0482 -0.1051
  189MPD1    C5 2931   1.042   1.331   0.510 -0.2485  0.1588  0.7095
  189MPD1     H 2932   0.966   1.132   0.197  1.9053 -0.4950  0.2303
  189MPD1    H1 2933   0.909   1.477   0.454 -0.0014 -0.2350  0.6863
  189MPD1    H2 2934   1.173   1.162   0.562 -1.2897 -0.4078  1.8856
  189MPD1    H3 2935   1.077   1.367   0.606  1.3178 -0.2489  0.2961
  189MPD1     N 2936   0.837   1.360   0.198  0.4265 -0.4090  0.7135
  189MPD1    H5 2937   0.831   1.308   0.111  2.0037 -0.6121  0.7261
  189MPD1    N1 2938   1.150   1.019   0.350 -0.0373 -0.2274  0.0308
  189MPD1    H6 2939   1.106   0.954   0.285  1.3726 -0.5833 -0.5649
  189MPD1    H7 2940   1.185   0.959   0.424  3.9720 -1.6012 -3.0338
  190MPD1     C 2941   4.527   0.029  15.342  0.2706  0.3872 -0.3941
  190MPD1    C1 2942   4.521   4.673  15.446  0.4494 -0.6058  0.3720
  190MPD1    C2 2943   4.627   4.636  15.527 -0.0744  0.3708  0.0644
  190MPD1    C3 2944   0.013   4.684  15.495 -0.0027  0.6529 -0.1584
  190MPD1    C4 2945   0.026   0.041  15.384  0.4621  0.5254 -0.7461
  190MPD1    C5 2946   4.649   0.088  15.318  0.0408 -0.0741  0.2021
  190MPD1     H 2947   4.607   4.564  15.606  0.1555 -0.9134 -1.0489
  190MPD1    H1 2948   0.116   0.097  15.357  0.3826  0.8822 -0.2585
  190MPD1    H2 2949   4.436   0.058  15.291 -0.2281 -1.1349 -0.3584
  190MPD1    H3 2950   4.647   0.163  15.240 -1.8844 -0.3571 -0.0143
  190MPD1     N 2951   0.126   4.673  15.586  0.2047  0.4578  0.3265
  190MPD1    H5 2952   0.213   4.715  15.554 -0.3765  2.6154  1.5575
  190MPD1    N1 2953   4.399   4.620  15.474  0.0404  0.3004 -0.8996
  190MPD1    H6 2954   4.364   4.630  15.569  0.1179 -1.9469 -0.6548
  190MPD1    H7 2955   4.323   4.657  15.416  1.4581  1.3613 -2.0996
  191MPD1     C 2956   3.823   0.715  12.639  0.5411  0.4888 -0.0437
  191MPD1    C1 2957   3.856   0.846  12.624 -0.0800  0.0856  0.1888
  191MPD1    C2 2958   3.860   0.898  12.493  0.4480 -0.1771 -0.0305
  191MPD1    C3 2959   3.833   0.824  12.381 -0.3522  0.6549 -0.3400
  191MPD1    C4 2960   3.800   0.697  12.400 -0.4532 -0.2510 -0.2808
  191MPD1    C5 2961   3.796   0.640  12.524  0.1422  0.3891  0.5305
  191MPD1     H 2962   3.877   1.004  12.479  1.1564 -0.5601 -2.0483
  191MPD1    H1 2963   3.789   0.629  12.317  1.2184  0.0952 -0.8002
  191MPD1    H2 2964   3.812   0.655  12.729  0.4709  0.4087 -0.1048
  191MPD1    H3 2965   3.760   0.538  12.531 -1.0141  0.8005  0.5336
  191MPD1     N 2966   3.832   0.882  12.254 -0.2439  0.7273  0.8566
  191MPD1    H5 2967   3.878   0.973  12.259 -0.4451  0.9884 -2.2633
  191MPD1    N1 2968   3.901   0.924  12.734 -0.3510  0.4145  0.2060
  191MPD1    H6 2969   3.883   1.023  12.716 -1.8619  0.4116  1.7278
  191MPD1    H7 2970   3.852   0.900  12.820 -1.0905 -1.2349 -0.6616
  192MPD1     C 2971   3.259   0.816  11.424 -0.2242  0.6912 -0.0940
  192MPD1    C1 2972   3.355   0.908  11.380 -0.4772 -0.6264  0.0213
  192MPD1    C2 2973   3.451   0.938  11.472 -0.2267  0.0385 -0.6177
  192MPD1    C3 2974   3.460   0.865  11.594  0.1379 -0.4350 -0.0384
  192MPD1    C4 2975   3.369   0.761  11.619 -0.4292  0.1956  0.3887
  192MPD1    C5 2976   3.265   0.743  11.537 -0.3963 -0.6037 -0.7187
  192MPD1     H 2977   3.528   1.009  11.445  1.5462 -1.3356  0.8594
  192MPD1    H1 2978   3.374   0.719  11.719  1.8437 -0.1501  0.1308
  192MPD1    H2 2979   3.171   0.806  11.361  0.6612 -0.2335 -1.1816
  192MPD1    H3 2980   3.173   0.688  11.557 -0.5046 -0.9156 -2.0544
  192MPD1     N 2981   3.564   0.874  11.687  0.1958  0.0595  0.3183
  192MPD1    H5 2982   3.578   0.805  11.760 -0.0490 -0.2274  0.0946
  192MPD1    N1 2983   3.336   0.976  11.261  0.1191  0.0839 -0.3063
  192MPD1    H6 2984   3.423   0.986  11.210  0.2673  0.3413 -0.0002
  192MPD1    H7 2985   3.276   0.929  11.193 -0.2720 -1.1359  0.8691
  193MPD1     C 2986   4.046   1.831  17.268 -0.2699 -1.0429  0.2126
  193MPD1    C1 2987   3.929   1.902  17.261 -0.3508  0.5481  0.4429
  193MPD1    C2 2988   3.878   1.953  17.146  0.1956 -0.5639  0.2111
  193MPD1    C3 2989   3.962   1.941  17.033 -0.0335  0.5074  0.1148
  193MPD1    C4 2990   4.079   1.867  17.032 -0.3381 -0.8115  0.3166
  193MPD1    C5 2991   4.119   1.816  17.153 -0.4508  0.4975  0.2794
  193MPD1     H 2992   3.779   1.997  17.146  1.2647  1.8181  1.5023
  193MPD1    H1 2993   4.130   1.848  16.939  0.1565 -1.7283  0.7729
  193MPD1    H2 2994   4.077   1.791  17.364 -0.7039 -2.5021 -0.2520
  193MPD1    H3 2995   4.207   1.752  17.154 -0.8738 -0.0756  1.1198
  193MPD1     N 2996   3.943   2.009  16.915  1.2692  0.0094 -0.4919
  193MPD1    H5 2997   4.004   1.985  16.838 -1.0048  0.2052 -2.3148
  193MPD1    N1 2998   3.850   1.901  17.380 -0.1045  0.6612 -0.5741
  193MPD1    H6 2999   3.766   1.958  17.376  0.8591  2.1077 -0.0049
  193MPD1    H7 3000   3.899   1.923  17.466 -1.4338  1.5275 -0.0326
  194MPD1     C 3001   1.543   4.142  16.915  0.3827  0.8728 -0.4208
  194MPD1    C1 3002   1.434   4.098  16.851  0.1263 -0.0585 -0.7661
  194MPD1    C2 3003   1.417   3.959  16.834 -0.1719 -0.9677  0.0796
  194MPD1    C3 3004   1.515   3.873  16.881 -0.0896 -0.3244 -0.1654
  194MPD1    C4 3005   1.622   3.919  16.958 -0.0248 -0.3411 -0.9261
  194MPD1    C5 3006   1.634   4.056  16.962 -0.3759 -0.3066  0.1872
  194MPD1     H 3007   1.324   3.928  16.787  1.5731 -1.2830 -3.1780
  194MPD1    H1 3008   1.695   3.853  17.003 -1.5615 -1.5274 -0.1533
  194MPD1    H2 3009   1.570   4.247  16.924  0.9332  0.5428  1.7074
  194MPD1    H3 3010   1.725   4.097  17.006  0.2727 -1.4544 -0.0726
  194MPD1     N 3011   1.508   3.729  16.876 -0.4769 -0.0113 -0.0117
  194MPD1    H5 3012   1.583   3.683  16.926 -1.4042  0.4260  1.7966
  194MPD1    N1 3013   1.323   4.183  16.837 -0.6864 -0.2390  0.1220
  194MPD1    H6 3014   1.351   4.278  16.813 -1.4006  0.6275  2.7244
  194MPD1    H7 3015   1.254   4.150  16.769  2.0059 -1.1999 -2.1749
  195MPD1     C 3016   3.309   1.153  17.570 -0.3248 -0.1609 -0.3601
  195MPD1    C1 3017   3.198   1.121  17.639  0.5548  0.0864  0.8990
  195MPD1    C2 3018   3.213   1.020  17.731 -0.0225  0.1114  0.2422
  195MPD1    C3 3019   3.323   0.944   0.013 -0.1175 -0.2435  0.0044
  195MPD1    C4 3020   3.433   0.983  17.673  0.0660 -0.5010 -0.1695
  195MPD1    C5 3021   3.426   1.085  17.581  0.3922 -0.7664 -0.7807
  195MPD1     H 3022   3.125   0.987   0.048  1.0442 -3.9663 -0.4903
  195MPD1    H1 3023   3.527   0.930  17.680  0.3221  0.1935  1.7398
  195MPD1    H2 3024   3.313   1.244  17.510  1.7655  0.0222  0.0455
  195MPD1    H3 3025   3.515   1.115  17.525 -1.3430 -0.0056 -3.1232
  195MPD1     N 3026   3.340   0.823   0.090  0.0432  0.6208 -0.2630
  195MPD1    H5 3027   3.427   0.772   0.098  0.2482  1.3859  2.6811
  195MPD1    N1 3028   3.074   1.191  17.630  0.6328 -0.4932  0.3748
  195MPD1    H6 3029   3.076   1.254  17.551 -1.6945 -0.6366  0.2075
  195MPD1    H7 3030   2.991   1.131  17.627  0.2781  0.0289 -0.0674
  196MPD1     C 3031   2.247   0.670  17.165 -0.3020 -0.1162  0.6990
  196MPD1    C1 3032   2.211   0.747  17.276 -0.1142  0.5250  0.8063
  196MPD1    C2 3033   2.251   0.699  17.399 -0.1223  0.8620 -0.0658
  196MPD1    C3 3034   2.315   0.574  17.411 -0.2575  0.1537 -0.3790
  196MPD1    C4 3035   2.344   0.499  17.300  0.1263 -0.0204 -0.6527
  196MPD1    C5 3036   2.303   0.552  17.182  0.1875  0.0013  0.4148
  196MPD1     H 3037   2.220   0.757  17.485 -0.8078  0.9255 -0.3487
  196MPD1    H1 3038   2.414   0.416  17.302  1.5527  1.1572 -1.5911
  196MPD1    H2 3039   2.225   0.697  17.062 -1.1398  3.5405  1.8658
  196MPD1    H3 3040   2.319   0.497  17.089  0.4569  1.4547 -0.3983
  196MPD1     N 3041   2.366   0.524  17.527 -0.2013  0.1667  0.6895
  196MPD1    H5 3042   2.385   0.424  17.535  1.8092  0.4287 -0.8839
  196MPD1    N1 3043   2.161   0.876  17.258  1.0652 -0.0424  0.0158
  196MPD1    H6 3044   2.102   0.910  17.334 -0.5226  2.5539 -2.3789
  196MPD1    H7 3045   2.106   0.889  17.173 -0.1097  0.9901  0.9357
  197MPD1     C 3046   2.152   1.792  17.491 -0.1417  0.6366 -0.1920
  197MPD1    C1 3047   2.259   1.864  17.538 -0.3962 -0.1537  0.9403
  197MPD1    C2 3048   2.300   1.965  17.457 -0.1004  0.4816  0.5563
  197MPD1    C3 3049   2.264   1.980  17.324 -0.0642 -0.2997 -0.4102
  197MPD1    C4 3050   2.166   1.896  17.274 -0.1625 -0.3735  0.3063
  197MPD1    C5 3051   2.101   1.816  17.365 -0.2525  0.0308  0.2403
  197MPD1     H 3052   2.367   2.038  17.501 -0.4342  1.2566 -0.2273
  197MPD1    H1 3053   2.118   1.910  17.177 -0.5063  0.3783  0.5863
  197MPD1    H2 3054   2.098   1.725  17.557 -0.8692  3.5939  2.2334
  197MPD1    H3 3055   2.012   1.763  17.331 -0.2574  0.7848 -0.9129
  197MPD1     N 3056   2.318   2.081  17.232  0.1553 -0.0937 -0.4319
  197MPD1    H5 3057   2.275   2.076  17.140 -1.6024 -0.7947  0.4199
  197MPD1    N1 3058   2.299   1.854  17.669 -0.2054  0.7551  0.2631
  197MPD1    H6 3059   2.284   1.765  17.716  1.9914 -0.1450 -0.7481
  197MPD1    H7 3060   2.390   1.893  17.691  0.1644  0.5086 -0.7923
  198MPD1     C 3061   4.003   0.858  15.534  0.2660 -0.7688  0.5324
  198MPD1    C1 3062   4.112   0.786  15.492  0.5490 -0.7643  0.1628
  198MPD1    C2 3063   4.233   0.858  15.484 -0.4668 -0.1738  0.0536
  198MPD1    C3 3064   4.244   0.992  15.513  0.1484 -0.1487 -0.0630
  198MPD1    C4 3065   4.132   1.058  15.565 -0.4637 -0.8993  0.2373
  198MPD1    C5 3066   4.011   0.989  15.575  0.5867 -0.0734 -0.0762
  198MPD1     H 3067   4.311   0.794  15.443  1.1768  1.2412  0.9725
  198MPD1    H1 3068   4.141   1.160  15.600 -1.6262 -1.1382  1.2416
  198MPD1    H2 3069   3.904   0.815  15.544  0.6264 -0.9128  3.5204
  198MPD1    H3 3070   3.920   1.025  15.621  0.4447  0.5013 -0.8107
  198MPD1     N 3071   4.373   1.043  15.519  0.4992 -0.0875 -0.0087
  198MPD1    H5 3072   4.449   0.978  15.503  0.8853  0.7158 -1.5204
  198MPD1    N1 3073   4.099   0.657  15.441 -0.3687 -0.9623  0.0223
  198MPD1    H6 3074   4.177   0.592  15.444  0.5980  0.1033 -2.2147
  198MPD1    H7 3075   4.018   0.606  15.476  0.1140 -0.6340  1.6237
  199MPD1     C 3076   0.835   1.206   9.498  0.0100 -0.0847  0.3524
  199MPD1    C1 3077   0.913   1.300   9.562 -0.4362  0.2737  0.4752
  199MPD1    C2 3078   0.848   1.420   9.596  0.5128  0.0263 -0.6107
  199MPD1    C3 3079   0.711   1.425   9.600  0.1183  0.3823 -0.0820
  199MPD1    C4 3080   0.641   1.327   9.544  0.2156 -0.5378 -0.5050
  199MPD1    C5 3081   0.703   1.222   9.482 -0.0210 -0.1153 -0.8931
  199MPD1     H 3082   0.921   1.495   9.623  1.5858 -1.1201 -0.3083
  199MPD1    H1 3083   0.533   1.319   9.543  0.0400  2.2262 -1.4796
  199MPD1    H2 3084   0.883   1.123   9.447  0.8245  2.1291 -2.4970
  199MPD1    H3 3085   0.642   1.139   9.447 -1.5959  0.6488  0.0610
  199MPD1     N 3086   0.643   1.531   9.659  0.3045 -0.0344 -0.0375
  199MPD1    H5 3087   0.541   1.528   9.653  0.0601  2.0746  3.0775
  199MPD1    N1 3088   1.052   1.295   9.563 -0.1639  0.6129 -0.3725
  199MPD1    H6 3089   1.099   1.346   9.637 -0.4621  0.7025 -0.2443
  199MPD1    H7 3090   1.079   1.197   9.572  1.1676  1.0792  0.8186
  200MPD1     C 3091   0.865   1.900  15.393 -0.3830 -0.9675 -0.2838
  200MPD1    C1 3092   0.810   1.802  15.320 -0.5339 -0.4496 -0.4792
  200MPD1    C2 3093   0.815   1.799  15.180 -0.7248 -0.2651  0.1469
  200MPD1    C3 3094   0.872   1.898  15.108  0.0699  0.1034 -0.5952
  200MPD1    C4 3095   0.939   1.998  15.180  0.0259  0.6173 -0.4582
  200MPD1    C5 3096   0.926   1.999  15.315 -0.4469  0.1078 -0.7330
  200MPD1     H 3097   0.761   1.723  15.124 -0.0990 -1.9734  1.8540
  200MPD1    H1 3098   0.973   2.085  15.126 -1.4233  1.1274 -0.5451
  200MPD1    H2 3099   0.875   1.899  15.501  2.6268 -1.6139 -0.5677
  200MPD1    H3 3100   0.973   2.079  15.371 -1.9711  0.3714  0.1743
  200MPD1     N 3101   0.869   1.886  14.969 -0.5006 -0.0973  0.3227
  200MPD1    H5 3102   0.809   1.812  14.933 -0.6293  0.2703 -0.2098
  200MPD1    N1 3103   0.759   1.694  15.389 -0.1911  0.1071  0.6768
  200MPD1    H6 3104   0.692   1.644  15.331  2.5014  0.7559 -2.9790
  200MPD1    H7 3105   0.724   1.728  15.479 -0.0656  0.5585  0.5545
  201MPD1     C 3106   2.227   4.666  12.754  0.4258  0.2477 -0.3139
  201MPD1    C1 3107   2.282   4.600  12.652 -0.6808 -0.1564  0.0687
  201MPD1    C2 3108   2.416   4.603  12.639  0.4234 -0.0909 -0.1865
  201MPD1    C3 3109   2.493   4.670  12.739  0.0502 -0.7236 -0.1325
  201MPD1    C4 3110   2.433   0.013  12.829  0.0484  0.2965 -0.1955
  201MPD1    C5 3111   2.299   0.017  12.835 -0.0638 -0.8506  0.0773
  201MPD1     H 3112   2.473   4.552  12.562  1.9585  0.1511  0.7828
  201MPD1    H1 3113   2.484   0.066  12.908 -0.5532  4.0239 -2.2796
  201MPD1    H2 3114   2.121   4.652  12.772  0.8921  0.2478  2.4889
  201MPD1    H3 3115   2.245   0.073  12.912  0.3142 -0.3572 -0.0147
  201MPD1     N 3116   2.630   4.660  12.717 -0.2591  0.0140 -0.2521
  201MPD1    H5 3117   2.665   4.610  12.636  1.8049  0.2365  0.5089
  201MPD1    N1 3118   2.203   4.511  12.580  0.1412  0.1998 -0.5014
  201MPD1    H6 3119   2.251   4.477  12.498  1.1948 -0.2527  0.3002
  201MPD1    H7 3120   2.103   4.530  12.575 -0.2822 -1.5825  1.0194
  202MPD1     C 3121   1.465   3.741   9.224  0.2703 -0.1390 -0.6249
  202MPD1    C1 3122   1.422   3.870   9.204 -0.3035  0.6375  0.0628
  202MPD1    C2 3123   1.512   3.965   9.221  0.4670  0.5993  0.6523
  202MPD1    C3 3124   1.634   3.946   9.289 -0.3994 -0.2847 -0.1067
  202MPD1    C4 3125   1.662   3.818   9.330 -0.4313  0.0099  0.5830
  202MPD1    C5 3126   1.582   3.717   9.294 -0.6477  0.1329  0.5841
  202MPD1     H 3127   1.480   4.068   9.207  0.4568  0.4558 -0.3563
  202MPD1    H1 3128   1.752   3.790   9.384 -1.0407 -0.5315  1.3317
  202MPD1    H2 3129   1.401   3.656   9.200  2.3426 -2.0257  0.4802
  202MPD1    H3 3130   1.608   3.618   9.327  1.1386 -0.1674 -1.7313
  202MPD1     N 3131   1.726   4.050   9.315 -0.0638  0.7283  0.2464
  202MPD1    H5 3132   1.807   4.016   9.365 -0.2265  2.0065  1.3699
  202MPD1    N1 3133   1.314   3.883   9.117  0.0479 -0.4792 -0.3951
  202MPD1    H6 3134   1.241   3.823   9.154  0.2621 -1.1982 -1.1316
  202MPD1    H7 3135   1.275   3.977   9.117 -2.0979 -1.3667  2.1612
  203MPD1     C 3136   1.242   1.137  12.171  0.2538  0.4940 -0.0402
  203MPD1    C1 3137   1.248   1.007  12.142  0.1579 -0.1690 -0.8401
  203MPD1    C2 3138   1.341   0.928  12.202 -0.1330  0.2302 -0.1624
  203MPD1    C3 3139   1.402   0.965  12.322 -0.0810 -0.6791  0.2934
  203MPD1    C4 3140   1.374   1.087  12.372  0.1355  0.2077  0.0173
  203MPD1    C5 3141   1.306   1.174  12.282  0.6173 -0.7300  0.3240
  203MPD1     H 3142   1.358   0.830  12.159  3.4026  0.0087  1.7559
  203MPD1    H1 3143   1.413   1.124  12.466 -3.2834 -0.2278  1.6068
  203MPD1    H2 3144   1.189   1.214  12.117  0.4777  1.3932  1.0093
  203MPD1    H3 3145   1.301   1.274  12.326  0.5289 -0.4726 -0.2708
  203MPD1     N 3146   1.470   0.869  12.397  0.3077 -0.3568 -0.4387
  203MPD1    H5 3147   1.492   0.783  12.347 -0.8162 -0.1664 -1.2645
  203MPD1    N1 3148   1.198   0.965  12.015 -0.2043 -0.1512  0.6598
  203MPD1    H6 3149   1.127   1.026  11.974 -0.1915  0.0580  0.9497
  203MPD1    H7 3150   1.171   0.867  12.007  1.0818 -0.3123 -1.8011
  204MPD1     C 3151   0.850   2.674  17.723 -0.5418 -0.4730 -0.1617
  204MPD1    C1 3152   0.927   2.694  17.611  0.5498  0.0935  0.3692
  204MPD1    C2 3153   1.012   2.596  17.576 -0.1416  0.1962  0.4067
  204MPD1    C3 3154   1.027   2.481  17.658  0.0060  0.0534 -0.1722
  204MPD1    C4 3155   0.949   2.465   0.036 -0.3411 -0.6662  0.5081
  204MPD1    C5 3156   0.863   2.563   0.064 -0.0622 -0.3371  0.0553
  204MPD1     H 3157   1.074   2.609  17.488  0.4146 -2.2215  0.4350
  204MPD1    H1 3158   0.951   2.380   0.103 -0.5225 -0.9133  0.2019
  204MPD1    H2 3159   0.769   2.741   0.012  0.4958  1.0577 -0.8216
  204MPD1    H3 3160   0.809   2.546   0.156 -0.7305  0.4415 -0.1837
  204MPD1     N 3161   1.118   2.388  17.614 -0.4196  0.1758  0.9270
  204MPD1    H5 3162   1.160   2.409  17.524 -1.4017 -2.6048 -0.1550
  204MPD1    N1 3163   0.896   2.802  17.528  0.0699 -0.3375  0.5427
  204MPD1    H6 3164   0.848   2.881  17.570 -0.1906 -0.7256  0.9716
  204MPD1    H7 3165   0.977   2.839  17.477 -0.5020 -0.3821 -0.4037
  205MPD1     C 3166   1.097   1.503  16.632  0.1303 -0.8683 -0.1659
  205MPD1    C1 3167   1.161   1.384  16.641 -0.0625 -0.0304  0.0170
  205MPD1    C2 3168   1.174   1.321  16.763 -0.3069 -0.0015  0.2011
  205MPD1    C3 3169   1.135   1.389  16.883 -0.5977 -0.1723  0.2940
  205MPD1    C4 3170   1.088   1.519  16.869  0.0471  0.0061 -0.3648
  205MPD1    C5 3171   1.069   1.572  16.743 -0.5692  0.2225  0.0606
  205MPD1     H 3172   1.222   1.224  16.767  0.0787  0.2047  0.6420
  205MPD1    H1 3173   1.057   1.574  16.957 -0.2907 -0.9885  0.1404
  205MPD1    H2 3174   1.091   1.549  16.534  0.1548 -0.0633  0.2161
  205MPD1    H3 3175   1.026   1.670  16.725 -2.1263 -0.4322  0.1454
  205MPD1     N 3176   1.140   1.341  17.015 -0.4433 -0.6407  0.3022
  205MPD1    H5 3177   1.114   1.395  17.097  0.7831 -0.0663  0.3070
  205MPD1    N1 3178   1.183   1.316  16.524 -0.0349  0.1151  0.4179
  205MPD1    H6 3179   1.206   1.374  16.444 -1.0394 -0.4585 -0.2990
  205MPD1    H7 3180   1.258   1.248  16.536  0.3856  0.7790  1.4654
  206MPD1     C 3181   2.130   3.695  16.801 -0.0938  0.2459 -0.4346
  206MPD1    C1 3182   2.126   3.819  16.746 -0.8691 -0.8028  0.7413
  206MPD1    C2 3183   2.017   3.869  16.677 -0.4237  0.3291 -0.2101
  206MPD1    C3 3184   1.904   3.781  16.668  0.2046 -0.2937 -0.0228
  206MPD1    C4 3185   1.908   3.664  16.742  0.3748 -0.1951  0.4700
  206MPD1    C5 3186   2.014   3.625  16.815  0.2597 -0.2034  0.0140
  206MPD1     H 3187   2.030   3.967  16.634  0.8590 -0.2750 -1.2015
  206MPD1    H1 3188   1.820   3.602  16.755 -1.6785  2.3061 -1.3191
  206MPD1    H2 3189   2.221   3.653  16.843  0.2636 -0.6347 -2.0881
  206MPD1    H3 3190   2.025   3.527  16.861  0.5797 -0.6000 -0.9002
  206MPD1     N 3191   1.782   3.813  16.599  0.1505 -0.2137  0.2183
  206MPD1    H5 3192   1.707   3.745  16.603  0.8655 -0.9710  0.7210
  206MPD1    N1 3193   2.257   3.876  16.731  0.2617 -0.5502  0.0002
  206MPD1    H6 3194   2.316   3.859  16.813  0.7220  1.3678  0.0661
  206MPD1    H7 3195   2.245   3.976  16.724 -0.3442 -0.7774 -2.1759
  207MPD1     C 3196   2.939   1.444   9.972  0.3769 -1.1341  0.3186
  207MPD1    C1 3197   3.014   1.530  10.044 -0.8713 -0.2723 -0.5231
  207MPD1    C2 3198   3.137   1.492  10.086  0.6010  0.0883  0.5389
  207MPD1    C3 3199   3.175   1.359  10.077  0.2291  0.7464  0.1442
  207MPD1    C4 3200   3.094   1.258  10.020  0.1136 -0.9549 -0.0380
  207MPD1    C5 3201   2.981   1.316   9.967 -0.2121 -0.0770 -0.2932
  207MPD1     H 3202   3.206   1.568  10.122 -0.6910  1.4694  0.0675
  207MPD1    H1 3203   3.124   1.154  10.012  2.8865 -0.0357 -1.5713
  207MPD1    H2 3204   2.854   1.478   9.914 -0.5549 -2.8124  0.6888
  207MPD1    H3 3205   2.920   1.243   9.915  2.1090 -1.4412 -1.0678
  207MPD1     N 3206   3.310   1.320  10.120 -0.2484 -0.1235 -0.3992
  207MPD1    H5 3207   3.329   1.220  10.115 -1.7473 -0.4499  0.3551
  207MPD1    N1 3208   2.974   1.665  10.033 -0.5038  0.3056  0.0524
  207MPD1    H6 3209   2.872   1.675  10.034 -0.6017 -0.4839 -3.2584
  207MPD1    H7 3210   3.005   1.720  10.113 -1.5482 -0.0455  0.7042
  208MPD1     C 3211   1.134   4.179   0.109 -0.1508 -0.3009 -0.1021
  208MPD1    C1 3212   1.130   4.253  17.733  0.2463  1.1836  0.3863
  208MPD1    C2 3213   1.187   4.378  17.737  0.5706  0.7268 -0.0811
  208MPD1    C3 3214   1.252   4.431   0.104  0.0813  1.0158 -0.2109
  208MPD1    C4 3215   1.254   4.357   0.221 -0.1046  0.4064  0.3386
  208MPD1    C5 3216   1.192   4.233   0.223  0.3957  0.2266  0.1178
  208MPD1     H 3217   1.180   4.446  17.654  0.4456  1.8062  0.8102
  208MPD1    H1 3218   1.294   4.389   0.316  0.4960  0.3235  0.1155
  208MPD1    H2 3219   1.088   4.081   0.120  1.3062 -1.2021 -1.9105
  208MPD1    H3 3220   1.205   4.177   0.315  0.9500  2.3683  1.3216
  208MPD1     N 3221   1.289   4.567   0.113 -1.1388 -0.8674  0.0776
  208MPD1    H5 3222   1.270   4.625   0.032 -1.3452  1.2074  1.5938
  208MPD1    N1 3223   1.045   4.201  17.634 -0.2175  0.2091 -0.0222
  208MPD1    H6 3224   1.029   4.101  17.644  0.5089  0.0665 -0.2511
  208MPD1    H7 3225   1.099   4.215  17.549 -0.2103 -0.4368 -0.1231
  209MPD1     C 3226   3.539   4.404  10.329  1.4046 -0.1567  0.4477
  209MPD1    C1 3227   3.583   4.522  10.268  0.6574  0.0848  0.5918
  209MPD1    C2 3228   3.600   4.629  10.351 -0.3869 -0.0131 -0.1383
  209MPD1    C3 3229   3.588   4.628  10.491  0.9565  0.4124 -0.0767
  209MPD1    C4 3230   3.544   4.509  10.547  0.0419 -0.1344 -0.2593
  209MPD1    C5 3231   3.518   4.403  10.460 -0.2358 -0.6911 -0.4389
  209MPD1     H 3232   3.609   4.727  10.307 -2.3627  0.1669 -0.1173
  209MPD1    H1 3233   3.528   4.493  10.653  1.0000 -1.8758 -0.3746
  209MPD1    H2 3234   3.497   4.323  10.269  1.1480  0.7526 -0.6105
  209MPD1    H3 3235   3.474   4.312  10.500  1.4912 -0.6190  1.6484
  209MPD1     N 3236   3.589   0.011  10.565 -0.2614 -0.3337 -0.3147
  209MPD1    H5 3237   3.590   0.094  10.507 -0.5095 -0.3706 -0.3709
  209MPD1    N1 3238   3.584   4.537  10.131 -0.4615 -0.3835  0.6741
  209MPD1    H6 3239   3.576   4.450  10.080 -1.3323 -0.0445  0.2476
  209MPD1    H7 3240   3.660   4.593  10.094 -2.4179  0.8732 -1.4163
  210MPD1     C 3241   3.744   0.595  11.487 -0.1063  0.2746 -0.0128
  210MPD1    C1 3242   3.659   0.488  11.473 -0.4286 -0.2243  0.2980
  210MPD1    C2 3243   3.650   0.438  11.341 -0.8718 -0.0623 -0.0831
  210MPD1    C3 3244   3.705   0.504  11.234 -0.3929 -0.4343  0.7878
  210MPD1    C4 3245   3.785   0.615  11.258 -0.5439 -0.1004 -0.0718
  210MPD1    C5 3246   3.820   0.646  11.382  0.5149 -0.6104  0.2188
  210MPD1     H 3247   3.584   0.354  11.323  1.1282 -1.7269  0.3566
  210MPD1    H1 3248   3.831   0.658  11.169 -0.9369  0.4404 -0.0168
  210MPD1    H2 3249   3.771   0.640  11.582 -0.2508 -2.2636  1.2248
  210MPD1    H3 3250   3.898   0.721  11.388  1.1788 -1.2072 -0.9648
  210MPD1     N 3251   3.686   0.466  11.101 -0.4398  0.3967 -0.5447
  210MPD1    H5 3252   3.714   0.528  11.026  2.6150 -1.2493 -0.7675
  210MPD1    N1 3253   3.592   0.428  11.587 -0.2299 -0.2460  0.0114
  210MPD1    H6 3254   3.494   0.407  11.565 -0.7742  0.8123  1.3821
  210MPD1    H7 3255   3.593   0.486  11.671 -0.8943  0.6432 -0.5867
  211MPD1     C 3256   1.619   1.120  17.676  0.5568  0.0617  0.1971
  211MPD1    C1 3257   1.636   1.206  17.573  0.2126  0.1286  0.9667
  211MPD1    C2 3258   1.610   1.176  17.440 -0.1389  0.1270  0.1535
  211MPD1    C3 3259   1.540   1.060  17.414  0.4328 -0.5055 -0.3898
  211MPD1    C4 3260   1.505   0.980  17.523  0.0251  0.1920  0.4565
  211MPD1    C5 3261   1.549   1.009  17.648 -0.3094 -0.0525 -0.1083
  211MPD1     H 3262   1.636   1.236  17.354 -4.1340  0.1590 -1.0223
  211MPD1    H1 3263   1.446   0.889  17.523  0.4213 -0.0926 -2.5023
  211MPD1    H2 3264   1.660   1.145   0.035 -0.4406  2.8211 -0.1059
  211MPD1    H3 3265   1.524   0.948  17.733 -2.3368  0.2038 -0.5126
  211MPD1     N 3266   1.507   1.030  17.283 -1.2526  0.3969 -0.2808
  211MPD1    H5 3267   1.537   1.099  17.215 -0.4212 -0.8498 -1.1787
  211MPD1    N1 3268   1.709   1.323  17.595  0.0888 -0.4865  0.3762
  211MPD1    H6 3269   1.706   1.386  17.515 -3.0625  1.0064  1.6316
  211MPD1    H7 3270   1.684   1.372  17.681  0.3657  1.1731 -0.5007
  212MPD1     C 3271   1.073   4.258  16.596 -0.0050  0.3577 -0.3247
  212MPD1    C1 3272   0.970   4.310  16.661  1.2154  0.4363  1.0169
  212MPD1    C2 3273   0.877   4.225  16.720  0.7717  0.3606  0.3457
  212MPD1    C3 3274   0.887   4.087  16.717  0.2251 -0.0706  0.2076
  212MPD1    C4 3275   1.002   4.041  16.659  0.2680 -0.4917  0.0213
  212MPD1    C5 3276   1.081   4.125  16.584  0.5621 -0.4320  0.8004
  212MPD1     H 3277   0.792   4.274  16.767 -0.3492 -0.9813 -0.2842
  212MPD1    H1 3278   1.018   3.935  16.647  1.2493 -0.0475 -2.4958
  212MPD1    H2 3279   1.151   4.326  16.564 -0.4579  1.4355  0.8445
  212MPD1    H3 3280   1.163   4.085  16.524  0.1512  1.4189 -0.9829
  212MPD1     N 3281   0.802   3.995  16.783  0.3402  0.6626  0.7278
  212MPD1    H5 3282   0.823   3.896  16.777 -3.0910  0.0242 -0.7265
  212MPD1    N1 3283   0.964   4.448  16.691 -0.1060 -0.0300  0.0190
  212MPD1    H6 3284   1.014   4.506  16.624  0.8129  1.1169  1.6881
  212MPD1    H7 3285   0.869   4.485  16.691  0.4777  1.4461 -0.3857
  213MPD1     C 3286   3.730   0.134  16.221 -0.2563 -0.0572  0.2264
  213MPD1    C1 3287   3.679   0.016  16.174 -0.8171  0.0824 -0.1138
  213MPD1    C2 3288   3.646   0.020  16.037  0.4711 -0.5355 -0.2161
  213MPD1    C3 3289   3.698   0.119  15.956 -0.2354  0.3723  0.1489
  213MPD1    C4 3290   3.768   0.229  16.008  0.4108 -0.3574  0.0738
  213MPD1    C5 3291   3.771   0.238  16.141 -0.3811 -1.3506 -0.0296
  213MPD1     H 3292   3.608   4.663  15.996  1.4785 -0.9714 -0.1696
  213MPD1    H1 3293   3.794   0.313  15.944  1.5627  0.2545  1.3528
  213MPD1    H2 3294   3.720   0.150  16.328 -0.5734 -1.6242  0.4386
  213MPD1    H3 3295   3.801   0.330  16.190 -0.3535 -0.8578 -0.9591
  213MPD1     N 3296   3.674   0.097  15.819  0.9297  0.3859  0.5017
  213MPD1    H5 3297   3.614   0.019  15.794 -0.5336  1.4093  0.8337
  213MPD1    N1 3298   3.602   4.666  16.257  0.7757 -0.4339  0.0517
  213MPD1    H6 3299   3.647   4.653  16.347  0.4604 -0.6589  0.1808
  213MPD1    H7 3300   3.605   4.575  16.212 -3.2214  0.9191 -3.0315
  214MPD1     C 3301   3.516   4.070  15.534  0.3570 -1.0978 -0.3919
  214MPD1    C1 3302   3.546   4.120  15.411  0.1613 -1.0134  0.8087
  214MPD1    C2 3303   3.553   4.257  15.405  0.1306  0.6182 -0.0010
  214MPD1    C3 3304   3.537   4.337  15.521  0.0368  0.6118  0.0174
  214MPD1    C4 3305   3.500   4.284  15.637 -0.4392  0.3077 -0.1386
  214MPD1    C5 3306   3.478   4.147  15.642 -0.2916  0.0166 -0.1662
  214MPD1     H 3307   3.575   4.302  15.309  0.0008 -2.9449 -1.6617
  214MPD1    H1 3308   3.494   4.347  15.725  1.5113 -2.6941  2.1536
  214MPD1    H2 3309   3.509   3.963  15.549  1.9092 -0.9729  1.1763
  214MPD1    H3 3310   3.456   4.100  15.737 -1.7028 -0.4232 -0.7098
  214MPD1     N 3311   3.555   4.479  15.506 -0.2175  0.6317  0.2687
  214MPD1    H5 3312   3.536   4.526  15.594 -0.4547 -2.2400  1.7618
  214MPD1    N1 3313   3.590   4.037  15.305  0.2759 -0.2712  0.1662
  214MPD1    H6 3314   3.534   3.952  15.307 -0.8350  0.4720  0.2151
  214MPD1    H7 3315   3.573   4.079  15.214  0.1803 -0.9064 -0.1058
  215MPD1     C 3316   2.624   0.829  11.189 -0.3570  0.3483  0.1509
  215MPD1    C1 3317   2.604   0.821  11.331 -0.6286  0.3024  0.2890
  215MPD1    C2 3318   2.689   0.887  11.418 -0.1719  1.1136  0.0137
  215MPD1    C3 3319   2.802   0.958  11.366  0.3215 -1.1286  0.0047
  215MPD1    C4 3320   2.820   0.960  11.233 -0.1779 -0.3566 -0.5260
  215MPD1    C5 3321   2.731   0.899  11.149 -1.0404 -0.1450 -0.0740
  215MPD1     H 3322   2.671   0.885  11.525  1.3947 -0.2971  0.2446
  215MPD1    H1 3323   2.899   1.008  11.177 -0.0150 -0.8851 -0.7494
  215MPD1    H2 3324   2.563   0.783  11.112 -0.8638  0.0818  0.7124
  215MPD1    H3 3325   2.736   0.909  11.041  0.3140  0.0191  0.0071
  215MPD1     N 3326   2.893   1.021  11.456 -0.2526 -0.6230 -0.6604
  215MPD1    H5 3327   2.892   0.994  11.554  1.2384 -2.8792 -1.2831
  215MPD1    N1 3328   2.493   0.753  11.381  0.4250 -0.6681 -0.8446
  215MPD1    H6 3329   2.441   0.811  11.447 -0.1793 -2.8621  0.5795
  215MPD1    H7 3330   2.436   0.725  11.301 -2.5035 -0.4009  1.1579
  216MPD1     C 3331   1.355   4.640  17.256 -0.2084  0.0483 -0.6725
  216MPD1    C1 3332   1.364   4.551  17.154 -0.8550  0.1101 -0.1211
  216MPD1    C2 3333   1.275   4.452  17.159 -0.2008  0.0030  0.3614
  216MPD1    C3 3334   1.164   4.446  17.240 -0.4362  0.0933  0.5952
  216MPD1    C4 3335   1.148   4.549  17.331 -0.2016 -0.0626 -0.0717
  216MPD1    C5 3336   1.248   4.642  17.341 -0.6893  0.1119 -0.1859
  216MPD1     H 3337   1.293   4.365  17.097 -2.2355  0.8417 -1.3780
  216MPD1    H1 3338   1.056   4.569  17.386  0.7874  3.5175  0.2694
  216MPD1    H2 3339   1.426   4.720  17.273 -1.2287  0.5696  1.0958
  216MPD1    H3 3340   1.234   4.723  17.411  2.0768 -0.6628  1.2950
  216MPD1     N 3341   1.074   4.332  17.248 -0.3040 -0.3041  0.4201
  216MPD1    H5 3342   1.095   4.245  17.201 -0.9841  0.0592 -0.5482
  216MPD1    N1 3343   1.478   4.547  17.072 -0.3482 -0.4786  0.6583
  216MPD1    H6 3344   1.452   4.510  16.980 -3.1413  1.0029  0.8388
  216MPD1    H7 3345   1.515   4.639  17.051 -3.8933  0.4299 -1.7194
  217MPD1     C 3346   4.134   3.784   9.286  0.1494 -0.0268  0.6400
  217MPD1    C1 3347   4.144   3.875   9.382  1.1296  0.1213  0.0081
  217MPD1    C2 3348   4.262   3.933   9.412  0.4502 -0.2200  0.4926
  217MPD1    C3 3349   4.372   3.895   9.333 -0.0703 -0.5677 -0.3996
  217MPD1    C4 3350   4.361   3.803   9.234  0.0804  0.5623 -0.1220
  217MPD1    C5 3351   4.241   3.741   9.213  0.0188 -0.0536 -0.4696
  217MPD1     H 3352   4.267   3.993   9.503  0.4114  0.4162  0.0745
  217MPD1    H1 3353   4.448   3.769   9.180 -1.2707 -1.2771 -1.1536
  217MPD1    H2 3354   4.038   3.746   9.252  0.7792 -1.4987  0.5003
  217MPD1    H3 3355   4.239   3.663   9.137  1.5027 -1.1762  0.6423
  217MPD1     N 3356   4.497   3.957   9.355 -0.2944  0.3519  0.0319
  217MPD1    H5 3357   4.560   3.925   9.283  0.5947  2.8121 -0.2960
  217MPD1    N1 3358   4.034   3.906   9.464 -0.3512  0.5919  0.3384
  217MPD1    H6 3359   4.031   4.000   9.502  0.9478  0.6532  0.2901
  217MPD1    H7 3360   3.942   3.902   9.422 -0.9356  0.8516  1.6033
  218MPD1     C 3361   2.503   0.528  13.013 -0.5890 -0.5116 -0.6773
  218MPD1    C1 3362   2.560   0.445  12.925 -0.2516  0.1973 -0.5171
  218MPD1    C2 3363   2.674   0.491  12.859 -0.2684  0.3831 -0.1934
  218MPD1    C3 3364   2.749   0.599  12.902 -0.0378  0.1476  0.5825
  218MPD1    C4 3365   2.693   0.674  13.003 -0.4150 -0.2882 -0.5038
  218MPD1    C5 3366   2.572   0.641  13.055  0.0201  0.4461 -0.3683
  218MPD1     H 3367   2.709   0.432  12.775  1.0664 -1.2943  1.5328
  218MPD1    H1 3368   2.745   0.758  13.047  2.3528 -1.7060 -1.1083
  218MPD1    H2 3369   2.407   0.504  13.058 -0.4823 -3.8190 -2.2420
  218MPD1    H3 3370   2.548   0.698  13.145  0.1862 -0.1560  0.0601
  218MPD1     N 3371   2.864   0.633  12.834 -0.8196  0.0342 -0.0434
  218MPD1    H5 3372   2.895   0.566  12.765  0.4812 -0.6638  1.2120
  218MPD1    N1 3373   2.501   0.325  12.881 -0.3978 -0.4092  0.4335
  218MPD1    H6 3374   2.443   0.281  12.953 -3.2831  1.9290 -0.4932
  218MPD1    H7 3375   2.573   0.262  12.848 -0.6461 -0.7745  0.5861
  219MPD1     C 3376   2.814   0.586  12.040  0.1308  0.1149 -0.2246
  219MPD1    C1 3377   2.930   0.664  12.036 -0.0049 -0.1124 -0.1652
  219MPD1    C2 3378   2.990   0.696  12.154 -0.5616  0.0964 -0.7811
  219MPD1    C3 3379   2.936   0.659  12.272  0.3068 -0.4250 -0.3972
  219MPD1    C4 3380   2.813   0.598  12.282  0.3993  0.0415 -0.1026
  219MPD1    C5 3381   2.755   0.563  12.161 -0.3123  0.4464 -0.1713
  219MPD1     H 3382   3.081   0.755  12.162 -2.1322  2.1344  1.9251
  219MPD1    H1 3383   2.761   0.581  12.375 -1.8542 -0.4975 -1.4550
  219MPD1    H2 3384   2.773   0.539  11.952 -1.0057  0.0135  0.3577
  219MPD1    H3 3385   2.669   0.497  12.159  0.0370 -0.0394  0.7285
  219MPD1     N 3386   3.009   0.664  12.395 -0.5274  0.1141  0.8088
  219MPD1    H5 3387   2.973   0.604  12.469 -1.0933 -0.0757  0.3825
  219MPD1    N1 3388   2.986   0.692  11.906  0.1257  0.5325  0.5133
  219MPD1    H6 3389   2.920   0.707  11.830  1.8519 -2.5690 -1.5951
  219MPD1    H7 3390   3.043   0.776  11.918  1.4713 -0.2076 -0.6493
  220MPD1     C 3391   3.127   1.895  10.232  0.0334 -0.2037 -0.7341
  220MPD1    C1 3392   3.046   1.825  10.321 -0.0284 -0.5601 -0.1437
  220MPD1    C2 3393   3.109   1.727  10.399 -0.1763 -0.1900  0.2477
  220MPD1    C3 3394   3.249   1.695  10.383  0.2438 -0.5527  0.3049
  220MPD1    C4 3395   3.323   1.771  10.292 -0.0799 -0.0829  0.8492
  220MPD1    C5 3396   3.261   1.870  10.220  0.3249 -0.1989 -0.1885
  220MPD1     H 3397   3.052   1.671  10.473 -1.9730 -0.1686 -1.1041
  220MPD1    H1 3398   3.431   1.764  10.277 -0.3361 -0.5554 -0.8688
  220MPD1    H2 3399   3.088   1.968  10.162 -1.1605 -0.9545 -0.8709
  220MPD1    H3 3400   3.329   1.924  10.155  1.5378  0.0861  1.3256
  220MPD1     N 3401   3.299   1.590  10.467  0.2232  0.0923  0.5142
  220MPD1    H5 3402   3.225   1.530  10.502  0.1049  1.3706  2.4978
  220MPD1    N1 3403   2.914   1.867  10.333 -0.2558  0.4191 -0.1507
  220MPD1    H6 3404   2.882   1.899  10.242 -1.4183 -1.8993 -0.5616
  220MPD1    H7 3405   2.853   1.789  10.359 -0.4032  0.3747 -0.6265
  221MPD1     C 3406   1.940   1.224  16.881 -0.0382  0.6241 -0.8392
  221MPD1    C1 3407   1.907   1.177  17.007 -0.0835  0.6235  0.6614
  221MPD1    C2 3408   1.906   1.041  17.023 -0.6539  0.0897 -0.2838
  221MPD1    C3 3409   1.927   0.956  16.915 -0.1822  0.1034  0.1258
  221MPD1    C4 3410   1.967   1.010  16.796 -0.3414  0.2490 -0.1860
  221MPD1    C5 3411   1.979   1.144  16.776 -0.2049 -0.1035  0.0850
  221MPD1     H 3412   1.885   0.999  17.121 -0.6640 -0.4794 -0.5320
  221MPD1    H1 3413   1.999   0.937  16.722  1.2440  0.2829  0.4562
  221MPD1    H2 3414   1.939   1.328  16.848 -0.5295  1.6697  2.5117
  221MPD1    H3 3415   1.996   1.182  16.676 -3.6726  1.9733  0.2848
  221MPD1     N 3416   1.909   0.818  16.924 -0.8594  0.0586 -0.0248
  221MPD1    H5 3417   1.931   0.762  16.843  1.8696  1.0264  0.0620
  221MPD1    N1 3418   1.873   1.263  17.112 -0.0851 -0.1174 -0.2505
  221MPD1    H6 3419   1.912   1.357  17.101 -0.2084  0.1159  1.3238
  221MPD1    H7 3420   1.885   1.236  17.209  3.0506  1.4581 -0.1968
  222MPD1     C 3421   0.319   3.338   0.111  0.1697  0.1959  0.2371
  222MPD1    C1 3422   0.271   3.318   0.234 -0.1755 -0.6342 -0.0580
  222MPD1    C2 3423   0.238   3.434   0.312 -0.1712 -0.2154  0.0522
  222MPD1    C3 3424   0.255   3.562   0.268  0.4834 -0.0584  0.0927
  222MPD1    C4 3425   0.313   3.575   0.140 -0.2524  0.6263 -0.1733
  222MPD1    C5 3426   0.340   3.462   0.064  0.0488 -0.0581  0.1271
  222MPD1     H 3427   0.183   3.410   0.403 -1.7359 -1.9194 -1.3302
  222MPD1    H1 3428   0.327   3.669   0.088 -3.0400  0.9355 -0.4115
  222MPD1    H2 3429   0.324   3.261   0.035  0.9023  0.4573  0.0155
  222MPD1    H3 3430   0.376   3.478  17.702 -0.3923 -1.2252 -0.2189
  222MPD1     N 3431   0.211   3.680   0.334  0.7113 -0.3008 -0.2065
  222MPD1    H5 3432   0.234   3.770   0.294  1.3488 -0.4891 -0.2600
  222MPD1    N1 3433   0.289   3.197   0.295 -0.1337  0.0461  0.8279
  222MPD1    H6 3434   0.236   3.179   0.380 -0.8512 -0.5292  0.2697
  222MPD1    H7 3435   0.290   3.119   0.230 -1.1182 -0.4026  1.3523
  223MPD1     C 3436   4.257   4.301   0.951 -0.5352  0.0977  0.0666
  223MPD1    C1 3437   4.303   4.364   0.837  0.1286  0.6685  1.2575
  223MPD1    C2 3438   4.411   4.315   0.771  0.3102 -0.4078  0.0048
  223MPD1    C3 3439   4.461   4.190   0.806 -0.7595 -0.0843  0.4806
  223MPD1    C4 3440   4.404   4.123   0.917  1.1359 -0.6929 -0.9128
  223MPD1    C5 3441   4.303   4.174   0.990 -0.8423 -0.1798 -1.2357
  223MPD1     H 3442   4.445   4.362   0.679 -0.5725  0.1749 -0.0218
  223MPD1    H1 3443   4.451   4.030   0.949 -1.7357 -1.9271 -0.3065
  223MPD1    H2 3444   4.177   4.342   1.012 -0.8896 -0.1324 -0.2484
  223MPD1    H3 3445   4.257   4.123   1.073 -0.3086  0.8779 -0.2903
  223MPD1     N 3446   4.562   4.131   0.732  0.3394  0.4721 -0.4463
  223MPD1    H5 3447   4.593   4.183   0.650  0.4266 -2.1962 -2.1069
  223MPD1    N1 3448   4.265   4.494   0.808  0.6525  0.1435  0.2068
  223MPD1    H6 3449   4.171   4.509   0.843  0.2863  0.8466 -1.1125
  223MPD1    H7 3450   4.281   4.520   0.711 -1.9761 -3.0278 -1.1101
  224MPD1     C 3451   4.587   0.548   9.117 -0.4103 -0.1717 -0.2864
  224MPD1    C1 3452   4.638   0.434   9.059  0.1609  0.0828 -0.9219
  224MPD1    C2 3453   0.039   0.407   9.049 -0.1414 -0.2425  0.4156
  224MPD1    C3 3454   0.126   0.500   9.106  0.1694  0.5809 -0.3632
  224MPD1    C4 3455   0.075   0.609   9.183 -0.1485 -0.5341 -0.9204
  224MPD1    C5 3456   4.678   0.636   9.170 -1.0049  0.2057  0.2477
  224MPD1     H 3457   0.073   0.311   9.012  3.8116  1.0911  0.5886
  224MPD1    H1 3458   0.145   0.678   9.230 -2.7839 -1.0753  3.8114
  224MPD1    H2 3459   4.482   0.573   9.121 -0.0128  1.2558  1.0885
  224MPD1    H3 3460   4.647   0.733   9.206 -2.1650  0.5856 -1.7650
  224MPD1     N 3461   0.268   0.477   9.110 -0.0320 -0.2451 -0.4283
  224MPD1    H5 3462   0.316   0.544   9.169 -1.2971  0.7460 -0.5224
  224MPD1    N1 3463   4.556   0.342   8.983  0.1673 -0.1963 -0.0443
  224MPD1    H6 3464   4.457   0.332   9.007 -0.1359 -0.4598 -1.3606
  224MPD1    H7 3465   4.599   0.253   8.957  2.7317  1.2233 -0.6244
  225MPD1     C 3466   3.369   1.817  12.734 -0.3885 -0.9536  0.3873
  225MPD1    C1 3467   3.343   1.741  12.624  0.4658 -0.0617  0.5093
  225MPD1    C2 3468   3.208   1.728  12.592 -0.0535  0.2716  0.1480
  225MPD1    C3 3469   3.108   1.792  12.666 -0.8195  0.1635 -1.1286
  225MPD1    C4 3470   3.146   1.878  12.766  0.6693  0.7853  0.6904
  225MPD1    C5 3471   3.276   1.888  12.799 -0.0905 -0.5370 -0.8287
  225MPD1     H 3472   3.185   1.673  12.502  1.2139  0.0824 -0.0624
  225MPD1    H1 3473   3.077   1.948  12.812 -1.6572 -0.4194 -0.9662
  225MPD1    H2 3474   3.468   1.835  12.774 -0.3691  1.6859 -0.8178
  225MPD1    H3 3475   3.302   1.967  12.869 -2.1029 -0.1162 -0.5695
  225MPD1     N 3476   2.970   1.788  12.632 -0.4645 -0.1093  0.2073
  225MPD1    H5 3477   2.905   1.842  12.687 -0.9734  1.0599 -1.5552
  225MPD1    N1 3478   3.444   1.667  12.558 -0.3889  0.1526 -0.3758
  225MPD1    H6 3479   3.541   1.695  12.564 -0.5506  0.5657  0.3421
  225MPD1    H7 3480   3.427   1.651  12.459  0.8526  2.2491 -0.9269
  226MPD1     C 3481   4.134   0.718   8.923  0.2337 -0.3470 -0.2801
  226MPD1    C1 3482   4.172   0.582   8.922 -0.0957  0.7403 -0.4761
  226MPD1    C2 3483   4.296   0.546   8.870 -0.4009  0.4659  0.4424
  226MPD1    C3 3484   4.380   0.639   8.824 -0.3290  0.7396  0.7260
  226MPD1    C4 3485   4.355   0.772   8.837 -0.2428 -0.4102  0.3006
  226MPD1    C5 3486   4.230   0.809   8.886 -1.0653 -0.3213  0.4885
  226MPD1     H 3487   4.315   0.439   8.864 -1.0303  0.2560  2.0477
  226MPD1    H1 3488   4.433   0.845   8.821  0.9526 -1.4990  1.1180
  226MPD1    H2 3489   4.033   0.749   8.949 -0.3458 -1.1104 -1.6236
  226MPD1    H3 3490   4.208   0.915   8.894 -2.7169 -0.5889 -0.5466
  226MPD1     N 3491   4.501   0.593   8.764 -0.1763  0.6619 -0.2186
  226MPD1    H5 3492   4.509   0.492   8.756  2.5798  0.6293  3.3175
  226MPD1    N1 3493   4.067   0.480   8.941 -0.2720 -0.2236 -0.4232
  226MPD1    H6 3494   4.100   0.397   8.990 -0.1402  0.0128 -0.1042
  226MPD1    H7 3495   3.997   0.523   9.001  1.9975  1.8280  0.7697
  227MPD1     C 3496   0.232   4.484   8.751  0.4651  0.1565 -0.5259
  227MPD1    C1 3497   0.304   4.569   8.833 -0.2149  0.7615  0.3997
  227MPD1    C2 3498   0.277   4.705   8.831 -0.0048  0.4448 -0.1715
  227MPD1    C3 3499   0.166   0.020   8.755  0.5763  0.0667  0.0072
  227MPD1    C4 3500   0.098   4.669   8.673 -0.3434  0.5513  0.0131
  227MPD1    C5 3501   0.126   4.534   8.674  0.4356  0.4617 -1.3333
  227MPD1     H 3502   0.336   0.038   8.892 -1.5906  2.8244 -1.2520
  227MPD1    H1 3503   0.010   4.705   8.620  0.2420 -1.3457 -2.2119
  227MPD1    H2 3504   0.243   4.376   8.748  0.5544  0.2198 -2.3890
  227MPD1    H3 3505   0.069   4.467   8.610  2.2858 -0.0939 -2.4215
  227MPD1     N 3506   0.143   0.159   8.765  0.2100 -0.6357 -0.0163
  227MPD1    H5 3507   0.204   0.209   8.828 -0.8034 -0.9419  1.2159
  227MPD1    N1 3508   0.413   4.521   8.903  0.8313  0.0566 -0.5018
  227MPD1    H6 3509   0.446   4.583   8.977 -1.6926  2.1509 -1.1054
  227MPD1    H7 3510   0.386   4.436   8.952  0.0812 -0.5709 -2.0104
  228MPD1     C 3511   4.645   4.303  13.393 -0.1021 -0.2155  0.1016
  228MPD1    C1 3512   4.537   4.378  13.350  0.0318  0.4298  0.4276
  228MPD1    C2 3513   4.412   4.338  13.388 -0.2909 -0.5228  0.5737
  228MPD1    C3 3514   4.400   4.238  13.486  0.6126 -0.0814  0.2845
  228MPD1    C4 3515   4.510   4.165  13.525 -0.3061 -0.1522  0.9186
  228MPD1    C5 3516   4.632   4.201  13.487  0.4895 -0.2110 -0.7644
  228MPD1     H 3517   4.321   4.378  13.347 -0.0819  1.1274  1.7448
  228MPD1    H1 3518   4.511   4.074  13.584  2.7501  0.9794  2.5844
  228MPD1    H2 3519   0.008   4.313  13.348 -0.5509  0.2401 -0.7674
  228MPD1    H3 3520   4.709   4.130  13.514 -0.0963 -1.0709 -1.3990
  228MPD1     N 3521   4.272   4.200  13.518 -0.4659 -0.2503  0.0002
  228MPD1    H5 3522   4.199   4.247  13.465  0.1650 -1.3601 -1.8517
  228MPD1    N1 3523   4.562   4.481  13.247 -0.4678  0.2445  0.2394
  228MPD1    H6 3524   4.486   4.543  13.221  0.2785 -0.1387 -2.8699
  228MPD1    H7 3525   4.656   4.520  13.249  0.6241 -2.2753 -2.6070
  229MPD1     C 3526   4.133   3.156  14.304  0.1190 -0.3554 -0.3197
  229MPD1    C1 3527   4.151   3.218  14.429  0.1561  0.7443  0.5509
  229MPD1    C2 3528   4.246   3.166  14.511  0.2649  0.3456  0.1425
  229MPD1    C3 3529   4.314   3.049  14.481  0.8777 -0.5190 -0.3899
  229MPD1    C4 3530   4.287   2.983  14.361  0.2357  0.0630  0.9578
  229MPD1    C5 3531   4.196   3.038  14.275 -0.3745  0.1650 -0.1508
  229MPD1     H 3532   4.272   3.217  14.603 -0.3650 -2.7131  2.0255
  229MPD1    H1 3533   4.339   2.892  14.335  0.3517  0.1732  0.8035
  229MPD1    H2 3534   4.071   3.192  14.223 -0.5043 -1.9177 -0.5292
  229MPD1    H3 3535   4.182   2.991  14.178 -0.5006  1.6644 -0.8531
  229MPD1     N 3536   4.415   2.992  14.560 -0.2830 -0.5997 -0.2090
  229MPD1    H5 3537   4.450   2.899  14.539 -2.8799 -1.4663 -0.6508
  229MPD1    N1 3538   4.101   3.348  14.453  0.1414 -0.4173 -0.4334
  229MPD1    H6 3539   4.017   3.364  14.397 -1.8792  0.2439  2.7561
  229MPD1    H7 3540   4.083   3.365  14.552  0.4092 -0.1693 -0.4279
  230MPD1     C 3541   0.179   3.356  15.388 -0.1547 -0.2746  0.3816
  230MPD1    C1 3542   0.072   3.406  15.318  0.0815 -0.1173 -0.3316
  230MPD1    C2 3543   0.017   3.324  15.220 -0.1211  0.5595 -0.4602
  230MPD1    C3 3544   0.071   3.203  15.189 -0.0962 -0.4902  0.7071
  230MPD1    C4 3545   0.176   3.151  15.262 -0.3408 -0.2940  0.3524
  230MPD1    C5 3546   0.231   3.232  15.353  0.1614 -0.8733 -0.0457
  230MPD1     H 3547   4.660   3.352  15.170 -0.9221 -2.9791 -0.9630
  230MPD1    H1 3548   0.238   3.065  15.241 -0.7965 -0.8500  1.2672
  230MPD1    H2 3549   0.213   3.401  15.481 -0.7705 -1.5807  1.2417
  230MPD1    H3 3550   0.305   3.184  15.417  1.1340 -0.3815 -0.8105
  230MPD1     N 3551   0.008   3.131  15.088  0.0158 -0.3212  0.3021
  230MPD1    H5 3552   4.657   3.173  15.057  0.1854  0.3415  0.7342
  230MPD1    N1 3553   0.022   3.531  15.360  0.1669  0.3054  0.0539
  230MPD1    H6 3554   4.687   3.570  15.297  0.2652  1.8180  0.8882
  230MPD1    H7 3555   0.095   3.599  15.381 -0.2152  1.5017 -2.5307
  231MPD1     C 3556   2.648   4.480  15.678  0.1297  0.3040  0.4126
  231MPD1    C1 3557   2.709   4.429  15.568 -0.2411  0.0638  1.0407
  231MPD1    C2 3558   2.766   4.509  15.471  1.0266  0.3671  0.6318
  231MPD1    C3 3559   2.757   4.649  15.495  0.2966  0.1523 -0.7662
  231MPD1    C4 3560   2.695   4.701  15.607  0.2436 -0.3987 -0.3750
  231MPD1    C5 3561   2.641   4.616  15.703 -0.2492 -0.0551 -1.3262
  231MPD1     H 3562   2.809   4.468  15.380 -1.4174 -0.7469 -0.0325
  231MPD1    H1 3563   2.684   0.072  15.626  2.0440 -0.1672 -0.6355
  231MPD1    H2 3564   2.599   4.418  15.752 -0.6051 -0.1072 -0.4170
  231MPD1    H3 3565   2.587   4.650  15.791 -0.1756  1.3052 -1.8042
  231MPD1     N 3566   2.837   4.730  15.419  0.3297 -0.4699  0.1149
  231MPD1    H5 3567   2.877   4.689  15.336  1.6083  0.5309  0.2365
  231MPD1    N1 3568   2.687   4.294  15.536  0.6426 -0.1296  0.2276
  231MPD1    H6 3569   2.762   4.274  15.469  1.7660  3.4277  0.3833
  231MPD1    H7 3570   2.712   4.246  15.622 -1.5685 -0.8217  0.4661
  232MPD1     C 3571   4.368   2.910   0.587  0.4874 -0.7445 -0.0060
  232MPD1    C1 3572   4.301   2.988   0.498 -0.1340  0.3752  0.2128
  232MPD1    C2 3573   4.332   2.966   0.369 -0.5960  0.1346 -0.5550
  232MPD1    C3 3574   4.413   2.867   0.326 -0.1356  0.1859  0.2097
  232MPD1    C4 3575   4.463   2.776   0.414 -0.2508  0.0090  0.7025
  232MPD1    C5 3576   4.440   2.808   0.546  0.1477  0.2907  0.1635
  232MPD1     H 3577   4.280   3.024   0.293 -0.6332  1.8622  0.7837
  232MPD1    H1 3578   4.522   2.688   0.391  0.9436  0.7077  1.0969
  232MPD1    H2 3579   4.345   2.923   0.692 -2.0240  1.9961 -0.9099
  232MPD1    H3 3580   4.489   2.743   0.617  1.2745  1.1288  0.1509
  232MPD1     N 3581   4.416   2.847   0.183 -0.7232  0.3561  0.6154
  232MPD1    H5 3582   4.360   2.910   0.126 -2.8362 -0.0531  2.2331
  232MPD1    N1 3583   4.210   3.089   0.535  0.0640  0.0368  0.4994
  232MPD1    H6 3584   4.162   3.069   0.622 -0.6104  1.2537  0.3995
  232MPD1    H7 3585   4.139   3.123   0.470 -1.2463  1.0195  2.4463
  233MPD1     C 3586   0.065   0.315   1.807  0.0361 -0.0907 -0.1964
  233MPD1    C1 3587   0.120   0.432   1.754  0.4959  0.1209  0.4174
  233MPD1    C2 3588   0.256   0.436   1.747 -0.1863  0.0433  0.0081
  233MPD1    C3 3589   0.331   0.339   1.809 -0.0637  0.1418  0.2313
  233MPD1    C4 3590   0.275   0.229   1.875 -0.1242 -0.3293  0.7614
  233MPD1    C5 3591   0.139   0.216   1.866 -0.3042 -0.1332 -0.5715
  233MPD1     H 3592   0.302   0.511   1.684 -1.2738  0.0022 -0.8439
  233MPD1    H1 3593   0.325   0.142   1.915  0.3734 -0.7854 -0.8573
  233MPD1    H2 3594   4.692   0.304   1.816  0.1610 -1.2888 -0.1848
  233MPD1    H3 3595   0.092   0.132   1.917  0.4901  1.1648  2.3277
  233MPD1     N 3596   0.472   0.335   1.804  0.6097  0.5199  0.1852
  233MPD1    H5 3597   0.526   0.257   1.839 -0.9791  0.8825  3.3879
  233MPD1    N1 3598   0.046   0.524   1.682 -0.1420 -0.1426  0.4341
  233MPD1    H6 3599   0.092   0.614   1.690  0.2180 -0.3665  0.9046
  233MPD1    H7 3600   4.688   0.527   1.725 -0.1788 -1.3408  0.4359
  234MPD1     C 3601   1.403   3.627   8.465 -0.0169 -0.0925 -0.5399
  234MPD1    C1 3602   1.443   3.756   8.481 -0.0548  0.6220 -0.1087
  234MPD1    C2 3603   1.341   3.846   8.520  0.1237 -0.0082  0.9074
  234MPD1    C3 3604   1.211   3.808   8.553 -0.1877 -0.2677 -0.7139
  234MPD1    C4 3605   1.175   3.673   8.542 -0.5778  0.1369  0.1434
  234MPD1    C5 3606   1.279   3.587   8.500 -0.2490  0.0754  0.0298
  234MPD1     H 3607   1.371   3.947   8.546  3.2374 -0.7466  0.1467
  234MPD1    H1 3608   1.085   3.631   8.584 -1.6593  2.8981  0.5878
  234MPD1    H2 3609   1.461   3.547   8.422 -0.4711 -0.6511 -0.1290
  234MPD1    H3 3610   1.264   3.480   8.512  1.3785 -0.1836 -0.3105
  234MPD1     N 3611   1.127   3.903   8.621  0.1716  0.4668  0.3454
  234MPD1    H5 3612   1.171   3.993   8.639  1.1054  0.2692 -0.9292
  234MPD1    N1 3613   1.571   3.803   8.451 -0.1897  0.3299 -0.1360
  234MPD1    H6 3614   1.614   3.884   8.495 -2.1152  0.9245  0.6162
  234MPD1    H7 3615   1.645   3.737   8.477  1.0611  2.3135  1.3458
  235MPD1     C 3616   4.021   1.462  10.046  0.0486  1.0583  0.4901
  235MPD1    C1 3617   4.120   1.542  10.097  0.5179  0.6502 -0.6599
  235MPD1    C2 3618   4.107   1.682  10.071  0.1644 -0.5797  0.1947
  235MPD1    C3 3619   4.008   1.724   9.990 -0.2051  0.1767 -0.6053
  235MPD1    C4 3620   3.909   1.641   9.940  0.1075 -0.0250 -0.9690
  235MPD1    C5 3621   3.910   1.505   9.982  0.3817  0.1422 -1.2833
  235MPD1     H 3622   4.193   1.747  10.085 -0.4652 -0.0663  1.5656
  235MPD1    H1 3623   3.826   1.668   9.876 -1.6866  0.3199  1.4812
  235MPD1    H2 3624   4.019   1.354  10.052  4.4518  0.9129 -0.6854
  235MPD1    H3 3625   3.833   1.440   9.944 -1.2544  1.8154 -0.8367
  235MPD1     N 3626   3.998   1.865   9.982  0.3956  0.4758 -0.3646
  235MPD1    H5 3627   4.065   1.915  10.040 -1.0219  3.4126 -1.2210
  235MPD1    N1 3628   4.249   1.493  10.134 -0.2088 -0.2255 -0.1424
  235MPD1    H6 3629   4.248   1.400  10.176 -0.4630  0.7016  1.8551
  235MPD1    H7 3630   4.278   1.552  10.211  2.7049 -1.5770 -0.1966
  236MPD1     C 3631   2.343   3.224   9.767  0.0312 -0.6003  0.7187
  236MPD1    C1 3632   2.365   3.094   9.782 -0.1197  0.2564  0.6082
  236MPD1    C2 3633   2.498   3.057   9.801  0.2289  0.2452 -0.4524
  236MPD1    C3 3634   2.603   3.145   9.797  0.6014  0.2963  0.4018
  236MPD1    C4 3635   2.573   3.280   9.778 -0.6225 -0.5061 -0.0308
  236MPD1    C5 3636   2.443   3.320   9.768  0.2767  0.4350  0.4960
  236MPD1     H 3637   2.517   2.951   9.816  1.2520  0.4337 -0.3718
  236MPD1    H1 3638   2.649   3.358   9.779 -0.1328 -0.9775 -0.6600
  236MPD1    H2 3639   2.240   3.257   9.760  0.8704  1.6525 -1.0767
  236MPD1    H3 3640   2.422   3.424   9.746 -0.5742  0.0336 -0.6025
  236MPD1     N 3641   2.739   3.114   9.825 -0.3396  0.1414  0.4974
  236MPD1    H5 3642   2.802   3.192   9.842  0.3821 -0.4297  0.4368
  236MPD1    N1 3643   2.264   3.001   9.814 -0.4834  0.1009 -0.0436
  236MPD1    H6 3644   2.169   3.023   9.785 -0.7034 -0.3180  0.3597
  236MPD1    H7 3645   2.278   2.908   9.776  0.0430  0.4058 -0.5863
  237MPD1     C 3646   3.669   1.835  15.313 -0.0140 -0.1502 -0.1381
  237MPD1    C1 3647   3.591   1.939  15.301 -0.0000  1.2624  0.2020
  237MPD1    C2 3648   3.449   1.931  15.323 -0.3592  0.4461 -0.0134
  237MPD1    C3 3649   3.397   1.815  15.367  0.1488 -0.2665  0.1810
  237MPD1    C4 3650   3.478   1.705  15.390 -0.0302  0.5266 -0.8156
  237MPD1    C5 3651   3.611   1.717  15.359  0.0043  0.5602 -0.0535
  237MPD1     H 3652   3.389   2.017  15.297 -0.5045  0.7497  1.3684
  237MPD1    H1 3653   3.431   1.610  15.413 -0.6509  1.0551  0.1027
  237MPD1    H2 3654   3.772   1.841  15.279  0.3467 -1.4186  0.7096
  237MPD1    H3 3655   3.677   1.633  15.374 -1.1435 -0.2976  0.1638
  237MPD1     N 3656   3.259   1.795  15.393  0.1447  0.0200 -0.1329
  237MPD1    H5 3657   3.222   1.712  15.438 -0.1782  0.4928  0.4755
  237MPD1    N1 3658   3.649   2.058  15.246  0.3316  0.1751  0.6841
  237MPD1    H6 3659   3.613   2.150  15.271 -2.7562 -0.5569 -0.9921
  237MPD1    H7 3660   3.741   2.070  15.287  0.2861  3.0215 -0.0793
  238MPD1     C 3661   0.603   0.353  15.230 -0.4136 -1.2012  0.6937
  238MPD1    C1 3662   0.511   0.395  15.331 -0.3185 -0.2495  0.2164
  238MPD1    C2 3663   0.383   0.401  15.288  0.4542 -0.2329  0.3128
  238MPD1    C3 3664   0.339   0.400  15.155  0.1895 -0.9588 -0.0627
  238MPD1    C4 3665   0.435   0.369  15.062 -0.2875 -0.5207 -0.0825
  238MPD1    C5 3666   0.567   0.349  15.101 -0.2556  0.3378  0.0060
  238MPD1     H 3667   0.305   0.419  15.361 -0.1233 -0.1060 -0.3355
  238MPD1    H1 3668   0.402   0.360  14.959  1.8232  0.7424 -0.8690
  238MPD1    H2 3669   0.708   0.336  15.250 -0.3800  0.0021  1.5852
  238MPD1    H3 3670   0.641   0.315  15.029  2.6538 -0.9633  3.5997
  238MPD1     N 3671   0.201   0.406  15.113 -0.2908  0.4828 -0.3826
  238MPD1    H5 3672   0.198   0.390  15.013  1.9771 -1.6532 -0.1279
  238MPD1    N1 3673   0.554   0.383  15.461 -0.0439  0.8330  0.0456
  238MPD1    H6 3674   0.508   0.452  15.520 -0.9248  1.0375 -0.8781
  238MPD1    H7 3675   0.654   0.379  15.481 -0.1846  0.2248  0.6276
  239MPD1     C 3676   0.436   0.722  14.554 -0.2369 -0.1603  0.2770
  239MPD1    C1 3677   0.468   0.846  14.598  0.6799 -0.7510  0.2517
  239MPD1    C2 3678   0.406   0.957  14.538 -0.5024 -0.4286 -0.1874
  239MPD1    C3 3679   0.318   0.948  14.431 -0.3864  0.2587  0.7064
  239MPD1    C4 3680   0.285   0.821  14.386  0.2011  0.1128 -0.1739
  239MPD1    C5 3681   0.350   0.716  14.443 -1.0942 -0.1274  0.6993
  239MPD1     H 3682   0.418   1.055  14.584  0.9231 -0.6739 -0.0096
  239MPD1    H1 3683   0.227   0.814  14.294 -1.3412  2.0725  0.6597
  239MPD1    H2 3684   0.466   0.624  14.589  0.6963  0.0825  0.1647
  239MPD1    H3 3685   0.330   0.618  14.399 -0.7423 -0.3658  1.0675
  239MPD1     N 3686   0.249   1.061  14.370 -0.8805 -0.1916  0.7851
  239MPD1    H5 3687   0.193   1.049  14.287  1.2043  0.3624 -0.6998
  239MPD1    N1 3688   0.530   0.869  14.725  0.1114 -0.4979 -0.6609
  239MPD1    H6 3689   0.574   0.960  14.727 -0.4000 -0.3079  1.3295
  239MPD1    H7 3690   0.599   0.798  14.749  0.4562  0.0197 -0.1376
  240MPD1     C 3691   4.121   1.415  14.255 -0.2894  0.0186  0.3857
  240MPD1    C1 3692   4.209   1.409  14.360  0.2794 -0.1913  0.7505
  240MPD1    C2 3693   4.223   1.287  14.429  0.2234 -0.8445 -0.2296
  240MPD1    C3 3694   4.144   1.176  14.401  0.3790 -0.4136 -0.0689
  240MPD1    C4 3695   4.041   1.192  14.312  0.5447 -0.4241 -0.2363
  240MPD1    C5 3696   4.026   1.314  14.246  0.2289 -0.0986  0.3174
  240MPD1     H 3697   4.294   1.278  14.511 -2.4165  1.0044  2.2617
  240MPD1    H1 3698   3.972   1.113  14.283  1.4108 -0.2625 -2.7683
  240MPD1    H2 3699   4.131   1.487  14.173  1.3220 -1.7404 -0.9536
  240MPD1    H3 3700   3.960   1.316  14.161  1.7007  2.8744 -0.7331
  240MPD1     N 3701   4.153   1.064  14.484 -0.4179  0.2768 -0.1683
  240MPD1    H5 3702   4.208   1.078  14.568 -1.6472  0.8140  0.5582
  240MPD1    N1 3703   4.303   1.509  14.381 -0.1046  0.0906 -0.0671
  240MPD1    H6 3704   4.256   1.596  14.355 -1.8725 -0.2934  1.8231
  240MPD1    H7 3705   4.338   1.520  14.477  0.2823 -0.9820 -0.0923
  241MPD1     C 3706   0.107   0.717  14.970  0.2131  0.0078  0.2378
  241MPD1    C1 3707   0.094   0.707  14.835 -0.3375 -0.6742 -0.4724
  241MPD1    C2 3708   4.707   0.694  14.781  0.0297  0.2820  0.2896
  241MPD1    C3 3709   4.596   0.694  14.863 -0.4437 -0.6005 -0.2058
  241MPD1    C4 3710   4.612   0.710  15.006  0.2246  1.0439  0.1464
  241MPD1    C5 3711   0.000   0.726  15.054 -0.1231 -0.3379 -0.2419
  241MPD1     H 3712   4.707   0.675  14.674  0.7270  0.0332  0.3364
  241MPD1    H1 3713   4.523   0.726  15.065 -0.0935  3.6908 -1.0366
  241MPD1    H2 3714   0.200   0.707  15.025 -0.0611  0.2115  0.7360
  241MPD1    H3 3715   0.009   0.734  15.161  1.3341 -1.9299 -0.2382
  241MPD1     N 3716   4.467   0.687  14.806  0.1206  0.2807 -0.1958
  241MPD1    H5 3717   4.393   0.686  14.875  0.4951 -0.8302  0.1967
  241MPD1    N1 3718   0.210   0.693  14.757 -0.3956 -0.4681  0.1589
  241MPD1    H6 3719   0.293   0.733  14.801 -0.7474 -0.2409  0.6138
  241MPD1    H7 3720   0.204   0.719  14.659  3.8367  2.1602  0.6169
  242MPD1     C 3721   4.148   3.960  15.692 -0.3361  0.0120 -0.3397
  242MPD1    C1 3722   4.080   3.848  15.655 -0.0362 -0.4492  0.4183
  242MPD1    C2 3723   4.088   3.809  15.520  0.5244 -0.5882  0.1949
  242MPD1    C3 3724   4.128   3.899  15.421  0.5519 -0.0105  0.0908
  242MPD1    C4 3725   4.180   4.022  15.464 -0.1948  0.1811  0.1708
  242MPD1    C5 3726   4.201   4.045  15.599 -0.5537 -0.0156  0.2303
  242MPD1     H 3727   4.052   3.711  15.492  0.3538  0.2805 -2.5741
  242MPD1    H1 3728   4.212   4.098  15.393 -1.1551  0.4532  0.0223
  242MPD1    H2 3729   4.155   3.980  15.798  2.0437 -0.9596 -0.3122
  242MPD1    H3 3730   4.249   4.139  15.625  1.4654 -0.7223 -0.9425
  242MPD1     N 3731   4.125   3.866  15.285 -0.9939  0.1828 -0.6720
  242MPD1    H5 3732   4.165   3.941  15.230  0.5590  0.4719  0.8386
  242MPD1    N1 3733   4.059   3.751  15.755  0.1690 -0.6109  0.7675
  242MPD1    H6 3734   3.977   3.695  15.731  0.4474 -1.5359  2.0081
  242MPD1    H7 3735   4.042   3.792  15.846 -1.9388 -0.7512  0.4487
  243MPD1     C 3736   0.130   2.674  17.577 -0.0520 -0.4675  0.3070
  243MPD1    C1 3737   0.170   2.623  17.451 -0.3823  0.5726  0.8114
  243MPD1    C2 3738   0.285   2.548  17.450 -0.3495 -0.4662  0.7831
  243MPD1    C3 3739   0.370   2.544  17.561 -0.1203  0.3862 -0.0431
  243MPD1    C4 3740   0.342   2.616  17.675 -1.2269  0.5925  0.8404
  243MPD1    C5 3741   0.220   2.672  17.681 -0.1527 -0.5713 -0.5443
  243MPD1     H 3742   0.307   2.492  17.361  2.8313  0.6041  0.8975
  243MPD1    H1 3743   0.406   2.627   0.024 -1.6183  1.8574  0.9733
  243MPD1    H2 3744   0.028   2.708  17.595  0.9626  1.8972  1.5959
  243MPD1    H3 3745   0.192   2.730   0.029  0.3881  0.1007 -0.8253
  243MPD1     N 3746   0.467   2.441  17.561  0.0221  0.2531  0.3222
  243MPD1    H5 3747   0.473   2.380  17.480 -0.1192  1.0829 -0.3111
  243MPD1    N1 3748   0.072   2.609  17.349  0.5047 -0.1386  0.3181
  243MPD1    H6 3749   0.015   2.691  17.330 -0.6878 -0.8222  0.8885
  243MPD1    H7 3750   0.112   2.585  17.259  1.6473  0.3336  0.7020
  244MPD1     C 3751   0.883   1.829   0.516  0.6694  0.3826 -0.3769
  244MPD1    C1 3752   0.810   1.944   0.518 -0.2292 -0.3559  0.7250
  244MPD1    C2 3753   0.779   2.004   0.402 -0.5094 -0.3936 -0.3891
  244MPD1    C3 3754   0.837   1.970   0.280 -0.0236 -0.2382  0.5459
  244MPD1    C4 3755   0.928   1.866   0.274  0.4368  0.0463 -0.1962
  244MPD1    C5 3756   0.940   1.800   0.393  0.1509 -0.5240 -0.4508
  244MPD1     H 3757   0.705   2.083   0.402  1.0407  1.0486  1.7148
  244MPD1    H1 3758   0.976   1.842   0.180 -0.8710 -0.5771 -0.7074
  244MPD1    H2 3759   0.902   1.774   0.608 -1.4623  1.1192  0.5061
  244MPD1    H3 3760   1.010   1.718   0.400  0.9605  0.0456 -1.8761
  244MPD1     N 3761   0.806   2.056   0.169  0.3232  0.1721  0.0255
  244MPD1    H5 3762   0.754   2.138   0.196 -0.8839 -0.4265 -0.4814
  244MPD1    N1 3763   0.738   1.973   0.637  0.4343 -0.2010 -0.4540
  244MPD1    H6 3764   0.785   1.942   0.721 -0.3300 -1.9463 -0.6701
  244MPD1    H7 3765   0.732   2.075   0.644 -2.2114 -0.5847  2.8246
  245MPD1     C 3766   3.064   2.547  13.287  0.8038 -0.8881  0.1741
  245MPD1    C1 3767   3.055   2.686  13.300  0.6950 -0.1480 -0.1471
  245MPD1    C2 3768   3.128   2.742  13.400 -0.4950 -0.0198  0.0014
  245MPD1    C3 3769   3.207   2.679  13.486 -0.0689 -0.2454  0.0826
  245MPD1    C4 3770   3.225   2.539  13.473  0.1017 -0.9279  0.0109
  245MPD1    C5 3771   3.145   2.478  13.378  0.6663 -0.6233  0.9891
  245MPD1     H 3772   3.124   2.850  13.406 -1.4175  0.0581 -2.1534
  245MPD1    H1 3773   3.280   2.477  13.543  1.5731 -1.6761 -1.8261
  245MPD1    H2 3774   3.004   2.489  13.217  0.5828  0.4160 -0.7196
  245MPD1    H3 3775   3.153   2.369  13.377  0.3660 -0.6454  1.0064
  245MPD1     N 3776   3.290   2.759  13.577 -0.7359  0.2296  0.6959
  245MPD1    H5 3777   3.274   2.859  13.584  1.3998  0.5937  0.5329
  245MPD1    N1 3778   2.946   2.752  13.240 -0.0668  0.4373 -0.1575
  245MPD1    H6 3779   2.963   2.852  13.229 -1.7743  0.8523  0.8815
  245MPD1    H7 3780   2.916   2.713  13.151  1.0119  0.1482 -0.3910
  246MPD1     C 3781   4.494   0.161   9.301  0.4393 -0.2059  0.0455
  246MPD1    C1 3782   4.409   0.242   9.370 -0.6673  0.6416 -0.3142
  246MPD1    C2 3783   4.304   0.187   9.439 -0.0580  0.2660  0.0471
  246MPD1    C3 3784   4.307   0.052   9.459  0.1563  0.4470  0.1558
  246MPD1    C4 3785   4.397   4.706   9.404  0.2050  0.0578  0.2888
  246MPD1    C5 3786   4.481   0.025   9.312 -0.0064  0.4638  0.0382
  246MPD1     H 3787   4.219   0.245   9.476  0.8158  1.3277  0.4002
  246MPD1    H1 3788   4.420   4.605   9.438  1.4454  0.6928  1.3300
  246MPD1    H2 3789   4.572   0.192   9.232 -0.1280 -0.2574 -0.6179
  246MPD1    H3 3790   4.566   4.702   9.277 -2.5632 -2.6058 -1.1206
  246MPD1     N 3791   4.207   0.004   9.546  0.6006  0.1573  0.1443
  246MPD1    H5 3792   4.144   0.064   9.597 -0.1093  2.1506 -3.0738
  246MPD1    N1 3793   4.400   0.379   9.331  0.4943 -0.4511  1.1468
  246MPD1    H6 3794   4.493   0.411   9.304 -0.2484 -0.9916 -2.0807
  246MPD1    H7 3795   4.361   0.424   9.413  1.4215 -0.7907  1.7662
  247MPD1     C 3796   2.538   3.043  16.819  0.4984 -0.1672  0.0307
  247MPD1    C1 3797   2.462   2.935  16.825  0.4818  0.4797  0.1086
  247MPD1    C2 3798   2.389   2.895  16.714  0.1070  0.1666  0.0688
  247MPD1    C3 3799   2.410   2.956  16.588  0.2230 -0.7408  0.1668
  247MPD1    C4 3800   2.505   3.055  16.583 -0.0651 -0.2855  0.0234
  247MPD1    C5 3801   2.558   3.101  16.698  0.2293 -0.4210  0.1826
  247MPD1     H 3802   2.313   2.818  16.721 -0.1940  0.2997 -1.8433
  247MPD1    H1 3803   2.536   3.098  16.489 -0.8759 -1.5717 -0.8342
  247MPD1    H2 3804   2.589   3.079  16.907 -1.5828  1.6120  0.5086
  247MPD1    H3 3805   2.630   3.182  16.695  0.4775 -0.5987  1.1864
  247MPD1     N 3806   2.354   2.912  16.468  0.1462 -0.4335  0.0726
  247MPD1    H5 3807   2.369   2.975  16.390 -2.1898 -0.1380 -0.1539
  247MPD1    N1 3808   2.445   2.864  16.943  0.1913 -0.2556 -0.1289
  247MPD1    H6 3809   2.390   2.778  16.938 -1.7641  1.1078 -1.6006
  247MPD1    H7 3810   2.532   2.847  16.993  0.3256 -0.2075 -0.3446
  248MPD1     C 3811   2.618   2.326   0.796 -0.4653 -0.3795 -0.1410
  248MPD1    C1 3812   2.605   2.453   0.757  0.0507  0.3739 -0.4894
  248MPD1    C2 3813   2.486   2.501   0.713 -0.0216 -0.0071 -0.1168
  248MPD1    C3 3814   2.370   2.428   0.708 -0.0671  0.3350 -0.7648
  248MPD1    C4 3815   2.383   2.298   0.751 -0.3057  0.3798 -0.4367
  248MPD1    C5 3816   2.506   2.248   0.792 -0.7212  0.0382 -0.3603
  248MPD1     H 3817   2.482   2.606   0.687  3.1706 -0.3053 -1.8439
  248MPD1    H1 3818   2.301   2.227   0.759  0.8794 -0.8143  1.1621
  248MPD1    H2 3819   2.712   2.285   0.831 -0.3422  0.1552  0.1496
  248MPD1    H3 3820   2.505   2.147   0.831 -1.7629 -0.3276 -1.3427
  248MPD1     N 3821   2.257   2.484   0.645 -0.1494  0.3797 -0.7388
  248MPD1    H5 3822   2.268   2.580   0.616 -0.7358  0.9319  0.8367
  248MPD1    N1 3823   2.715   2.533   0.751  0.0676  0.3307  0.0165
  248MPD1    H6 3824   2.695   2.631   0.772  2.4099  1.1174 -1.3587
  248MPD1    H7 3825   2.796   2.502   0.804 -0.1499  0.0665  0.1934
  249MPD1     C 3826   4.478   1.185  10.663  0.3801  0.4650  0.8794
  249MPD1    C1 3827   4.527   1.164  10.791 -0.5648 -0.1970  0.6697
  249MPD1    C2 3828   4.652   1.217  10.821 -0.4438 -0.1739 -0.2845
  249MPD1    C3 3829   4.729   1.294  10.735 -1.2423  0.1680  1.1492
  249MPD1    C4 3830   4.681   1.316  10.607  0.4034  0.0531  0.3415
  249MPD1    C5 3831   4.555   1.264  10.573  0.1573 -0.0195 -0.6296
  249MPD1     H 3832   4.693   1.200  10.920  0.4402 -1.7662 -0.9275
  249MPD1    H1 3833   0.006   1.372  10.536 -1.6427  0.2314 -1.2356
  249MPD1    H2 3834   4.386   1.143  10.626  0.0849  1.5545  0.3930
  249MPD1    H3 3835   4.514   1.288  10.476 -0.7043 -0.1942 -0.3090
  249MPD1     N 3836   0.114   1.354  10.783  0.1268 -0.4087 -0.1985
  249MPD1    H5 3837   0.145   1.325  10.875 -0.3928 -0.0406  0.0971
  249MPD1    N1 3838   4.461   1.068  10.874 -0.3585  0.0156 -0.1726
  249MPD1    H6 3839   4.486   1.086  10.971  0.1441 -1.0477 -0.0955
  249MPD1    H7 3840   4.360   1.070  10.863 -0.3138 -0.0211 -0.5696
  250MPD2     C 3841   1.543   1.275  13.053  0.5178  0.4740 -0.6509
  250MPD2    C1 3842   1.432   1.349  13.022 -0.5241  0.0782  0.4550
  250MPD2    C2 3843   1.339   1.298  12.926  0.4294  0.3380 -0.8848
  250MPD2    C3 3844   1.361   1.174  12.871  0.3196 -0.3401 -0.2020
  250MPD2    C4 3845   1.473   1.104  12.909 -0.6667  0.4956  0.3007
  250MPD2    C5 3846   1.567   1.156  12.992  0.1093  0.3104 -0.1056
  250MPD2     H 3847   1.248   1.351  12.897 -1.4004 -1.4820  1.5918
  250MPD2    H1 3848   1.495   1.005  12.870 -2.6579  0.0405  0.3614
  250MPD2    H2 3849   1.609   1.312  13.131 -0.1971  0.2764  0.0410
  250MPD2    H3 3850   1.656   1.099  13.016  0.1026  1.0376  1.6567
  250MPD2     N 3851   1.285   1.121  12.771 -0.6633 -0.0313 -0.1863
  250MPD2    H5 3852   1.328   1.035  12.737 -1.0551  0.2937 -1.5050
  250MPD2    N1 3853   1.428   1.474  13.076 -0.3036  0.0865 -0.2132
  250MPD2    H7 3854   1.490   1.498  13.152 -2.3587  0.9111  1.2061
  251TMC3    C1 3855   1.362   1.694  13.107  0.2732  0.0088  0.6170
  251TMC3    C2 3856   1.261   1.753  13.174 -0.0796  0.2326 -0.3406
  251TMC3    C3 3857   1.306   1.867  13.243 -0.6493 -0.5257 -0.0114
  251TMC3    C4 3858   1.494   1.738  13.097 -0.0766  0.4103  0.5874
  251TMC3    C5 3859   1.531   1.850  13.164 -0.2856  0.5882  1.0117
  251TMC3    C6 3860   1.439   1.911  13.238  0.1241 -0.4943 -0.5812
  251TMC3     C 3861   1.327   1.565  13.047 -0.5343  0.5649 -0.0513
  251TMC3     O 3862   1.229   1.556  12.979  0.0314 -0.2113  0.2149
  251TMC3     H 3863   1.160   1.714  13.184 -0.8323  2.0721 -0.8182
  251TMC3    H1 3864   1.566   1.688  13.034 -2.4947 -2.3805  0.0673
  251TMC3    H2 3865   1.454   2.005  13.291  0.3945  0.3961 -2.2255
  251TMC3    C7 3866   1.669   1.883  13.189 -0.0927  0.5321 -0.4084
  251TMC3    C8 3867   1.210   1.938  13.332 -0.2990  0.0325 -0.2719
  251TMC3    O1 3868   1.692   1.964  13.281 -0.1138 -0.2261 -0.5298
  251TMC3    O2 3869   1.091   1.909  13.318  0.2472  0.1481  0.1402
  252TMC3    C1 3870   0.788   2.938   9.871 -0.0344 -0.0531  1.2327
  252TMC3    C2 3871   0.883   3.027   9.840  0.8823  0.2390 -0.5913
  252TMC3    C3 3872   1.009   2.983   9.830 -0.7982  0.2192 -0.2778
  252TMC3    C4 3873   0.820   2.807   9.902  0.3740  0.7415 -0.9195
  252TMC3    C5 3874   0.951   2.769   9.881  0.0357  0.6995  0.4631
  252TMC3    C6 3875   1.050   2.851   9.840  0.1785 -0.2333  0.4092
  252TMC3     C 3876   0.650   2.967   9.840 -0.6411  0.0794  0.7645
  252TMC3     O 3877   0.574   2.875   9.852  0.5031 -0.1277 -0.1063
  252TMC3     H 3878   0.855   3.130   9.860  1.3974  0.3931 -0.6603
  252TMC3    H1 3879   0.746   2.744   9.952  0.4325  0.4978 -1.1431
  252TMC3    H2 3880   1.153   2.831   9.812 -0.6037  0.5291 -3.0572
  252TMC3    C7 3881   1.007   2.639   9.923 -0.4713 -0.5137  0.3394
  252TMC3    C8 3882   1.107   3.095   9.824 -0.0843  0.0603  0.3083
  252TMC3    O1 3883   1.126   2.644   9.942  0.2973  0.1300  0.2671
  252TMC3    O2 3884   1.073   3.196   9.762  0.6578 -0.4939 -0.0673
  253MPD2     C 3885   2.638   1.824  15.588  0.2325 -0.0262  0.2081
  253MPD2    C1 3886   2.522   1.805  15.535 -0.3417 -0.0389 -0.1624
  253MPD2    C2 3887   2.441   1.715  15.593  0.4232  1.3907  0.4065
  253MPD2    C3 3888   2.480   1.632  15.701 -0.0471 -0.2833  0.3521
  253MPD2    C4 3889   2.614   1.649  15.748  0.0225 -0.3310 -0.7468
  253MPD2    C5 3890   2.682   1.756  15.700 -0.3004 -0.6902 -0.0600
  253MPD2     H 3891   2.343   1.707  15.548  0.0401  0.3993  1.4292
  253MPD2    H1 3892   2.660   1.586  15.824  1.5209 -1.0458 -2.2506
  253MPD2    H2 3893   2.702   1.902  15.548  0.4393 -0.7556 -0.8871
  253MPD2    H3 3894   2.785   1.774  15.729  1.1558 -0.8404 -5.1039
  253MPD2     N 3895   2.395   1.537  15.772 -0.0291  0.1080 -0.0772
  253MPD2    H5 3896   2.442   1.483  15.844  0.2962  3.2279  2.0423
  253MPD2    N1 3897   2.475   1.865  15.415  0.4772 -0.6390  0.0943
  253MPD2    H7 3898   2.383   1.832  15.388  0.3419 -0.6895  0.6115
  254TMC3    C1 3899   2.178   1.453  15.851 -0.5011 -0.5942 -0.0035
  254TMC3    C2 3900   2.042   1.436  15.830  0.1042  0.1492 -0.4975
  254TMC3    C3 3901   1.953   1.401  15.930 -0.1415 -0.2731 -0.0131
  254TMC3    C4 3902   2.232   1.423  15.977  0.6788  0.5673  0.3133
  254TMC3    C5 3903   2.146   1.377  16.071  0.5493 -0.1030  0.0741
  254TMC3    C6 3904   2.008   1.367  16.054  0.4362 -1.0123  0.2392
  254TMC3     C 3905   2.256   1.526  15.751  0.4934  0.1948 -0.1957
  254TMC3     O 3906   2.191   1.577  15.663  0.5983 -0.2031  0.1362
  254TMC3     H 3907   2.000   1.469  15.736 -0.7269 -0.4435 -0.3331
  254TMC3    H1 3908   2.333   1.458  15.993  2.0031 -3.4096  0.6937
  254TMC3    H2 3909   1.944   1.349  16.140 -0.3651  1.2874  0.1332
  254TMC3    C7 3910   2.200   1.396  16.208  0.1489  0.2058  0.0819
  254TMC3    C8 3911   1.816   1.456  15.931 -0.3131 -0.5004 -0.0845
  254TMC3    O1 3912   2.309   1.346  16.235 -0.2758  0.1665  0.1768
  254TMC3    O2 3913   1.787   1.544  15.853 -0.2225  0.3283 -0.6840
  255MPD2     C 3914   0.192   4.588  11.158  0.1846 -0.2137 -1.1044
  255MPD2    C1 3915   0.232   4.661  11.053 -0.1684  0.2032 -0.0129
  255MPD2    C2 3916   0.336   4.612  10.975 -1.4742 -0.6377  0.8062
  255MPD2    C3 3917   0.398   4.489  11.012  0.2869 -0.0071  0.1409
  255MPD2    C4 3918   0.360   4.416  11.123  0.2312  0.8862  0.3224
  255MPD2    C5 3919   0.259   4.470  11.197  0.8169  0.1885 -0.0107
  255MPD2     H 3920   0.366   4.662  10.884  0.0303 -3.3759 -0.1916
  255MPD2    H1 3921   0.406   4.320  11.145  0.1520  0.6279 -0.6397
  255MPD2    H2 3922   0.101   4.610  11.212 -0.6463 -0.9209 -2.2072
  255MPD2    H3 3923   0.218   4.410  11.278  3.3873 -0.9010  0.4742
  255MPD2     N 3924   0.501   4.439  10.923 -0.3390  0.7553  0.7501
  255MPD2    H5 3925   0.524   4.497  10.842  0.3454  0.4625  0.7360
  255MPD2    N1 3926   0.156   0.044  11.009 -0.3554 -0.1961 -0.4635
  255MPD2    H7 3927   0.077   0.064  11.069  2.1893  0.0560  2.8344
  256TMC3    C1 3928   0.101   0.235  10.903 -0.5220  0.1315  0.1169
  256TMC3    C2 3929   0.149   0.345  10.830 -0.5592 -0.2013  0.3776
  256TMC3    C3 3930   0.073   0.406  10.737 -0.4950 -0.0877  0.1026
  256TMC3    C4 3931   4.712   0.179  10.871  0.2177 -0.4124  0.3007
  256TMC3    C5 3932   4.644   0.244  10.770 -0.1795  0.3675 -0.3031
  256TMC3    C6 3933   4.689   0.353  10.695  0.2281  0.0491 -0.4158
  256TMC3     C 3934   0.201   0.135  10.915 -0.4277  0.4239 -0.2972
  256TMC3     O 3935   0.309   0.145  10.859 -0.1829 -0.0477 -0.0615
  256TMC3     H 3936   0.254   0.372  10.845 -0.1212 -0.2003 -2.6941
  256TMC3    H1 3937   4.683   0.085  10.915  0.3078 -0.4462  0.2877
  256TMC3    H2 3938   4.614   0.407  10.639  0.1860 -1.5106 -1.8459
  256TMC3    C7 3939   4.559   0.164  10.690  0.0650  0.0588  0.0265
  256TMC3    C8 3940   0.139   0.498  10.645  0.4918 -0.0057  0.1589
  256TMC3    O1 3941   4.600   0.142  10.573 -0.6354 -0.4064  0.4994
  256TMC3    O2 3942   0.246   0.551  10.687 -0.4204  0.6036  0.7044
  257MPD2     C 3943   4.333   1.255  13.053 -0.2877 -0.1732 -0.1480
  257MPD2    C1 3944   4.453   1.303  13.006  0.0676 -0.1293 -0.2355
  257MPD2    C2 3945   4.561   1.270  13.087  0.0554  0.2904  0.4220
  257MPD2    C3 3946   4.559   1.185  13.199  0.0185  0.4720  0.3617
  257MPD2    C4 3947   4.433   1.147  13.236 -0.0607 -0.3383 -0.4427
  257MPD2    C5 3948   4.321   1.179  13.163  0.2536 -0.3658  0.7830
  257MPD2     H 3949   4.656   1.315  13.061 -1.3461  2.8306 -0.2386
  257MPD2    H1 3950   4.423   1.070  13.311  2.2577  1.6601  1.8896
  257MPD2    H2 3951   4.240   1.266  12.999  0.9163  2.1499 -1.7663
  257MPD2    H3 3952   4.224   1.136  13.185 -0.6165  0.7958 -0.8212
  257MPD2     N 3953   4.670   1.138  13.270 -0.7098  0.8324 -0.3927
  257MPD2    H5 3954   4.646   1.118  13.366  2.3828  0.8331  0.3874
  257MPD2    N1 3955   4.460   1.361  12.876  0.1780  0.1454 -0.1677
  257MPD2    H7 3956   4.387   1.334  12.811  0.3692 -0.7501 -0.0194
  258TMC3    C1 3957   0.148   1.043  13.286  0.1782 -0.3044  0.7619
  258TMC3    C2 3958   0.223   0.947  13.227  0.4700 -0.4120 -0.1851
  258TMC3    C3 3959   0.314   0.890  13.312 -0.4657 -0.7104  0.3341
  258TMC3    C4 3960   0.163   1.091  13.413  0.2828 -0.4612  0.3092
  258TMC3    C5 3961   0.263   1.040  13.485 -0.0227 -0.1532  0.8824
  258TMC3    C6 3962   0.333   0.937  13.436  0.5091 -0.1329  0.0799
  258TMC3     C 3963   0.049   1.102  13.200  0.8824 -0.1750  0.4412
  258TMC3     O 3964   0.063   1.086  13.079  0.5169  0.3885 -0.5513
  258TMC3     H 3965   0.206   0.920  13.124  2.0946  1.1600 -0.8497
  258TMC3    H1 3966   0.122   1.186  13.446  0.6161  0.1310 -0.9895
  258TMC3    H2 3967   0.395   0.876  13.501 -0.7740 -0.4803  0.9867
  258TMC3    C7 3968   0.319   1.130  13.588 -0.0709  0.1987 -0.1527
  258TMC3    C8 3969   0.390   0.768  13.268 -0.4727 -0.1088 -0.2647
  258TMC3    O1 3970   0.260   1.235  13.603 -0.2701  0.2366  0.1711
  258TMC3    O2 3971   0.499   0.747  13.318  0.3906 -0.3680  0.1283
  259MPD2     C 3972   3.581   3.795   0.292  0.1110 -0.1062 -0.5288
  259MPD2    C1 3973   3.597   3.661   0.289  0.6622  0.2010 -0.0405
  259MPD2    C2 3974   3.634   3.593   0.177 -0.4509 -0.1329 -1.4009
  259MPD2    C3 3975   3.644   3.654   0.058 -0.0308  0.0354 -0.1546
  259MPD2    C4 3976   3.639   3.792   0.061 -0.0427 -0.1529 -0.7072
  259MPD2    C5 3977   3.604   3.865   0.177  0.0337 -0.3859 -0.2473
  259MPD2     H 3978   3.635   3.485   0.174 -0.7557 -0.1558 -0.5994
  259MPD2    H1 3979   3.639   3.853  17.709 -1.2519 -1.5256 -1.6262
  259MPD2    H2 3980   3.554   3.839   0.387 -1.5680  1.2044 -1.6324
  259MPD2    H3 3981   3.600   3.973   0.172 -1.2831 -0.4662 -0.7824
  259MPD2     N 3982   3.669   3.576  17.681  0.3299 -0.8140 -0.1831
  259MPD2    H5 3983   3.678   3.476  17.693 -2.4737 -0.9738  0.5182
  259MPD2    N1 3984   3.559   3.599   0.409  0.2795  0.1243 -0.1020
  259MPD2    H7 3985   3.526   3.664   0.480 -1.2023 -0.4106 -0.2960
  260TMC3    C1 3986   3.725   3.526  17.455  0.2376  0.5406 -0.3512
  260TMC3    C2 3987   3.813   3.564  17.363  0.4155  0.0686 -0.1335
  260TMC3    C3 3988   3.865   3.472  17.288 -0.1297 -0.4276  0.1222
  260TMC3    C4 3989   3.681   3.393  17.476  0.2595  0.1928  0.6435
  260TMC3    C5 3990   3.728   3.305  17.381 -0.3548 -0.5270 -0.0540
  260TMC3    C6 3991   3.832   3.344  17.299  0.1480  0.1776  0.3366
  260TMC3     C 3992   3.689   3.623  17.550  0.2891  0.3977 -0.3196
  260TMC3     O 3993   3.701   3.743  17.515  0.3804  0.1505 -0.1295
  260TMC3     H 3994   3.840   3.668  17.346 -0.5104  0.5577  1.3750
  260TMC3    H1 3995   3.609   3.370  17.554  0.6639 -1.3282  0.5644
  260TMC3    H2 3996   3.855   3.281  17.213 -2.2850  1.5789 -1.3572
  260TMC3    C7 3997   3.742   3.161  17.406 -0.5407  0.3835  0.3837
  260TMC3    C8 3998   3.997   3.498  17.226 -0.0269  0.3513  0.1538
  260TMC3    O1 3999   3.827   3.094  17.347 -0.0692 -0.2642 -0.1721
  260TMC3    O2 4000   4.031   3.616  17.231  0.0338 -0.3096  0.5286
  261MPD2     C 4001   0.547   1.113  12.302  0.6624  0.2490 -0.7055
  261MPD2    C1 4002   0.648   1.205  12.320  0.1812  0.3954  0.7135
  261MPD2    C2 4003   0.629   1.340  12.282 -0.0733 -0.3644  0.5158
  261MPD2    C3 4004   0.509   1.374  12.227  0.5919  1.1861 -0.1928
  261MPD2    C4 4005   0.412   1.281  12.209  0.4213  0.0670 -0.4493
  261MPD2    C5 4006   0.424   1.151  12.250 -0.2092  0.2684  1.2303
  261MPD2     H 4007   0.704   1.413  12.310  0.2728 -0.9896  1.2262
  261MPD2    H1 4008   0.315   1.303  12.166  0.9139  1.8950 -0.6257
  261MPD2    H2 4009   0.562   1.014  12.344  1.1404  0.5087 -0.2481
  261MPD2    H3 4010   0.338   1.086  12.239 -1.7199  2.0187  2.8245
  261MPD2     N 4011   0.489   1.509  12.191  0.1976  0.3276 -0.1711
  261MPD2    H5 4012   0.567   1.575  12.188  1.0849 -0.6393  2.0836
  261MPD2    N1 4013   0.774   1.177  12.367  0.3173  0.1232  0.3595
  261MPD2    H7 4014   0.830   1.259  12.389 -0.6078  0.5725  1.0466
  262TMC3    C1 4015   0.374   1.710  12.126 -0.2046 -0.5260 -0.1226
  262TMC3    C2 4016   0.249   1.775  12.119  0.0278 -1.1757  0.0111
  262TMC3    C3 4017   0.252   1.895  12.060  0.2667  0.3988  0.4174
  262TMC3    C4 4018   0.480   1.751  12.047  0.2722  0.0721 -0.2541
  262TMC3    C5 4019   0.461   1.865  11.972  0.0758 -0.5297 -0.1205
  262TMC3    C6 4020   0.352   1.948  11.985 -0.4215  0.1624 -1.0031
  262TMC3     C 4021   0.367   1.567  12.153 -0.8444 -0.4931 -0.4235
  262TMC3     O 4022   0.258   1.517  12.137  0.3211 -0.3130  0.3065
  262TMC3     H 4023   0.160   1.731  12.164  1.3336 -1.3733  2.3822
  262TMC3    H1 4024   0.566   1.686  12.038  1.3966  1.5480 -0.2499
  262TMC3    H2 4025   0.346   2.046  11.938  0.8950  2.5398  3.7935
  262TMC3    C7 4026   0.552   1.895  11.867  0.6073 -0.3082 -0.4577
  262TMC3    C8 4027   0.133   1.981  12.071 -0.0482 -0.0206 -0.5081
  262TMC3    O1 4028   0.651   1.816  11.863 -0.2485 -0.2405 -0.6921
  262TMC3    O2 4029   0.125   2.081  12.003 -0.1874 -0.1549 -0.0946
  263MPD2     C 4030   1.429   0.526  11.465  0.7565 -0.0940  0.3466
  263MPD2    C1 4031   1.555   0.546  11.414 -0.3867 -0.4356  0.2291
  263MPD2    C2 4032   1.576   0.598  11.289 -0.6092 -0.1779  0.3803
  263MPD2    C3 4033   1.466   0.609  11.202 -0.5959 -0.0667  0.6194
  263MPD2    C4 4034   1.335   0.590  11.249 -0.0043  0.5949 -0.1894
  263MPD2    C5 4035   1.321   0.561  11.383 -0.5407  0.6676  0.3641
  263MPD2     H 4036   1.674   0.620  11.247 -1.0740  1.0743 -0.0433
  263MPD2    H1 4037   1.248   0.602  11.186 -0.7416 -0.5410  0.6095
  263MPD2    H2 4038   1.407   0.492  11.565 -2.3660  0.3630 -0.1939
  263MPD2    H3 4039   1.222   0.552  11.427 -1.4670  1.2374 -1.5981
  263MPD2     N 4040   1.484   0.660  11.073  0.5277  0.3258  0.4540
  263MPD2    H5 4041   1.408   0.712  11.029 -0.1914  0.0304  1.3371
  263MPD2    N1 4042   1.665   0.510  11.495 -0.3943  0.1137 -0.3526
  263MPD2    H7 4043   1.636   0.451  11.572  0.6875 -0.3139 -0.2664
  264TMC3    C1 4044   1.629   0.746  10.906 -0.8708 -0.0254 -0.0871
  264TMC3    C2 4045   1.569   0.867  10.930  0.0390 -0.1235  0.0351
  264TMC3    C3 4046   1.595   0.956  10.831 -0.0348  0.0853 -0.1281
  264TMC3    C4 4047   1.708   0.718  10.801  0.5669 -0.4289 -0.5852
  264TMC3    C5 4048   1.730   0.808  10.709  0.4172  0.1098 -0.6905
  264TMC3    C6 4049   1.674   0.931  10.723  0.3303  0.1684 -0.2797
  264TMC3     C 4050   1.606   0.649  11.009  0.5772  0.4229  0.3617
  264TMC3     O 4051   1.679   0.550  11.014  0.2192  0.2595  0.4061
  264TMC3     H 4052   1.521   0.894  11.023 -0.5565 -2.2009  0.3404
  264TMC3    H1 4053   1.764   0.626  10.804  0.0762 -0.7336 -0.8202
  264TMC3    H2 4054   1.693   1.012  10.653 -0.5482 -0.0887 -0.8206
  264TMC3    C7 4055   1.845   0.784  10.628  0.1250 -0.1128  0.3950
  264TMC3    C8 4056   1.613   1.093  10.882  0.0838 -0.2018  0.1297
  264TMC3    O1 4057   1.914   0.683  10.646 -0.0182 -0.1381  0.2584
  264TMC3    O2 4058   1.718   1.150  10.851  0.0929 -0.4383 -0.2954
  265MPD2     C 4059   3.507   1.147  15.529  0.1471  0.6609 -0.3393
  265MPD2    C1 4060   3.609   1.248  15.532  0.4052 -0.3003  0.0615
  265MPD2    C2 4061   3.729   1.241  15.468 -0.4951  0.1013 -0.1348
  265MPD2    C3 4062   3.744   1.127  15.381 -0.1896 -0.3799 -0.9236
  265MPD2    C4 4063   3.643   1.033  15.364  0.0405  0.0176 -0.4811
  265MPD2    C5 4064   3.530   1.042  15.444  0.5549 -0.2050  0.5317
  265MPD2     H 4065   3.804   1.319  15.475 -0.8193  0.3152  0.9571
  265MPD2    H1 4066   3.657   0.951  15.294  0.2199  0.2279 -0.6896
  265MPD2    H2 4067   3.414   1.148  15.585  0.1432  1.6877 -0.3569
  265MPD2    H3 4068   3.471   0.954  15.421  3.1897 -1.4942 -1.2520
  265MPD2     N 4069   3.860   1.108  15.301 -0.4518 -0.3275  1.2147
  265MPD2    H5 4070   3.848   1.021  15.249  0.1790  0.8698 -0.9089
  265MPD2    N1 4071   3.598   1.363  15.609  0.1770 -0.1424  0.4114
  265MPD2    H7 4072   3.680   1.422  15.614 -0.4466  0.9249 -1.7102
  266TMC3    C1 4073   3.509   1.532  15.734  0.2066 -0.7826 -0.0651
  266TMC3    C2 4074   3.632   1.564  15.792 -0.0732  0.2154 -0.2009
  266TMC3    C3 4075   3.634   1.691  15.851  0.1514  0.0302  0.1467
  266TMC3    C4 4076   3.401   1.619  15.738 -0.5847  0.4937 -0.4388
  266TMC3    C5 4077   3.416   1.741  15.794 -0.0926  0.3313  0.0066
  266TMC3    C6 4078   3.532   1.781  15.852  0.9088  0.1564 -0.2180
  266TMC3     C 4079   3.483   1.410  15.667  0.1858 -0.3893  0.7761
  266TMC3     O 4080   3.368   1.368  15.658 -0.4200 -0.3762  0.4925
  266TMC3     H 4081   3.712   1.494  15.814 -1.0076 -0.4010  1.2533
  266TMC3    H1 4082   3.310   1.588  15.687  0.6579 -0.6945 -1.9525
  266TMC3    H2 4083   3.546   1.875  15.905  2.1880 -0.2550  0.1512
  266TMC3    C7 4084   3.309   1.833  15.762  0.1677 -0.1958  0.3749
  266TMC3    C8 4085   3.742   1.715  15.947 -0.4183  0.6976 -0.0198
  266TMC3    O1 4086   3.194   1.798  15.764 -0.2055 -0.4171 -0.7855
  266TMC3    O2 4087   3.807   1.622  15.993 -0.3599  0.5331  0.1391
  267MPD2     C 4088   0.926   3.911   0.255 -0.3655  0.2748 -0.2889
  267MPD2    C1 4089   0.876   3.811   0.171 -0.6526 -0.4579  0.5369
  267MPD2    C2 4090   0.806   3.853   0.059 -0.1071  0.0753  0.0236
  267MPD2    C3 4091   0.785   3.986   0.036  0.0191 -0.5896  0.6148
  267MPD2    C4 4092   0.826   4.078   0.127 -0.4611  0.0683 -0.1264
  267MPD2    C5 4093   0.894   4.046   0.242 -0.9953  0.6447  0.1883
  267MPD2     H 4094   0.772   3.781  17.723 -1.5059  0.5795  0.1828
  267MPD2    H1 4095   0.801   4.183   0.112 -1.9575 -0.4356 -1.0868
  267MPD2    H2 4096   0.983   3.888   0.344  0.1169  0.3514 -0.5799
  267MPD2    H3 4097   0.911   4.113   0.325 -1.0066  1.7892 -0.7396
  267MPD2     N 4098   0.762   4.033  17.646  0.0176 -0.1974  0.5475
  267MPD2    H5 4099   0.807   4.123  17.633 -2.1173  0.4387 -2.3870
  267MPD2    N1 4100   0.907   3.677   0.199 -0.2397 -0.9233 -0.3211
  267MPD2    H7 4101   0.953   3.656   0.287  0.6750  1.5447 -0.2076
  268TMC3    C1 4102   0.959   3.442   0.156 -0.3935  0.5060 -0.3965
  268TMC3    C2 4103   1.012   3.363   0.063 -0.2369  0.3096  0.1785
  268TMC3    C3 4104   1.088   3.256   0.101 -0.7373  0.5252  0.8481
  268TMC3    C4 4105   0.968   3.401   0.284  0.1233 -0.2054  0.7362
  268TMC3    C5 4106   1.039   3.281   0.321 -0.1455 -0.3578 -0.6565
  268TMC3    C6 4107   1.104   3.210   0.227  0.3722  0.7320  1.5782
  268TMC3     C 4108   0.898   3.570   0.106 -0.8345  0.8512 -0.4709
  268TMC3     O 4109   0.837   3.570   0.004 -0.2923  0.5202 -0.2230
  268TMC3     H 4110   1.009   3.409  17.702  0.9238  3.3860  1.5780
  268TMC3    H1 4111   0.907   3.457   0.354  1.9178  1.9346  0.6048
  268TMC3    H2 4112   1.169   3.132   0.264 -1.4189 -2.2013 -1.3851
  268TMC3    C7 4113   1.039   3.237   0.455 -0.1475  0.1668  0.1688
  268TMC3    C8 4114   1.158   3.164   0.010  0.5524  0.8503  0.5210
  268TMC3    O1 4115   1.067   3.121   0.471  0.2123  0.1380 -0.5871
  268TMC3    O2 4116   1.175   3.047   0.050 -0.1163 -0.4096  0.4226
  269MPD2     C 4117   1.768   1.856  15.734  0.0812 -0.0025  0.0515
  269MPD2    C1 4118   1.632   1.866  15.739  0.0773  0.0555 -0.2349
  269MPD2    C2 4119   1.572   1.991  15.725  0.1025  0.9016  0.2647
  269MPD2    C3 4120   1.643   2.107  15.706  0.2178 -0.0960 -0.2285
  269MPD2    C4 4121   1.781   2.099  15.698 -0.2641 -0.5395 -0.3908
  269MPD2    C5 4122   1.840   1.979  15.719 -0.1961 -0.0292 -0.3707
  269MPD2     H 4123   1.464   2.001  15.731 -0.0447 -0.8625  0.4894
  269MPD2    H1 4124   1.844   2.187  15.687 -0.9567  0.0349  0.2160
  269MPD2    H2 4125   1.819   1.761  15.741 -0.5748 -0.2501  1.4827
  269MPD2    H3 4126   1.948   1.980  15.715 -0.2058  0.2956 -0.6054
  269MPD2     N 4127   1.572   2.226  15.683  0.0653 -0.2105  0.5161
  269MPD2    H5 4128   1.473   2.218  15.701  0.0279 -0.9728 -0.0369
  269MPD2    N1 4129   1.552   1.747  15.744 -0.0616 -0.1970  0.0917
  269MPD2    H7 4130   1.601   1.665  15.777 -0.1490 -0.7293 -1.0962
  270TMC3    C1 4131   1.362   1.600  15.727 -0.0581 -0.5500 -0.4876
  270TMC3    C2 4132   1.257   1.573  15.644 -0.4633  0.0185  0.0152
  270TMC3    C3 4133   1.220   1.441  15.641 -0.6079  0.1503  0.1095
  270TMC3    C4 4134   1.424   1.507  15.808 -0.3675  0.5227 -0.0102
  270TMC3    C5 4135   1.377   1.379  15.811  0.6816 -0.4341  0.5319
  270TMC3    C6 4136   1.282   1.344  15.717  0.6615 -0.2030 -0.5865
  270TMC3     C 4137   1.415   1.740  15.717  0.7945 -0.2771  0.5103
  270TMC3     O 4138   1.348   1.822  15.656  0.0344  0.3351  0.5196
  270TMC3     H 4139   1.211   1.649  15.581 -1.1041 -0.9441 -0.6662
  270TMC3    H1 4140   1.497   1.543  15.880 -0.9742  0.0773  0.8339
  270TMC3    H2 4141   1.256   1.240  15.701  0.8742  0.1191 -3.0383
  270TMC3    C7 4142   1.493   1.294  15.789  0.1373 -0.2492 -0.1380
  270TMC3    C8 4143   1.159   1.387  15.515  0.3051 -0.0282  0.9674
  270TMC3    O1 4144   1.515   1.207  15.871  0.0855 -0.2226 -0.0752
  270TMC3    O2 4145   1.075   1.297  15.540 -0.3020  0.2984  0.2594
  271MPD2     C 4146   1.107   1.271  13.732 -0.6405 -0.7667 -0.1422
  271MPD2    C1 4147   1.069   1.378  13.807 -0.0189 -1.1430  0.1527
  271MPD2    C2 4148   0.956   1.450  13.773  0.7037  0.7661 -0.3029
  271MPD2    C3 4149   0.878   1.411  13.666 -0.4250 -0.2371  0.4890
  271MPD2    C4 4150   0.924   1.299  13.596 -0.1870 -0.5496 -0.3076
  271MPD2    C5 4151   1.038   1.239  13.624 -0.0755  0.1125 -0.3580
  271MPD2     H 4152   0.916   1.527  13.838  0.7143  0.7976 -0.3335
  271MPD2    H1 4153   0.871   1.264  13.508  1.2964  0.0776 -1.4661
  271MPD2    H2 4154   1.192   1.206  13.748 -0.1816 -0.1757 -0.2207
  271MPD2    H3 4155   1.072   1.155  13.564 -1.2633 -0.9488  0.4591
  271MPD2     N 4156   0.770   1.481  13.612  0.4800 -0.2352 -0.3351
  271MPD2    H5 4157   0.722   1.451  13.527  0.0382  0.8605 -0.4596
  271MPD2    N1 4158   1.140   1.397  13.930 -0.7252 -0.0205  0.2101
  271MPD2    H7 4159   1.101   1.466  13.995 -4.0125 -0.9032 -0.8081
  272TMC3    C1 4160   1.269   1.335  14.119  0.2768  0.3662 -0.6710
  272TMC3    C2 4161   1.402   1.304  14.147 -0.6308 -0.1531 -0.3358
  272TMC3    C3 4162   1.435   1.269  14.275 -0.0742 -0.5008  0.3221
  272TMC3    C4 4163   1.177   1.337  14.219 -0.7629 -0.0806  0.1240
  272TMC3    C5 4164   1.216   1.305  14.351 -0.8618  0.4559 -0.3323
  272TMC3    C6 4165   1.344   1.273  14.380  0.4682 -0.5943 -0.0250
  272TMC3     C 4166   1.236   1.310  13.983 -0.1109  0.0682  0.7450
  272TMC3     O 4167   1.313   1.231  13.931 -0.2406 -0.3501 -0.0814
  272TMC3     H 4168   1.478   1.284  14.071 -1.2206  0.6749 -1.1425
  272TMC3    H1 4169   1.076   1.348  14.181 -1.2144 -1.2207  1.0126
  272TMC3    H2 4170   1.361   1.238  14.481  1.5919 -0.3747 -0.1489
  272TMC3    C7 4171   1.121   1.308  14.458 -0.0724  0.1049 -0.8364
  272TMC3    C8 4172   1.567   1.220  14.305 -0.6282 -0.2458 -0.6457
  272TMC3    O1 4173   1.014   1.250  14.431  0.3992  0.5616 -0.6905
  272TMC3    O2 4174   1.655   1.247  14.223 -0.8423 -0.1231 -0.0785
  273MPD2     C 4175   1.444   4.256  11.666 -0.1342 -0.1715  0.4826
  273MPD2    C1 4176   1.579   4.248  11.643 -0.3879  0.2241 -0.2402
  273MPD2    C2 4177   1.624   4.273  11.513  0.5451  1.1803  0.9390
  273MPD2    C3 4178   1.542   4.321  11.412 -0.2676 -0.0505 -0.2304
  273MPD2    C4 4179   1.406   4.328  11.441  0.3709 -0.0434  0.0527
  273MPD2    C5 4180   1.361   4.291  11.566 -0.6919  0.0253  0.3335
  273MPD2     H 4181   1.728   4.259  11.486 -0.3389 -1.9128 -0.8783
  273MPD2    H1 4182   1.336   4.357  11.363 -1.6665 -0.3696  1.7837
  273MPD2    H2 4183   1.409   4.238  11.767  0.8355 -2.1073  0.4896
  273MPD2    H3 4184   1.258   4.310  11.595 -0.2559  1.3488  1.0527
  273MPD2     N 4185   1.584   4.348  11.275 -0.1177  0.0522  0.5765
  273MPD2    H5 4186   1.513   4.371  11.205  0.1761  2.2961  1.0203
  273MPD2    N1 4187   1.669   4.221  11.749 -0.1264  0.1090 -0.2570
  273MPD2    H7 4188   1.637   4.227  11.845  1.6419 -0.4830  0.3688
  274TMC3    C1 4189   1.754   4.400  11.110 -0.1649 -0.3869 -0.5249
  274TMC3    C2 4190   1.657   4.388  11.010  0.4539 -0.0919  0.0436
  274TMC3    C3 4191   1.700   4.425  10.885 -0.2098  0.4057 -0.8288
  274TMC3    C4 4192   1.875   4.455  11.092 -0.9181 -1.0383  0.5211
  274TMC3    C5 4193   1.905   4.505  10.971 -0.8801  0.3012 -0.2282
  274TMC3    C6 4194   1.819   4.489  10.866  0.3605  0.6520 -0.3631
  274TMC3     C 4195   1.714   4.386  11.254 -0.4307  0.3275  0.5039
  274TMC3     O 4196   1.811   4.394  11.333 -0.5565 -0.1773  0.1114
  274TMC3     H 4197   1.557   4.352  11.031  0.9363 -1.6125 -0.2666
  274TMC3    H1 4198   1.955   4.452  11.165 -0.2184 -1.7692 -0.2871
  274TMC3    H2 4199   1.839   4.543  10.775  1.9009 -3.0585 -2.2233
  274TMC3    C7 4200   2.003   4.610  10.967  0.1814 -0.4646  0.6734
  274TMC3    C8 4201   1.606   4.406  10.774  0.1947  0.0956 -0.0259
  274TMC3    O1 4202   2.066   4.627  10.867 -0.5866  0.2060  0.0366
  274TMC3    O2 4203   1.495   4.359  10.797  0.0156 -0.1549  0.2268
  275MPD2     C 4204   1.712   3.133  14.612 -0.5246 -0.4619 -0.4853
  275MPD2    C1 4205   1.765   3.017  14.657 -0.2759 -0.0617  0.2536
  275MPD2    C2 4206   1.695   2.898  14.633  0.0246 -0.4093 -0.5882
  275MPD2    C3 4207   1.575   2.898  14.568  0.2260  0.0973 -0.2977
  275MPD2    C4 4208   1.521   3.023  14.529  0.1004 -0.7965  0.1592
  275MPD2    C5 4209   1.593   3.137  14.545  0.1259  0.6171 -0.2033
  275MPD2     H 4210   1.734   2.803  14.667 -0.7516 -0.1340  1.0685
  275MPD2    H1 4211   1.433   3.014  14.466 -2.2120 -0.1708  3.3408
  275MPD2    H2 4212   1.751   3.234  14.626  0.6049 -1.0669  0.7763
  275MPD2    H3 4213   1.548   3.233  14.523 -3.3274 -0.8511  0.4633
  275MPD2     N 4214   1.503   2.786  14.539  0.5095 -0.1905 -0.6095
  275MPD2    H5 4215   1.415   2.808  14.494  0.9590 -1.4557 -2.1189
  275MPD2    N1 4216   1.888   3.008  14.731 -0.2444  0.1326 -0.6529
  275MPD2    H7 4217   1.906   2.914  14.763  0.3981  0.4304 -0.1552
  276TMC3    C1 4218   2.077   3.070  14.844  0.2348 -0.0790  0.6954
  276TMC3    C2 4219   2.026   2.981  14.932  0.0962 -0.5027 -0.0798
  276TMC3    C3 4220   2.041   3.009  15.069 -0.6936 -0.1273 -0.1533
  276TMC3    C4 4221   2.157   3.174  14.885 -0.1220  0.1030  0.1546
  276TMC3    C5 4222   2.177   3.196  15.016 -0.3142  0.4756 -0.8153
  276TMC3    C6 4223   2.118   3.113  15.110  0.1858  0.1934 -1.0075
  276TMC3     C 4224   1.984   3.105  14.738  0.0782 -0.0594  0.8652
  276TMC3     O 4225   1.985   3.219  14.694  0.1914  0.4170  0.6394
  276TMC3     H 4226   1.995   2.880  14.905  1.3277 -0.5654 -1.2867
  276TMC3    H1 4227   2.180   3.243  14.805  3.4476 -1.2943 -0.0386
  276TMC3    H2 4228   2.134   3.129  15.216 -1.0404 -1.5350 -0.5774
  276TMC3    C7 4229   2.316   3.199  15.044 -0.6918  1.0666 -0.7766
  276TMC3    C8 4230   1.991   2.911  15.155  0.0955  0.7486  0.3579
  276TMC3    O1 4231   2.360   3.198  15.162  0.6968  0.7272  0.1571
  276TMC3    O2 4232   1.952   2.954  15.265 -0.2790  0.3604 -0.5028
  277MPD2     C 4233   3.933   1.175  13.373 -0.3269  0.1229 -0.6475
  277MPD2    C1 4234   3.802   1.189  13.347 -0.1363 -0.3923 -0.0003
  277MPD2    C2 4235   3.718   1.091  13.390 -0.1246 -0.2247  0.5273
  277MPD2    C3 4236   3.766   0.964  13.443  0.3982 -0.4279 -0.0911
  277MPD2    C4 4237   3.903   0.950  13.466 -0.1351 -0.2381 -0.7505
  277MPD2    C5 4238   3.984   1.058  13.423 -0.4464 -0.0905  0.3240
  277MPD2     H 4239   3.612   1.107  13.405 -0.4769 -2.1136 -0.0501
  277MPD2    H1 4240   3.949   0.870  13.523 -0.2685 -1.6025 -2.5211
  277MPD2    H2 4241   4.000   1.258  13.351 -0.5042  0.8365  1.5257
  277MPD2    H3 4242   4.092   1.050  13.438 -0.9130 -1.4472  2.8802
  277MPD2     N 4243   3.668   0.866  13.480 -0.1754 -0.7494 -0.2079
  277MPD2    H5 4244   3.572   0.888  13.456  0.0293  0.8853  0.4356
  277MPD2    N1 4245   3.764   1.324  13.313  0.4220 -0.3109  0.2868
  277MPD2    H7 4246   3.844   1.383  13.294  0.0610  0.8241  2.3737
  278TMC3    C1 4247   3.577   0.666  13.548  0.0466  0.3558  0.3945
  278TMC3    C2 4248   3.580   0.529  13.532  0.1852 -0.5211 -0.0198
  278TMC3    C3 4249   3.463   0.469  13.526  0.2671 -0.0732  0.3844
  278TMC3    C4 4250   3.461   0.737  13.542  0.4924  0.8465 -0.2123
  278TMC3    C5 4251   3.341   0.668  13.548 -0.4172 -0.0395  0.2420
  278TMC3    C6 4252   3.339   0.530  13.528 -0.3578  0.2094 -0.2327
  278TMC3     C 4253   3.695   0.740  13.519 -0.0253  0.1732 -0.7925
  278TMC3     O 4254   3.806   0.688  13.537  0.1471 -0.1751 -0.5182
  278TMC3     H 4255   3.672   0.474  13.542  0.2985 -0.6562 -1.8468
  278TMC3    H1 4256   3.451   0.841  13.570  0.1368  1.5291 -2.8901
  278TMC3    H2 4257   3.252   0.467  13.536  1.4403 -2.3170 -0.7283
  278TMC3    C7 4258   3.219   0.742  13.570  0.0539  0.7888 -0.3035
  278TMC3    C8 4259   3.464   0.327  13.499  0.3511  0.0125 -0.1002
  278TMC3    O1 4260   3.229   0.864  13.544 -0.0837 -0.3048 -0.0237
  278TMC3    O2 4261   3.550   0.263  13.550 -0.9792  0.3075 -0.1446
  279MPD2     C 4262   3.094   2.245   0.345  0.5399 -0.3736  1.0991
  279MPD2    C1 4263   3.008   2.140   0.336 -0.0054 -0.0333 -0.3004
  279MPD2    C2 4264   3.029   2.045   0.246  0.3797 -0.2438  0.5040
  279MPD2    C3 4265   3.138   2.055   0.158 -0.0600 -1.2011 -0.2152
  279MPD2    C4 4266   3.225   2.158   0.164 -0.1380  0.4246 -0.5445
  279MPD2    C5 4267   3.204   2.252   0.260  0.0605 -0.4186  0.0948
  279MPD2     H 4268   2.954   1.969   0.229  0.0083 -0.1534  1.7311
  279MPD2    H1 4269   3.314   2.166   0.101 -2.7217  0.9448 -4.1219
  279MPD2    H2 4270   3.069   2.329   0.408 -0.9902  0.2470 -0.3491
  279MPD2    H3 4271   3.268   2.338   0.252  1.3295 -1.1609  2.1318
  279MPD2     N 4272   3.158   1.957   0.050 -0.2916  0.2592 -0.3425
  279MPD2    H5 4273   3.228   1.977  17.717 -0.9071 -2.1400 -1.6083
  279MPD2    N1 4274   2.890   2.151   0.411  0.0188 -0.1906 -0.4512
  279MPD2    H7 4275   2.859   2.238   0.454  1.5103 -1.5943  3.4516
  280TMC3    C1 4276   2.684   2.055   0.504 -0.6058  0.4081 -0.4280
  280TMC3    C2 4277   2.618   1.938   0.541 -0.3824  0.1986 -0.0277
  280TMC3    C3 4278   2.485   1.932   0.505  0.2048 -0.1523 -0.2757
  280TMC3    C4 4279   2.618   2.162   0.459 -0.2550 -0.5713  0.1601
  280TMC3    C5 4280   2.481   2.157   0.434  0.8694 -0.6436 -0.0104
  280TMC3    C6 4281   2.416   2.042   0.463  0.2052  0.0968 -0.6541
  280TMC3     C 4282   2.820   2.034   0.452 -0.3262  0.1700  0.5269
  280TMC3     O 4283   2.849   1.916   0.457 -0.1476  0.1357 -0.1233
  280TMC3     H 4284   2.667   1.844   0.564 -0.7547 -0.7238 -3.0187
  280TMC3    H1 4285   2.668   2.255   0.435 -0.6942 -0.6505 -1.1139
  280TMC3    H2 4286   2.314   2.033   0.427 -1.4452  1.3558  3.7056
  280TMC3    C7 4287   2.422   2.277   0.378  0.4300  0.1230 -0.5460
  280TMC3    C8 4288   2.466   1.824   0.409 -0.2254  0.0163  0.3254
  280TMC3    O1 4289   2.479   2.382   0.403  1.0346  0.6026  0.0719
  280TMC3    O2 4290   2.422   1.855   0.299 -0.7096  0.0957  0.4767
  281TMC3    C1 4291   2.172   2.292  13.649 -0.7224 -0.7901  0.4011
  281TMC3    C2 4292   2.160   2.272  13.511 -0.2247  0.8443  1.0491
  281TMC3    C3 4293   2.194   2.155  13.456  0.2415 -0.4405 -0.2328
  281TMC3    C4 4294   2.230   2.191  13.728  0.0258  0.6428  0.4423
  281TMC3    C5 4295   2.261   2.077  13.665 -0.4207  0.3653  0.2476
  281TMC3    C6 4296   2.246   2.053  13.529 -0.1445  0.0794 -0.1443
  281TMC3     C 4297   2.074   2.367  13.717 -0.8600 -0.3587  0.1833
  281TMC3     O 4298   2.082   2.382  13.836 -0.0650  0.0297 -0.0961
  281TMC3     H 4299   2.123   2.349  13.443 -0.4966 -0.2708 -0.0592
  281TMC3    H1 4300   2.214   2.191  13.836 -0.9483  0.2167  0.2976
  281TMC3    H2 4301   2.282   1.960  13.486 -0.1471  0.5121 -1.0818
  281TMC3    C7 4302   2.274   1.963  13.755 -0.0026 -0.2529  0.5343
  281TMC3    C8 4303   2.100   2.116  13.354 -0.1651 -0.1134  0.0423
  281TMC3    O1 4304   2.325   1.988  13.864  0.1451  0.6821  0.0932
  281TMC3    O2 4305   2.003   2.184  13.333 -0.0191 -0.4258 -0.4219
  282MPD2     C 4306   3.323   3.446  15.044  0.1749 -0.8232  0.1513
  282MPD2    C1 4307   3.339   3.312  15.086  0.2290 -0.2453 -0.1559
  282MPD2    C2 4308   3.280   3.209  15.016  0.1747 -0.3000  0.6301
  282MPD2    C3 4309   3.212   3.235  14.900 -0.0599  0.1698 -0.6213
  282MPD2    C4 4310   3.206   3.361  14.849 -0.4273  0.1211 -0.6496
  282MPD2    C5 4311   3.258   3.469  14.925 -0.6537  0.0750  0.5018
  282MPD2     H 4312   3.284   3.105  15.048  0.5554 -0.9053 -1.3447
  282MPD2    H1 4313   3.157   3.390  14.756 -0.7207 -0.0631 -0.5550
  282MPD2    H2 4314   3.354   3.531  15.104 -0.5090  0.2604 -1.0190
  282MPD2    H3 4315   3.239   3.573  14.899  0.2181  0.1210  0.0389
  282MPD2     N 4316   3.160   3.123  14.827  0.2228 -0.0437  0.5821
  282MPD2    H5 4317   3.165   3.033  14.874 -0.6637 -0.2269  0.3226
  282MPD2    N1 4318   3.387   3.281  15.214  0.0840  0.1386  0.6143
  282MPD2    H7 4319   3.387   3.184  15.243 -2.1338 -0.9715 -3.0376
  283TMC3    C1 4320   3.499   3.302  15.417  0.1485  0.1004 -0.2605
  283TMC3    C2 4321   3.550   3.390  15.507  0.3875 -0.0720 -0.9301
  283TMC3    C3 4322   3.558   3.354  15.643 -0.8264  0.2179 -0.1413
  283TMC3    C4 4323   3.449   3.180  15.457  0.1441 -0.4407 -0.0640
  283TMC3    C5 4324   3.469   3.142  15.589 -0.3872  0.1507  0.2094
  283TMC3    C6 4325   3.514   3.229  15.689  0.3997  0.7142 -0.2963
  283TMC3     C 4326   3.454   3.367  15.297  0.0402 -0.3410 -0.2362
  283TMC3     O 4327   3.480   3.487  15.278  0.6325 -0.2658 -0.0770
  283TMC3     H 4328   3.566   3.492  15.474 -0.6633 -0.1769 -1.7405
  283TMC3    H1 4329   3.371   3.127  15.404  1.8021 -1.1108 -1.8568
  283TMC3    H2 4330   3.533   3.200  15.792 -0.5794 -1.0707 -0.6161
  283TMC3    C7 4331   3.378   3.045  15.643 -0.2630  0.5841  0.3368
  283TMC3    C8 4332   3.593   3.447  15.752 -0.1544 -0.1710 -0.7867
  283TMC3    O1 4333   3.336   3.063  15.757  0.2905 -0.1534  0.1636
  283TMC3    O2 4334   3.570   3.418  15.871 -0.6653  0.1994  0.2206
  284MPD2     C 4335   1.259   2.202  11.554 -0.3264 -0.0870 -0.6034
  284MPD2    C1 4336   1.348   2.174  11.656 -0.4112 -0.5942  0.3005
  284MPD2    C2 4337   1.360   2.048  11.704  0.6279 -0.4575 -0.3927
  284MPD2    C3 4338   1.269   1.948  11.661  0.0626  0.1789  0.8756
  284MPD2    C4 4339   1.163   1.978  11.577  0.8543 -0.4015  0.1533
  284MPD2    C5 4340   1.165   2.104  11.520  0.4513  0.4516 -0.4588
  284MPD2     H 4341   1.444   2.012  11.762  0.7010  0.4514  0.0606
  284MPD2    H1 4342   1.109   1.894  11.535 -3.2604  2.7305 -0.9224
  284MPD2    H2 4343   1.243   2.300  11.511 -1.4304  0.1431  0.3285
  284MPD2    H3 4344   1.095   2.123  11.439 -2.6852 -2.6017  1.5328
  284MPD2     N 4345   1.292   1.811  11.693 -0.1742 -0.4688  0.0304
  284MPD2    H5 4346   1.233   1.744  11.643  1.5620 -0.5300 -1.9286
  284MPD2    N1 4347   1.455   2.259  11.687 -0.3684 -0.9543 -0.6493
  284MPD2    H7 4348   1.516   2.222  11.760  0.1155  1.1809  0.0424
  285TMC3    C1 4349   1.628   2.392  11.617  0.5695 -0.5910 -0.0927
  285TMC3    C2 4350   1.721   2.292  11.633  0.1205 -0.5689 -0.0335
  285TMC3    C3 4351   1.851   2.311  11.590  0.3347 -0.1389  0.4796
  285TMC3    C4 4352   1.667   2.517  11.555 -0.0176  0.4135 -0.2393
  285TMC3    C5 4353   1.799   2.531  11.527 -0.0942  0.1060 -0.2259
  285TMC3    C6 4354   1.895   2.437  11.550  0.3654 -0.4776  1.0833
  285TMC3     C 4355   1.487   2.371  11.622  0.1672 -0.4663  0.4511
  285TMC3     O 4356   1.417   2.432  11.538 -0.0841  0.2311 -0.1746
  285TMC3     H 4357   1.683   2.195  11.662 -1.1078 -0.9052 -2.7009
  285TMC3    H1 4358   1.597   2.598  11.537  0.0117  0.6035  0.4917
  285TMC3    H2 4359   1.990   2.455  11.500  0.4587 -2.2447  0.6408
  285TMC3    C7 4360   1.848   2.667  11.526  0.1874  0.5678 -0.4087
  285TMC3    C8 4361   1.924   2.200  11.534 -0.0050  0.2374  0.3900
  285TMC3    O1 4362   1.766   2.758  11.507  0.3804 -0.0666 -0.8135
  285TMC3    O2 4363   1.857   2.107  11.496 -0.0720 -0.8079  0.3672
  286MPD2     C 4364   2.227   1.272   1.231 -0.0219  0.2947 -0.2709
  286MPD2    C1 4365   2.144   1.237   1.128  0.0224 -0.0738 -0.1740
  286MPD2    C2 4366   2.163   1.119   1.060 -0.1094  0.4063 -0.2603
  286MPD2    C3 4367   2.274   1.033   1.088 -1.0606 -0.0077  0.3800
  286MPD2    C4 4368   2.347   1.066   1.202  0.1670 -0.0188 -0.0273
  286MPD2    C5 4369   2.326   1.183   1.264  0.5232 -0.1935  0.0903
  286MPD2     H 4370   2.092   1.097   0.982  2.8013  2.7238 -3.6256
  286MPD2    H1 4371   2.430   1.003   1.231 -0.6903 -1.2024 -0.1506
  286MPD2    H2 4372   2.209   1.354   1.300  0.2824  1.1988 -1.2650
  286MPD2    H3 4373   2.400   1.204   1.342  0.7061 -2.4041  0.4982
  286MPD2     N 4374   2.306   0.917   1.015 -0.2941  0.0456  0.3965
  286MPD2    H5 4375   2.377   0.865   1.067 -0.3963  1.2302  1.7342
  286MPD2    N1 4376   2.036   1.318   1.089  0.7058 -0.6010  0.3896
  286MPD2    H7 4377   1.967   1.287   1.022 -0.3809 -0.8484  1.6258
  287TMC3    C1 4378   2.345   0.778   0.842  0.4091  0.3740  0.0238
  287TMC3    C2 4379   2.306   0.726   0.726  0.0982  0.2660 -0.2232
  287TMC3    C3 4380   2.367   0.610   0.676 -0.0944  0.1464  0.3974
  287TMC3    C4 4381   2.451   0.727   0.909 -0.2010  0.1011 -0.1456
  287TMC3    C5 4382   2.501   0.605   0.869  0.6084  0.2188 -0.5938
  287TMC3    C6 4383   2.460   0.539   0.754 -0.2098 -0.0508 -0.1789
  287TMC3     C 4384   2.283   0.898   0.883 -0.8367  0.0216  0.6665
  287TMC3     O 4385   2.211   0.952   0.796  0.0817 -0.1050 -0.6455
  287TMC3     H 4386   2.223   0.770   0.671  1.2654 -1.5307 -3.4422
  287TMC3    H1 4387   2.493   0.767   1.001  1.6250 -1.2460 -0.4124
  287TMC3    H2 4388   2.500   0.443   0.725  0.4593  0.5827 -1.3716
  287TMC3    C7 4389   2.597   0.547   0.967 -0.2997  0.6659  0.6623
  287TMC3    C8 4390   2.304   0.543   0.563  0.3909 -0.0758  0.0302
  287TMC3    O1 4391   2.600   0.591   1.082 -0.6535  0.7111 -0.0881
  287TMC3    O2 4392   2.329   0.425   0.549 -0.0762  0.4647 -0.4950
  288TMC3    C1 4393   3.858   1.040  14.766 -0.0833  0.2693  0.1325
  288TMC3    C2 4394   3.876   0.975  14.882  0.5378  0.3562 -1.0501
  288TMC3    C3 4395   3.805   0.857  14.904 -0.3258 -0.0234  0.4523
  288TMC3    C4 4396   3.783   0.994  14.663  0.3471 -0.1879  0.1408
  288TMC3    C5 4397   3.713   0.882  14.687  0.1629 -0.0959 -0.4317
  288TMC3    C6 4398   3.718   0.811  14.801 -0.0336 -0.1205 -0.3996
  288TMC3     C 4399   3.897   1.180  14.762 -0.5223  0.3604  0.8930
  288TMC3     O 4400   3.988   1.210  14.840 -0.2011  0.6232  0.2153
  288TMC3     H 4401   3.926   1.018  14.968 -0.7008  0.7228 -0.4992
  288TMC3    H1 4402   3.781   1.045  14.567  0.4187 -1.6288 -0.6372
  288TMC3    H2 4403   3.648   0.731  14.822  1.0550 -1.0895 -0.4324
  288TMC3    C7 4404   3.646   0.829  14.568 -0.4885  0.0273 -0.5193
  288TMC3    C8 4405   3.764   0.821  15.040  0.7411  1.2116  0.9685
  288TMC3    O1 4406   3.617   0.911  14.477  0.4041  0.2457 -0.7292
  288TMC3    O2 4407   3.800   0.899  15.127 -0.3999 -0.3750  0.3733
  289MPD2     C 4408   4.091   0.181  14.640 -0.6489  0.4200 -0.3669
  289MPD2    C1 4409   3.997   0.277  14.661  0.3039 -0.6437  0.0088
  289MPD2    C2 4410   3.860   0.247  14.681 -0.0796  0.3003  0.6231
  289MPD2    C3 4411   3.824   0.115  14.685 -0.7583  0.2974 -0.3313
  289MPD2    C4 4412   3.920   0.019  14.673 -0.1143  0.4740  0.3032
  289MPD2    C5 4413   4.053   0.054  14.653  0.0134  0.0755  0.1474
  289MPD2     H 4414   3.794   0.332  14.693 -0.9725 -0.3966  0.6549
  289MPD2    H1 4415   3.885   4.652  14.661 -0.8802  0.6082  1.3988
  289MPD2    H2 4416   4.195   0.210  14.629 -0.0047 -0.5910  3.0707
  289MPD2    H3 4417   4.126   4.711  14.637  0.7054  0.8867 -0.6820
  289MPD2     N 4418   3.689   0.066  14.682 -0.2844  0.1580  0.0592
  289MPD2    H5 4419   3.675   4.701  14.675  1.5691 -0.0549 -0.6829
  289MPD2    N1 4420   4.050   0.409  14.651 -0.2893 -0.4229  0.0969
  289MPD2    H7 4421   4.147   0.413  14.621 -0.0468 -0.7937  0.8470
  290TMC3    C1 4422   3.451   0.074  14.674 -0.7459  0.4756  0.0181
  290TMC3    C2 4423   3.353   0.146  14.605  0.1001 -0.4047 -0.0389
  290TMC3    C3 4424   3.261   0.069  14.537  0.0408  0.1342 -0.8192
  290TMC3    C4 4425   3.445   4.668  14.674  0.7195  0.0290  0.1091
  290TMC3    C5 4426   3.343   4.595  14.606  0.0645 -0.9427 -0.5374
  290TMC3    C6 4427   3.258   4.667  14.529  0.6292 -1.3378 -0.1588
  290TMC3     C 4428   3.577   0.141  14.704 -0.9517 -0.4054 -0.3900
  290TMC3     O 4429   3.561   0.263  14.713  0.2982  0.1403 -0.0122
  290TMC3     H 4430   3.366   0.253  14.600  0.5928 -0.4133  1.1865
  290TMC3    H1 4431   3.489   4.614  14.756 -0.8009 -0.9860  0.2669
  290TMC3    H2 4432   3.180   4.611  14.479 -0.5178  1.6848 -1.7252
  290TMC3    C7 4433   3.321   4.458  14.633 -0.2978  0.0949  0.2400
  290TMC3    C8 4434   3.169   0.144  14.448  0.4162 -0.6649 -0.0691
  290TMC3    O1 4435   3.413   4.382  14.669 -0.0172  0.1861  0.0379
  290TMC3    O2 4436   3.098   0.082  14.375  0.1471 -0.1953 -0.0319
  291MPD2     C 4437   2.681   0.114   0.460 -0.2297  0.2129 -0.3803
  291MPD2    C1 4438   2.754   0.081   0.343 -0.5788  0.1504 -0.1234
  291MPD2    C2 4439   2.874   0.145   0.317  0.1871 -0.0800  0.5308
  291MPD2    C3 4440   2.905   0.259   0.385 -0.7233  0.6434  0.7534
  291MPD2    C4 4441   2.822   0.301   0.485 -0.4754 -0.4618 -0.6041
  291MPD2    C5 4442   2.714   0.226   0.529 -0.4129  0.6211  0.6908
  291MPD2     H 4443   2.942   0.104   0.243 -1.1098  0.4080 -0.9287
  291MPD2    H1 4444   2.850   0.400   0.520 -0.6586 -0.9085  0.8016
  291MPD2    H2 4445   2.591   0.064   0.495  0.1835  0.5252  1.1260
  291MPD2    H3 4446   2.652   0.263   0.610 -1.6079  2.0500 -0.8974
  291MPD2     N 4447   3.022   0.342   0.354  0.3280  0.5047 -0.0867
  291MPD2    H5 4448   3.007   0.440   0.373 -0.4722 -0.0624  2.1240
  291MPD2    N1 4449   2.716   4.713   0.254  0.5173 -0.2601 -0.3426
  291MPD2    H7 4450   2.789   4.691   0.188  1.2669  0.3373  0.2855
  292TMC3    C1 4451   2.597   4.525   0.184 -0.1878 -0.1144 -0.8629
  292TMC3    C2 4452   2.472   4.467   0.191  0.2393  0.3997 -0.4401
  292TMC3    C3 4453   2.473   4.335   0.156 -0.1050  0.3877  0.1491
  292TMC3    C4 4454   2.719   4.463   0.151  0.0244 -0.2082  0.0333
  292TMC3    C5 4455   2.710   4.324   0.119 -0.5848  0.2729 -0.5044
  292TMC3    C6 4456   2.586   4.265   0.127 -0.0985  0.3055 -0.4593
  292TMC3     C 4457   2.608   4.630   0.278  0.3478  0.8938  0.1652
  292TMC3     O 4458   2.524   4.624   0.368  0.1455 -0.6060 -0.1367
  292TMC3     H 4459   2.384   4.510   0.238  0.7496 -0.6882  1.4986
  292TMC3    H1 4460   2.812   4.518   0.159  0.2520 -0.9056  2.3311
  292TMC3    H2 4461   2.579   4.157   0.117 -1.2444  0.1396  2.1522
  292TMC3    C7 4462   2.819   4.236   0.090  0.0605 -0.1356  0.5896
  292TMC3    C8 4463   2.357   4.267   0.199  0.5743  0.3654 -0.2725
  292TMC3    O1 4464   2.794   4.133   0.023  0.2766 -0.7371  0.3883
  292TMC3    O2 4465   2.293   4.197   0.123 -0.4807  0.1845  0.0482
  293MPD2     C 4466   0.042   1.244  12.475  0.2899  0.3430 -0.1564
  293MPD2    C1 4467   4.701   1.192  12.582 -0.0332 -0.1483 -0.3173
  293MPD2    C2 4468   0.026   1.197  12.709 -0.6769 -0.1712  0.0144
  293MPD2    C3 4469   0.146   1.253  12.733  0.0740  0.9519 -0.1913
  293MPD2    C4 4470   0.212   1.305  12.629  0.1999  0.0322 -0.7950
  293MPD2    C5 4471   0.161   1.306  12.500 -0.3960  0.4512  0.5648
  293MPD2     H 4472   4.727   1.133  12.790  1.4533  0.2084  1.1828
  293MPD2    H1 4473   0.305   1.355  12.655  1.1356 -2.0122 -0.2391
  293MPD2    H2 4474   0.005   1.232  12.374 -1.4405 -1.1238  0.6417
  293MPD2    H3 4475   0.217   1.342  12.414 -0.6234  0.2352  0.3252
  293MPD2     N 4476   0.174   1.268  12.871 -0.1361 -0.1669  0.8551
  293MPD2    H5 4477   0.118   1.215  12.936  1.0351 -2.0276  0.3508
  293MPD2    N1 4478   4.592   1.117  12.549  0.3517 -0.0586 -0.7126
  293MPD2    H7 4479   4.578   1.092  12.451  2.9999 -1.1383 -0.8168
  294TMC3    C1 4480   4.395   0.991  12.579  0.2625  0.7388 -0.3359
  294TMC3    C2 4481   4.325   0.910  12.662  0.0393 -0.1791  0.4814
  294TMC3    C3 4482   4.238   0.824  12.602 -0.8234 -0.0773 -0.3355
  294TMC3    C4 4483   4.370   0.997  12.448 -0.4150 -0.5017 -0.1762
  294TMC3    C5 4484   4.272   0.914  12.395 -0.8312  0.0319  0.3931
  294TMC3    C6 4485   4.192   0.832  12.470 -0.1742  0.1354 -0.1810
  294TMC3     C 4486   4.507   1.061  12.638 -0.5096 -0.0917  0.6764
  294TMC3     O 4487   4.511   1.067  12.760 -0.4496  0.0030  0.0000
  294TMC3     H 4488   4.358   0.908  12.766  1.0131 -1.1440  0.1550
  294TMC3    H1 4489   4.424   1.065  12.384 -1.0329  0.5918  0.4458
  294TMC3    H2 4490   4.116   0.773  12.420  0.5267 -0.5556 -0.4273
  294TMC3    C7 4491   4.259   0.898  12.250  0.7519 -0.7252 -0.5999
  294TMC3    C8 4492   4.229   0.691  12.656 -0.4347 -0.2406  0.8300
  294TMC3    O1 4493   4.150   0.858  12.206 -0.0504  0.2904  0.1721
  294TMC3    O2 4494   4.285   0.658  12.758  0.0497 -0.1000 -0.0988
  295MPD2     C 4495   0.731   0.086   1.197  0.5242  0.3317  0.0561
  295MPD2    C1 4496   0.660   0.010   1.108  0.1465 -0.4962 -0.0237
  295MPD2    C2 4497   0.554   4.667   1.161  0.2146 -0.1819  0.3392
  295MPD2    C3 4498   0.531   4.678   1.298  0.3625  0.2119  0.0354
  295MPD2    C4 4499   0.586   0.033   1.381  0.3286  0.1792 -0.6066
  295MPD2    C5 4500   0.689   0.106   1.326 -0.1516 -0.2179  0.4141
  295MPD2     H 4501   0.491   4.605   1.097  1.5360  2.2850 -3.3765
  295MPD2    H1 4502   0.563   0.039   1.487 -1.3605 -0.4989 -0.9437
  295MPD2    H2 4503   0.809   0.157   1.173  1.0462 -0.2630 -0.0235
  295MPD2    H3 4504   0.746   0.173   1.389 -0.3212 -0.0117  0.3472
  295MPD2     N 4505   0.447   4.579   1.362 -0.4393  0.2260 -0.1223
  295MPD2    H5 4506   0.433   4.593   1.461 -2.1648 -0.2488 -0.3018
  295MPD2    N1 4507   0.695   4.721   0.973  0.2825  0.6722 -0.4065
  295MPD2    H7 4508   0.639   4.649   0.929 -2.9547  3.1545 -0.3512
  296TMC3    C1 4509   0.255   4.441   1.390  0.1168 -0.0648  0.5615
  296TMC3    C2 4510   0.221   4.498   1.512  0.0745 -0.1559  0.0850
  296TMC3    C3 4511   0.118   4.439   1.584 -0.6843 -0.0918 -0.2935
  296TMC3    C4 4512   0.173   4.341   1.337  0.4276 -0.1307  0.6574
  296TMC3    C5 4513   0.065   4.300   1.401 -0.2553  0.2647 -0.0897
  296TMC3    C6 4514   0.037   4.345   1.529 -0.3115 -0.4928 -0.6767
  296TMC3     C 4515   0.356   4.498   1.301 -0.1318  0.2070  0.1489
  296TMC3     O 4516   0.325   4.488   1.184 -1.2319 -0.6839  0.1177
  296TMC3     H 4517   0.278   4.576   1.560 -0.7625  1.8439 -2.1977
  296TMC3    H1 4518   0.212   4.299   1.245 -1.5359  0.2157 -0.3355
  296TMC3    H2 4519   4.685   4.315   1.586  0.1219 -0.0996  0.1777
  296TMC3    C7 4520   4.716   4.205   1.328  0.2699 -0.4996 -0.0284
  296TMC3    C8 4521   0.120   4.465   1.733 -0.2786 -0.4503  0.5627
  296TMC3    O1 4522   0.031   4.161   1.222  0.4247 -0.8218 -0.6243
  296TMC3    O2 4523   0.030   4.412   1.797  0.1260  0.2967 -0.5544
  297MPD2     C 4524   2.597   1.928  15.992 -0.0720 -0.6141  0.2226
  297MPD2    C1 4525   2.636   2.038  15.921 -0.0610  0.2995 -0.6906
  297MPD2    C2 4526   2.764   2.087  15.938 -0.2180  0.2784  0.3634
  297MPD2    C3 4527   2.848   2.038  16.042  0.0045 -0.3427  0.0262
  297MPD2    C4 4528   2.803   1.925  16.115  0.2008  0.3085 -0.4216
  297MPD2    C5 4529   2.676   1.876  16.090  0.1775  0.3930  0.4655
  297MPD2     H 4530   2.786   2.180  15.887  0.6053 -1.4072 -2.3319
  297MPD2    H1 4531   2.863   1.882  16.194 -0.9217 -0.0720  0.2210
  297MPD2    H2 4532   2.501   1.879  15.978 -0.2216 -0.6177  1.2563
  297MPD2    H3 4533   2.648   1.782  16.138 -0.2631  0.0968 -0.3608
  297MPD2     N 4534   2.969   2.103  16.067  0.2078  0.2631 -0.0296
  297MPD2    H5 4535   2.998   2.171  15.998  0.8582 -0.7888 -0.7961
  297MPD2    N1 4536   2.565   2.089  15.803 -0.2736  0.3620 -0.7171
  297MPD2    H7 4537   2.596   2.173  15.755  1.9831 -0.4150 -0.6121
  298TMC3    C1 4538   2.386   2.156  15.673  0.5419 -0.1099  0.4172
  298TMC3    C2 4539   2.462   2.240  15.602 -0.2502  0.1704  0.8460
  298TMC3    C3 4540   2.402   2.350  15.551  0.0610 -0.3907  0.2134
  298TMC3    C4 4541   2.252   2.185  15.698  0.1510 -0.1120  0.8070
  298TMC3    C5 4542   2.202   2.304  15.651  0.1026 -0.1211 -0.2854
  298TMC3    C6 4543   2.279   2.394  15.589 -0.5034  0.6724 -0.3062
  298TMC3     C 4544   2.440   2.045  15.763  0.8610  0.3047 -0.4591
  298TMC3     O 4545   2.360   1.974  15.822 -0.0053  0.0033 -0.3857
  298TMC3     H 4546   2.561   2.208  15.571 -0.4347 -0.6929  1.1403
  298TMC3    H1 4547   2.186   2.113  15.744  0.1054  0.4563  1.6262
  298TMC3    H2 4548   2.238   2.479  15.536  0.1433 -0.3124 -2.3928
  298TMC3    C7 4549   2.091   2.352  15.725  0.2038 -0.6111  0.2375
  298TMC3    C8 4550   2.476   2.420  15.443 -0.0921  0.1504 -0.1962
  298TMC3    O1 4551   2.037   2.276  15.809  0.0006 -0.0864 -0.2638
  298TMC3    O2 4552   2.571   2.357  15.395 -0.9138 -0.2149 -0.2695
  299MPD2     C 4553   3.158   1.212  11.027  0.1997 -0.5228  0.1194
  299MPD2    C1 4554   3.190   1.328  10.962 -0.0967  0.0966  0.3793
  299MPD2    C2 4555   3.138   1.338  10.833 -0.7081 -0.3088 -0.2933
  299MPD2    C3 4556   3.061   1.238  10.774 -0.2231  0.4634 -0.4260
  299MPD2    C4 4557   3.031   1.126  10.846  0.7258  0.3635 -0.3947
  299MPD2    C5 4558   3.080   1.116  10.970 -0.2651 -0.3235 -0.0418
  299MPD2     H 4559   3.157   1.429  10.776 -1.5523  0.3075  0.4142
  299MPD2    H1 4560   2.976   1.036  10.818  2.0621 -1.7815  3.8858
  299MPD2    H2 4561   3.201   1.193  11.125  1.5896 -2.6921 -0.8973
  299MPD2    H3 4562   3.076   1.022  11.024  2.2276 -0.0697  0.5988
  299MPD2     N 4563   3.004   1.239  10.647 -0.5639  0.9565  0.1430
  299MPD2    H5 4564   2.938   1.165  10.626 -1.2078  1.9013 -1.1742
  299MPD2    N1 4565   3.249   1.433  11.028 -1.1216  0.0815  0.2044
  299MPD2    H7 4566   3.252   1.438  11.129 -2.7930  0.5035  0.2219
  300TMC3    C1 4567   2.914   1.320  10.450  0.2551  0.1081 -0.3512
  300TMC3    C2 4568   2.893   1.429  10.364 -0.1230  0.0177  0.5486
  300TMC3    C3 4569   2.782   1.440  10.288 -0.2941 -0.7571 -0.3473
  300TMC3    C4 4570   2.817   1.228  10.463 -0.1095 -0.7776  0.1088
  300TMC3    C5 4571   2.696   1.244  10.404 -0.2117 -0.1826 -0.9971
  300TMC3    C6 4572   2.677   1.347  10.318 -0.3446 -0.2024  0.9212
  300TMC3     C 4573   3.017   1.335  10.548 -0.7427  0.0790 -0.2144
  300TMC3     O 4574   3.076   1.445  10.547 -0.0652  0.5156  0.4731
  300TMC3     H 4575   2.969   1.505  10.361 -0.1193 -0.0227 -0.3392
  300TMC3    H1 4576   2.831   1.148  10.535  1.1637 -1.1857 -0.6000
  300TMC3    H2 4577   2.574   1.365  10.288 -0.3761 -1.2045  0.4334
  300TMC3    C7 4578   2.583   1.180  10.477  0.1121 -0.2072  0.2494
  300TMC3    C8 4579   2.735   1.574  10.279 -0.3463  0.3357 -0.0779
  300TMC3    O1 4580   2.610   1.070  10.517 -0.3149  0.1539  0.5223
  300TMC3    O2 4581   2.756   1.636  10.380  0.6415  0.1305 -0.1977
  301MPD2     C 4582   0.304   2.698   1.416  0.2833  0.2238 -0.2623
  301MPD2    C1 4583   0.207   2.640   1.328 -0.2092 -0.1241 -0.0359
  301MPD2    C2 4584   0.259   2.570   1.223  0.1160  0.6026 -0.0066
  301MPD2    C3 4585   0.394   2.560   1.204  0.6730  0.0805  0.2917
  301MPD2    C4 4586   0.485   2.611   1.295 -0.6289  0.9628 -0.9567
  301MPD2    C5 4587   0.438   2.680   1.396  0.7747  0.0191  0.2399
  301MPD2     H 4588   0.181   2.537   1.155  0.4261 -0.4736  0.1632
  301MPD2    H1 4589   0.591   2.592   1.283 -0.7021 -0.2575  0.3962
  301MPD2    H2 4590   0.271   2.737   1.512  1.0412  1.2957 -0.4401
  301MPD2    H3 4591   0.511   2.726   1.462  0.1925  2.0940 -0.5702
  301MPD2     N 4592   0.452   2.492   1.097  0.3533 -0.4547  0.0906
  301MPD2    H5 4593   0.552   2.475   1.108 -0.2141 -2.7501  1.6254
  301MPD2    N1 4594   0.066   2.665   1.331 -0.0299  0.0973 -0.4948
  301MPD2    H7 4595   0.012   2.611   1.264 -0.2702 -2.3088  1.6564
  302TMC3    C1 4596   0.430   2.310   0.940  0.0847  0.9741 -0.4899
  302TMC3    C2 4597   0.502   2.230   1.026 -0.2340 -0.1882 -0.0036
  302TMC3    C3 4598   0.499   2.100   0.994 -0.2322  0.0102 -0.0420
  302TMC3    C4 4599   0.352   2.271   0.840  0.3195 -0.0874  0.3582
  302TMC3    C5 4600   0.347   2.137   0.822  0.5677  1.0736 -0.2447
  302TMC3    C6 4601   0.415   2.044   0.902  0.1254 -0.2513 -0.2875
  302TMC3     C 4602   0.379   2.434   0.997  0.1122 -0.3561 -0.5009
  302TMC3     O 4603   0.269   2.477   0.956 -0.1011  0.0957  0.3670
  302TMC3     H 4604   0.578   2.265   1.095 -2.4930 -0.1623  2.5002
  302TMC3    H1 4605   0.303   2.336   0.769  1.9187  1.8475  1.0123
  302TMC3    H2 4606   0.415   1.939   0.875 -2.1988 -0.5477  0.8892
  302TMC3    C7 4607   0.289   2.086   0.703  0.3446 -0.2907  0.1187
  302TMC3    C8 4608   0.596   2.007   1.059 -0.5146 -0.0723  0.0587
  302TMC3    O1 4609   0.353   2.003   0.642  0.3566 -0.1896 -0.9634
  302TMC3    O2 4610   0.681   2.064   1.126  0.0620  0.6932 -0.7504
  303MPD2     C 4611   0.578   1.209  10.796  0.2021 -0.1124  0.2313
  303MPD2    C1 4612   0.465   1.157  10.850 -0.4079  0.8825  0.3110
  303MPD2    C2 4613   0.362   1.100  10.778  0.7159  0.0748 -0.5218
  303MPD2    C3 4614   0.369   1.112  10.640  0.3568 -0.2666 -0.0794
  303MPD2    C4 4615   0.481   1.177  10.586 -0.7638  0.0608 -0.1981
  303MPD2    C5 4616   0.591   1.220  10.661 -0.8261 -0.4677 -0.6019
  303MPD2     H 4617   0.289   1.038  10.829 -1.9076  1.4507 -2.5743
  303MPD2    H1 4618   0.502   1.177  10.480 -0.1200  3.7832 -0.0489
  303MPD2    H2 4619   0.654   1.245  10.864  0.4043  1.1414 -0.6709
  303MPD2    H3 4620   0.686   1.253  10.620 -0.6222  0.1058  0.3188
  303MPD2     N 4621   0.279   1.068  10.542 -0.4012 -0.7360 -0.3263
  303MPD2    H5 4622   0.280   1.090  10.442 -0.2863  0.1129 -0.1418
  303MPD2    N1 4623   0.459   1.145  10.987  0.3866 -0.1174  0.1306
  303MPD2    H7 4624   0.553   1.143  11.027 -0.0766  1.7610  1.2755
  304TMC3    C1 4625   0.375   1.074  11.183  0.1986 -0.1159 -0.3184
  304TMC3    C2 4626   0.285   1.091  11.284 -1.0175  0.2082 -0.5498
  304TMC3    C3 4627   0.301   1.015  11.399 -0.6884 -0.1229  0.2117
  304TMC3    C4 4628   0.472   0.978  11.176 -0.3225  1.6898 -0.4249
  304TMC3    C5 4629   0.478   0.895  11.281  0.2605 -0.0705  0.2242
  304TMC3    C6 4630   0.399   0.916  11.391  0.3349  0.4135 -0.5037
  304TMC3     C 4631   0.346   1.139  11.059 -0.5476 -0.3154  0.7965
  304TMC3     O 4632   0.240   1.196  11.038  0.3003 -0.0591  0.0291
  304TMC3     H 4633   0.221   1.178  11.279  0.9243  1.7616  1.2243
  304TMC3    H1 4634   0.513   0.946  11.080  0.9912  1.4246  0.2191
  304TMC3    H2 4635   0.409   0.858  11.482  0.5234  0.8582 -0.2432
  304TMC3    C7 4636   0.493   0.754  11.249 -0.1653 -0.3245  0.7405
  304TMC3    C8 4637   0.181   0.950  11.447 -0.5781  0.1196 -0.3304
  304TMC3    O1 4638   0.559   0.716  11.156  0.6522  0.2207  0.9739
  304TMC3    O2 4639   0.192   0.826  11.462 -0.3306 -0.3318  0.3786
  305MPD2     C 4640   3.707   3.178  13.786  0.7488  0.0231  0.1482
  305MPD2    C1 4641   3.754   3.055  13.797 -0.0311 -0.4033 -0.3098
  305MPD2    C2 4642   3.749   2.976  13.682  0.3532 -0.1759  0.2400
  305MPD2    C3 4643   3.702   3.023  13.559  0.3438 -0.7725 -0.6292
  305MPD2    C4 4644   3.648   3.147  13.552  0.4204 -0.6290  0.0092
  305MPD2    C5 4645   3.656   3.220  13.663  0.3208  0.0715 -0.6631
  305MPD2     H 4646   3.779   2.872  13.689 -0.9107 -0.5520  0.0228
  305MPD2    H1 4647   3.618   3.186  13.456  0.4635  0.3068  0.3808
  305MPD2    H2 4648   3.710   3.243  13.873 -0.3385  0.0160  0.1947
  305MPD2    H3 4649   3.629   3.325  13.657  0.5466  0.2383  1.1906
  305MPD2     N 4650   3.698   2.947  13.439 -0.5379  0.2989  0.1168
  305MPD2    H5 4651   3.687   2.997  13.352  0.7458 -0.4235 -0.4627
  305MPD2    N1 4652   3.795   2.994  13.915 -0.8235  0.2670  0.2036
  305MPD2    H7 4653   3.832   2.900  13.909  0.5960  0.9598 -2.1039
  306TMC3    C1 4654   3.813   2.949  14.146  0.1911 -0.0294  0.5834
  306TMC3    C2 4655   3.892   2.842  14.127  0.8230 -0.0166 -0.4585
  306TMC3    C3 4656   3.922   2.766  14.236  0.2192  0.0084 -0.5356
  306TMC3    C4 4657   3.785   2.996  14.271 -0.5376  0.5041  0.7350
  306TMC3    C5 4658   3.830   2.922  14.379 -0.4144  0.2521  0.6294
  306TMC3    C6 4659   3.900   2.809  14.364 -0.1854 -0.4023 -0.6025
  306TMC3     C 4660   3.767   3.038  14.039  0.6822 -0.2964 -0.1028
  306TMC3     O 4661   3.701   3.138  14.067  0.2366  0.0173  0.2982
  306TMC3     H 4662   3.909   2.804  14.027  0.9127 -2.4760  0.4963
  306TMC3    H1 4663   3.745   3.096  14.281  0.9491  1.0615  1.0960
  306TMC3    H2 4664   3.944   2.755  14.447 -2.4435  1.0171  1.5310
  306TMC3    C7 4665   3.808   2.961  14.516  0.1643  0.2628 -0.0865
  306TMC3    C8 4666   4.002   2.653  14.210  0.1925  0.2308 -0.3646
  306TMC3    O1 4667   3.789   2.865  14.593 -0.1081  0.2132 -0.3391
  306TMC3    O2 4668   4.027   2.632  14.095 -0.1281 -0.3942 -0.5415
  307MPD2     C 4669   1.472   2.074   0.129  0.9852  0.1744  0.2982
  307MPD2    C1 4670   1.418   2.162   0.228  0.4280  0.1710 -0.0625
  307MPD2    C2 4671   1.371   2.109   0.344  0.1603 -0.4315 -0.3837
  307MPD2    C3 4672   1.374   1.972   0.370  0.3684 -0.0999  0.4380
  307MPD2    C4 4673   1.436   1.885   0.282 -0.2779  0.2183  1.3675
  307MPD2    C5 4674   1.485   1.939   0.162  0.4493  0.5442 -0.3423
  307MPD2     H 4675   1.330   2.180   0.415 -1.3716  0.4160 -2.1199
  307MPD2    H1 4676   1.444   1.779   0.300 -1.4381 -0.3359 -1.3555
  307MPD2    H2 4677   1.522   2.103   0.037  0.2216  0.8334  0.0884
  307MPD2    H3 4678   1.535   1.880   0.085 -0.6822  1.5472 -1.8564
  307MPD2     N 4679   1.302   1.931   0.484 -0.3232  0.5183  0.1615
  307MPD2    H5 4680   1.237   2.000   0.521 -0.3651  1.9181 -2.5439
  307MPD2    N1 4681   1.417   2.294   0.219 -0.4236  0.2230  0.2604
  307MPD2    H7 4682   1.395   2.335   0.310 -1.0439  0.6403 -0.0737
  308TMC3    C1 4683   1.163   1.654   0.826  0.0366 -0.3182  0.2497
  308TMC3    C2 4684   1.117   1.760   0.897 -1.0055 -0.2287 -0.3363
  308TMC3    C3 4685   1.154   1.884   0.859 -0.3088 -0.2967 -0.5490
  308TMC3    C4 4686   1.220   1.665   0.704  0.6602  0.7496 -0.2284
  308TMC3    C5 4687   1.246   1.788   0.666  0.0753 -0.0683 -0.0565
  308TMC3    C6 4688   1.220   1.903   0.742  0.7882  0.3507  0.5741
  308TMC3     C 4689   1.077   1.535   0.846  0.9580  0.7215 -0.3541
  308TMC3     O 4690   1.135   1.431   0.847  0.1748 -0.3386 -0.1628
  308TMC3     H 4691   1.076   1.748   0.997 -0.5959  1.7547  0.0665
  308TMC3    H1 4692   1.242   1.572   0.652 -0.6129 -0.4595  1.4097
  308TMC3    H2 4693   1.247   2.005   0.715 -1.4513  1.5332  2.7571
  308TMC3    C7 4694   1.314   1.804   0.534  0.2899  0.3299  0.6173
  308TMC3    C8 4695   1.091   1.998   0.922  0.1835 -0.5455 -0.0718
  308TMC3    O1 4696   1.343   1.702   0.472  0.2910 -0.2573 -0.6860
  308TMC3    O2 4697   1.050   1.975   1.036  0.2099 -0.0781 -0.3747
  309MPD2     C 4698   0.978   1.856  17.272  0.5974 -0.6861 -0.4444
  309MPD2    C1 4699   0.919   1.868  17.152 -0.1229 -0.6172 -0.4933
  309MPD2    C2 4700   0.783   1.902  17.148 -0.9652 -0.1673 -0.1826
  309MPD2    C3 4701   0.709   1.905  17.265 -0.4124  0.0067  0.8078
  309MPD2    C4 4702   0.774   1.864  17.384  0.4357  0.0092 -0.1028
  309MPD2    C5 4703   0.907   1.840  17.386  0.2774  0.3145 -0.2943
  309MPD2     H 4704   0.743   1.922  17.049 -0.4251 -0.6432 -0.4957
  309MPD2    H1 4705   0.717   1.854  17.476  0.6169 -0.8542 -0.0850
  309MPD2    H2 4706   1.085   1.842  17.278  0.3976 -1.0261  2.1147
  309MPD2    H3 4707   0.962   1.829  17.479 -3.5000 -1.4223  1.7302
  309MPD2     N 4708   0.579   1.945  17.279 -0.1824  0.6718  0.5423
  309MPD2    H5 4709   0.537   1.927  17.370 -2.4279  1.5924 -0.2998
  309MPD2    N1 4710   0.992   1.866  17.029  0.3201 -0.4047  0.1041
  309MPD2    H7 4711   0.940   1.879  16.944  1.4204 -0.6857 -0.6152
  310TMC3    C1 4712   1.172   1.873  16.874  0.0176  0.0846 -0.1370
  310TMC3    C2 4713   1.095   1.937  16.786 -0.1263  0.4397 -0.1949
  310TMC3    C3 4714   1.151   1.965  16.665  0.2357  0.3315 -0.2141
  310TMC3    C4 4715   1.304   1.835  16.853  0.4288  0.2968  0.2353
  310TMC3    C5 4716   1.348   1.852  16.726  0.0211  0.5386 -0.0555
  310TMC3    C6 4717   1.275   1.926  16.633 -0.0429 -0.3125  0.0013
  310TMC3     C 4718   1.130   1.848  17.010 -0.3756 -0.5746 -0.4212
  310TMC3     O 4719   1.215   1.826  17.097 -0.4398  0.0018 -0.2848
  310TMC3     H 4720   0.996   1.970  16.815 -0.2917 -0.2803  0.0701
  310TMC3    H1 4721   1.355   1.779  16.931  1.9169 -0.8206 -1.5392
  310TMC3    H2 4722   1.312   1.940  16.533  0.5381  0.9351  0.3891
  310TMC3    C7 4723   1.430   1.747  16.667 -0.4183 -0.1115 -0.0669
  310TMC3    C8 4724   1.059   2.021  16.559 -0.1843  0.3177 -0.5017
  310TMC3    O1 4725   1.465   1.772  16.554 -0.4470 -0.1860  0.0804
  310TMC3    O2 4726   0.939   1.994  16.563 -0.3765  0.2271 -0.1921
  311MPD2     C 4727   2.844   2.525  12.897  0.7455 -0.0968  0.0164
  311MPD2    C1 4728   2.819   2.658  12.869 -0.9888  0.2029  0.5911
  311MPD2    C2 4729   2.694   2.708  12.906 -0.6370 -0.6988 -0.3846
  311MPD2    C3 4730   2.598   2.627  12.966  0.0674 -0.5848  0.4919
  311MPD2    C4 4731   2.624   2.501  13.002  0.0891 -1.0482 -0.1153
  311MPD2    C5 4732   2.748   2.450  12.965  0.5495  0.2974 -0.3548
  311MPD2     H 4733   2.663   2.805  12.870  0.4878 -0.4772 -0.7567
  311MPD2    H1 4734   2.543   2.442  13.044  1.3622 -1.5211  1.6383
  311MPD2    H2 4735   2.945   2.487  12.890  0.6541  0.1963 -2.8663
  311MPD2    H3 4736   2.778   2.351  12.995 -0.6006  0.3887  1.1130
  311MPD2     N 4737   2.473   2.691  12.993  0.3818  0.6281 -0.2563
  311MPD2    H5 4738   2.474   2.792  12.982 -1.9169  0.6013 -0.7866
  311MPD2    N1 4739   2.913   2.748  12.809  0.3461 -0.1287  0.0553
  311MPD2    H7 4740   2.880   2.843  12.811 -0.6958 -0.5381  1.8577
  312TMC3    C1 4741   2.246   2.719  13.071 -0.8207  0.0089 -0.1486
  312TMC3    C2 4742   2.120   2.665  13.067  0.3154 -0.2271  0.1194
  312TMC3    C3 4743   2.013   2.752  13.039  0.4128 -0.7534 -0.5146
  312TMC3    C4 4744   2.267   2.852  13.089 -0.0985  0.0085 -0.2379
  312TMC3    C5 4745   2.160   2.928  13.054  0.9024  0.0707 -0.4503
  312TMC3    C6 4746   2.032   2.883  13.029  0.2807  0.0178  0.0440
  312TMC3     C 4747   2.361   2.632  13.050 -0.0254  0.1977 -0.8208
  312TMC3     O 4748   2.335   2.512  13.053 -0.2940  0.1326 -0.1440
  312TMC3     H 4749   2.105   2.558  13.079 -0.1336  0.1498  2.8942
  312TMC3    H1 4750   2.367   2.888  13.106  0.5178 -0.9013 -1.9206
  312TMC3    H2 4751   1.947   2.950  13.022  0.8110  0.5487 -1.1467
  312TMC3    C7 4752   2.169   3.073  13.053  0.2241  0.1995 -0.2038
  312TMC3    C8 4753   1.881   2.693  13.009 -0.5462  0.1264  1.0030
  312TMC3    O1 4754   2.095   3.145  12.991  0.9602  0.8023 -0.5127
  312TMC3    O2 4755   1.861   2.578  13.049 -0.0909 -0.1744 -0.4717
  313MPD2     C 4756   2.238   1.720  10.489  0.3054  0.1393 -0.2628
  313MPD2    C1 4757   2.101   1.756  10.508  0.1438  0.3360 -0.9452
  313MPD2    C2 4758   2.005   1.688  10.438 -0.4601  0.4658 -0.2191
  313MPD2    C3 4759   2.045   1.576  10.366  0.5260 -0.0562  0.3397
  313MPD2    C4 4760   2.177   1.540  10.336 -0.7819 -0.2128 -0.1786
  313MPD2    C5 4761   2.268   1.611  10.410  0.5279  0.1151 -0.2029
  313MPD2     H 4762   1.900   1.710  10.453 -0.4691 -0.6618  1.4290
  313MPD2    H1 4763   2.212   1.469  10.262  0.4903  0.1595  0.0769
  313MPD2    H2 4764   2.321   1.770  10.538 -0.2312  0.4469  0.3341
  313MPD2    H3 4765   2.371   1.579  10.399 -0.1247 -2.6271  1.8660
  313MPD2     N 4766   1.944   1.499  10.304  0.4439 -0.8181 -0.2952
  313MPD2    H5 4767   1.848   1.514  10.331  0.2875 -1.2611 -0.5977
  313MPD2    N1 4768   2.054   1.848  10.609  0.2911 -0.5703  0.3517
  313MPD2    H7 4769   1.958   1.879  10.611  0.3937 -0.2666  0.7332
  314TMC3    C1 4770   2.056   2.022  10.764  0.1168  0.0272  0.2939
  314TMC3    C2 4771   2.115   2.102  10.859 -0.1714 -0.4214  0.3068
  314TMC3    C3 4772   2.043   2.202  10.928 -0.1580 -0.2310  0.2900
  314TMC3    C4 4773   1.931   2.055  10.711  0.3003  0.3296  0.1791
  314TMC3    C5 4774   1.881   2.174  10.764 -0.0384  0.9006  0.5951
  314TMC3    C6 4775   1.921   2.239  10.873 -0.2655  0.1338  0.4466
  314TMC3     C 4776   2.135   1.918  10.699 -0.3690 -0.2791  0.5277
  314TMC3     O 4777   2.257   1.906  10.723  0.6044 -0.7552 -0.2533
  314TMC3     H 4778   2.217   2.069  10.875 -0.7212 -0.5522  3.4366
  314TMC3    H1 4779   1.889   2.026  10.616 -0.3153  1.8257  0.0043
  314TMC3    H2 4780   1.862   2.326  10.900 -2.5657 -1.0438 -0.7874
  314TMC3    C7 4781   1.776   2.243  10.688 -0.3015  0.4004  0.1422
  314TMC3    C8 4782   2.106   2.317  10.986 -0.5856  0.5812 -0.1247
  314TMC3    O1 4783   1.697   2.171  10.629 -0.1215  0.0144  0.2256
  314TMC3    O2 4784   2.042   2.420  10.994  0.4923 -0.1837 -0.4301
  315MPD2     C 4785   1.601   1.664  17.601 -0.3282 -0.6239  0.0045
  315MPD2    C1 4786   1.713   1.717  17.671 -0.0312 -0.3007 -0.0239
  315MPD2    C2 4787   1.765   1.833  17.630  0.0527 -0.6754  0.0317
  315MPD2    C3 4788   1.729   1.892  17.514 -0.4829  0.4305  0.0980
  315MPD2    C4 4789   1.631   1.837  17.434  1.0817  0.3665 -0.1672
  315MPD2    C5 4790   1.564   1.727  17.480 -0.5318 -0.6722  0.0842
  315MPD2     H 4791   1.853   1.866  17.685  0.0326 -0.8194  0.1500
  315MPD2    H1 4792   1.598   1.896  17.350  1.4579  1.6628  0.5894
  315MPD2    H2 4793   1.556   1.567  17.623  2.9207 -2.5121 -1.6115
  315MPD2    H3 4794   1.483   1.678  17.427  0.1105 -1.1744 -0.4351
  315MPD2     N 4795   1.814   2.000  17.461  0.4132 -0.5445  0.0154
  315MPD2    H5 4796   1.882   2.038  17.526  0.2067  2.1784 -1.3491
  315MPD2    N1 4797   1.768   1.668   0.052  0.3191 -0.3498 -0.8156
  315MPD2    H7 4798   1.849   1.717   0.088 -0.8506 -0.0130  1.3006
  316TMC3    C1 4799   1.907   2.157  17.309  0.1018 -0.2042 -0.4184
  316TMC3    C2 4800   1.951   2.225  17.417 -0.0283  0.0892 -0.3442
  316TMC3    C3 4801   2.043   2.327  17.386  0.3975  0.8762 -0.4453
  316TMC3    C4 4802   1.943   2.189  17.177  0.4509 -0.4844 -0.8138
  316TMC3    C5 4803   2.024   2.299  17.157 -0.3866  0.0926  0.6523
  316TMC3    C6 4804   2.079   2.367  17.264 -0.2532  0.2139 -0.7947
  316TMC3     C 4805   1.812   2.049  17.333  0.8781 -0.1117  0.1087
  316TMC3     O 4806   1.757   2.006  17.233 -0.1669  0.1559  0.1779
  316TMC3     H 4807   1.909   2.219  17.517  2.7575  2.0220  0.9402
  316TMC3    H1 4808   1.913   2.125  17.095  0.1500  0.8482 -1.7594
  316TMC3    H2 4809   2.161   2.435  17.247 -1.1327  1.4786  0.0852
  316TMC3    C7 4810   2.077   2.327  17.023  0.2230 -0.4107 -0.7458
  316TMC3    C8 4811   2.088   2.409  17.492 -0.8061  0.6541  0.2658
  316TMC3    O1 4812   2.190   2.367  17.004  0.2039  0.2484 -0.2750
  316TMC3    O2 4813   2.128   2.519  17.459  0.3483  0.2754  0.4553
  317MPD2     C 4814   3.501   4.713  12.866 -0.0548  0.4634 -0.5951
  317MPD2    C1 4815   3.555   4.587  12.902  0.0271  0.0675  0.5647
  317MPD2    C2 4816   3.642   4.580  13.005 -0.4370  0.1977 -0.0433
  317MPD2    C3 4817   3.682   4.695  13.071  0.1093  0.1901 -0.2221
  317MPD2    C4 4818   3.635   0.076  13.029  0.1938 -0.1767  0.2566
  317MPD2    C5 4819   3.542   0.087  12.931  0.6683  0.1641  0.1825
  317MPD2     H 4820   3.672   4.482  13.038  1.2410  0.8937  0.5081
  317MPD2    H1 4821   3.659   0.169  13.080 -0.8403  1.1784 -1.7205
  317MPD2    H2 4822   3.435   4.722  12.780 -0.3283 -1.6288 -0.5985
  317MPD2    H3 4823   3.497   0.185  12.915  0.4742  0.2849  1.4030
  317MPD2     N 4824   3.768   4.683  13.189  0.3113  0.0456 -0.2138
  317MPD2    H5 4825   3.782   4.586  13.214  0.0717  0.1458  0.3058
  317MPD2    N1 4826   3.522   4.462  12.842 -0.0436  0.4587 -0.6641
  317MPD2    H7 4827   3.580   4.384  12.873 -0.7890  1.4054  3.1168
  318TMC3    C1 4828   3.906   0.000  13.374 -0.3373  0.1077  0.6429
  318TMC3    C2 4829   3.856   4.643  13.457 -1.0349 -0.3773  0.5665
  318TMC3    C3 4830   3.934   4.600  13.563  0.3742  0.1515  1.5712
  318TMC3    C4 4831   4.033   0.049  13.397  0.0868  1.0056 -0.1574
  318TMC3    C5 4832   4.110   0.005  13.507 -0.2552  0.3073  0.1694
  318TMC3    C6 4833   4.060   4.641  13.587 -0.1110 -0.3438 -0.6628
  318TMC3     C 4834   3.826   0.053  13.265 -0.4191  0.0098  0.1420
  318TMC3     O 4835   3.845   0.168  13.230  0.0499  0.0957 -0.6225
  318TMC3     H 4836   3.754   4.613  13.434 -0.8003 -1.4842  1.0043
  318TMC3    H1 4837   4.079   0.097  13.312  0.1409  0.8208 -0.2330
  318TMC3    H2 4838   4.097   4.620  13.688  2.8129 -3.9886 -2.4553
  318TMC3    C7 4839   4.248   0.015  13.495 -0.3696  1.3195  0.1967
  318TMC3    C8 4840   3.868   4.496  13.659  0.4328 -0.2517  0.0069
  318TMC3    O1 4841   4.292   0.084  13.404  0.7303  0.3541 -0.6398
  318TMC3    O2 4842   3.909   4.493  13.775 -0.0063  0.0341 -0.0976
  319MPD2     C 4843   0.365   1.523  16.487 -0.0447  0.7605 -0.3806
  319MPD2    C1 4844   0.381   1.389  16.461 -0.4253  0.2441  0.8173
  319MPD2    C2 4845   0.291   1.324  16.375  0.1363 -0.1661 -0.0690
  319MPD2    C3 4846   0.182   1.396  16.321  0.3854 -0.2595  0.1229
  319MPD2    C4 4847   0.163   1.531  16.344  0.5342 -0.9356 -0.4717
  319MPD2    C5 4848   0.259   1.591  16.425 -0.8152 -0.0190 -0.4960
  319MPD2     H 4849   0.305   1.217  16.366 -1.6153 -0.3621 -0.4500
  319MPD2    H1 4850   0.079   1.592  16.315  0.1664 -1.1427  0.1435
  319MPD2    H2 4851   0.422   1.585  16.555 -1.5381 -0.4133  1.9344
  319MPD2    H3 4852   0.259   1.699  16.427 -1.7477  0.0068 -1.7066
  319MPD2     N 4853   0.084   1.337  16.236  0.3766 -0.6774  0.1866
  319MPD2    H5 4854   0.014   1.401  16.201  0.2682  1.1592  3.8081
  319MPD2    N1 4855   0.471   1.318  16.539 -0.2312 -0.0966  0.6193
  319MPD2    H7 4856   0.480   1.218  16.526 -1.5929 -0.0260 -0.8092
  320TMC3    C1 4857   4.718   1.154  16.136  0.0926 -0.5509 -0.8500
  320TMC3    C2 4858   4.614   1.243  16.110 -0.3487  0.3371 -0.1516
  320TMC3    C3 4859   4.488   1.196  16.116 -0.5088 -0.1958 -0.0961
  320TMC3    C4 4860   4.696   1.024  16.168  0.5175  0.0185  0.5231
  320TMC3    C5 4861   4.565   0.983  16.168 -0.0947  0.4897  0.0988
  320TMC3    C6 4862   4.457   1.063  16.148  0.0137  0.2685  0.1720
  320TMC3     C 4863   0.103   1.206  16.186 -0.2768  0.5448 -0.1535
  320TMC3     O 4864   0.183   1.119  16.222 -0.0955 -0.2795  0.5792
  320TMC3     H 4865   4.636   1.331  16.050  0.7270  0.0269 -0.2289
  320TMC3    H1 4866   0.045   0.955  16.170  0.0092 -0.6156 -0.1149
  320TMC3    H2 4867   4.360   1.016  16.152  0.5293 -0.8131 -0.1975
  320TMC3    C7 4868   4.546   0.834  16.177 -0.3894 -0.3901  0.5766
  320TMC3    C8 4869   4.391   1.281  16.054 -0.8738 -0.0320 -0.2777
  320TMC3    O1 4870   4.641   0.767  16.136 -0.6716 -0.5984 -0.0717
  320TMC3    O2 4871   4.408   1.401  16.040 -0.6755 -0.1269 -0.3185
  321TMC3    C1 4872   0.626   1.266  16.722 -0.3335 -0.5288 -0.1287
  321TMC3    C2 4873   0.595   1.138  16.703 -0.5208 -0.0587 -0.1304
  321TMC3    C3 4874   0.675   1.051  16.770  0.3235  0.5440  0.1799
  321TMC3    C4 4875   0.718   1.313  16.811 -0.0009 -0.6359  0.7855
  321TMC3    C5 4876   0.809   1.223  16.864 -0.1758 -0.7926 -0.8790
  321TMC3    C6 4877   0.792   1.090  16.836  0.6635 -0.2212  0.3060
  321TMC3     C 4878   0.546   1.363  16.646  0.6590  0.1638 -1.0779
  321TMC3     O 4879   0.575   1.478  16.669  0.1601 -0.2103  0.2727
  321TMC3     H 4880   0.505   1.104  16.653 -1.1553  1.0715  0.2475
  321TMC3    H1 4881   0.719   1.419  16.834 -0.1744  0.4342 -4.2342
  321TMC3    H2 4882   0.858   1.014  16.875 -0.3744 -0.8790  0.7769
  321TMC3    C7 4883   0.821   1.224  17.008  0.0946  0.2596  0.2707
  321TMC3    C8 4884   0.616   0.923  16.815 -0.2829 -0.3708  0.7117
  321TMC3    O1 4885   0.825   1.113  17.063  0.1286  0.3420 -1.1658
  321TMC3    O2 4886   0.512   0.885  16.759 -0.0971  1.3515 -0.5725
  322MPD2     C 4887   4.024   2.451  12.752  0.4024  0.0145 -0.1511
  322MPD2    C1 4888   4.048   2.394  12.873  0.6896  0.1777 -0.5130
  322MPD2    C2 4889   4.096   2.263  12.884  0.2690 -0.4263 -1.1735
  322MPD2    C3 4890   4.139   2.198  12.766  0.2579  0.3595 -0.0609
  322MPD2    C4 4891   4.128   2.268  12.641  0.1480  1.0904 -0.3993
  322MPD2    C5 4892   4.070   2.392  12.635  0.1974 -0.1602 -0.4431
  322MPD2     H 4893   4.102   2.218  12.983 -0.7942  0.1264 -0.8631
  322MPD2    H1 4894   4.165   2.226  12.549 -1.7612 -0.5345 -0.4059
  322MPD2    H2 4895   3.977   2.548  12.742 -0.0196  0.0540  2.3593
  322MPD2    H3 4896   4.065   2.442  12.539 -2.0551  1.5063  0.5508
  322MPD2     N 4897   4.193   2.061  12.778  0.2403  0.2171  0.4004
  322MPD2    H5 4898   4.187   2.017  12.870  0.4309 -0.5832  0.0221
  322MPD2    N1 4899   4.003   2.463  12.985 -0.5572 -0.0478  0.2718
  322MPD2    H7 4900   3.993   2.564  12.981 -0.6443 -0.1299 -1.6908
  323TMC3    C1 4901   3.969   2.485  13.224 -0.3738  0.2258 -0.5476
  323TMC3    C2 4902   4.062   2.586  13.241  0.0566 -0.2045 -0.0892
  323TMC3    C3 4903   4.076   2.624  13.374  0.3981  0.3253 -0.1258
  323TMC3    C4 4904   3.907   2.425  13.333 -0.2651 -0.6935 -0.1230
  323TMC3    C5 4905   3.923   2.475  13.461 -0.3917  0.0766  0.0344
  323TMC3    C6 4906   4.002   2.580  13.476 -0.2322 -0.1842  0.3095
  323TMC3     C 4907   3.960   2.404  13.101  0.0224 -0.3656 -0.4700
  323TMC3     O 4908   3.929   2.289  13.123  0.1090 -0.8646 -0.4028
  323TMC3     H 4909   4.117   2.608  13.151  0.5750 -0.9361  0.0568
  323TMC3    H1 4910   3.822   2.362  13.311 -0.2717 -0.4582 -0.7776
  323TMC3    H2 4911   4.006   2.617  13.578  0.4415  1.8991 -0.4714
  323TMC3    C7 4912   3.844   2.420  13.567 -0.7540  0.1612  0.4186
  323TMC3    C8 4913   4.173   2.727  13.409 -0.5032 -0.0896 -0.4144
  323TMC3    O1 4914   3.838   2.296  13.572 -1.0515  0.4437  0.2140
  323TMC3    O2 4915   4.201   2.738  13.530  0.3565 -0.0272 -0.7148
  324MPD2     C 4916   0.390   3.476  14.372 -0.2800  0.1603 -0.1714
  324MPD2    C1 4917   0.361   3.600  14.423 -0.5004  0.5608 -0.4365
  324MPD2    C2 4918   0.226   3.632  14.433 -0.3635 -0.2716 -0.4116
  324MPD2    C3 4919   0.126   3.543  14.389  0.6915 -0.4020  0.2607
  324MPD2    C4 4920   0.160   3.422  14.335  0.0621 -0.1730 -0.3575
  324MPD2    C5 4921   0.298   3.393  14.327  0.3527  0.1950  0.0572
  324MPD2     H 4922   0.207   3.734  14.462 -1.1024 -0.2032 -1.1222
  324MPD2    H1 4923   0.087   3.351  14.297  1.9977 -1.7728 -1.0601
  324MPD2    H2 4924   0.493   3.444  14.371 -0.7405 -1.3073 -1.9851
  324MPD2    H3 4925   0.332   3.296  14.290  1.2411 -0.1443  1.7857
  324MPD2     N 4926   4.729   3.577  14.403  0.6758  0.8069 -0.7843
  324MPD2    H5 4927   4.669   3.498  14.383  0.5528  0.7931 -0.3466
  324MPD2    N1 4928   0.458   3.697  14.455  0.5900  0.1395  0.5417
  324MPD2    H7 4929   0.428   3.792  14.473  1.8253  0.4918  0.7493
  325TMC3    C1 4930   4.528   3.698  14.453 -0.1529 -0.5242  0.2301
  325TMC3    C2 4931   4.451   3.629  14.363  0.1222  1.0639 -0.2855
  325TMC3    C3 4932   4.315   3.672  14.344 -0.0439  0.2472 -0.4228
  325TMC3    C4 4933   4.477   3.801  14.517 -0.1920 -0.7614  0.3098
  325TMC3    C5 4934   4.349   3.848  14.485 -0.2771 -0.6448  0.1376
  325TMC3    C6 4935   4.268   3.783  14.404  0.7074 -0.4845 -0.1613
  325TMC3     C 4936   4.675   3.698  14.440 -0.3093  0.7200 -0.0896
  325TMC3     O 4937   4.723   3.810  14.454 -0.3966  0.1750 -0.1337
  325TMC3     H 4938   4.490   3.551  14.298 -0.7660  2.1206 -2.0662
  325TMC3    H1 4939   4.538   3.863  14.582  2.5811 -2.5820 -0.5465
  325TMC3    H2 4940   4.173   3.820  14.369  0.4459 -1.4830 -0.5209
  325TMC3    C7 4941   4.346   3.995  14.496 -0.3897 -0.0491 -0.7588
  325TMC3    C8 4942   4.243   3.607  14.233  0.8319 -0.0846  0.6567
  325TMC3    O1 4943   4.394   4.045  14.600  0.2549  0.3821  0.3321
  325TMC3    O2 4944   4.314   3.552  14.147  0.5442  0.1104  0.0823
  326MPD2     C 4945   1.210   4.632  11.063 -0.6137 -0.0240 -0.2336
  326MPD2    C1 4946   1.230   4.671  10.931  0.7150  0.2676 -0.6183
  326MPD2    C2 4947   1.356   4.707  10.896  1.1629  0.1374 -0.3722
  326MPD2    C3 4948   1.465   4.701  10.991 -0.6139  1.1753  0.4295
  326MPD2    C4 4949   1.440   4.666  11.120 -0.0441  0.1762  0.0293
  326MPD2    C5 4950   1.313   4.637  11.160 -0.7091  0.6228 -0.2791
  326MPD2     H 4951   1.373   4.716  10.790  0.2805 -1.1003 -0.6166
  326MPD2    H1 4952   1.523   4.667  11.190 -1.0517 -1.5912  1.2206
  326MPD2    H2 4953   1.115   4.603  11.106  0.0426  0.1311  1.3338
  326MPD2    H3 4954   1.302   4.601  11.262  2.8557  0.9178  0.2104
  326MPD2     N 4955   1.592   4.732  10.948  0.1716  0.0040  0.4055
  326MPD2    H5 4956   1.662   4.719  11.021 -0.3059  0.1318  0.8806
  326MPD2    N1 4957   1.134   4.680  10.828  0.2277 -0.7166 -0.0853
  326MPD2    H7 4958   1.170   4.711  10.738  1.5482 -1.3130  0.2430
  327TMC3    C1 4959   0.939   4.681  10.720 -0.5768 -0.2222  0.1554
  327TMC3    C2 4960   0.869   0.062  10.705  0.2147 -0.6389  0.0443
  327TMC3    C3 4961   0.859   0.112  10.578 -0.1819 -0.8203 -0.4024
  327TMC3    C4 4962   0.997   4.619  10.616  0.2703  0.3575 -0.0775
  327TMC3    C5 4963   0.988   4.664  10.490 -0.9272 -0.4365 -0.2405
  327TMC3    C6 4964   0.920   0.053  10.472 -0.1761  0.4458  0.4214
  327TMC3     C 4965   1.000   4.670  10.851  0.1706 -1.0151 -0.5390
  327TMC3     O 4966   0.929   4.640  10.946 -0.1237  0.6682  0.1821
  327TMC3     H 4967   0.833   0.110  10.795  0.3504 -1.3614  0.4866
  327TMC3    H1 4968   1.039   4.524  10.646  1.4735  1.4929  1.7876
  327TMC3    H2 4969   0.914   0.107  10.378  2.0603  1.2549  0.7459
  327TMC3    C7 4970   1.117   4.677  10.424  0.8017  0.2573  0.1766
  327TMC3    C8 4971   0.819   0.246  10.564 -0.8845  0.0874  0.0710
  327TMC3    O1 4972   1.134   0.036  10.348 -0.6829  0.0239 -0.0042
  327TMC3    O2 4973   0.889   0.317  10.491  0.5017  0.0550 -0.2914
  328MPD2     C 4974   4.444   0.296  17.438  0.1954  0.7626 -0.4328
  328MPD2    C1 4975   4.375   0.185  17.400  0.0818 -0.7033 -0.5108
  328MPD2    C2 4976   4.304   0.187  17.279  0.2908  0.1811  0.4018
  328MPD2    C3 4977   4.309   0.296  17.204 -0.0122 -0.1514 -0.6871
  328MPD2    C4 4978   4.398   0.400  17.235  0.9347  0.2581  1.0825
  328MPD2    C5 4979   4.460   0.406  17.354 -0.0095  0.0432  0.6224
  328MPD2     H 4980   4.241   0.104  17.250 -1.5510  1.9014 -0.5225
  328MPD2    H1 4981   4.397   0.488  17.172  0.8016 -1.6083 -1.5515
  328MPD2    H2 4982   4.486   0.307  17.537  1.4234 -0.5751 -0.8074
  328MPD2    H3 4983   4.512   0.496  17.387 -0.1172 -0.3689  1.9217
  328MPD2     N 4984   4.212   0.318  17.111  0.1059  0.0475  0.4648
  328MPD2    H5 4985   4.198   0.414  17.079  1.4613 -0.1523 -0.6714
  328MPD2    N1 4986   4.360   0.079  17.504  0.4007  0.5668 -0.4471
  328MPD2    H7 4987   4.395   0.089  17.599  0.3390 -1.2568 -0.2329
  329TMC3    C1 4988   4.269   4.622  17.608 -0.4695  0.4360 -0.1482
  329TMC3    C2 4989   4.236   4.706  17.714  0.3275 -0.4782 -0.3078
  329TMC3    C3 4990   4.136   4.668   0.066  0.6758 -0.3030 -0.0613
  329TMC3    C4 4991   4.202   4.500  17.594  0.1263 -0.1075  0.1294
  329TMC3    C5 4992   4.097   4.470  17.683 -0.5375  0.5528 -0.3360
  329TMC3    C6 4993   4.062   4.555   0.045 -0.4253 -0.2862  0.3351
  329TMC3     C 4994   4.299   4.692  17.480 -0.7121 -0.6665  0.6409
  329TMC3     O 4995   4.294   4.624  17.377  0.2451 -0.3244  0.3004
  329TMC3     H 4996   4.283   0.068  17.725 -1.9563  0.8127 -1.9483
  329TMC3    H1 4997   4.228   4.437  17.509  1.7842  3.3502 -1.9658
  329TMC3    H2 4998   3.985   4.526   0.116 -0.1018 -3.1313 -0.4671
  329TMC3    C7 4999   4.015   4.358  17.655  0.0208 -0.1549 -0.3992
  329TMC3    C8 5000   4.109   0.026   0.179 -0.0155 -0.1926  0.2771
  329TMC3    O1 5001   3.931   4.337   0.004 -0.2201 -0.0670  0.3138
  329TMC3    O2 5002   4.210   0.070   0.234 -0.2238  0.0834 -0.6669
  330TMC3    C1 5003   1.510   4.363   9.585  0.4028 -0.2224  0.3619
  330TMC3    C2 5004   1.431   4.253   9.537  0.1570 -0.7460  0.3948
  330TMC3    C3 5005   1.480   4.128   9.564  1.4198  0.2481 -0.1271
  330TMC3    C4 5006   1.635   4.343   9.646 -0.1533  0.4718 -0.4959
  330TMC3    C5 5007   1.670   4.215   9.668 -0.0963 -0.3665  0.3172
  330TMC3    C6 5008   1.601   4.103   9.631  0.3783  0.7618 -0.2504
  330TMC3     C 5009   1.471   4.502   9.567 -0.3609  0.2440 -0.2023
  330TMC3     O 5010   1.565   4.579   9.559 -0.0864 -0.1737  0.1661
  330TMC3     H 5011   1.336   4.274   9.490  0.0952 -0.0608  0.8229
  330TMC3    H1 5012   1.696   4.427   9.676  2.1044 -2.1223  2.2359
  330TMC3    H2 5013   1.653   4.009   9.620  0.0481  0.8837 -2.8124
  330TMC3    C7 5014   1.797   4.204   9.744 -0.3540 -0.1305  0.0497
  330TMC3    C8 5015   1.380   4.018   9.557 -0.1769  0.1513 -0.6615
  330TMC3    O1 5016   1.862   4.307   9.759 -0.2851 -0.0107  0.0935
  330TMC3    O2 5017   1.283   4.041   9.482  0.5289  0.1220 -0.0101
  331MPD2     C 5018   0.424   3.471  12.699  0.0757  0.0384 -0.3748
  331MPD2    C1 5019   0.377   3.414  12.580 -0.2293 -0.6020 -0.5053
  331MPD2    C2 5020   0.356   3.281  12.586 -0.3376 -0.0408  1.1231
  331MPD2    C3 5021   0.364   3.208  12.705 -0.4999 -0.3155 -0.3641
  331MPD2    C4 5022   0.416   3.274  12.823 -0.3832 -0.1767  0.2993
  331MPD2    C5 5023   0.441   3.404  12.820  0.2000 -0.3935  0.1576
  331MPD2     H 5024   0.308   3.222  12.509  0.7606  1.8510 -0.9970
  331MPD2    H1 5025   0.431   3.226  12.920  0.2419 -0.2086  0.1863
  331MPD2    H2 5026   0.459   3.573  12.695 -3.4039  1.3054  1.9477
  331MPD2    H3 5027   0.480   3.450  12.911  1.7330  1.5487 -1.4736
  331MPD2     N 5028   0.314   3.078  12.700  0.0115 -0.2201  0.5726
  331MPD2    H5 5029   0.284   3.036  12.612  0.8281  1.0325 -0.2983
  331MPD2    N1 5030   0.359   3.497  12.464  0.1569 -0.0119  0.5831
  331MPD2    H7 5031   0.369   3.598  12.474  3.2603 -0.4567  2.0857
  332TMC3    C1 5032   0.243   2.859  12.783  0.1109  0.0191 -0.4282
  332TMC3    C2 5033   0.132   2.878  12.700  0.3716 -0.2398  0.0807
  332TMC3    C3 5034   0.031   2.787  12.705 -0.0926  0.0266  0.0905
  332TMC3    C4 5035   0.240   2.762  12.873  0.9729 -0.1876 -0.5954
  332TMC3    C5 5036   0.144   2.663  12.856 -0.0285 -0.0701 -0.2379
  332TMC3    C6 5037   0.037   2.669  12.777 -0.0175 -0.0189  0.0147
  332TMC3     C 5038   0.309   2.986  12.808 -0.3517 -0.0154  0.9035
  332TMC3     O 5039   0.360   2.998  12.914 -0.3917 -0.3944 -0.8077
  332TMC3     H 5040   0.124   2.969  12.641 -0.1937 -1.8373 -2.2851
  332TMC3    H1 5041   0.310   2.765  12.956  2.6590 -0.7987 -1.9952
  332TMC3    H2 5042   4.698   2.590  12.767 -1.9500  1.4190  3.0930
  332TMC3    C7 5043   0.173   2.538  12.927 -0.0165 -0.4218 -0.8393
  332TMC3    C8 5044   4.652   2.821  12.617  0.1866  0.2076  0.1771
  332TMC3    O1 5045   0.076   2.471  12.957 -0.4216 -0.2472 -0.1372
  332TMC3    O2 5046   4.670   2.914  12.545 -1.1592 -0.0564  0.0141
  333MPD2     C 5047   4.574   2.764  10.718  0.0813  0.2475 -0.3791
  333MPD2    C1 5048   4.646   2.656  10.688 -0.9352 -0.0104  0.4523
  333MPD2    C2 5049   4.657   2.560  10.783  0.2177  0.4132  0.3192
  333MPD2    C3 5050   4.596   2.569  10.909  0.2274 -0.3108 -0.1586
  333MPD2    C4 5051   4.521   2.680  10.937 -0.1254  0.3803  0.3417
  333MPD2    C5 5052   4.524   2.781  10.844 -0.3003  0.3747 -0.4661
  333MPD2     H 5053   4.711   2.466  10.769  0.7423  0.4434  2.1714
  333MPD2    H1 5054   4.475   2.693  11.034  1.0598  0.5913  0.8822
  333MPD2    H2 5055   4.561   2.842  10.643  2.8140 -0.8620 -2.0222
  333MPD2    H3 5056   4.469   2.870  10.875 -1.4924 -1.0291  1.4196
  333MPD2     N 5057   4.628   2.474  11.002  0.2432 -0.2471  0.1787
  333MPD2    H5 5058   4.701   2.411  10.969 -0.5958 -1.4783  0.6930
  333MPD2    N1 5059   4.706   2.653  10.560 -0.3712  0.4730 -0.0876
  333MPD2    H7 5060   4.719   2.742  10.512 -1.0207  1.5403  1.6992
  334TMC3    C1 5061   0.139   2.565  10.423 -0.1123  0.3278 -0.0134
  334TMC3    C2 5062   0.248   2.492  10.467  0.5741 -0.4695  0.2773
  334TMC3    C3 5063   0.370   2.548  10.444  0.2371  0.5120  0.1546
  334TMC3    C4 5064   0.140   2.685  10.349 -0.2306  0.0536 -0.0056
  334TMC3    C5 5065   0.271   2.742  10.342 -0.5203  0.0837  0.5249
  334TMC3    C6 5066   0.379   2.674  10.397 -0.4608  0.2586 -0.2193
  334TMC3     C 5067   0.029   2.540  10.509 -0.5886 -0.7264 -0.0696
  334TMC3     O 5068   0.017   2.429  10.552  0.2775  0.3283 -0.5700
  334TMC3     H 5069   0.240   2.394  10.513  2.4435 -0.3377  0.8854
  334TMC3    H1 5070   0.054   2.743  10.318  1.0530  1.4137 -0.9949
  334TMC3    H2 5071   0.477   2.718  10.381 -0.6017  0.6555  0.0131
  334TMC3    C7 5072   0.287   2.886  10.326 -0.1688 -0.0404  0.0097
  334TMC3    C8 5073   0.479   2.499  10.530  0.1861 -0.2674 -0.3430
  334TMC3    O1 5074   0.382   2.927  10.388  0.2742  0.1787 -0.4534
  334TMC3    O2 5075   0.459   2.391  10.581 -0.0174  0.2451  0.8102
  335TMC3    C1 5076   0.440   0.009   0.195  0.7705  0.6339  0.1608
  335TMC3    C2 5077   0.356   4.656   0.132 -0.8754  0.2578  0.2875
  335TMC3    C3 5078   0.392   4.614   0.007 -0.0856  0.3611 -0.4461
  335TMC3    C4 5079   0.560   0.043   0.134 -0.2115  0.1333  0.2516
  335TMC3    C5 5080   0.591   4.733   0.006  0.0551 -0.4249  0.1533
  335TMC3    C6 5081   0.506   4.646  17.682  0.7939  0.4695 -0.0808
  335TMC3     C 5082   0.415   0.028   0.338  0.9933  0.4633  0.8051
  335TMC3     O 5083   0.343   4.677   0.391  0.0103 -0.0848 -0.5987
  335TMC3     H 5084   0.265   4.627   0.183 -0.3868 -1.1617  0.3554
  335TMC3    H1 5085   0.633   0.104   0.185  0.2313 -0.7413  0.6555
  335TMC3    H2 5086   0.523   4.603  17.584  2.0559  0.1763  0.2636
  335TMC3    C7 5087   0.709   0.043  17.675 -0.1991 -0.3123  0.8505
  335TMC3    C8 5088   0.291   4.549  17.664 -0.3616  0.4778  0.9781
  335TMC3    O1 5089   0.790   0.113   0.001 -0.1251  0.2792  0.7337
  335TMC3    O2 5090   0.220   4.468  17.719  0.3318 -0.4550  0.2436
  336MPD2     C 5091   4.451   3.097  16.292  0.1136  0.1051  0.1968
  336MPD2    C1 5092   4.429   3.051  16.165  0.2156  0.1436  0.0688
  336MPD2    C2 5093   4.488   2.932  16.122 -0.8639  0.2492 -0.0634
  336MPD2    C3 5094   4.570   2.858  16.202 -0.4726  0.3674  0.4060
  336MPD2    C4 5095   4.594   2.909  16.330  0.5992  0.9116  0.6985
  336MPD2    C5 5096   4.533   3.020  16.368 -0.1322 -0.2861 -0.1498
  336MPD2     H 5097   4.465   2.900  16.021 -0.3695  1.8326 -0.6783
  336MPD2    H1 5098   4.662   2.869  16.405  0.6524 -0.7374 -0.2267
  336MPD2    H2 5099   4.408   3.186  16.336  1.9009  1.0999 -0.0710
  336MPD2    H3 5100   4.543   3.051  16.471 -2.1034  0.4546 -0.1817
  336MPD2     N 5101   4.633   2.741  16.166 -0.2481 -0.0021  0.2943
  336MPD2    H5 5102   4.693   2.707  16.240 -0.7354 -1.2673  0.1236
  336MPD2    N1 5103   4.351   3.124  16.075 -0.3055 -0.0038 -0.0644
  336MPD2    H7 5104   4.299   3.078  16.001 -1.1731 -0.2081  0.6643
  337TMC3    C1 5105   4.237   3.302  15.982  0.9599  0.2903  0.6900
  337TMC3    C2 5106   4.116   3.243  15.977 -0.4134  0.1708  0.1718
  337TMC3    C3 5107   4.032   3.267  15.872  0.0816 -0.2679 -0.2355
  337TMC3    C4 5108   4.277   3.385  15.883 -0.1324  0.2528 -0.2112
  337TMC3    C5 5109   4.184   3.417  15.783  0.2938  0.5897 -0.1857
  337TMC3    C6 5110   4.070   3.340  15.767 -0.3331  0.0952  0.0306
  337TMC3     C 5111   4.338   3.259  16.079  0.9460  0.6292  1.4537
  337TMC3     O 5112   4.387   3.341  16.157  0.6859  0.4106  0.2164
  337TMC3     H 5113   4.080   3.164  16.041 -0.7967  0.1955 -0.0134
  337TMC3    H1 5114   4.368   3.444  15.875  1.5500 -2.0013  2.3229
  337TMC3    H2 5115   4.004   3.365  15.684  1.2128 -0.8221 -1.4850
  337TMC3    C7 5116   4.229   3.458  15.655  0.4036 -0.0575 -0.5117
  337TMC3    C8 5117   3.931   3.170  15.853  0.7872  0.0238 -0.2660
  337TMC3    O1 5118   4.187   3.388  15.563 -0.1435  0.5307  0.1050
  337TMC3    O2 5119   3.880   3.107  15.948  0.7352  0.3790  0.1781
  338MPD2     C 5120   4.654   1.947   0.754  0.1929 -0.4386  0.4478
  338MPD2    C1 5121   4.637   1.880   0.634 -1.2551 -0.0042  0.8659
  338MPD2    C2 5122   4.516   1.893   0.565 -0.6583  0.1386 -0.8659
  338MPD2    C3 5123   4.413   1.969   0.620  0.6894 -0.4286  0.4351
  338MPD2    C4 5124   4.432   2.031   0.739  0.7666  0.1789 -0.4780
  338MPD2    C5 5125   4.551   2.020   0.808 -0.2205  0.6892  0.1279
  338MPD2     H 5126   4.507   1.853   0.465  1.2859 -2.7216  0.1256
  338MPD2    H1 5127   4.357   2.096   0.783 -0.6474 -0.4774 -1.9214
  338MPD2    H2 5128   0.012   1.940   0.809  2.4514  1.5007 -3.1386
  338MPD2    H3 5129   4.557   2.078   0.900  2.6548  1.5764 -0.6099
  338MPD2     N 5130   4.294   1.975   0.543 -0.2088  0.2716  0.6624
  338MPD2    H5 5131   4.288   1.922   0.457  0.2364  0.8418  0.2805
  338MPD2    N1 5132   0.006   1.810   0.563 -0.3349 -0.1577 -0.3548
  338MPD2    H7 5133   4.734   1.776   0.467  0.8279  1.4694 -1.0118
  339TMC3    C1 5134   4.070   2.039   0.499  0.0855 -0.4064 -0.0721
  339TMC3    C2 5135   4.044   1.905   0.480  0.0893  0.2051 -0.1617
  339TMC3    C3 5136   3.978   1.874   0.367  0.1384  0.9478 -0.2924
  339TMC3    C4 5137   4.037   2.138   0.414 -0.6601 -0.4230  0.3779
  339TMC3    C5 5138   3.982   2.097   0.293 -0.2461  0.2124 -0.6690
  339TMC3    C6 5139   3.950   1.966   0.276  0.1362  0.4512 -0.3575
  339TMC3     C 5140   4.194   2.064   0.573  0.5590  0.2808  0.1641
  339TMC3     O 5141   4.201   2.178   0.621 -0.2212  0.6724 -0.4439
  339TMC3     H 5142   4.082   1.832   0.551 -0.9284  0.5840  0.7707
  339TMC3    H1 5143   4.076   2.238   0.422 -0.7980 -0.3945  0.7232
  339TMC3    H2 5144   3.898   1.933   0.187 -0.9039 -1.0393  0.8140
  339TMC3    C7 5145   3.997   2.190   0.178 -0.0125  0.2162  0.4321
  339TMC3    C8 5146   3.949   1.734   0.344  0.0304  0.3317 -0.6711
  339TMC3    O1 5147   4.006   2.311   0.195 -0.5326  0.1398 -0.4017
  339TMC3    O2 5148   3.925   1.699   0.229 -0.0630 -0.7846  0.0337
  340MPD2     C 5149   4.216   4.510  10.682  0.5168 -0.6444 -0.3976
  340MPD2    C1 5150   4.308   4.532  10.584 -0.3398 -0.2641  0.4479
  340MPD2    C2 5151   4.381   4.653  10.598 -0.1622 -0.2539 -0.4079
  340MPD2    C3 5152   4.369   4.734  10.714 -0.7493  0.4647 -0.1093
  340MPD2    C4 5153   4.273   4.705  10.803  0.7710  0.2754 -0.3666
  340MPD2    C5 5154   4.186   4.605  10.777 -0.1243  0.0608  0.4215
  340MPD2     H 5155   4.458   4.676  10.525  0.5834 -0.8770  0.1792
  340MPD2    H1 5156   4.257   0.031  10.891  3.2230 -1.2921  1.1211
  340MPD2    H2 5157   4.154   4.421  10.680  0.1924 -0.4451  0.8635
  340MPD2    H3 5158   4.098   4.589  10.838  0.2995 -0.5217  0.8862
  340MPD2     N 5159   4.459   0.102  10.761 -0.6610  0.1552 -0.1883
  340MPD2    H5 5160   4.447   0.135  10.856 -0.3501  1.8943 -0.7501
  340MPD2    N1 5161   4.331   4.448  10.473 -0.0993  0.2340  0.1520
  340MPD2    H7 5162   4.392   4.482  10.400 -0.1556 -0.0358 -0.0205
  341TMC3    C1 5163   4.367   4.245  10.348  0.0936 -0.1490 -0.0398
  341TMC3    C2 5164   4.328   4.117  10.322 -0.3296  0.3479 -0.1232
  341TMC3    C3 5165   4.389   4.054  10.214 -0.4524 -0.0222 -0.3293
  341TMC3    C4 5166   4.456   4.310  10.267 -0.3450 -0.6932  0.5414
  341TMC3    C5 5167   4.519   4.238  10.168 -0.4793 -0.4134 -0.1271
  341TMC3    C6 5168   4.489   4.109  10.137 -0.5794 -0.5511  0.5446
  341TMC3     C 5169   4.295   4.315  10.458  0.3464  0.3150 -0.3425
  341TMC3     O 5170   4.211   4.255  10.517  0.3181 -0.3837  0.3001
  341TMC3     H 5171   4.251   4.077  10.387  2.4083 -1.4119  2.0514
  341TMC3    H1 5172   4.508   4.399  10.300 -1.0085 -0.1863  0.1984
  341TMC3    H2 5173   4.534   4.054  10.055  1.2644  0.3079  0.9615
  341TMC3    C7 5174   4.625   4.297  10.089  0.6077 -0.1730  0.0840
  341TMC3    C8 5175   4.343   3.924  10.177 -0.6906  0.5387 -0.0331
  341TMC3    O1 5176   4.688   4.216  10.019  0.1549 -0.4296  0.1374
  341TMC3    O2 5177   4.235   3.893  10.222  0.2955 -0.2975  0.1206
  342MPD2     C 5178   2.808   3.185  17.542  0.4983 -0.5613 -0.1497
  342MPD2    C1 5179   2.932   3.179  17.481 -0.2344 -0.3235 -0.3928
  342MPD2    C2 5180   3.012   3.292  17.473  0.8604 -0.7522 -0.0484
  342MPD2    C3 5181   2.973   3.411  17.516  0.1844  0.3292 -0.1576
  342MPD2    C4 5182   2.852   3.420  17.586 -0.8421  0.1448 -0.3188
  342MPD2    C5 5183   2.772   3.306  17.595 -0.2549 -0.7863 -0.2444
  342MPD2     H 5184   3.116   3.285  17.443  0.4965 -0.8093 -1.2949
  342MPD2    H1 5185   2.814   3.518  17.613  0.9384  0.7554 -0.0003
  342MPD2    H2 5186   2.744   3.098  17.541 -2.3233  1.5057  0.5301
  342MPD2    H3 5187   2.673   3.326  17.635  0.4462  2.5421 -0.2506
  342MPD2     N 5188   3.044   3.533  17.483  0.2165 -0.2860 -0.0890
  342MPD2    H5 5189   3.030   3.608  17.550  0.2603  0.4488 -0.9096
  342MPD2    N1 5190   2.986   3.055  17.435 -0.5100 -0.1175 -0.0607
  342MPD2    H7 5191   3.083   3.059  17.406 -0.6266 -0.5424 -0.5256
  343TMC3    C1 5192   3.000   2.838  17.354  0.2004  0.1110  0.5078
  343TMC3    C2 5193   3.093   2.877  17.257 -0.9867  0.0557  0.7867
  343TMC3    C3 5194   3.131   2.778  17.160 -0.0797  0.7896 -0.2327
  343TMC3    C4 5195   2.951   2.707  17.335  0.2210 -0.8397  0.0804
  343TMC3    C5 5196   2.990   2.623  17.237  1.1096  0.2849 -0.1411
  343TMC3    C6 5197   3.084   2.656  17.146  0.2198 -0.0950  0.0363
  343TMC3     C 5198   2.935   2.929  17.444 -0.1691 -0.1179  0.2568
  343TMC3     O 5199   2.827   2.893  17.498  1.2095  0.6261  0.3964
  343TMC3     H 5200   3.159   2.960  17.277  0.2048 -0.6483 -0.3076
  343TMC3    H1 5201   2.871   2.680  17.402  0.8753 -0.1733  1.1341
  343TMC3    H2 5202   3.117   2.578  17.078 -1.5799 -1.0845  0.2837
  343TMC3    C7 5203   2.961   2.482  17.255 -0.5466  0.3614  0.0421
  343TMC3    C8 5204   3.243   2.823  17.075  0.3247  0.0554  0.6102
  343TMC3    O1 5205   2.966   2.410  17.159  0.0232 -0.1512 -0.4184
  343TMC3    O2 5206   3.262   2.943  17.082  0.6789  0.4112 -0.1768
  344MPD2     C 5207   3.917   1.925  11.084 -0.4459  0.2089 -1.1205
  344MPD2    C1 5208   3.799   1.970  11.021  0.0760 -0.1114  0.5426
  344MPD2    C2 5209   3.811   2.052  10.911 -0.0188  0.5092  0.1686
  344MPD2    C3 5210   3.934   2.100  10.867 -0.3610  0.9105  0.2976
  344MPD2    C4 5211   4.045   2.070  10.940 -0.1038 -0.0470  0.0167
  344MPD2    C5 5212   4.035   1.984  11.045 -0.3361  0.4872  0.1389
  344MPD2     H 5213   3.719   2.083  10.862 -0.8608 -0.7337  0.9559
  344MPD2    H1 5214   4.143   2.098  10.904  0.0174  0.1427  0.4853
  344MPD2    H2 5215   3.915   1.848  11.160  0.7723 -0.3502 -1.6598
  344MPD2    H3 5216   4.131   1.965  11.092 -0.9295  1.1097  1.6103
  344MPD2     N 5217   3.960   2.173  10.749 -0.2396  0.6899 -0.0623
  344MPD2    H5 5218   4.053   2.190  10.712 -0.0305  1.3515  0.7550
  344MPD2    N1 5219   3.669   1.911  11.056  0.1441  0.5545  0.2240
  344MPD2    H7 5220   3.591   1.918  10.991  1.2494  2.3435 -0.9286
  345TMC3    C1 5221   3.932   2.322  10.576 -0.9393  0.2690 -0.0635
  345TMC3    C2 5222   3.926   2.453  10.599  0.1811  0.7196  0.6386
  345TMC3    C3 5223   3.964   2.528  10.487 -0.0698 -0.7880 -0.3434
  345TMC3    C4 5224   3.942   2.265  10.452 -0.3144  0.5041 -0.2289
  345TMC3    C5 5225   3.976   2.344  10.349 -0.3247  0.7752  0.6903
  345TMC3    C6 5226   3.994   2.478  10.363 -0.3247  0.2778  0.3608
  345TMC3     C 5227   3.865   2.237  10.673 -0.5849 -0.3740  0.0488
  345TMC3     O 5228   3.745   2.256  10.695  0.0980 -0.1460  0.2765
  345TMC3     H 5229   3.878   2.491  10.688 -0.0013  0.3621  0.6931
  345TMC3    H1 5230   3.943   2.157  10.448 -2.1229  0.5335 -1.2361
  345TMC3    H2 5231   4.009   2.544  10.278  0.8251  0.1511  0.4643
  345TMC3    C7 5232   3.952   2.312  10.205  0.1107 -0.1233  0.7099
  345TMC3    C8 5233   3.945   2.670  10.496  0.1358 -0.0290 -0.8169
  345TMC3    O1 5234   4.004   2.375  10.113 -0.2714 -0.0153  0.1548
  345TMC3    O2 5235   3.857   2.705  10.571 -0.6004  0.3034 -0.2519
  346MPD2     C 5236   3.842   4.450  14.911  0.4795  0.1053  1.1837
  346MPD2    C1 5237   3.904   4.409  14.798 -0.0910  0.3336 -0.3915
  346MPD2    C2 5238   4.038   4.434  14.780  0.3386 -0.6062  0.0597
  346MPD2    C3 5239   4.097   4.527  14.865 -0.1318  0.6025  0.0826
  346MPD2    C4 5240   4.030   4.590  14.963 -0.1360 -0.2122  0.4042
  346MPD2    C5 5241   3.903   4.543  14.991  0.2558  0.0788  0.8035
  346MPD2     H 5242   4.094   4.383  14.703  0.5197  1.0529 -0.9130
  346MPD2    H1 5243   4.079   4.665  15.023  0.5645 -3.7551  4.2466
  346MPD2    H2 5244   3.742   4.413  14.931 -0.0206  2.0911  2.3915
  346MPD2    H3 5245   3.854   4.571  15.084  0.3850 -2.2506  1.5743
  346MPD2     N 5246   4.235   4.554  14.835 -0.1280  0.1697  0.2970
  346MPD2    H5 5247   4.270   4.494  14.761 -0.7445  1.7031 -1.2436
  346MPD2    N1 5248   3.848   4.320  14.708 -0.4443  0.4224  0.7834
  346MPD2    H7 5249   3.894   4.307  14.618 -0.5452 -2.2769  1.1085
  347TMC3    C1 5250   4.435   4.678  14.818  0.0792  0.0253  0.5351
  347TMC3    C2 5251   4.434   4.646  14.685  0.5319  0.0376 -0.2388
  347TMC3    C3 5252   4.552   4.626  14.623  0.1329 -0.7287 -0.1989
  347TMC3    C4 5253   4.548   4.703  14.890  0.8895  0.3444 -0.0534
  347TMC3    C5 5254   4.668   4.690  14.818 -0.1997 -0.2028  0.8227
  347TMC3    C6 5255   4.672   4.667  14.680 -0.0547  0.2911 -0.2177
  347TMC3     C 5256   4.313   4.651  14.894  0.4524 -0.2492  0.2033
  347TMC3     O 5257   4.301   4.713  15.001  0.3523  0.5357 -0.0497
  347TMC3     H 5258   4.343   4.641  14.627  0.1705  0.7125  0.2702
  347TMC3    H1 5259   4.533   4.728  14.994 -1.6321  1.1864 -0.6272
  347TMC3    H2 5260   0.032   4.626  14.647 -1.0063 -2.1136  0.0146
  347TMC3    C7 5261   0.056   4.717  14.884  0.2784  0.0604  0.6630
  347TMC3    C8 5262   4.544   4.522  14.525  0.3069 -0.0507  0.4604
  347TMC3    O1 5263   0.143   0.018  14.807 -0.4325  0.6687  0.0399
  347TMC3    O2 5264   4.631   4.436  14.531  0.8597 -0.1069 -0.5673
  348MPD2     C 5265   2.408   3.187  12.020 -1.0137  0.2773 -0.6652
  348MPD2    C1 5266   2.458   3.316  12.050  0.1274 -0.5369  0.3690
  348MPD2    C2 5267   2.395   3.426  11.992 -0.0712  0.6040 -0.2984
  348MPD2    C3 5268   2.300   3.406  11.895  0.1969  0.7096  0.4479
  348MPD2    C4 5269   2.267   3.281  11.855 -0.0642 -0.0831 -0.4858
  348MPD2    C5 5270   2.314   3.171  11.915  0.6653 -0.0377  0.1339
  348MPD2     H 5271   2.424   3.527  12.015 -0.2670 -0.0647  2.8354
  348MPD2    H1 5272   2.194   3.267  11.777  0.6306 -1.4099 -0.8862
  348MPD2    H2 5273   2.447   3.097  12.065  2.9982  2.5846  0.4397
  348MPD2    H3 5274   2.270   3.077  11.883  1.2289 -0.3089  0.1424
  348MPD2     N 5275   2.238   3.522  11.837 -0.3325 -0.3145 -0.3041
  348MPD2    H5 5276   2.270   3.613  11.869 -0.2959 -0.5867  0.4360
  348MPD2    N1 5277   2.558   3.324  12.151  0.2440 -0.5422 -0.1107
  348MPD2    H7 5278   2.600   3.235  12.172  0.4116 -0.4288  0.0307
  349TMC3    C1 5279   2.765   3.414  12.182 -0.2096 -0.0200 -0.3683
  349TMC3    C2 5280   2.786   3.283  12.196  0.2188 -0.3553  0.1070
  349TMC3    C3 5281   2.853   3.220  12.097  0.2720 -0.1319  0.2715
  349TMC3    C4 5282   2.813   3.481  12.076  0.2593  0.1465  0.4227
  349TMC3    C5 5283   2.866   3.409  11.970  0.0947  0.2954  0.3007
  349TMC3    C6 5284   2.887   3.277  11.983 -0.1561  0.0087  0.5998
  349TMC3     C 5285   2.622   3.438  12.181  0.5823 -0.2551 -0.1906
  349TMC3     O 5286   2.589   3.557  12.179 -0.0506  0.9312  0.4304
  349TMC3     H 5287   2.751   3.239  12.288 -1.9720  1.8863  0.3520
  349TMC3    H1 5288   2.800   3.588  12.070 -2.5343 -0.2163  0.3430
  349TMC3    H2 5289   2.927   3.223  11.898 -2.6157 -1.3295  0.3170
  349TMC3    C7 5290   2.792   3.418  11.842 -0.4116 -0.7482  0.0736
  349TMC3    C8 5291   2.860   3.076  12.122  0.0769  0.1244  0.4170
  349TMC3    O1 5292   2.721   3.330  11.804  0.2039  0.8973  0.2688
  349TMC3    O2 5293   2.793   3.026  12.209 -0.7282 -0.1060  0.2484
  350MPD2     C 5294   1.069   1.466   9.893  0.0091  0.1324  0.2735
  350MPD2    C1 5295   1.058   1.340   9.945 -0.2810 -0.0063 -0.5397
  350MPD2    C2 5296   1.175   1.271   9.975 -0.5178  0.3767  0.0125
  350MPD2    C3 5297   1.294   1.331   9.969 -0.2072 -0.6470 -0.4420
  350MPD2    C4 5298   1.307   1.460   9.912 -0.3112 -0.3984 -0.0998
  350MPD2    C5 5299   1.189   1.517   9.869  0.2356  0.0774  0.1467
  350MPD2     H 5300   1.167   1.171  10.016 -1.1064  0.0335 -0.9497
  350MPD2    H1 5301   1.396   1.519   9.895 -0.7500  0.1152 -0.6086
  350MPD2    H2 5302   0.987   1.525   9.856 -0.5082 -1.7536 -1.5714
  350MPD2    H3 5303   1.192   1.615   9.823  1.5155 -0.0188  0.0228
  350MPD2     N 5304   1.406   1.266  10.036 -0.0588 -0.2142 -0.3518
  350MPD2    H5 5305   1.386   1.176  10.080 -0.7172 -0.5218 -1.2913
  350MPD2    N1 5306   0.936   1.269   9.955  0.3658 -0.0107  0.1489
  350MPD2    H7 5307   0.931   1.171   9.982  0.7986  0.2955  1.3424
  351TMC3    C1 5308   0.727   1.232   9.882  0.4520 -0.6245  0.7142
  351TMC3    C2 5309   0.764   1.109   9.839 -0.1755 -0.8190 -0.5046
  351TMC3    C3 5310   0.668   1.027   9.785  0.3988 -0.1911 -0.0524
  351TMC3    C4 5311   0.595   1.279   9.873  0.1795 -0.5607  0.2022
  351TMC3    C5 5312   0.497   1.190   9.837  0.4328  0.2931 -0.1098
  351TMC3    C6 5313   0.530   1.059   9.795  0.1275  0.0969 -0.2247
  351TMC3     C 5314   0.820   1.329   9.930  0.8774  0.4813  0.1989
  351TMC3     O 5315   0.788   1.444   9.940  0.1341  0.4475 -0.2553
  351TMC3     H 5316   0.870   1.092   9.822  0.3243  0.3199  1.4466
  351TMC3    H1 5317   0.569   1.382   9.895 -0.0779 -0.3973 -0.9123
  351TMC3    H2 5318   0.453   0.993   9.758 -0.0293  0.2615 -0.1951
  351TMC3    C7 5319   0.360   1.220   9.859 -0.2428  0.0886 -0.4222
  351TMC3    C8 5320   0.701   0.917   9.696  0.1195 -0.2396 -0.0762
  351TMC3    O1 5321   0.325   1.339   9.857  0.3205 -1.0553  0.2913
  351TMC3    O2 5322   0.609   0.899   9.617  0.0379 -0.1452  0.3276
  352MPD2     C 5323   4.241   3.506   1.451  0.1697  0.1655  0.0508
  352MPD2    C1 5324   4.225   3.438   1.328  0.0526  0.5748 -0.1562
  352MPD2    C2 5325   4.284   3.314   1.307 -0.1400 -0.0422 -0.4352
  352MPD2    C3 5326   4.336   3.253   1.416  0.4749  0.0252 -0.4623
  352MPD2    C4 5327   4.333   3.308   1.542 -0.4177  0.3213 -0.1623
  352MPD2    C5 5328   4.292   3.437   1.555 -0.5368  0.0246  0.3278
  352MPD2     H 5329   4.285   3.268   1.208 -0.5161  2.3412 -1.5410
  352MPD2    H1 5330   4.362   3.249   1.629  2.5267 -0.1501 -1.4563
  352MPD2    H2 5331   4.199   3.605   1.460  1.9852  1.3323 -4.1603
  352MPD2    H3 5332   4.297   3.490   1.650 -1.5384  0.6439  0.0365
  352MPD2     N 5333   4.388   3.123   1.409  0.0524 -0.0986 -0.4232
  352MPD2    H5 5334   4.434   3.085   1.492  1.3213  0.7129 -0.7517
  352MPD2    N1 5335   4.154   3.513   1.232 -0.5615 -0.1119  0.8064
  352MPD2    H7 5336   4.114   3.594   1.277  2.6859  1.2936  1.1469
  353TMC3    C1 5337   4.412   2.899   1.333  0.4879  0.1313 -0.2181
  353TMC3    C2 5338   4.542   2.892   1.374 -0.0570  0.0279  0.5085
  353TMC3    C3 5339   4.596   2.770   1.362 -0.1012  0.3952  0.4450
  353TMC3    C4 5340   4.352   2.793   1.269  0.7078  0.2382  0.1495
  353TMC3    C5 5341   4.413   2.670   1.263 -0.1465 -0.2222  0.6482
  353TMC3    C6 5342   4.543   2.654   1.308  0.1084 -0.0655 -0.0793
  353TMC3     C 5343   4.363   3.034   1.312 -0.1848 -0.2981 -0.3501
  353TMC3     O 5344   4.300   3.042   1.208 -0.2144 -0.4671  0.3156
  353TMC3     H 5345   4.592   2.977   1.418  2.5538 -1.4701  0.4471
  353TMC3    H1 5346   4.246   2.803   1.252  0.8564 -1.5592 -1.8592
  353TMC3    H2 5347   4.595   2.560   1.296  2.5660  1.6575 -2.8572
  353TMC3    C7 5348   4.358   2.568   1.180 -0.4701 -0.8859 -0.1060
  353TMC3    C8 5349   0.005   2.761   1.405 -0.3672 -1.1492 -0.2167
  353TMC3    O1 5350   4.432   2.482   1.131  0.1421 -0.3456  0.1310
  353TMC3    O2 5351   0.054   2.852   1.471  0.3902  0.0057 -0.4778
  354TMC3    C1 5352   1.276   4.665  13.443 -0.0467 -0.2756 -0.6385
  354TMC3    C2 5353   1.294   0.052  13.385 -0.2376  0.5393  0.1389
  354TMC3    C3 5354   1.260   0.067  13.252 -0.2269  0.0349  0.0760
  354TMC3    C4 5355   1.226   4.557  13.371  0.1594 -0.1828  0.5181
  354TMC3    C5 5356   1.209   4.571  13.240  0.4271  0.8718  0.3924
  354TMC3    C6 5357   1.212   4.697  13.185  0.4586  0.0852  0.1940
  354TMC3     C 5358   1.316   4.639  13.581 -0.3253  0.1150 -0.5601
  354TMC3     O 5359   1.324   4.520  13.621 -0.1808 -0.6998 -0.7423
  354TMC3     H 5360   1.355   0.126  13.435 -1.0539 -0.2193  2.2267
  354TMC3    H1 5361   1.246   4.458  13.410 -2.0518 -0.9899 -0.4138
  354TMC3    H2 5362   1.179   4.713  13.083 -0.2647 -1.4652  0.1723
  354TMC3    C7 5363   1.294   4.479  13.164  0.8745  1.0003  0.7274
  354TMC3    C8 5364   1.304   0.181  13.177 -1.1385  0.3219 -0.6225
  354TMC3    O1 5365   1.277   4.362  13.189 -0.7584 -0.4775  0.1787
  354TMC3    O2 5366   1.343   0.160  13.062  0.7658 -0.4910  0.5199
  355MPD2     C 5367   1.407   0.799  11.799 -0.5269 -0.2656 -0.4920
  355MPD2    C1 5368   1.479   0.832  11.688  0.4249  0.3263  0.1757
  355MPD2    C2 5369   1.618   0.843  11.700 -0.1953  0.1919 -0.0076
  355MPD2    C3 5370   1.681   0.789  11.815 -0.5008  0.5380 -0.8352
  355MPD2    C4 5371   1.604   0.741  11.922  0.0712  0.3794  0.2623
  355MPD2    C5 5372   1.470   0.762  11.915  0.2329 -0.1630  0.2718
  355MPD2     H 5373   1.681   0.870  11.615 -1.0844  1.7542 -0.1704
  355MPD2    H1 5374   1.650   0.702  12.012 -0.1966  0.6272  0.5077
  355MPD2    H2 5375   1.300   0.813  11.805 -0.3638 -0.2630  2.2008
  355MPD2    H3 5376   1.405   0.747  12.000 -1.7290  1.2151 -0.9912
  355MPD2     N 5377   1.819   0.809  11.841 -0.0054 -0.2855 -0.5288
  355MPD2    H5 5378   1.849   0.758  11.923 -3.2354  1.3026  1.6436
  355MPD2    N1 5379   1.401   0.875  11.579 -0.8809 -0.0735  0.0629
  355MPD2    H7 5380   1.303   0.859  11.599 -1.1814 -0.7034 -1.8377
  356TMC3    C1 5381   2.044   0.871  11.816 -0.4604 -0.2734  0.1336
  356TMC3    C2 5382   2.142   0.900  11.728 -0.6857 -0.1332 -0.1225
  356TMC3    C3 5383   2.255   0.964  11.768  0.0316  0.3241 -0.4416
  356TMC3    C4 5384   2.064   0.893  11.949  0.4985 -0.0701 -0.4580
  356TMC3    C5 5385   2.175   0.963  11.987  0.4266  0.2916 -0.3881
  356TMC3    C6 5386   2.269   1.008  11.898  0.2605  0.2169 -0.1053
  356TMC3     C 5387   1.909   0.859  11.753 -0.3390  0.1104 -0.0723
  356TMC3     O 5388   1.908   0.876  11.630  0.2483  0.0109 -0.4326
  356TMC3     H 5389   2.125   0.882  11.622 -2.9372 -1.0810  0.4135
  356TMC3    H1 5390   1.990   0.879  12.027  1.2266 -0.8994  0.0736
  356TMC3    H2 5391   2.359   1.056  11.933  0.9486 -2.5106  1.8502
  356TMC3    C7 5392   2.207   0.977  12.126  0.6041  0.2392 -0.3359
  356TMC3    C8 5393   2.338   1.019  11.661 -0.7609  0.3883 -0.6711
  356TMC3    O1 5394   2.147   0.904  12.208 -0.0098  0.1829  0.3381
  356TMC3    O2 5395   2.306   0.987  11.547  0.1778 -0.5129  0.5411
  357MPD2     C 5396   1.214   0.787   1.249 -0.0537 -0.1665 -0.2472
  357MPD2    C1 5397   1.270   0.678   1.303  0.3437  0.0199  0.1178
  357MPD2    C2 5398   1.202   0.612   1.393 -1.1701  0.1081 -0.2141
  357MPD2    C3 5399   1.071   0.645   1.430  0.7481  0.0174  0.2825
  357MPD2    C4 5400   1.026   0.762   1.376 -0.0926  0.2287  0.0741
  357MPD2    C5 5401   1.097   0.830   1.283 -0.8536 -0.1809  0.4905
  357MPD2     H 5402   1.245   0.521   1.434 -2.4096  0.1034  1.1084
  357MPD2    H1 5403   0.929   0.803   1.404  0.3135  1.3887 -0.2154
  357MPD2    H2 5404   1.258   0.849   1.172  4.4116 -1.4493  1.2710
  357MPD2    H3 5405   1.065   0.923   1.237 -0.6759 -0.8963 -1.0699
  357MPD2     N 5406   0.991   0.560   1.509 -0.4923 -0.0989 -0.4844
  357MPD2    H5 5407   0.890   0.571   1.504 -0.3945  1.1495  0.3182
  357MPD2    N1 5408   1.393   0.631   1.252 -0.1435  0.3985  0.2662
  357MPD2    H7 5409   1.433   0.682   1.174  0.4417  0.7754  0.8218
  358TMC3    C1 5410   1.596   0.505   1.227 -1.1966  0.0464  0.5853
  358TMC3    C2 5411   1.585   0.522   1.093  0.4329 -0.6624 -0.0178
  358TMC3    C3 5412   1.700   0.504   1.028  0.4353  0.5996  0.0033
  358TMC3    C4 5413   1.709   0.471   1.293 -0.7752  0.6414 -1.0260
  358TMC3    C5 5414   1.819   0.460   1.216 -0.3689 -0.2880 -0.5494
  358TMC3    C6 5415   1.816   0.490   1.083  0.4710 -0.5457 -0.4021
  358TMC3     C 5416   1.472   0.532   1.306 -0.9688  0.0834  0.0824
  358TMC3     O 5417   1.454   0.476   1.416 -0.3410 -0.5962  0.2811
  358TMC3     H 5418   1.489   0.523   1.042  1.2519  2.8539 -1.5113
  358TMC3    H1 5419   1.709   0.453   1.400  1.5872  0.3963 -1.0767
  358TMC3    H2 5420   1.901   0.466   1.020 -0.2393 -1.3595 -1.0301
  358TMC3    C7 5421   1.945   0.470   1.277  0.7363  0.2265 -0.4819
  358TMC3    C8 5422   1.682   0.479   0.889 -0.1680 -0.0332 -0.5171
  358TMC3    O1 5423   2.023   0.544   1.220 -0.1648  0.6873 -0.0405
  358TMC3    O2 5424   1.601   0.395   0.856 -0.2790  0.2084 -0.0254
  359MPD2     C 5425   2.007   3.614  12.074  0.3284  0.4617  0.3927
  359MPD2    C1 5426   1.899   3.691  12.048 -0.2791 -0.3620 -0.9387
  359MPD2    C2 5427   1.777   3.629  12.026 -0.0804 -0.1640  0.8229
  359MPD2    C3 5428   1.761   3.496  12.028  0.4429 -0.3124  0.0416
  359MPD2    C4 5429   1.869   3.415  12.037 -0.7557 -0.3909  0.1538
  359MPD2    C5 5430   1.991   3.475  12.066  0.0132  0.1379 -0.1523
  359MPD2     H 5431   1.691   3.692  12.008  0.0562 -0.2254 -0.0282
  359MPD2    H1 5432   1.860   3.307  12.038  0.7322 -0.5041  0.5573
  359MPD2    H2 5433   2.109   3.647  12.091  1.3343 -1.3411 -2.0855
  359MPD2    H3 5434   2.082   3.418  12.057 -1.3283 -1.8162 -1.1656
  359MPD2     N 5435   1.634   3.431  12.021 -0.4632  0.1229  0.2989
  359MPD2    H5 5436   1.638   3.330  12.019 -0.6050  0.0557  3.3692
  359MPD2    N1 5437   1.901   3.835  12.029 -0.1014 -0.8885  0.8346
  359MPD2    H7 5438   1.812   3.878  12.006 -0.3735 -0.4385  2.7624
  360TMC3    C1 5439   1.985   4.053  12.000  0.5301 -0.1539 -0.0866
  360TMC3    C2 5440   2.092   4.143  12.009 -0.0511 -0.3933 -0.5740
  360TMC3    C3 5441   2.096   4.245  11.915 -0.4005  0.1145 -0.3709
  360TMC3    C4 5442   1.875   4.088  11.926 -0.3861  0.2115  0.9961
  360TMC3    C5 5443   1.880   4.198  11.853 -0.2941  0.0892  0.3501
  360TMC3    C6 5444   1.991   4.281  11.841 -0.2977  0.2136 -0.9275
  360TMC3     C 5445   2.013   3.918  12.035  0.4593  0.1342 -0.4547
  360TMC3     O 5446   2.127   3.885  12.070 -0.2125 -0.3288 -0.3852
  360TMC3     H 5447   2.184   4.102  12.049 -0.2407  0.4478  0.7149
  360TMC3    H1 5448   1.794   4.019  11.905  0.7601 -0.9464  0.3077
  360TMC3    H2 5449   2.005   4.343  11.753 -1.1863  1.8157  0.0579
  360TMC3    C7 5450   1.798   4.189  11.736 -0.4905  0.7310  0.0133
  360TMC3    C8 5451   2.229   4.287  11.888  0.6643 -0.2287 -0.2499
  360TMC3    O1 5452   1.860   4.147  11.642  0.1412  0.0575  0.3279
  360TMC3    O2 5453   2.324   4.215  11.919  0.1061  0.3066 -0.5099
  361MPD2     C 5454   4.163   3.579  16.851  0.0348 -0.1547 -0.5054
  361MPD2    C1 5455   4.166   3.474  16.758  0.3863  0.2073 -0.3572
  361MPD2    C2 5456   4.244   3.364  16.789  0.0675  0.6432 -0.1707
  361MPD2    C3 5457   4.310   3.350  16.909  0.6948 -0.3841  0.0312
  361MPD2    C4 5458   4.313   3.461  16.989  0.1811  0.4639  0.6976
  361MPD2    C5 5459   4.253   3.579  16.951  0.5938  0.2956  0.7693
  361MPD2     H 5460   4.241   3.283  16.717  1.5954  0.5500 -0.1325
  361MPD2    H1 5461   4.366   3.466  17.084  1.9592  2.6280 -0.4071
  361MPD2    H2 5462   4.105   3.670  16.841 -1.3786 -1.3380 -3.1325
  361MPD2    H3 5463   4.275   3.668  17.009 -0.4721  1.2540 -0.3115
  361MPD2     N 5464   4.381   3.240  16.946 -1.1258 -0.2754  0.2358
  361MPD2    H5 5465   4.432   3.236  17.033  0.3603 -0.1868 -0.6459
  361MPD2    N1 5466   4.083   3.469  16.645  0.5466  0.0462 -0.3797
  361MPD2    H7 5467   4.069   3.376  16.608  2.5470 -0.0886 -0.7927
  362TMC3    C1 5468   3.912   3.507  16.501 -0.2288  0.4340  0.0765
  362TMC3    C2 5469   3.861   3.384  16.543 -0.7520  0.5318  0.0033
  362TMC3    C3 5470   3.740   3.357  16.495 -0.4891 -0.2094 -0.0655
  362TMC3    C4 5471   3.847   3.595  16.415 -0.2912 -0.4904 -0.6766
  362TMC3    C5 5472   3.730   3.551  16.359 -0.9059 -0.9355 -0.2399
  362TMC3    C6 5473   3.673   3.441  16.410  0.4377  0.5477  0.1246
  362TMC3     C 5474   4.008   3.565  16.589 -0.6105 -0.0083 -0.4019
  362TMC3     O 5475   4.014   3.687  16.602  0.1428  0.4649  0.2122
  362TMC3     H 5476   3.900   3.325  16.626  0.9518  1.7839  0.0943
  362TMC3    H1 5477   3.886   3.696  16.408  1.3731 -1.0895  0.0985
  362TMC3    H2 5478   3.585   3.395  16.365  1.0528  1.0076 -1.5419
  362TMC3    C7 5479   3.629   3.655  16.341 -0.1484 -0.1006  0.3911
  362TMC3    C8 5480   3.653   3.310  16.600 -0.1446 -0.4648 -0.1829
  362TMC3    O1 5481   3.676   3.766  16.354  0.0806 -0.3082  0.5780
  362TMC3    O2 5482   3.691   3.214  16.666 -0.2100 -0.0833  0.5195
  363TMC3    C1 5483   1.145   4.725   8.712  0.5422 -0.5392  0.3365
  363TMC3    C2 5484   1.258   0.048   8.766 -0.3100 -0.2123  0.0958
  363TMC3    C3 5485   1.259   0.186   8.786 -0.0703  0.0951 -0.3541
  363TMC3    C4 5486   1.025   0.059   8.705 -0.8137 -0.2437  0.1418
  363TMC3    C5 5487   1.032   0.196   8.725 -0.1375  0.3087 -0.1232
  363TMC3    C6 5488   1.148   0.261   8.762 -0.0008  0.7941 -0.6556
  363TMC3     C 5489   1.153   4.602   8.632 -0.7100 -0.2852 -0.1135
  363TMC3     O 5490   1.265   4.556   8.615  0.7513 -0.3231 -0.0307
  363TMC3     H 5491   1.350   4.725   8.765 -0.5639 -0.5997 -1.2746
  363TMC3    H1 5492   0.930   0.017   8.675  0.4529 -1.6267 -1.9187
  363TMC3    H2 5493   1.159   0.369   8.760  2.6132  0.5183 -1.6149
  363TMC3    C7 5494   0.910   0.268   8.723  0.2057  0.0500  0.4362
  363TMC3    C8 5495   1.344   0.241   8.889 -0.1345  0.2174 -0.0205
  363TMC3    O1 5496   0.803   0.210   8.694 -0.6675 -0.2829 -0.3953
  363TMC3    O2 5497   1.334   0.357   8.915  0.3656  0.3349 -0.1807
  364MPD2     C 5498   0.760   0.660  10.865  0.3509  0.0331 -0.1574
  364MPD2    C1 5499   0.820   0.649  10.737 -0.2248 -0.2702 -0.4781
  364MPD2    C2 5500   0.807   0.532  10.673 -0.1952  0.4638  0.3096
  364MPD2    C3 5501   0.755   0.419  10.735  0.5633 -0.3082 -0.2880
  364MPD2    C4 5502   0.714   0.427  10.869  0.2856 -0.3562 -0.5035
  364MPD2    C5 5503   0.703   0.553  10.924 -0.3987  0.1699  0.7791
  364MPD2     H 5504   0.837   0.519  10.570  0.3735  1.6269  0.3345
  364MPD2    H1 5505   0.668   0.343  10.920  1.3486 -0.2602  0.6270
  364MPD2    H2 5506   0.762   0.755  10.917  2.3557 -0.5781  0.9167
  364MPD2    H3 5507   0.655   0.578  11.018 -2.1331  0.3730 -0.1595
  364MPD2     N 5508   0.763   0.290  10.679  0.4823  0.2505  0.4930
  364MPD2    H5 5509   0.726   0.218  10.741 -1.9365  2.8652  2.1223
  364MPD2    N1 5510   0.876   0.755  10.661 -0.2413 -0.3629  0.2119
  364MPD2    H7 5511   0.857   0.845  10.703  3.3116 -0.0767  1.1915
  365TMC3    C1 5512   1.016   0.866  10.508  0.0947  0.4004  0.4903
  365TMC3    C2 5513   1.116   0.862  10.412  0.1679 -0.2545 -0.4080
  365TMC3    C3 5514   1.145   0.977  10.346 -0.4471 -0.1218  1.0828
  365TMC3    C4 5515   0.970   0.989  10.545 -0.4688 -0.1623 -0.2756
  365TMC3    C5 5516   1.011   1.106  10.475 -0.2232  0.6251  0.0725
  365TMC3    C6 5517   1.096   1.095  10.369  0.6670 -0.4477 -0.0541
  365TMC3     C 5518   0.956   0.741  10.548  0.1610 -0.1249 -0.2333
  365TMC3     O 5519   1.007   0.642  10.498  0.1586 -0.5778  0.0523
  365TMC3     H 5520   1.163   0.772  10.376  0.1113 -0.0826 -0.9118
  365TMC3    H1 5521   0.893   0.999  10.620  0.6795 -2.8461  1.2807
  365TMC3    H2 5522   1.142   1.183  10.325  2.3362 -0.7529  1.0951
  365TMC3    C7 5523   0.984   1.233  10.526 -1.3602 -0.7383 -0.5566
  365TMC3    C8 5524   1.215   0.960  10.224 -0.2245 -0.8713  0.0490
  365TMC3    O1 5525   1.004   1.327  10.450  0.5244  0.1691 -0.5284
  365TMC3    O2 5526   1.306   1.037  10.192  0.2103  0.0292 -0.2888
  366MPD2     C 5527   4.043   2.826  15.687 -1.2438  1.2206 -0.9720
  366MPD2    C1 5528   4.124   2.879  15.588 -0.0649  0.7852 -0.4393
  366MPD2    C2 5529   4.127   2.816  15.466 -0.1177  0.5499 -0.0548
  366MPD2    C3 5530   4.050   2.702  15.444 -0.3301 -0.9591 -0.0397
  366MPD2    C4 5531   3.963   2.661  15.541 -0.2355  0.0872 -0.4541
  366MPD2    C5 5532   3.960   2.726  15.662  0.1896 -0.5779  0.2131
  366MPD2     H 5533   4.211   2.830  15.399 -0.1702 -1.2615 -0.5078
  366MPD2    H1 5534   3.911   2.570  15.513 -0.2061  0.2485 -1.0407
  366MPD2    H2 5535   4.036   2.865  15.788  1.9915  0.3896 -0.4255
  366MPD2    H3 5536   3.892   2.699  15.743  1.4780  1.9887  2.1636
  366MPD2     N 5537   4.074   2.632  15.321 -0.0714 -0.4101  0.3878
  366MPD2    H5 5538   4.158   2.642  15.265 -1.0957  1.3925 -0.8332
  366MPD2    N1 5539   4.225   2.978  15.608 -0.5093 -0.3514 -0.7495
  366MPD2    H7 5540   4.281   3.000  15.526  1.2051  0.2658  0.5844
  367TMC3    C1 5541   4.408   3.096  15.698  0.1595  0.5398 -0.0960
  367TMC3    C2 5542   4.517   3.042  15.757  0.9215  0.0665 -0.1779
  367TMC3    C3 5543   4.618   2.999  15.678 -0.6750 -0.0529 -0.2389
  367TMC3    C4 5544   4.421   3.132  15.562 -0.5627 -0.8932 -0.1912
  367TMC3    C5 5545   4.530   3.094  15.484 -0.5817 -0.1501 -0.3381
  367TMC3    C6 5546   4.625   3.024  15.542 -0.1635  0.0003 -0.3422
  367TMC3     C 5547   4.281   3.029  15.727 -0.6432 -0.0976 -0.0098
  367TMC3     O 5548   4.251   3.003  15.840 -0.2097 -0.0728 -0.0884
  367TMC3     H 5549   4.510   3.015  15.861  0.4668  0.5538 -0.0854
  367TMC3    H1 5550   4.341   3.192  15.519  0.6906  0.7839 -0.1823
  367TMC3    H2 5551   4.716   2.991  15.494  0.9189  3.1995 -0.4442
  367TMC3    C7 5552   4.473   3.046  15.361  0.5898 -0.0610 -0.7128
  367TMC3    C8 5553   0.010   2.952  15.749 -0.9316  0.4245 -0.1360
  367TMC3    O1 5554   4.385   3.114  15.310 -0.2017 -0.0234 -0.0172
  367TMC3    O2 5555   0.092   2.890  15.681  0.2522 -0.2651 -0.0106
  368MPD2     C 5556   0.433   3.565  13.356  1.0476  0.1670 -0.2957
  368MPD2    C1 5557   0.474   3.665  13.271  0.5120 -0.1332  0.6125
  368MPD2    C2 5558   0.570   3.639  13.175  0.4987  0.3584 -0.9242
  368MPD2    C3 5559   0.616   3.512  13.145  0.0592 -0.8146  0.2485
  368MPD2    C4 5560   0.554   3.412  13.217  0.2708 -0.4620  0.6261
  368MPD2    C5 5561   0.465   3.435  13.315  0.6782  0.3877 -0.4616
  368MPD2     H 5562   0.617   3.724  13.127  1.7921 -0.9502 -1.9666
  368MPD2    H1 5563   0.583   3.311  13.188  0.0371 -0.7391  1.3587
  368MPD2    H2 5564   0.362   3.579  13.437  2.3445 -1.3711  1.1109
  368MPD2    H3 5565   0.416   3.350  13.361 -0.6163  1.2179 -0.2827
  368MPD2     N 5566   0.707   3.484  13.044  0.0786  0.7841 -0.8796
  368MPD2    H5 5567   0.709   3.384  13.028  0.1977  1.0006 -2.2062
  368MPD2    N1 5568   0.408   3.795  13.284  0.5815 -0.3799  0.3298
  368MPD2    H7 5569   0.332   3.812  13.348  0.3116  0.6488 -0.2688
  369TMC3    C1 5570   0.309   3.982  13.193 -0.2175 -0.1515  0.5921
  369TMC3    C2 5571   0.332   4.086  13.103  0.1190 -0.0940 -0.6428
  369TMC3    C3 5572   0.230   4.119  13.015 -0.4277 -0.3874  1.2881
  369TMC3    C4 5573   0.189   3.921  13.198 -0.2353 -0.4260 -0.4045
  369TMC3    C5 5574   0.094   3.966  13.104  0.2248 -0.2458 -0.5828
  369TMC3    C6 5575   0.106   4.063  13.018 -0.6556  0.0460  0.0911
  369TMC3     C 5576   0.423   3.893  13.191  0.6747 -0.7110  0.1897
  369TMC3     O 5577   0.498   3.905  13.099 -0.2898 -0.0575 -0.2366
  369TMC3     H 5578   0.432   4.128  13.094  0.7984 -1.3774  0.8363
  369TMC3    H1 5579   0.165   3.837  13.263  1.1762 -0.8406 -0.4074
  369TMC3    H2 5580   0.028   4.090  12.948 -0.3148 -0.5154 -0.5045
  369TMC3    C7 5581   4.699   3.916  13.126 -0.4126 -0.1396  0.1517
  369TMC3    C8 5582   0.283   4.126  12.883 -0.5707  0.2299 -0.7585
  369TMC3    O1 5583   4.693   3.807  13.177  0.1798  0.1666 -0.5054
  369TMC3    O2 5584   0.226   4.205  12.806 -0.2576  0.2716 -0.4198
  370TMC3    C1 5585   0.655   4.476  16.302 -0.4247 -0.3428 -0.0478
  370TMC3    C2 5586   0.565   4.425  16.390 -0.7536 -0.7439  0.3916
  370TMC3    C3 5587   0.476   4.328  16.352 -0.6018  0.1437  0.9391
  370TMC3    C4 5588   0.668   4.427  16.177  0.3456  0.0789  0.5794
  370TMC3    C5 5589   0.584   4.328  16.142  1.0439  1.0940  0.1104
  370TMC3    C6 5590   0.492   4.278  16.227  0.7037  0.0221  0.4136
  370TMC3     C 5591   0.757   4.558  16.356 -0.0423 -0.2495 -0.5599
  370TMC3     O 5592   0.782   4.554  16.473 -0.1964 -0.1728  0.3433
  370TMC3     H 5593   0.562   4.464  16.491  1.9874 -0.7312  0.4897
  370TMC3    H1 5594   0.749   4.446  16.108 -1.9939 -0.0046 -2.1858
  370TMC3    H2 5595   0.428   4.196  16.194 -0.1837  0.3942  1.2415
  370TMC3    C7 5596   0.629   4.260  16.020  0.6360  0.1827  0.8100
  370TMC3    C8 5597   0.422   4.232  16.453  0.3237  0.3660 -0.0975
  370TMC3    O1 5598   0.671   4.332  15.929  0.3498  0.2089 -0.1482
  370TMC3    O2 5599   0.412   4.116  16.417  0.0364  0.4322  0.5891
  371TMC3    C1 5600   1.528   2.445  15.621  0.6950 -0.2779 -0.2326
  371TMC3    C2 5601   1.443   2.462  15.722 -0.7369 -0.0167  0.2503
  371TMC3    C3 5602   1.343   2.556  15.712 -0.4407  0.4523 -0.3738
  371TMC3    C4 5603   1.530   2.536  15.517 -0.0363  0.0462  0.9979
  371TMC3    C5 5604   1.440   2.633  15.507  0.3648  0.3827  0.1933
  371TMC3    C6 5605   1.344   2.642  15.601  0.4339  0.2586 -0.4696
  371TMC3     C 5606   1.626   2.343  15.640  0.4281 -0.3380 -0.8586
  371TMC3     O 5607   1.726   2.358  15.575  0.2306 -0.4015  0.1388
  371TMC3     H 5608   1.454   2.404  15.813  0.6455 -3.3473 -2.0198
  371TMC3    H1 5609   1.606   2.520  15.441 -0.7573 -0.1488  0.3215
  371TMC3    H2 5610   1.266   2.715  15.584 -0.1817  0.2306  2.1408
  371TMC3    C7 5611   1.467   2.750  15.429  0.0893 -0.9758  0.8993
  371TMC3    C8 5612   1.242   2.553  15.814  0.2525 -0.0404  0.3008
  371TMC3    O1 5613   1.434   2.862  15.471  1.2651  0.4815  0.0806
  371TMC3    O2 5614   1.232   2.449  15.881  0.7705  0.3150  0.2093
  372MPD2     C 5615   1.164   3.654  12.961  0.1707 -0.3947 -0.2543
  372MPD2    C1 5616   1.172   3.519  12.987 -0.7484  0.2177 -0.1869
  372MPD2    C2 5617   1.101   3.479  13.098 -0.5102  0.0727  0.1714
  372MPD2    C3 5618   1.028   3.560  13.181  0.2508  0.2067  0.5547
  372MPD2    C4 5619   1.028   3.691  13.156 -0.5356  0.2716 -0.3288
  372MPD2    C5 5620   1.091   3.738  13.041  0.2108 -0.1120 -0.0540
  372MPD2     H 5621   1.096   3.372  13.118 -0.3716  0.0875  0.2814
  372MPD2    H1 5622   0.970   3.765  13.211 -1.7650 -0.9240 -0.0129
  372MPD2    H2 5623   1.196   3.704  12.870  0.9356 -0.6878 -0.1478
  372MPD2    H3 5624   1.092   3.844  13.018  3.4631  0.1443  1.2689
  372MPD2     N 5625   0.969   3.496  13.288 -0.3670 -0.4762  0.1252
  372MPD2    H5 5626   0.989   3.397  13.300  0.4357 -0.3221  0.0376
  372MPD2    N1 5627   1.248   3.420  12.921  0.0147 -0.3332 -1.2758
  372MPD2    H7 5628   1.261   3.341  12.983  2.0819  0.6509 -0.4538
  373TMC3    C1 5629   0.810   3.468  13.460 -0.3371  0.3011  0.1070
  373TMC3    C2 5630   0.725   3.529  13.548  0.0569  0.3039 -1.3996
  373TMC3    C3 5631   0.666   3.444  13.642 -0.1361 -0.2601 -0.6806
  373TMC3    C4 5632   0.824   3.332  13.457 -0.1896 -0.2451  0.1634
  373TMC3    C5 5633   0.767   3.253  13.553  0.2129 -0.0654 -0.0390
  373TMC3    C6 5634   0.677   3.310  13.648  0.9018 -0.3219  0.0461
  373TMC3     C 5635   0.886   3.559  13.376 -0.5790  0.4501 -0.4381
  373TMC3     O 5636   0.854   3.681  13.381  0.3942 -0.2490 -0.1247
  373TMC3     H 5637   0.697   3.634  13.540  0.7661  0.4716 -1.6371
  373TMC3    H1 5638   0.894   3.281  13.392 -0.2615  0.7468 -0.6795
  373TMC3    H2 5639   0.632   3.259  13.733 -0.0472  0.6371  0.1186
  373TMC3    C7 5640   0.826   3.120  13.571 -0.2543 -0.0319  0.1146
  373TMC3    C8 5641   0.575   3.515  13.733  0.1929 -0.6421 -0.0292
  373TMC3    O1 5642   0.864   3.060  13.473 -0.4225  0.0662  0.0852
  373TMC3    O2 5643   0.502   3.601  13.684 -0.3005 -0.3877  0.0188
  374TMC3    C1 5644   0.981   3.841   9.956 -0.1186 -0.0045  0.8057
  374TMC3    C2 5645   1.097   3.899  10.000  0.6234  0.1978 -0.3532
  374TMC3    C3 5646   1.161   3.998   9.921 -0.1351  0.0913 -0.4898
  374TMC3    C4 5647   0.913   3.895   9.849 -0.3089 -0.3571  0.5411
  374TMC3    C5 5648   0.977   3.995   9.774 -0.2023 -0.9048 -0.4200
  374TMC3    C6 5649   1.092   4.050   9.813  0.8686  0.5735  0.2753
  374TMC3     C 5650   0.923   3.731  10.028  0.1897 -1.0187 -0.0394
  374TMC3     O 5651   0.974   3.706  10.137  0.4648 -0.5172  0.3209
  374TMC3     H 5652   1.139   3.867  10.095 -2.8324 -1.6026  0.5355
  374TMC3    H1 5653   0.813   3.855   9.836 -1.5566  2.1032  2.5180
  374TMC3    H2 5654   1.136   4.132   9.758  1.3528 -0.6765 -1.2032
  374TMC3    C7 5655   0.899   4.049   9.662  1.1469  0.5501  0.0893
  374TMC3    C8 5656   1.290   4.057   9.959 -0.2257 -0.0959  0.1775
  374TMC3    O1 5657   0.801   3.984   9.629  0.6251  0.4654  0.1398
  374TMC3    O2 5658   1.328   4.161   9.903 -0.1228  0.5844  0.2142
  375MPD2     C 5659   1.792   4.677  17.427 -0.0676 -0.5206  0.2848
  375MPD2    C1 5660   1.741   4.731  17.310 -0.6965  0.0946 -0.2728
  375MPD2    C2 5661   1.776   4.680  17.193 -0.2080 -0.9326 -0.0926
  375MPD2    C3 5662   1.851   4.558  17.191  0.5536 -0.2943  0.1151
  375MPD2    C4 5663   1.897   4.497  17.306 -0.5302  0.7445 -0.7035
  375MPD2    C5 5664   1.873   4.563  17.427 -0.6305  0.4724 -0.2798
  375MPD2     H 5665   1.741   4.721  17.099  1.5378  0.2406 -0.2220
  375MPD2    H1 5666   1.969   4.416  17.300  0.4193  1.6335 -1.2391
  375MPD2    H2 5667   1.791   0.005  17.515  0.6754  1.3644 -1.0431
  375MPD2    H3 5668   1.919   4.514  17.512  0.6636 -1.6418 -2.2213
  375MPD2     N 5669   1.886   4.483  17.078  0.6677 -0.0257 -0.1597
  375MPD2    H5 5670   1.954   4.407  17.088  0.8408 -0.0846 -1.7773
  375MPD2    N1 5671   1.657   0.119  17.304 -0.4974 -0.3846 -0.3311
  375MPD2    H7 5672   1.629   0.145  17.210  0.3407  1.7085 -0.0087
  376TMC3    C1 5673   1.872   4.407  16.848 -0.5917 -0.2354 -0.1338
  376TMC3    C2 5674   1.991   4.338  16.852 -0.0170 -0.5219 -0.2024
  376TMC3    C3 5675   2.033   4.269  16.739  0.2156  0.6924 -0.1161
  376TMC3    C4 5676   1.805   4.418  16.729  0.2418  0.0895  0.4244
  376TMC3    C5 5677   1.854   4.348  16.620  0.0577  0.3370  0.1227
  376TMC3    C6 5678   1.968   4.275  16.624  0.4275 -0.5575 -0.3125
  376TMC3     C 5679   1.844   4.507  16.954  0.0936 -0.5039 -0.4119
  376TMC3     O 5680   1.759   4.594  16.922  0.6257 -0.2676  0.2769
  376TMC3     H 5681   2.057   4.346  16.938  0.2878  0.8844 -0.5718
  376TMC3    H1 5682   1.713   4.473  16.719 -0.4944 -1.8383 -3.3304
  376TMC3    H2 5683   2.008   4.218  16.542  1.3068 -0.4224  0.0255
  376TMC3    C7 5684   1.804   4.390  16.498  0.5307 -0.0115 -0.0107
  376TMC3    C8 5685   2.177   4.247  16.738  0.4309  0.0510  0.2528
  376TMC3    O1 5686   1.737   4.492  16.493 -0.2609 -0.7756  0.0787
  376TMC3    O2 5687   2.227   4.214  16.845 -0.3289  0.2919  0.0384
  377MPD2     C 5688   0.243   3.768  12.788 -0.3506  0.0566 -0.1684
  377MPD2    C1 5689   0.148   3.835  12.716  0.8828 -0.3301  0.1177
  377MPD2    C2 5690   0.018   3.820  12.751 -0.0040 -0.1546 -0.9246
  377MPD2    C3 5691   4.711   3.739  12.855  0.1982  0.0695 -0.1462
  377MPD2    C4 5692   0.080   3.670  12.924  0.2955 -0.0095 -0.2232
  377MPD2    C5 5693   0.212   3.689  12.895 -0.3298  0.3254 -0.2727
  377MPD2     H 5694   4.671   3.863  12.694 -0.8024 -2.6598 -1.6682
  377MPD2    H1 5695   0.068   3.610  13.013 -2.9039 -0.6035 -1.0325
  377MPD2    H2 5696   0.350   3.781  12.777 -0.4408 -0.2293 -1.3592
  377MPD2    H3 5697   0.282   3.643  12.964  0.8376  2.0513 -0.3270
  377MPD2     N 5698   4.576   3.721  12.890 -0.4384  0.5184  0.3766
  377MPD2    H5 5699   4.556   3.674  12.978 -1.4550 -0.6053 -0.4466
  377MPD2    N1 5700   0.185   3.913  12.600  0.2982 -0.0849  0.2181
  377MPD2    H7 5701   0.274   3.891  12.557 -0.0974  0.2145 -0.7497
  378TMC3    C1 5702   0.063   4.184  12.223 -0.3211 -0.2867 -0.1370
  378TMC3    C2 5703   0.056   4.160  12.357 -0.0555 -0.1172  0.1948
  378TMC3    C3 5704   0.144   4.072  12.417 -0.0910 -0.7745 -0.1560
  378TMC3    C4 5705   0.138   4.103  12.134  0.0057  0.1765 -0.0218
  378TMC3    C5 5706   0.223   4.016  12.200 -1.1310  0.0320  0.6484
  378TMC3    C6 5707   0.227   4.001  12.340  0.4996 -0.0017 -0.1005
  378TMC3     C 5708   4.674   4.237  12.162 -0.0932  0.3597 -0.0110
  378TMC3     O 5709   4.578   4.253  12.235  0.1725  0.9266  0.4257
  378TMC3     H 5710   4.721   4.213  12.421 -0.6412  1.6458 -1.9029
  378TMC3    H1 5711   0.119   4.111  12.027  0.6821  1.6821 -0.0322
  378TMC3    H2 5712   0.312   3.948  12.382 -0.4452 -0.4596  1.2140
  378TMC3    C7 5713   0.307   3.921  12.127  0.2399 -0.5073 -0.3614
  378TMC3    C8 5714   0.106   4.018  12.547  0.5942  0.1664  0.6884
  378TMC3    O1 5715   0.409   3.879  12.180  0.2575 -0.2730 -0.2041
  378TMC3    O2 5716   0.006   4.067  12.600 -0.1310 -0.0613  0.1917
  379MPD2     C 5717   1.045   2.264  16.106  0.0489 -0.2137 -0.4464
  379MPD2    C1 5718   0.939   2.212  16.185 -0.0019  0.1521  0.2865
  379MPD2    C2 5719   0.960   2.154  16.307  0.0684  0.6734 -0.1776
  379MPD2    C3 5720   1.089   2.144  16.345  0.0589 -0.1734 -0.2010
  379MPD2    C4 5721   1.193   2.189  16.265  0.0281  0.3589  0.1246
  379MPD2    C5 5722   1.169   2.250  16.145  0.0478  0.7095 -1.0061
  379MPD2     H 5723   0.879   2.105  16.361 -0.1214  1.4781  0.2613
  379MPD2    H1 5724   1.292   2.192  16.310 -1.0997  2.8523  2.4304
  379MPD2    H2 5725   1.030   2.321  16.015  2.5871  0.9687 -0.1397
  379MPD2    H3 5726   1.247   2.286  16.079  0.8984  0.9114  0.1121
  379MPD2     N 5727   1.132   2.095  16.468 -0.4586 -0.2559 -0.5354
  379MPD2    H5 5728   1.229   2.105  16.497 -0.9160 -0.3176  0.9899
  379MPD2    N1 5729   0.812   2.249  16.146 -0.0208  0.3077  0.0608
  379MPD2    H7 5730   0.800   2.308  16.065  0.9353  0.0507 -0.2573
  380TMC3    C1 5731   0.581   2.273  16.120 -0.4302  0.7450  0.1468
  380TMC3    C2 5732   0.585   2.237  15.988 -0.4767  0.4460  0.1362
  380TMC3    C3 5733   0.519   2.325  15.908 -0.0578  0.4698  0.3897
  380TMC3    C4 5734   0.505   2.376  16.171 -1.0363  0.7296  1.1020
  380TMC3    C5 5735   0.434   2.453  16.088 -0.4409 -1.2250 -0.7144
  380TMC3    C6 5736   0.438   2.427  15.954 -0.1737  0.2157  0.2610
  380TMC3     C 5737   0.690   2.220  16.199 -0.0763  0.8363 -0.2347
  380TMC3     O 5738   0.667   2.149  16.300  0.1262  0.2225 -0.0803
  380TMC3     H 5739   0.650   2.154  15.963  1.5371  1.8604  0.6714
  380TMC3    H1 5740   0.489   2.381  16.278 -0.1103 -2.3952  1.3743
  380TMC3    H2 5741   0.387   2.484  15.877  1.6475 -0.2445 -1.2853
  380TMC3    C7 5742   0.359   2.566  16.136 -0.3249  0.3558 -0.6287
  380TMC3    C8 5743   0.502   2.286  15.768  0.4619  0.5624  0.4869
  380TMC3    O1 5744   0.346   2.565  16.258  0.5693  0.5788 -0.0148
  380TMC3    O2 5745   0.508   2.384  15.690  0.9320 -0.2219  0.0762
  381TMC3    C1 5746   0.200   3.881  16.214  0.1221  0.1977 -0.5400
  381TMC3    C2 5747   0.330   3.893  16.253  1.0149  0.6858  0.1959
  381TMC3    C3 5748   0.396   3.787  16.313  0.2993  0.3287  0.3896
  381TMC3    C4 5749   0.131   3.782  16.274  0.0448 -0.6277  1.2129
  381TMC3    C5 5750   0.197   3.670  16.322  0.3212 -0.4553  0.1925
  381TMC3    C6 5751   0.334   3.667  16.331  0.4142  0.0374 -0.2912
  381TMC3     C 5752   0.139   3.980  16.129 -0.0909 -0.0803 -0.3984
  381TMC3     O 5753   0.198   4.090  16.123 -0.1817  0.1322  0.2276
  381TMC3     H 5754   0.383   3.978  16.212 -0.6089  1.1932 -0.8068
  381TMC3    H1 5755   0.023   3.780  16.264  0.0210  0.1492  1.3197
  381TMC3    H2 5756   0.383   3.577  16.367  0.0626 -0.4132 -0.9363
  381TMC3    C7 5757   0.132   3.592  16.424  0.6413  0.0485 -1.0399
  381TMC3    C8 5758   0.543   3.783  16.311 -0.0909  0.9334 -0.8325
  381TMC3    O1 5759   0.176   3.480  16.438  0.0281 -0.1074  0.3193
  381TMC3    O2 5760   0.591   3.692  16.248  0.0766 -0.5857  0.1174
  382MPD2     C 5761   4.204   1.188  16.963 -0.0632  0.5291 -0.4894
  382MPD2    C1 5762   4.301   1.186  17.064 -0.7056  0.5053 -0.0996
  382MPD2    C2 5763   4.309   1.073  17.144  0.0988 -0.9730  0.0962
  382MPD2    C3 5764   4.218   0.972  17.122 -0.6686 -0.1462 -0.6672
  382MPD2    C4 5765   4.134   0.966  17.011 -0.2650  0.6831  0.4825
  382MPD2    C5 5766   4.119   1.080  16.940  0.4125 -0.1597 -0.3404
  382MPD2     H 5767   4.383   1.074  17.223 -0.0884  0.7268  0.2460
  382MPD2    H1 5768   4.070   0.881  16.989  0.2661 -0.1355  2.0605
  382MPD2    H2 5769   4.194   1.269  16.893  0.6638  2.7527  1.9768
  382MPD2    H3 5770   4.058   1.078  16.850 -1.0184  3.4115  0.5105
  382MPD2     N 5771   4.215   0.857  17.208  0.5634 -0.0085 -0.5059
  382MPD2    H5 5772   4.156   0.781  17.174 -0.2014  1.0111 -1.4536
  382MPD2    N1 5773   4.390   1.286  17.094  0.2021  0.9824  0.2131
  382MPD2    H7 5774   4.452   1.278  17.174  3.0037 -1.5450 -2.2380
  383TMC3    C1 5775   4.250   0.708  17.382  0.4042 -0.6279  0.5921
  383TMC3    C2 5776   4.157   0.625  17.331 -0.8354  0.3797  0.1638
  383TMC3    C3 5777   4.114   0.515  17.405  0.2635 -0.1548 -0.6698
  383TMC3    C4 5778   4.307   0.682  17.500  0.5379 -0.1655 -0.2486
  383TMC3    C5 5779   4.257   0.585  17.578 -0.2823  0.2685 -1.1624
  383TMC3    C6 5780   4.162   0.497  17.535  0.5995  0.9056  0.2236
  383TMC3     C 5781   4.291   0.833  17.319 -0.8226 -0.0645  0.2717
  383TMC3     O 5782   4.374   0.910  17.369 -0.0123 -0.3161 -0.6921
  383TMC3     H 5783   4.106   0.634  17.235 -1.7528  1.3303  0.7377
  383TMC3    H1 5784   4.390   0.739  17.540 -1.7874  1.1380  2.6983
  383TMC3    H2 5785   4.101   0.427  17.590  0.7500  1.4318  1.0642
  383TMC3    C7 5786   4.339   0.553  17.693 -0.5105  0.6742 -0.4560
  383TMC3    C8 5787   3.989   0.453  17.359  0.4850 -0.6100 -0.3913
  383TMC3    O1 5788   4.456   0.581  17.689 -0.3341 -0.1801  0.9455
  383TMC3    O2 5789   3.912   0.541  17.314 -0.7306 -0.2855 -0.0143
  384MPD2     C 5790   0.443   2.732  11.862 -0.3716  0.0757  0.3136
  384MPD2    C1 5791   0.410   2.610  11.914 -0.0711 -0.3897  0.6413
  384MPD2    C2 5792   0.495   2.505  11.878  0.3076  0.0187  0.7637
  384MPD2    C3 5793   0.604   2.526  11.796 -0.2457 -0.7935  0.1578
  384MPD2    C4 5794   0.637   2.646  11.747 -0.2909 -0.3535  0.1212
  384MPD2    C5 5795   0.560   2.750  11.786 -0.6322 -0.2014  0.7642
  384MPD2     H 5796   0.470   2.408  11.920 -1.5580  0.0034 -0.3636
  384MPD2    H1 5797   0.730   2.665  11.693 -1.3849 -1.5862 -2.2223
  384MPD2    H2 5798   0.375   2.816  11.875 -0.3950  0.1875 -0.5252
  384MPD2    H3 5799   0.596   2.847  11.753 -1.7372 -0.4048 -1.0385
  384MPD2     N 5800   0.701   2.432  11.777  0.6221  0.2959 -0.1785
  384MPD2    H5 5801   0.783   2.458  11.723  2.8122 -1.6946  2.2024
  384MPD2    N1 5802   0.293   2.604  11.996 -0.2029  0.4329  0.6970
  384MPD2    H7 5803   0.233   2.684  11.979 -3.1213 -1.8497  0.3845
  385TMC3    C1 5804   0.848   2.254  11.834  0.1878  0.6200  0.3080
  385TMC3    C2 5805   0.858   2.131  11.894 -0.2743 -0.9618  1.5363
  385TMC3    C3 5806   0.984   2.103  11.953  1.1266  1.2296 -0.2021
  385TMC3    C4 5807   0.951   2.346  11.827  0.0428 -0.1969 -0.1535
  385TMC3    C5 5808   1.055   2.319  11.910  0.4192  0.6734  0.2190
  385TMC3    C6 5809   1.079   2.202  11.965  0.1869  0.6204 -0.5059
  385TMC3     C 5810   0.712   2.309  11.844  0.8302  0.1050 -0.7032
  385TMC3     O 5811   0.636   2.252  11.916 -0.7956 -0.0842  0.4786
  385TMC3     H 5812   0.779   2.056  11.892 -0.8315 -0.3369  0.4364
  385TMC3    H1 5813   0.939   2.451  11.806 -0.8846 -0.4038 -0.6455
  385TMC3    H2 5814   1.170   2.182  12.021  0.1824 -0.0533 -0.7288
  385TMC3    C7 5815   1.125   2.437  11.942 -0.4350  0.9007  0.8777
  385TMC3    C8 5816   1.040   1.968  11.967  0.0657 -0.2785  0.2303
  385TMC3    O1 5817   1.167   2.502  11.848  0.0250 -0.3999  0.1684
  385TMC3    O2 5818   1.153   1.952  12.006  0.4355 -0.1296 -0.1136
  386TMC3    C1 5819   1.168   3.849  11.475  0.4877  0.1938  0.3762
  386TMC3    C2 5820   1.119   3.793  11.362 -0.9195  0.4486 -0.7819
  386TMC3    C3 5821   0.995   3.823  11.324  0.2515  0.1953 -0.2260
  386TMC3    C4 5822   1.109   3.961  11.534  0.0761  0.9210 -0.5729
  386TMC3    C5 5823   0.981   3.988  11.492  0.2764 -0.4583  0.4282
  386TMC3    C6 5824   0.915   3.912  11.397  0.1639  0.7367 -0.7215
  386TMC3     C 5825   1.259   3.780  11.561  0.9715 -0.2951 -0.1325
  386TMC3     O 5826   1.310   3.856  11.644 -0.1520  0.4873  0.7504
  386TMC3     H 5827   1.186   3.723  11.313  0.9438  2.1415 -0.6660
  386TMC3    H1 5828   1.134   3.989  11.636 -1.0560  0.5200 -0.1864
  386TMC3    H2 5829   0.809   3.928  11.379 -0.2240 -1.2897 -0.2715
  386TMC3    C7 5830   0.896   4.085  11.562  0.1036  0.1222 -0.1243
  386TMC3    C8 5831   0.911   3.737  11.237 -0.8125 -0.0361 -0.4698
  386TMC3    O1 5832   0.930   4.096  11.677 -0.6479 -0.3011  0.4743
  386TMC3    O2 5833   0.794   3.759  11.233  0.1050 -0.5296 -0.1683
  387MPD2     C 5834   3.088   3.422   9.677  0.3714 -0.5565 -0.2401
  387MPD2    C1 5835   3.229   3.433   9.693 -0.1341  0.4447  0.2048
  387MPD2    C2 5836   3.299   3.314   9.661 -0.2455  0.2153 -0.1570
  387MPD2    C3 5837   3.231   3.194   9.634 -0.3492  0.1534 -0.3666
  387MPD2    C4 5838   3.100   3.188   9.623 -0.2088 -0.3337  0.8934
  387MPD2    C5 5839   3.027   3.311   9.637  0.2772  0.4517 -0.3854
  387MPD2     H 5840   3.406   3.327   9.662 -0.1336 -0.9120  1.5018
  387MPD2    H1 5841   3.049   3.093   9.609 -0.6996  0.1728 -0.7114
  387MPD2    H2 5842   3.018   3.501   9.698  0.4855 -0.1788 -1.2904
  387MPD2    H3 5843   2.919   3.312   9.627  0.4054  1.1885 -1.6932
  387MPD2     N 5844   3.312   3.077   9.629  0.2708 -0.5533 -0.0143
  387MPD2    H5 5845   3.410   3.101   9.625  0.5382 -1.8028 -0.8447
  387MPD2    N1 5846   3.302   3.542   9.743 -0.5744  0.7616 -0.0940
  387MPD2    H7 5847   3.404   3.536   9.739 -0.6773 -0.9123  0.0238
  388TMC3    C1 5848   3.324   3.746   9.867  0.6629  0.3824  0.4703
  388TMC3    C2 5849   3.263   3.855   9.916  0.2090  0.0143  0.2005
  388TMC3    C3 5850   3.344   3.938   9.998  0.1849 -0.3467  0.6145
  388TMC3    C4 5851   3.450   3.709   9.904  0.1775  0.3867  0.4310
  388TMC3    C5 5852   3.520   3.787   9.992 -0.4241 -0.5867 -0.2131
  388TMC3    C6 5853   3.467   3.901  10.048 -0.2651 -0.2412  0.1849
  388TMC3     C 5854   3.243   3.656   9.789  0.3014  0.7468  0.0030
  388TMC3     O 5855   3.128   3.693   9.765 -0.3378 -0.0117 -0.1369
  388TMC3     H 5856   3.162   3.882   9.887  0.7365  1.3190 -0.4566
  388TMC3    H1 5857   3.494   3.622   9.857 -0.2855 -0.8304  2.2675
  388TMC3    H2 5858   3.534   3.953  10.115 -0.0985  1.0593 -0.9886
  388TMC3    C7 5859   3.611   3.716  10.077 -0.4186  0.3361 -0.1386
  388TMC3    C8 5860   3.301   4.066  10.048 -0.0587 -0.6210 -0.7714
  388TMC3    O1 5861   3.710   3.776  10.122 -0.2492  0.2545 -0.1079
  388TMC3    O2 5862   3.374   4.122  10.129  0.2196  0.1371  0.1174
  389MPD2     C 5863   2.872   2.211  11.087  0.1090  0.5899 -0.4814
  389MPD2    C1 5864   2.755   2.146  11.040  0.8454  0.4827 -0.0086
  389MPD2    C2 5865   2.687   2.065  11.129 -0.8085  0.7189 -1.2856
  389MPD2    C3 5866   2.722   2.056  11.265  0.0010 -0.1818  0.1776
  389MPD2    C4 5867   2.830   2.124  11.313 -0.1237  0.7400  0.1290
  389MPD2    C5 5868   2.901   2.201  11.220 -0.7096  0.3820 -0.6578
  389MPD2     H 5869   2.603   2.005  11.094  0.0978 -0.9635 -0.5552
  389MPD2    H1 5870   2.869   2.110  11.413  1.8744  1.9333 -0.4851
  389MPD2    H2 5871   2.943   2.263  11.024  2.1715  2.0100  3.0624
  389MPD2    H3 5872   2.987   2.261  11.249 -0.6397 -0.9748  1.9589
  389MPD2     N 5873   2.656   1.985  11.361  0.1865  0.4054  0.1175
  389MPD2    H5 5874   2.687   2.003  11.456  3.3697 -0.2289 -0.8261
  389MPD2    N1 5875   2.731   2.157  10.900 -0.3982  0.1278 -0.1990
  389MPD2    H7 5876   2.803   2.200  10.843  0.1050 -0.7932 -0.2358
  390TMC3    C1 5877   2.510   1.833  11.460 -0.1973 -0.4424 -0.4781
  390TMC3    C2 5878   2.477   1.700  11.478  0.4064 -0.1170  0.2072
  390TMC3    C3 5879   2.417   1.665  11.596  0.3097 -0.1348  0.0433
  390TMC3    C4 5880   2.458   1.933  11.543  0.0492 -0.1131 -0.2150
  390TMC3    C5 5881   2.408   1.898  11.663 -0.0318 -0.8554  0.7558
  390TMC3    C6 5882   2.393   1.765  11.692  0.5688 -0.7478  0.3408
  390TMC3     C 5883   2.585   1.871  11.338  0.1444 -0.3324 -0.0406
  390TMC3     O 5884   2.584   1.802  11.238 -0.5310 -0.0503 -0.3079
  390TMC3     H 5885   2.505   1.627  11.403 -1.2222  0.3122 -0.8237
  390TMC3    H1 5886   2.476   2.038  11.519 -0.8262 -0.0559 -0.6141
  390TMC3    H2 5887   2.363   1.751  11.795 -0.4591 -0.8034  0.0349
  390TMC3    C7 5888   2.300   1.987  11.692 -0.0508 -0.3700 -0.7532
  390TMC3    C8 5889   2.335   1.545  11.613  0.3787  0.0574 -0.0998
  390TMC3    O1 5890   2.348   2.089  11.740 -0.3551  0.2857  0.2330
  390TMC3    O2 5891   2.315   1.484  11.508  0.6818  0.1979 -0.0494
  391MPD2     C 5892   1.541   3.940  11.362  0.1613  0.2703 -0.2777
  391MPD2    C1 5893   1.649   3.857  11.360  0.6025  0.0013 -0.2181
  391MPD2    C2 5894   1.685   3.785  11.246  0.1365 -0.0404  0.5488
  391MPD2    C3 5895   1.607   3.800  11.129 -0.0143  0.6826  0.0697
  391MPD2    C4 5896   1.497   3.882  11.134 -0.3434 -0.4482  0.2843
  391MPD2    C5 5897   1.465   3.954  11.247  0.4830  0.6744  0.2784
  391MPD2     H 5898   1.775   3.726  11.241 -0.1140 -0.2576 -1.3751
  391MPD2    H1 5899   1.441   3.902  11.043 -1.0017 -1.4710  0.4701
  391MPD2    H2 5900   1.508   3.993  11.451  1.1690  2.4344 -1.1831
  391MPD2    H3 5901   1.380   4.021  11.249 -0.5713 -0.6952  1.5577
  391MPD2     N 5902   1.650   3.745  11.005 -0.0643 -0.1306  0.4219
  391MPD2    H5 5903   1.736   3.692  11.017  1.2232  1.9484  0.3564
  391MPD2    N1 5904   1.729   3.843  11.475 -0.0679 -0.4147  0.2181
  391MPD2    H7 5905   1.707   3.908  11.551  1.4694 -1.4307  1.5391
  392TMC3    C1 5906   1.681   3.693  10.775 -0.1554 -0.1465  0.0617
  392TMC3    C2 5907   1.620   3.684  10.656 -0.3832 -0.1210 -0.8311
  392TMC3    C3 5908   1.695   3.692  10.539 -0.1826 -0.2493  0.7059
  392TMC3    C4 5909   1.822   3.712  10.783 -0.3793  0.0087 -0.6051
  392TMC3    C5 5910   1.891   3.718  10.669  0.3588  0.0154 -0.2517
  392TMC3    C6 5911   1.832   3.710  10.542  0.1058 -0.4226  0.3964
  392TMC3     C 5912   1.589   3.738  10.881 -0.4974  0.2318 -0.6697
  392TMC3     O 5913   1.477   3.766  10.848 -0.0973 -0.1014  0.5310
  392TMC3     H 5914   1.516   3.658  10.641 -1.1429  1.4508  1.8357
  392TMC3    H1 5915   1.866   3.715  10.882  0.1015  1.5344 -0.8545
  392TMC3    H2 5916   1.896   3.714  10.455  0.3917  2.2473  0.7454
  392TMC3    C7 5917   2.034   3.745  10.680 -0.2309  0.1585  0.6205
  392TMC3    C8 5918   1.620   3.736  10.426  0.2087 -0.1944  0.2825
  392TMC3    O1 5919   2.078   3.759  10.799  0.0577  0.9349  0.0548
  392TMC3    O2 5920   1.496   3.718  10.424 -0.3710  0.3838 -0.2842
  393TMC3    C1 5921   1.310   1.759  10.973 -0.1995 -0.0940 -0.0854
  393TMC3    C2 5922   1.228   1.787  11.077 -0.3186 -0.2427  0.4779
  393TMC3    C3 5923   1.175   1.691  11.154  0.4618 -0.3305 -0.0414
  393TMC3    C4 5924   1.299   1.640  10.913  0.0893  0.0197  0.3642
  393TMC3    C5 5925   1.234   1.547  10.987  0.1152  0.5228  0.3921
  393TMC3    C6 5926   1.182   1.561  11.109 -0.5078  0.0623 -0.4531
  393TMC3     C 5927   1.378   1.866  10.912  0.3093  0.2546  0.4176
  393TMC3     O 5928   1.405   1.852  10.793 -0.2743  0.4316  0.0654
  393TMC3     H 5929   1.231   1.883  11.127  0.8195 -0.1079  0.1424
  393TMC3    H1 5930   1.364   1.614  10.831  0.3266  0.2962  0.4657
  393TMC3    H2 5931   1.142   1.474  11.160  0.6387 -0.6523 -0.7771
  393TMC3    C7 5932   1.245   1.402  10.953 -0.8620  0.1871  0.0178
  393TMC3    C8 5933   1.052   1.708  11.214  0.2061 -0.0944  0.1051
  393TMC3    O1 5934   1.189   1.321  11.028  0.0305 -0.0648  0.4111
  393TMC3    O2 5935   1.010   1.632  11.299  0.0924  0.0750  0.0352
  394TMC3    C1 5936   2.597   2.162  10.707  0.2167 -0.0558  0.5119
  394TMC3    C2 5937   2.492   2.106  10.642 -0.0422  0.1448  0.6918
  394TMC3    C3 5938   2.436   2.175  10.541  1.0645  0.3977  0.0116
  394TMC3    C4 5939   2.654   2.280  10.664  0.3721  0.3838  0.2484
  394TMC3    C5 5940   2.596   2.348  10.564 -0.3254 -0.2950  0.1250
  394TMC3    C6 5941   2.488   2.295  10.500  0.5746  0.0039 -0.2314
  394TMC3     C 5942   2.617   2.111  10.838 -0.7791 -0.0938  0.1655
  394TMC3     O 5943   2.523   2.056  10.896  0.3080 -0.1782  0.2120
  394TMC3     H 5944   2.452   2.010  10.674 -0.8210 -0.4366 -2.0491
  394TMC3    H1 5945   2.737   2.325  10.717 -0.1729  1.6720  0.0157
  394TMC3    H2 5946   2.455   2.346  10.410 -0.8526 -0.0808  0.2418
  394TMC3    C7 5947   2.680   2.428  10.483 -0.3524 -0.2656 -0.1909
  394TMC3    C8 5948   2.377   2.103  10.434  0.5922  1.2465 -0.2347
  394TMC3    O1 5949   2.621   2.508  10.408 -0.3853  0.2090 -0.2863
  394TMC3    O2 5950   2.285   2.153  10.375  0.1341  0.4809  0.6287
  395TMC3    C1 5951   2.060   4.722  14.838  0.1517  0.6209  0.3117
  395TMC3    C2 5952   2.015   4.700  14.710  0.6496 -0.4136  0.4161
  395TMC3    C3 5953   2.107   4.710  14.609  0.0318 -0.2646  0.6010
  395TMC3    C4 5954   2.193   0.019  14.858 -0.3403  0.3234  0.3239
  395TMC3    C5 5955   2.279   0.028  14.753  0.0827  0.0618  0.3312
  395TMC3    C6 5956   2.240   0.010  14.624  0.3537 -0.5916  0.3946
  395TMC3     C 5957   1.994   4.657  14.950 -0.7302 -0.3750 -0.3448
  395TMC3     O 5958   2.017   4.718  15.052 -0.5925 -0.0922  0.1449
  395TMC3     H 5959   1.913   4.666  14.697  0.0462  0.8934  1.7093
  395TMC3    H1 5960   2.223   0.017  14.962  0.6665  0.3193  0.0367
  395TMC3    H2 5961   2.311   4.726  14.544  0.0499  0.4213 -0.1072
  395TMC3    C7 5962   2.423   0.030  14.786  0.2987 -0.4873 -0.6143
  395TMC3    C8 5963   2.062   4.690  14.475  0.6245  0.3770 -0.6798
  395TMC3    O1 5964   2.453   0.014  14.904  0.6886  0.1583  0.0205
  395TMC3    O2 5965   2.106   0.027  14.384 -0.2852  0.2155 -0.4761
  396MPD2     C 5966   2.588   0.330  16.990  0.2259 -1.0567  0.1587
  396MPD2    C1 5967   2.626   0.420  17.088 -0.0273  0.3423  0.3971
  396MPD2    C2 5968   2.616   0.554  17.073 -0.3495 -0.2016 -0.4365
  396MPD2    C3 5969   2.561   0.608  16.961 -0.1351 -0.0929  0.9156
  396MPD2    C4 5970   2.538   0.519  16.854 -0.3121  0.0431  0.1362
  396MPD2    C5 5971   2.545   0.382  16.867 -0.1845  1.0595 -0.6639
  396MPD2     H 5972   2.656   0.622  17.147  0.1243 -0.5598 -0.3645
  396MPD2    H1 5973   2.500   0.559  16.760  0.9396 -1.8354 -1.1658
  396MPD2    H2 5974   2.586   0.223  17.010 -2.7712 -0.6291  2.1478
  396MPD2    H3 5975   2.512   0.316  16.788 -1.0581 -2.3042  2.5406
  396MPD2     N 5976   2.540   0.745  16.957  0.3087 -0.0303  0.0168
  396MPD2    H5 5977   2.558   0.808  17.034  0.6394  1.6299 -1.4331
  396MPD2    N1 5978   2.684   0.360  17.202 -0.5362  0.8880 -0.1042
  396MPD2    H7 5979   2.694   0.260  17.190  1.2829  1.3892 -2.5895
  397TMC3    C1 5980   2.823   0.327  17.397 -0.1006  0.2142  0.1601
  397TMC3    C2 5981   2.946   0.306  17.341  0.9390 -0.5747  0.6096
  397TMC3    C3 5982   3.002   0.181  17.331 -0.0320 -0.1195 -0.9595
  397TMC3    C4 5983   2.747   0.215  17.430  0.2892  0.1487  0.3142
  397TMC3    C5 5984   2.812   0.095  17.435 -0.0472 -0.4829 -0.2665
  397TMC3    C6 5985   2.942   0.073  17.388  0.3935  0.3976 -0.4493
  397TMC3     C 5986   2.755   0.419  17.311  0.0404 -0.1572 -0.4337
  397TMC3     O 5987   2.773   0.538  17.328  0.2478 -0.0452 -0.3568
  397TMC3     H 5988   2.983   0.394  17.289 -0.6462 -0.5317 -0.4396
  397TMC3    H1 5989   2.641   0.233  17.440  0.2171 -1.0298  1.6964
  397TMC3    H2 5990   2.993   4.712  17.383 -0.1127  0.0650  0.7217
  397TMC3    C7 5991   2.746   4.706  17.487 -0.4909 -0.1494 -0.2854
  397TMC3    C8 5992   3.048   0.148  17.198 -0.4702 -0.2201 -0.2041
  397TMC3    O1 5993   2.808   4.604  17.506 -0.4759  0.0313  0.1139
  397TMC3    O2 5994   3.057   0.030  17.165  0.7228 -0.0015 -0.2305
  398MPD2     C 5995   0.346   2.009  17.669  0.0848 -0.1288  1.0856
  398MPD2    C1 5996   0.424   1.977   0.042  0.1224 -0.2077  0.0514
  398MPD2    C2 5997   0.417   2.057   0.150 -0.7749  0.2559 -0.0887
  398MPD2    C3 5998   0.358   2.180   0.150 -0.6862  0.4654 -0.0746
  398MPD2    C4 5999   0.282   2.219   0.039  0.2058 -0.3657 -0.2680
  398MPD2    C5 6000   0.282   2.134  17.671 -0.2617 -0.6498 -0.3133
  398MPD2     H 6001   0.455   2.021   0.246 -1.2381  1.0026  0.3689
  398MPD2    H1 6002   0.235   2.317   0.032  2.5933  0.8137  0.2467
  398MPD2    H2 6003   0.336   1.945  17.582 -0.8403  1.9517 -0.3642
  398MPD2    H3 6004   0.231   2.161  17.580  3.6308 -1.0812 -2.5992
  398MPD2     N 6005   0.370   2.257   0.269  0.4709 -0.3771 -0.3494
  398MPD2    H5 6006   0.439   2.227   0.337 -1.3206  0.1139  1.6834
  398MPD2    N1 6007   0.491   1.846   0.043 -0.4587 -0.0632  0.2601
  398MPD2    H7 6008   0.528   1.805   0.128  0.3736 -0.2093 -0.1721
  399TMC3    C1 6009   0.582   1.648  17.687  0.2143 -0.4061  0.8401
  399TMC3    C2 6010   0.640   1.616   0.066  0.0732  0.2894 -0.3718
  399TMC3    C3 6011   0.667   1.485   0.094 -0.2317 -0.2701  0.4000
  399TMC3    C4 6012   0.544   1.555  17.589  0.1035 -0.5678 -0.2960
  399TMC3    C5 6013   0.572   1.421  17.625 -0.1110 -0.2140 -0.0453
  399TMC3    C6 6014   0.625   1.387   0.013  0.5604 -0.4238 -0.1473
  399TMC3     C 6015   0.525   1.774  17.664 -0.4335 -0.0493 -0.2149
  399TMC3     O 6016   0.500   1.814  17.550 -0.3904  0.0990  0.5548
  399TMC3     H 6017   0.691   1.694   0.122 -0.0054 -0.8111  1.2116
  399TMC3    H1 6018   0.502   1.594  17.497  0.1761  1.2428  0.4388
  399TMC3    H2 6019   0.643   1.283   0.038 -0.6315 -1.2123 -2.5139
  399TMC3    C7 6020   0.520   1.313  17.552  0.2204 -0.4480  0.1458
  399TMC3    C8 6021   0.750   1.464   0.210 -0.2699  0.2546  0.4474
  399TMC3    O1 6022   0.516   1.201  17.598 -0.1945  0.2992 -0.0010
  399TMC3    O2 6023   0.726   1.532   0.308  0.0340  0.3695 -0.0625
  400TMC3    C1 6024   4.024   0.285  16.977  0.2833  0.4923 -0.5088
  400TMC3    C2 6025   3.931   0.198  16.935 -0.2069 -0.6577 -0.5662
  400TMC3    C3 6026   3.811   0.248  16.898  0.5604  0.5420 -0.2477
  400TMC3    C4 6027   3.999   0.422  16.978  0.5617 -0.5894 -0.6671
  400TMC3    C5 6028   3.876   0.463  16.948  1.0953  0.0772  0.0785
  400TMC3    C6 6029   3.778   0.379  16.904  0.2768  0.1584  0.7838
  400TMC3     C 6030   4.134   0.224  17.048  0.4148  0.0756 -0.2433
  400TMC3     O 6031   4.147   0.102  17.052  0.2200  0.0712  0.5042
  400TMC3     H 6032   3.953   0.093  16.915  1.5634 -0.0162 -2.0522
  400TMC3    H1 6033   4.066   0.495  17.022 -1.4518  0.8059  0.0194
  400TMC3    H2 6034   3.684   0.422  16.871  0.0151 -1.7166 -0.8899
  400TMC3    C7 6035   3.850   0.604  16.962 -0.2626 -1.1115  0.0395
  400TMC3    C8 6036   3.709   0.160  16.852  0.1279  0.2972  0.1815
  400TMC3    O1 6037   3.944   0.683  16.935 -0.0359 -0.4840  0.7406
  400TMC3    O2 6038   3.615   0.196  16.784  0.0342 -0.3311 -0.3764
  401MPD2     C 6039   1.500   4.039   1.018 -0.5686 -0.4025  0.7269
  401MPD2    C1 6040   1.594   3.950   1.056  0.9324 -0.1226  0.1692
  401MPD2    C2 6041   1.559   3.816   1.086  0.5233 -0.4264 -0.0538
  401MPD2    C3 6042   1.434   3.769   1.055  0.1393  0.4149 -0.8021
  401MPD2    C4 6043   1.342   3.859   1.016 -0.1555 -0.2952  0.1933
  401MPD2    C5 6044   1.372   3.995   1.005 -0.4033  0.1568  0.9492
  401MPD2     H 6045   1.642   3.761   1.128  0.4223  0.0885  0.8263
  401MPD2    H1 6046   1.242   3.831   0.985 -0.2264 -1.0185  1.1156
  401MPD2    H2 6047   1.515   4.145   0.997 -2.0060 -0.5049 -0.7483
  401MPD2    H3 6048   1.299   4.066   0.968  0.4564  1.8159  2.4535
  401MPD2     N 6049   1.406   3.631   1.069 -0.3127  0.3249  0.1937
  401MPD2    H5 6050   1.486   3.573   1.092  0.6140  1.0937 -1.1329
  401MPD2    N1 6051   1.730   3.983   1.064  0.4716  0.1664 -0.4993
  401MPD2    H7 6052   1.794   3.920   1.113 -1.3360 -0.3620  1.1511
  402TMC3    C1 6053   1.325   3.428   1.041  0.4242  0.2281 -0.5082
  402TMC3    C2 6054   1.431   3.398   1.127 -0.3472 -0.3057  0.3158
  402TMC3    C3 6055   1.515   3.301   1.091 -0.1412  0.9629  0.2309
  402TMC3    C4 6056   1.307   3.366   0.920 -0.1432  0.4892  0.6609
  402TMC3    C5 6057   1.390   3.262   0.888 -0.4400  0.2742 -0.7898
  402TMC3    C6 6058   1.497   3.239   0.970  0.6111 -0.4337  0.1257
  402TMC3     C 6059   1.292   3.566   1.034 -0.1725 -0.3122  0.5347
  402TMC3     O 6060   1.190   3.601   0.976  0.2409  0.1130  0.3464
  402TMC3     H 6061   1.442   3.445   1.224  2.3205  2.4120 -1.3126
  402TMC3    H1 6062   1.230   3.399   0.851  0.7310 -0.2622 -0.6813
  402TMC3    H2 6063   1.563   3.160   0.937 -1.5466 -3.1537  2.3552
  402TMC3    C7 6064   1.409   3.226   0.740  0.0140 -0.1448 -0.5985
  402TMC3    C8 6065   1.653   3.297   1.138 -0.2531  0.2022  0.5873
  402TMC3    O1 6066   1.358   3.312   0.669 -0.3145 -0.0606  0.1690
  402TMC3    O2 6067   1.728   3.247   1.060  0.6786 -0.0725 -0.1646
  403MPD2     C 6068   0.884   1.198  13.109 -0.3102  0.4485 -0.2291
  403MPD2    C1 6069   0.806   1.283  13.181  0.4097  0.4431  0.6669
  403MPD2    C2 6070   0.865   1.389  13.255 -1.0557  0.5012  0.1155
  403MPD2    C3 6071   1.003   1.387  13.272 -0.2736  0.4615 -0.1708
  403MPD2    C4 6072   1.077   1.298  13.198 -0.0867  0.1898  1.1563
  403MPD2    C5 6073   1.018   1.209  13.111 -0.1933 -0.6545  0.2480
  403MPD2     H 6074   0.807   1.449  13.324 -0.6057  2.5225 -1.2905
  403MPD2    H1 6075   1.184   1.303  13.212 -0.2236  0.7560  1.9675
  403MPD2    H2 6076   0.836   1.117  13.056 -0.5180  0.9296 -0.7831
  403MPD2    H3 6077   1.086   1.140  13.061 -1.7010 -1.7143 -0.3288
  403MPD2     N 6078   1.077   1.480  13.352  0.1389 -0.6084  0.6960
  403MPD2    H5 6079   1.174   1.455  13.373 -0.8262 -2.5063  2.9289
  403MPD2    N1 6080   0.663   1.259  13.177 -0.4460 -0.2613  0.1870
  403MPD2    H7 6081   0.630   1.185  13.116 -0.4643 -0.0865 -0.0159
  404TMC3    C1 6082   0.439   1.311  13.248 -0.1717  0.2183  0.2832
  404TMC3    C2 6083   0.347   1.361  13.334 -0.1872 -0.4360  0.4321
  404TMC3    C3 6084   0.233   1.402  13.282 -0.5768 -0.4037 -0.0797
  404TMC3    C4 6085   0.408   1.295  13.115  0.0991  0.2480 -0.0390
  404TMC3    C5 6086   0.288   1.321  13.068 -0.2184  0.0413  0.5954
  404TMC3    C6 6087   0.209   1.395  13.144  0.1186  0.3604 -0.6770
  404TMC3     C 6088   0.582   1.307  13.282 -0.3413  0.1948  0.2870
  404TMC3     O 6089   0.611   1.369  13.382  0.4697 -0.1580 -0.1373
  404TMC3     H 6090   0.383   1.379  13.435  1.3380 -0.4278 -0.1141
  404TMC3    H1 6091   0.476   1.249  13.044  0.4429  1.8942 -0.8018
  404TMC3    H2 6092   0.119   1.440  13.104 -1.1661 -0.8777  0.8265
  404TMC3    C7 6093   0.277   1.340  12.923 -1.2220 -0.9013 -0.1183
  404TMC3    C8 6094   0.138   1.487  13.356  0.0501  0.5840 -0.0977
  404TMC3    O1 6095   0.368   1.406  12.876 -0.0739  0.8088  0.8231
  404TMC3    O2 6096   0.058   1.556  13.291  0.0791 -0.1350  0.0969
  405MPD2     C 6097   0.817   2.535  14.607 -0.0382  0.1268  0.0217
  405MPD2    C1 6098   0.751   2.421  14.553 -0.0308  0.5352  0.1008
  405MPD2    C2 6099   0.622   2.431  14.504 -0.6713  0.4773 -0.2603
  405MPD2    C3 6100   0.562   2.549  14.510  0.2737 -0.1099 -0.2957
  405MPD2    C4 6101   0.619   2.662  14.553  0.1326 -0.0305  0.4019
  405MPD2    C5 6102   0.750   2.653  14.599 -0.3993 -0.0036 -0.7637
  405MPD2     H 6103   0.567   2.349  14.459 -0.1764  0.4263 -0.7832
  405MPD2    H1 6104   0.569   2.757  14.569 -1.1070 -0.8569  1.4531
  405MPD2    H2 6105   0.913   2.523  14.656 -1.2720  1.4130  2.7452
  405MPD2    H3 6106   0.801   2.742  14.634  0.0521 -0.5072 -0.1306
  405MPD2     N 6107   0.426   2.549  14.459 -0.2829  0.2850  0.3521
  405MPD2    H5 6108   0.393   2.465  14.412 -1.7337  0.8041  0.4520
  405MPD2    N1 6109   0.818   2.301  14.560 -0.0646 -0.9065  0.5603
  405MPD2    H7 6110   0.918   2.312  14.575 -0.3440 -0.1410  1.8803
  406TMC3    C1 6111   4.692   2.554  14.404 -0.5088  0.5565  0.6831
  406TMC3    C2 6112   4.699   2.423  14.375 -0.8732  0.0468 -0.0591
  406TMC3    C3 6113   0.073   2.360  14.414 -0.0971  0.6846 -0.3543
  406TMC3    C4 6114   0.064   2.620  14.449 -0.4124 -0.3007  0.5348
  406TMC3    C5 6115   0.181   2.553  14.474  0.4292  0.3216  0.5601
  406TMC3    C6 6116   0.190   2.421  14.450  0.5518  0.1921 -0.3773
  406TMC3     C 6117   4.601   2.648  14.339 -0.1312 -0.1372  0.9218
  406TMC3     O 6118   4.529   2.724  14.407  0.2495 -0.8973  0.8298
  406TMC3     H 6119   4.615   2.358  14.354 -1.9571  1.2471  0.6137
  406TMC3    H1 6120   0.064   2.728  14.462 -0.9722 -0.3738  1.1694
  406TMC3    H2 6121   0.269   2.363  14.495 -0.5856 -2.1577 -1.4499
  406TMC3    C7 6122   0.314   2.625  14.491 -0.0364 -0.1000  0.2637
  406TMC3    C8 6123   0.061   2.211  14.406 -0.4610 -0.6950 -0.2381
  406TMC3    O1 6124   0.313   2.729  14.553  0.1993  0.0017  0.1626
  406TMC3    O2 6125   4.686   2.163  14.438  0.0782 -0.0640 -0.0381
  407MPD2     C 6126   2.812   3.591   9.409  0.4191  0.5311  0.2672
  407MPD2    C1 6127   2.887   3.637   9.512 -0.2007  0.6121  0.1853
  407MPD2    C2 6128   2.821   3.661   9.629 -0.9319 -0.2739 -0.1330
  407MPD2    C3 6129   2.689   3.631   9.658 -0.6391 -0.7101 -0.1428
  407MPD2    C4 6130   2.615   3.575   9.556  0.8023  0.4991  0.7435
  407MPD2    C5 6131   2.676   3.556   9.436 -0.5114 -0.1176 -0.4973
  407MPD2     H 6132   2.880   3.707   9.707  0.1125  1.8404 -2.1669
  407MPD2    H1 6133   2.514   3.536   9.554 -0.1060  2.8262  1.1910
  407MPD2    H2 6134   2.849   3.574   9.308 -1.5744 -2.0949  0.0015
  407MPD2    H3 6135   2.619   3.512   9.355 -1.6528 -0.0094  0.2547
  407MPD2     N 6136   2.626   3.666   9.785 -0.2832 -0.0090 -0.0280
  407MPD2    H5 6137   2.526   3.682   9.779 -0.3333  0.2737  1.4783
  407MPD2    N1 6138   3.027   3.659   9.506 -0.2310  0.1786 -0.3741
  407MPD2    H7 6139   3.067   3.692   9.593  0.1716  1.0800 -0.9022
  408TMC3    C1 6140   3.247   3.667   9.427  0.1302 -0.4636  0.6827
  408TMC3    C2 6141   3.344   3.575   9.395 -0.4104 -0.6039  0.2367
  408TMC3    C3 6142   3.470   3.601   9.444  0.5092 -1.3273  0.0373
  408TMC3    C4 6143   3.261   3.782   9.497 -1.0402 -0.2287  0.5585
  408TMC3    C5 6144   3.391   3.798   9.546 -0.6720  0.5794  0.3761
  408TMC3    C6 6145   3.496   3.713   9.523 -1.4132 -0.3925 -0.4199
  408TMC3     C 6146   3.106   3.629   9.393  0.2268 -0.2808 -0.4518
  408TMC3     O 6147   3.092   3.560   9.295 -0.4808  0.3300 -0.6359
  408TMC3     H 6148   3.328   3.480   9.347 -0.9309  0.4405 -1.6420
  408TMC3    H1 6149   3.180   3.847   9.526  0.0475  1.1266  0.5270
  408TMC3    H2 6150   3.594   3.733   9.563 -1.5806 -0.7163  0.1469
  408TMC3    C7 6151   3.436   3.925   9.581  0.2405 -0.3597 -0.5208
  408TMC3    C8 6152   3.577   3.504   9.418  0.0841  0.0381 -1.0095
  408TMC3    O1 6153   3.536   3.927   9.650 -0.4558  0.3991  0.3582
  408TMC3    O2 6154   3.547   3.386   9.421 -0.3678  0.3478 -0.2568
  409MPD2     C 6155   2.979   4.445  16.536  1.0020 -0.2945 -0.0629
  409MPD2    C1 6156   3.038   4.430  16.655 -0.2947  0.2332 -0.3245
  409MPD2    C2 6157   3.089   4.542  16.721  0.4010  0.0526 -0.4119
  409MPD2    C3 6158   3.097   4.662  16.667 -0.0933  0.3175  0.2552
  409MPD2    C4 6159   3.030   4.680  16.550 -0.1007  0.2415  0.1527
  409MPD2    C5 6160   2.971   4.570  16.491 -0.3931  0.4869 -0.8939
  409MPD2     H 6161   3.122   4.518  16.822  1.2839  0.8929 -0.4923
  409MPD2    H1 6162   3.019   0.036  16.492 -0.4523  0.8601  1.1931
  409MPD2    H2 6163   2.933   4.368  16.476 -1.0306  0.3640  0.6521
  409MPD2    H3 6164   2.905   4.582  16.406 -0.5098  0.3007 -0.8292
  409MPD2     N 6165   3.162   0.037  16.717  0.1043 -0.2055 -0.2455
  409MPD2    H5 6166   3.157   0.118  16.658 -0.3341 -0.7837 -0.9985
  409MPD2    N1 6167   3.036   4.306  16.722  0.1678  0.7692 -0.2253
  409MPD2    H7 6168   3.078   4.305  16.815  0.8557 -1.4307 -0.5442
  410TMC3    C1 6169   3.312   0.168  16.866 -0.7028 -0.0143  1.8241
  410TMC3    C2 6170   3.358   0.192  16.994 -0.5316 -0.8361  0.5420
  410TMC3    C3 6171   3.407   0.315  17.027 -0.0272 -0.1197  0.1833
  410TMC3    C4 6172   3.300   0.271  16.772 -0.6619 -0.3770  0.1166
  410TMC3    C5 6173   3.360   0.387  16.804  0.4994  0.3890  0.3915
  410TMC3    C6 6174   3.397   0.410  16.936 -0.2108  0.2979 -0.1383
  410TMC3     C 6175   3.247   0.041  16.828  0.4616  0.3379  0.3675
  410TMC3     O 6176   3.254   4.690  16.914  0.4448  0.1641  0.1460
  410TMC3     H 6177   3.342   0.104  17.056 -1.9446  0.1706  1.6063
  410TMC3    H1 6178   3.281   0.253  16.666 -0.1074 -1.1439  0.1473
  410TMC3    H2 6179   3.429   0.510  16.961  1.6466  0.4477 -3.1383
  410TMC3    C7 6180   3.390   0.496  16.708  0.0424  0.6528  0.1042
  410TMC3    C8 6181   3.527   0.320  17.115 -0.2033  0.4614 -0.3166
  410TMC3    O1 6182   3.484   0.570  16.733  0.8467  1.2079 -0.7536
  410TMC3    O2 6183   3.585   0.428  17.125 -0.3414  0.6501 -0.2966
  411MPD2     C 6184   3.234   1.155  15.025 -0.6311  0.3216 -0.7784
  411MPD2    C1 6185   3.187   1.203  14.904  0.0011 -0.2841 -0.0841
  411MPD2    C2 6186   3.107   1.121  14.829 -0.3730 -0.4447 -0.4741
  411MPD2    C3 6187   3.075   0.995  14.869  0.6380 -0.8639  0.4337
  411MPD2    C4 6188   3.133   0.945  14.980 -0.1959  0.6501 -0.2872
  411MPD2    C5 6189   3.216   1.021  15.056  0.0437  0.0995  0.0174
  411MPD2     H 6190   3.060   1.163  14.741 -1.2379  1.2648  0.8076
  411MPD2    H1 6191   3.122   0.838  14.997  0.9163  0.7553  1.0717
  411MPD2    H2 6192   3.301   1.220  15.080 -0.8417 -0.5482  0.5111
  411MPD2    H3 6193   3.258   0.991  15.151  1.3722  1.8634 -0.0107
  411MPD2     N 6194   2.985   0.908  14.799  0.4117  0.3081 -1.1774
  411MPD2    H5 6195   2.969   0.818  14.842 -2.0964  0.7428 -1.1788
  411MPD2    N1 6196   3.209   1.340  14.870 -0.7401 -0.2051  0.2249
  411MPD2    H7 6197   3.252   1.402  14.938  1.0101 -2.1233  0.8721
  412TMC3    C1 6198   2.843   0.816  14.641 -0.0882  0.9381  0.2614
  412TMC3    C2 6199   2.816   0.715  14.736 -0.1003 -0.3270 -0.2812
  412TMC3    C3 6200   2.783   0.588  14.699 -0.6170 -0.2230 -0.4604
  412TMC3    C4 6201   2.823   0.787  14.505  0.2121  0.5985 -0.1229
  412TMC3    C5 6202   2.790   0.660  14.473  0.6666  0.0534 -0.1331
  412TMC3    C6 6203   2.777   0.559  14.567 -0.2862  1.2056  0.1810
  412TMC3     C 6204   2.924   0.938  14.681  0.6118  0.2115 -0.7003
  412TMC3     O 6205   2.960   1.014  14.595  0.1837  0.6031  0.4255
  412TMC3     H 6206   2.821   0.740  14.842  0.8895 -0.3100 -0.3261
  412TMC3    H1 6207   2.843   0.864  14.432  1.3971 -0.2977 -0.7419
  412TMC3    H2 6208   2.732   0.462  14.545 -1.0601  1.9478 -1.4725
  412TMC3    C7 6209   2.675   0.661  14.389  0.5484 -0.2398 -0.3813
  412TMC3    C8 6210   2.663   0.540  14.773 -0.1813 -0.2432 -0.1532
  412TMC3    O1 6211   2.578   0.608  14.439  0.0242 -0.9258 -0.4142
  412TMC3    O2 6212   2.664   0.552  14.895  0.6285  0.4116  0.4180
  413MPD2     C 6213   4.652   3.913  15.007  0.2912  0.1156  0.8000
  413MPD2    C1 6214   4.577   3.812  14.956  0.5947  0.8839  0.4605
  413MPD2    C2 6215   4.645   3.693  14.940  0.1708  0.4986 -0.2858
  413MPD2    C3 6216   0.042   3.664  14.981  0.5352  0.2326  0.4012
  413MPD2    C4 6217   0.111   3.770  15.037  0.0178 -0.2477 -0.1459
  413MPD2    C5 6218   0.043   3.891  15.053 -0.4536 -0.0433  0.3568
  413MPD2     H 6219   4.593   3.616  14.884  2.7648  0.0401 -2.0606
  413MPD2    H1 6220   0.216   3.765  15.064 -0.1945  0.3584  0.7801
  413MPD2    H2 6221   4.608   4.008  15.035  0.8028  0.6074 -0.0625
  413MPD2    H3 6222   0.096   3.968  15.109  1.9333  0.1343 -2.1583
  413MPD2     N 6223   0.094   3.548  14.943 -0.2520  0.1277  0.1801
  413MPD2    H5 6224   0.027   3.487  14.896 -0.3607  1.8773 -1.9508
  413MPD2    N1 6225   4.439   3.823  14.940  0.0064 -0.2131  0.1285
  413MPD2    H7 6226   4.394   3.900  14.988  0.2495  0.3805 -0.5909
  414TMC3    C1 6227   0.242   3.369  14.916  0.5446  0.6005  0.7240
  414TMC3    C2 6228   0.331   3.282  14.978  0.4928 -0.2791  0.0889
  414TMC3    C3 6229   0.342   3.160  14.914  0.0556 -0.2120 -0.6685
  414TMC3    C4 6230   0.183   3.336  14.797  0.2947 -0.4200  0.1020
  414TMC3    C5 6231   0.204   3.217  14.743  0.3346 -0.0952 -0.3422
  414TMC3    C6 6232   0.270   3.117  14.804  0.1705 -0.1635 -0.6746
  414TMC3     C 6233   0.218   3.496  14.984  0.4458 -1.1202 -0.1063
  414TMC3     O 6234   0.302   3.547  15.051  0.1960  0.3671  0.7814
  414TMC3     H 6235   0.392   3.311  15.062  2.0295  1.1491 -1.5229
  414TMC3    H1 6236   0.119   3.404  14.742  1.5580  2.1584  1.8142
  414TMC3    H2 6237   0.273   3.019  14.758 -1.9193 -0.5021 -0.0964
  414TMC3    C7 6238   0.127   3.179  14.628 -0.1431 -0.0261  0.3392
  414TMC3    C8 6239   0.443   3.063  14.955 -0.5834 -0.9450 -0.8518
  414TMC3    O1 6240   0.011   3.217  14.634 -0.1377 -0.5757 -0.3641
  414TMC3    O2 6241   0.427   2.942  14.932 -0.0693 -0.2567  0.3091
  415TMC3    C1 6242   0.086   0.971  10.459 -0.1497  0.1138  0.2978
  415TMC3    C2 6243   0.060   1.077  10.381  0.5161 -0.6833  0.0359
  415TMC3    C3 6244   4.680   1.078  10.302 -0.3512  0.4233  0.1933
  415TMC3    C4 6245   4.727   0.875  10.478 -0.5287  0.3888 -0.3254
  415TMC3    C5 6246   4.609   0.883  10.410 -0.6616 -0.4101  0.0849
  415TMC3    C6 6247   4.580   0.975  10.318 -0.6306  0.6362 -0.4557
  415TMC3     C 6248   0.181   0.975  10.574 -0.0555  0.0154 -0.9433
  415TMC3     O 6249   0.181   0.902  10.671  0.0288  0.2791  0.2935
  415TMC3     H 6250   0.127   1.162  10.374  1.2825 -1.3366 -0.4164
  415TMC3    H1 6251   0.019   0.793  10.543  0.2816 -0.6666 -1.9930
  415TMC3    H2 6252   4.491   0.979  10.255 -0.9751  1.6688  0.0842
  415TMC3    C7 6253   4.500   0.798  10.449 -0.3940  0.6159  0.1909
  415TMC3    C8 6254   4.656   1.194  10.219 -1.0087  0.2308 -0.1311
  415TMC3    O1 6255   4.411   0.769  10.369 -0.3192  0.5896  0.0307
  415TMC3    O2 6256   4.538   1.209  10.195 -0.1485 -0.0313 -0.2344
  416MPD2     C 6257   2.279   0.238  11.233 -0.0732 -0.1014  0.0245
  416MPD2    C1 6258   2.188   0.171  11.309  0.4569 -0.6656 -0.5118
  416MPD2    C2 6259   2.101   0.074  11.263  0.8453  0.7290  0.7864
  416MPD2    C3 6260   2.111   0.034  11.132  0.4794  0.4629 -0.6177
  416MPD2    C4 6261   2.217   0.077  11.052  0.2645 -0.2816 -0.2889
  416MPD2    C5 6262   2.294   0.183  11.102  0.3951 -0.1336  0.0412
  416MPD2     H 6263   2.022   0.033  11.325  0.2004  0.4135 -0.2314
  416MPD2    H1 6264   2.225   0.050  10.947 -0.2233 -0.8162 -0.1893
  416MPD2    H2 6265   2.335   0.326  11.261 -1.8704  0.0986  3.0355
  416MPD2    H3 6266   2.345   0.242  11.026  0.4205 -2.1187 -1.4806
  416MPD2     N 6267   2.010   4.672  11.089  0.3910 -0.2030  0.1286
  416MPD2    H5 6268   1.932   4.661  11.152 -1.2705 -3.0945 -2.4615
  416MPD2    N1 6269   2.168   0.232  11.433  0.0651  0.2174  0.1930
  416MPD2    H7 6270   2.215   0.320  11.451 -0.9921  0.7582  0.2639
  417TMC3    C1 6271   2.049   0.291  11.611 -0.4486  0.2314  0.1072
  417TMC3    C2 6272   1.994   0.255  11.729  0.1372 -0.6452  0.1817
  417TMC3    C3 6273   1.886   0.328  11.777 -0.8543  0.4132 -0.7773
  417TMC3    C4 6274   1.994   0.398  11.533 -0.6804  0.1086  0.3360
  417TMC3    C5 6275   1.881   0.463  11.584 -0.4278 -0.2518 -0.0025
  417TMC3    C6 6276   1.834   0.434  11.709 -0.1916 -0.2138  0.4977
  417TMC3     C 6277   2.105   0.182  11.537  0.0627  0.3568 -0.1055
  417TMC3     O 6278   2.078   0.065  11.559  0.5095 -0.0247 -0.2016
  417TMC3     H 6279   2.032   0.171  11.786 -1.6600 -1.4848  0.1383
  417TMC3    H1 6280   2.033   0.432  11.438 -2.1265  0.2786 -0.1993
  417TMC3    H2 6281   1.759   0.490  11.765  0.2392 -0.7820  1.6487
  417TMC3    C7 6282   1.798   0.539  11.489 -0.4612 -0.3059  0.3016
  417TMC3    C8 6283   1.870   0.327  11.919  0.7530  0.6046  0.7029
  417TMC3    O1 6284   1.855   0.598  11.392  0.2220 -0.0557 -0.5027
  417TMC3    O2 6285   1.841   0.439  11.965  0.5512  0.2970  0.4751
  418TMC3    C1 6286   0.445   2.619   0.504 -0.6859  0.2680 -0.3590
  418TMC3    C2 6287   0.342   2.548   0.445  0.1592  0.0177  0.2191
  418TMC3    C3 6288   0.358   2.417   0.433  0.1984  0.2429 -0.2178
  418TMC3    C4 6289   0.538   2.557   0.582 -0.8047  0.1698 -0.1476
  418TMC3    C5 6290   0.527   2.419   0.583 -0.5509 -0.2628 -0.0593
  418TMC3    C6 6291   0.447   2.343   0.504 -0.4941  0.3288  0.2692
  418TMC3     C 6292   0.499   2.739   0.438 -0.3955 -0.3236 -0.2210
  418TMC3     O 6293   0.418   2.810   0.374 -0.5925 -0.3610 -0.0994
  418TMC3     H 6294   0.276   2.601   0.377  0.2728  1.5407  1.2997
  418TMC3    H1 6295   0.612   2.614   0.638 -1.6843  1.0660  0.1038
  418TMC3    H2 6296   0.445   2.235   0.501  1.8643  0.2228  3.1032
  418TMC3    C7 6297   0.642   2.354   0.646  0.3039  0.1773 -0.4136
  418TMC3    C8 6298   0.301   2.365   0.307  0.6662 -0.4087 -0.1669
  418TMC3    O1 6299   0.647   2.238   0.610 -0.5595  0.0914 -0.1560
  418TMC3    O2 6300   0.217   2.428   0.247 -0.0643  0.0447  0.4897
  419MPD2     C 6301   3.952   4.562  12.702  0.1708 -0.2237 -0.0242
  419MPD2    C1 6302   3.855   4.655  12.715  0.2759 -0.7083  0.1590
  419MPD2    C2 6303   3.870   0.025  12.801 -0.3263 -0.0067  0.1339
  419MPD2    C3 6304   3.978   0.035  12.883 -0.3162  0.5408 -0.2136
  419MPD2    C4 6305   4.073   4.672  12.873  0.1990 -0.1037  0.7376
  419MPD2    C5 6306   4.062   4.570  12.782 -0.2192  0.4356  0.3440
  419MPD2     H 6307   3.789   0.095  12.817  0.8565  1.1253  1.1721
  419MPD2    H1 6308   4.168   4.681  12.925 -0.6414  2.0169  1.9545
  419MPD2    H2 6309   3.958   4.485  12.625 -0.5031 -1.5292  1.2307
  419MPD2    H3 6310   4.142   4.499  12.769  0.3938  1.4120 -1.2594
  419MPD2     N 6311   3.993   0.155  12.960 -0.1857  0.3008  0.0207
  419MPD2    H5 6312   3.916   0.221  12.962 -0.4489 -0.0090  0.3358
  419MPD2    N1 6313   3.745   4.668  12.629 -0.2320  0.7353 -1.2059
  419MPD2    H7 6314   3.698   0.022  12.644 -2.0308 -0.5111  0.5556
  420TMC3    C1 6315   4.107   0.326  13.072  0.2353 -0.2157 -0.9573
  420TMC3    C2 6316   4.029   0.413  13.005  0.3168  0.5252 -0.5012
  420TMC3    C3 6317   4.020   0.540  13.055 -0.3507  0.1204  0.3899
  420TMC3    C4 6318   4.189   0.359  13.175 -0.2596 -0.4493 -0.2827
  420TMC3    C5 6319   4.183   0.488  13.218 -0.7826  0.7491 -1.0516
  420TMC3    C6 6320   4.103   0.582  13.160 -0.6868  0.2721 -0.2691
  420TMC3     C 6321   4.113   0.194  13.019 -0.5124  0.4378 -0.2450
  420TMC3     O 6322   4.208   0.127  13.044 -0.5571  0.1570  0.2190
  420TMC3     H 6323   3.990   0.388  12.906  1.8488  0.4158 -1.0716
  420TMC3    H1 6324   4.250   0.278  13.213  1.1042  0.4388 -0.5881
  420TMC3    H2 6325   4.092   0.678  13.209 -1.9430 -1.4749  2.8418
  420TMC3    C7 6326   4.210   0.506  13.359 -0.0587 -0.1621  0.0939
  420TMC3    C8 6327   3.881   0.589  13.040  0.0915 -0.5358 -0.3384
  420TMC3    O1 6328   4.206   0.405  13.432 -0.0108  0.0831 -0.3661
  420TMC3    O2 6329   3.810   0.514  12.976 -0.0229 -0.6238  0.0132
  421TMC3    C1 6330   1.109   1.659  13.517 -0.1254  0.1504 -0.3010
  421TMC3    C2 6331   1.051   1.752  13.595  0.4133  0.2627  0.8155
  421TMC3    C3 6332   1.102   1.778  13.719 -0.8011  0.8075  0.2943
  421TMC3    C4 6333   1.232   1.605  13.554 -0.6162 -0.4913 -0.4339
  421TMC3    C5 6334   1.287   1.646  13.677  0.1988 -0.0051  0.3548
  421TMC3    C6 6335   1.219   1.717  13.767  0.4762  0.1213 -0.2198
  421TMC3     C 6336   1.032   1.593  13.416  0.5068  0.0072  0.6447
  421TMC3     O 6337   0.918   1.643  13.387 -0.3027  0.1253 -0.0962
  421TMC3     H 6338   0.960   1.796  13.556  2.4881  0.6895 -3.6067
  421TMC3    H1 6339   1.273   1.516  13.507 -0.6376 -1.4848  1.4135
  421TMC3    H2 6340   1.250   1.735  13.869 -2.0561  2.4902  0.1488
  421TMC3    C7 6341   1.397   1.565  13.727 -0.1619 -0.1733  0.6286
  421TMC3    C8 6342   1.039   1.867  13.815 -0.4754  0.0966  0.0555
  421TMC3    O1 6343   1.427   1.465  13.661  0.2066 -0.2355 -0.4930
  421TMC3    O2 6344   1.100   1.907  13.915  1.1489 -0.0765  0.1174
  422TMC3    C1 6345   3.220   2.970  12.559 -0.1816  0.2694 -0.0540
  422TMC3    C2 6346   3.174   3.080  12.637  0.9522  0.2590  0.0741
  422TMC3    C3 6347   3.114   3.062  12.757  0.0828  0.0039 -0.3444
  422TMC3    C4 6348   3.183   2.842  12.592 -0.6999 -0.6345 -0.4741
  422TMC3    C5 6349   3.118   2.834  12.713  0.1957 -0.2526  0.0949
  422TMC3    C6 6350   3.094   2.937  12.803  0.1468 -0.0834  0.1120
  422TMC3     C 6351   3.266   2.998  12.429  0.5084 -0.2137 -0.2962
  422TMC3     O 6352   3.223   3.101  12.379  0.2222 -0.1177  0.4060
  422TMC3     H 6353   3.191   3.177  12.593  0.3612  0.6028  0.6081
  422TMC3    H1 6354   3.200   2.752  12.532  1.7247 -0.9747  0.7357
  422TMC3    H2 6355   3.038   2.928  12.896  0.3523  2.9270  0.5118
  422TMC3    C7 6356   3.028   2.714  12.741 -0.1660  0.1426  0.0336
  422TMC3    C8 6357   3.153   3.165  12.849 -0.2512 -0.4153  0.2352
  422TMC3    O1 6358   3.068   2.602  12.720 -0.3949 -0.6644 -0.1228
  422TMC3    O2 6359   3.156   3.281  12.818 -0.0986  0.4544  0.4539
  423MPD2     C 6360   4.185   4.054   0.635 -0.0258 -0.7892 -0.7967
  423MPD2    C1 6361   4.216   3.922   0.649  0.1411  0.2228 -0.0453
  423MPD2    C2 6362   4.300   3.865   0.557 -0.5978  0.3622 -0.4145
  423MPD2    C3 6363   4.363   3.943   0.457 -0.2077  0.7250 -0.2834
  423MPD2    C4 6364   4.340   4.081   0.452  0.3994  0.4935  0.8026
  423MPD2    C5 6365   4.241   4.131   0.539 -0.1671  0.3406  0.7261
  423MPD2     H 6366   4.316   3.758   0.569 -0.1895  0.5273  0.6054
  423MPD2    H1 6367   4.384   4.155   0.386 -0.6454 -0.3900 -0.8761
  423MPD2    H2 6368   4.108   4.099   0.695 -0.9778 -0.9086 -1.9236
  423MPD2    H3 6369   4.211   4.235   0.548 -0.9649  0.3695 -2.1447
  423MPD2     N 6370   4.446   3.892   0.363 -0.4441  0.2537 -0.1587
  423MPD2    H5 6371   4.490   3.959   0.300  0.8962  0.2360  0.7807
  423MPD2    N1 6372   4.163   3.841   0.756  0.4015  0.6239  0.2599
  423MPD2    H7 6373   4.207   3.750   0.769  0.6706  1.0625  2.4636
  424TMC3    C1 6374   4.018   3.783   0.930  0.8458 -0.2171  0.2624
  424TMC3    C2 6375   4.082   3.661   0.948 -0.0418 -0.1880 -0.3699
  424TMC3    C3 6376   4.038   3.582   1.053 -0.0396 -0.0882  0.1067
  424TMC3    C4 6377   3.915   3.826   1.016  0.1812 -0.5156  0.5907
  424TMC3    C5 6378   3.882   3.750   1.122  0.9416  0.3344  0.3683
  424TMC3    C6 6379   3.933   3.624   1.138  0.1996  0.0947 -0.3559
  424TMC3     C 6380   4.052   3.878   0.826 -0.6468 -0.2994  0.4246
  424TMC3     O 6381   3.974   3.970   0.809 -0.7792  0.1149 -0.4231
  424TMC3     H 6382   4.156   3.625   0.877  2.6043  3.6548  0.4294
  424TMC3    H1 6383   3.869   3.923   1.014  0.9468 -0.1390  1.0435
  424TMC3    H2 6384   3.893   3.548   1.204 -1.7984  1.4185 -0.0388
  424TMC3    C7 6385   3.779   3.787   1.218  0.6402 -0.1203 -0.0699
  424TMC3    C8 6386   4.135   3.489   1.102 -0.2190  0.4694 -0.6433
  424TMC3    O1 6387   3.735   3.693   1.282  0.3305 -0.5244 -0.2763
  424TMC3    O2 6388   4.176   3.395   1.035 -0.1057 -0.1390  0.2022
  425MPD2     C 6389   3.839   3.476  16.898  0.0436  0.7346  0.0399
  425MPD2    C1 6390   3.761   3.386  16.962  0.1403  0.9179  0.6655
  425MPD2    C2 6391   3.648   3.443  17.032  0.6209  0.2013 -0.1512
  425MPD2    C3 6392   3.621   3.578  17.030 -0.3128 -0.4702  0.2424
  425MPD2    C4 6393   3.705   3.663  16.965  0.5666 -0.5107 -0.1403
  425MPD2    C5 6394   3.814   3.612  16.896 -0.3593 -0.0894  0.2938
  425MPD2     H 6395   3.583   3.380  17.091  0.6991  1.3230  1.1116
  425MPD2    H1 6396   3.675   3.765  16.948 -1.0062 -0.8210  0.7771
  425MPD2    H2 6397   3.935   3.439  16.863 -0.3588 -1.1549  0.9272
  425MPD2    H3 6398   3.883   3.677  16.843 -2.3567  1.4784 -0.3560
  425MPD2     N 6399   3.522   3.622  17.112 -0.2691 -0.2041  0.4700
  425MPD2    H5 6400   3.468   3.544  17.149 -0.4776  0.6553  1.9626
  425MPD2    N1 6401   3.793   3.245  16.955 -0.1337 -0.2031 -0.1029
  425MPD2    H7 6402   3.869   3.223  16.892  0.1702  0.0452  0.1727
  426TMC3    C1 6403   3.767   3.004  17.000 -0.2735  0.3661 -0.1369
  426TMC3    C2 6404   3.862   2.982  16.904 -0.2407 -0.1016  0.4543
  426TMC3    C3 6405   3.916   2.853  16.899 -0.0189  0.5499  0.4771
  426TMC3    C4 6406   3.722   2.912  17.091 -1.2940 -0.0996  0.6349
  426TMC3    C5 6407   3.782   2.785  17.088 -0.4243 -0.4922  0.4602
  426TMC3    C6 6408   3.875   2.757  16.988 -0.8276  0.2469  0.5156
  426TMC3     C 6409   3.722   3.145  17.019  0.4123  0.6740 -0.0579
  426TMC3     O 6410   3.631   3.156  17.099  0.3813 -0.1992  0.2536
  426TMC3     H 6411   3.885   3.055  16.827  0.3802  0.2036  0.9288
  426TMC3    H1 6412   3.672   2.952  17.179 -3.6720  0.2466 -0.8662
  426TMC3    H2 6413   3.900   2.653  16.974 -1.1631  0.0683  1.2429
  426TMC3    C7 6414   3.708   2.676  17.152 -0.7149  0.0363  0.1607
  426TMC3    C8 6415   3.999   2.816  16.785 -0.0551  0.4956 -0.3384
  426TMC3    O1 6416   3.726   2.558  17.125  0.2571 -0.5321 -0.3245
  426TMC3    O2 6417   3.982   2.877  16.680 -0.3493  0.6369  0.0832
  427MPD2     C 6418   2.483   1.045  15.350 -0.0077 -0.2767  0.6833
  427MPD2    C1 6419   2.405   0.946  15.399  0.4752 -0.5220 -0.0674
  427MPD2    C2 6420   2.272   0.933  15.377 -0.0879  0.5602 -0.2010
  427MPD2    C3 6421   2.215   1.029  15.302 -0.3560  0.3725 -0.1354
  427MPD2    C4 6422   2.288   1.133  15.251 -0.4803 -0.1369  0.6347
  427MPD2    C5 6423   2.427   1.139  15.274  0.2780 -0.1862  0.3647
  427MPD2     H 6424   2.219   0.844  15.408 -0.1098  0.0160 -1.7627
  427MPD2    H1 6425   2.247   1.204  15.180  2.6119  0.9657 -0.0419
  427MPD2    H2 6426   2.590   1.050  15.368 -0.0451  0.5683  0.6938
  427MPD2    H3 6427   2.471   1.229  15.232 -1.1324  0.3252 -0.0328
  427MPD2     N 6428   2.077   1.031  15.273 -0.0081 -0.1888 -0.0792
  427MPD2    H5 6429   2.059   1.112  15.214 -2.3512 -0.7051 -0.0509
  427MPD2    N1 6430   2.478   0.840  15.466  0.4777 -0.3067  0.5197
  427MPD2    H7 6431   2.579   0.841  15.462  0.4530  0.2392  0.0771
  428TMC3    C1 6432   2.511   0.642  15.586  0.2545 -0.4911 -0.1569
  428TMC3    C2 6433   2.468   0.561  15.683  0.0498 -0.5391 -0.5140
  428TMC3    C3 6434   2.544   0.448  15.713 -0.5902  0.7087 -0.3470
  428TMC3    C4 6435   2.604   0.600  15.494 -0.4852 -0.3801  0.4615
  428TMC3    C5 6436   2.671   0.482  15.527 -0.2249  0.7277  0.5979
  428TMC3    C6 6437   2.647   0.409  15.636 -0.4997 -0.1758 -0.1990
  428TMC3     C 6438   2.424   0.747  15.553 -0.4014 -0.4931  0.7012
  428TMC3     O 6439   2.306   0.747  15.593  0.4270  0.4831 -0.5980
  428TMC3     H 6440   2.386   0.591  15.747 -1.0194  1.0164 -2.5990
  428TMC3    H1 6441   2.644   0.665  15.418 -1.3882 -0.8814 -0.4259
  428TMC3    H2 6442   2.699   0.314  15.647 -2.0751 -1.3389 -2.8716
  428TMC3    C7 6443   2.808   0.497  15.496  0.2368  0.0944  0.0374
  428TMC3    C8 6444   2.460   0.343  15.768 -0.0726 -0.3331 -0.5412
  428TMC3    O1 6445   2.879   0.501  15.595 -0.0793  0.5713 -0.2294
  428TMC3    O2 6446   2.456   0.239  15.706 -0.2779  0.0138 -0.3724
  429MPD2     C 6447   2.866   0.278   0.012  0.3525 -0.4570 -0.3895
  429MPD2    C1 6448   2.988   0.279  17.687  0.1023  0.3181  0.5840
  429MPD2    C2 6449   3.037   0.400  17.638  0.3773 -0.4338 -0.1510
  429MPD2    C3 6450   2.949   0.515  17.644  0.3374 -1.0750 -0.2137
  429MPD2    C4 6451   2.825   0.511  17.709  0.4500  0.2844 -0.1332
  429MPD2    C5 6452   2.782   0.392   0.024 -0.7509  0.8993  0.3472
  429MPD2     H 6453   3.136   0.405  17.594 -0.0518  1.5963 -0.8581
  429MPD2    H1 6454   2.761   0.598  17.703 -0.5461 -0.4349  0.0157
  429MPD2    H2 6455   2.824   0.192   0.062 -1.2074  0.6284  0.1688
  429MPD2    H3 6456   2.680   0.386   0.060 -0.5647  1.7963  1.0148
  429MPD2     N 6457   2.997   0.631  17.572  0.5326  0.4095  0.0225
  429MPD2    H5 6458   3.085   0.618  17.521 -0.0707  1.0372 -1.1832
  429MPD2    N1 6459   3.067   0.163  17.679  0.6661  0.0784 -0.0593
  429MPD2    H7 6460   3.155   0.176  17.630  0.1061 -0.8928 -1.3274
  430TMC3    C1 6461   3.007   0.844  17.478  0.3072  0.4837 -0.2374
  430TMC3    C2 6462   2.942   0.924  17.388  0.1226  0.2311  0.2880
  430TMC3    C3 6463   3.001   0.976  17.275  0.0614 -0.3174  0.7771
  430TMC3    C4 6464   3.143   0.821  17.455  0.1546  0.3309 -0.2104
  430TMC3    C5 6465   3.191   0.873  17.341  0.4036  0.5517  0.3548
  430TMC3    C6 6466   3.125   0.947  17.248  0.1901 -0.5564 -0.0449
  430TMC3     C 6467   2.929   0.752  17.556  0.0656  0.2354  0.5445
  430TMC3     O 6468   2.812   0.782  17.575  0.0700 -0.2414  0.1821
  430TMC3     H 6469   2.838   0.950  17.403 -0.0263  0.3261 -0.8799
  430TMC3    H1 6470   3.210   0.770  17.523  0.2107  0.0979 -0.4437
  430TMC3    H2 6471   3.159   0.955  17.145  1.1125 -1.8117  0.1607
  430TMC3    C7 6472   3.318   0.828  17.289  0.4593  0.3847  0.3307
  430TMC3    C8 6473   2.920   1.011  17.159  1.2848 -0.2210 -0.4502
  430TMC3    O1 6474   3.342   0.714  17.318  0.3544 -0.0243  0.5256
  430TMC3    O2 6475   2.844   0.925  17.118  0.4308  0.3940  0.9011
  431MPD2     C 6476   4.222   0.391  12.684  0.7040 -1.1440 -0.4876
  431MPD2    C1 6477   4.148   0.461  12.593 -0.0415  0.3886  0.0394
  431MPD2    C2 6478   4.046   0.409  12.514  0.0928  0.4159 -0.3165
  431MPD2    C3 6479   4.010   0.271  12.531  0.2129 -0.1413 -0.0203
  431MPD2    C4 6480   4.081   0.199  12.626 -0.0597  0.4097  0.0865
  431MPD2    C5 6481   4.193   0.255  12.687 -0.0156 -0.1258  0.0414
  431MPD2     H 6482   4.002   0.477  12.442 -1.1430  0.6570  0.6604
  431MPD2    H1 6483   4.066   0.093  12.640 -0.0282  0.2488 -1.0587
  431MPD2    H2 6484   4.315   0.429  12.724 -0.1152 -0.8067  1.1177
  431MPD2    H3 6485   4.268   0.199  12.742  1.2091  1.4956  0.0131
  431MPD2     N 6486   3.899   0.204  12.474  0.3229 -0.2283 -0.3858
  431MPD2    H5 6487   3.888   0.106  12.497 -1.6030  0.5762  2.1887
  431MPD2    N1 6488   4.162   0.600  12.573 -0.1976 -0.4895  0.1254
  431MPD2    H7 6489   4.102   0.636  12.499  0.4769 -1.9954 -1.1670
  432TMC3    C1 6490   3.721   0.150  12.349  0.2424 -1.0664 -0.0645
  432TMC3    C2 6491   3.735   0.101  12.226 -0.8075 -0.3968 -0.4328
  432TMC3    C3 6492   3.714   4.704  12.205  0.3608  0.8017 -0.2804
  432TMC3    C4 6493   3.687   0.072  12.454 -0.3441 -0.4197 -0.3022
  432TMC3    C5 6494   3.659   4.677  12.428 -0.6104  0.3973 -0.1251
  432TMC3    C6 6495   3.683   4.621  12.307  0.5353 -0.3352  0.1003
  432TMC3     C 6496   3.813   0.251  12.378 -0.0284 -0.0564  0.6374
  432TMC3     O 6497   3.801   0.360  12.327 -0.0532  0.0332 -0.2009
  432TMC3     H 6498   3.794   0.161  12.157 -1.6174  0.5879 -0.2874
  432TMC3    H1 6499   3.644   0.132  12.534  1.7672  1.2233 -0.3927
  432TMC3    H2 6500   3.673   4.515  12.289  0.6130 -0.4995  1.0302
  432TMC3    C7 6501   3.724   4.590  12.522  0.1416  0.0691 -0.7598
  432TMC3    C8 6502   3.769   4.643  12.091  0.1869 -0.1759  0.2608
  432TMC3    O1 6503   3.777   4.482  12.491 -0.2174  0.5074  0.7499
  432TMC3    O2 6504   3.702   4.576  12.012  0.3665  0.3701 -0.0638
  433MPD2     C 6505   2.900   4.039  10.768  0.0683  0.2520 -0.3287
  433MPD2    C1 6506   2.821   3.957  10.844 -0.0426  0.1856 -0.9942
  433MPD2    C2 6507   2.833   3.977  10.982  0.0240 -0.2284 -0.1260
  433MPD2    C3 6508   2.893   4.083  11.043 -0.2486  0.0949  1.0446
  433MPD2    C4 6509   2.951   4.177  10.956 -0.2235  0.7485  0.1321
  433MPD2    C5 6510   2.964   4.147  10.822  0.4635  0.4280  0.7425
  433MPD2     H 6511   2.779   3.906  11.043  0.9410  0.1926  1.1680
  433MPD2    H1 6512   3.004   4.263  10.996  0.6335 -0.0804  0.7670
  433MPD2    H2 6513   2.902   4.030  10.660  2.0006 -0.8864 -0.1925
  433MPD2    H3 6514   3.021   4.203  10.748 -0.0720  0.7541  0.5793
  433MPD2     N 6515   2.890   4.100  11.184  0.1703 -0.4628 -0.1711
  433MPD2    H5 6516   2.861   4.021  11.241  0.2114  0.1454  0.6988
  433MPD2    N1 6517   2.756   3.846  10.794  0.2206 -0.6957 -0.1934
  433MPD2    H7 6518   2.768   3.838  10.694  1.4983  0.2642 -0.1148
  434TMC3    C1 6519   2.644   3.656  10.751  0.5158  0.4209  0.7872
  434TMC3    C2 6520   2.675   3.536  10.808  0.1517 -0.7040 -0.0672
  434TMC3    C3 6521   2.756   3.454  10.734  0.0220 -0.5155  0.3836
  434TMC3    C4 6522   2.679   3.690  10.621  0.0751  0.2986  0.7285
  434TMC3    C5 6523   2.755   3.596  10.549  0.6233 -0.1657 -0.4637
  434TMC3    C6 6524   2.799   3.477  10.608 -0.3609 -0.6075  0.0255
  434TMC3     C 6525   2.664   3.764  10.848  0.2566 -0.1737  0.5634
  434TMC3     O 6526   2.634   3.749  10.967 -0.4948 -0.1562 -0.0475
  434TMC3     H 6527   2.643   3.510  10.908  0.8075  0.0811  0.3431
  434TMC3    H1 6528   2.649   3.785  10.577 -0.6013  0.2724  1.1367
  434TMC3    H2 6529   2.829   3.388  10.554 -0.8361 -0.5228 -0.3773
  434TMC3    C7 6530   2.773   3.618  10.410 -0.6901  0.5013 -0.4927
  434TMC3    C8 6531   2.846   3.391  10.832 -0.7167 -0.1605  0.3927
  434TMC3    O1 6532   2.710   3.710  10.358  0.7204  0.4585  0.4195
  434TMC3    O2 6533   2.810   3.378  10.949  0.0582  0.4086  0.3542
  435MPD2     C 6534   0.813   4.426  15.465  0.6438 -0.1683 -0.2565
  435MPD2    C1 6535   0.800   4.414  15.604  0.3003  0.2296 -0.1462
  435MPD2    C2 6536   0.876   4.323  15.674 -1.0256  0.8956 -0.2942
  435MPD2    C3 6537   0.959   4.234  15.617 -0.3038 -0.2005  0.1448
  435MPD2    C4 6538   0.979   4.257  15.483 -0.2234  0.0145  0.0733
  435MPD2    C5 6539   0.907   4.343  15.406  0.2773 -0.1286  0.0067
  435MPD2     H 6540   0.852   4.322  15.780 -1.8847 -0.8979 -0.5087
  435MPD2    H1 6541   1.049   4.195  15.429 -1.2992 -0.6470 -0.5492
  435MPD2    H2 6542   0.756   4.494  15.402 -1.1620 -0.2095  1.3429
  435MPD2    H3 6543   0.923   4.341  15.299  1.9305 -3.0109  0.3077
  435MPD2     N 6544   1.035   4.139  15.688  0.3193 -0.3666  0.2418
  435MPD2    H5 6545   1.037   4.150  15.788 -3.5574  0.1380  0.2672
  435MPD2    N1 6546   0.692   4.475  15.673 -0.0885  0.2260 -0.2069
  435MPD2    H7 6547   0.671   4.445  15.768 -0.4928 -0.9379 -0.6665
  436TMC3    C1 6548   0.428   4.623  15.929  0.8934 -0.2296 -0.4773
  436TMC3    C2 6549   0.527   4.608  15.834  0.3152  0.0352 -0.4940
  436TMC3    C3 6550   0.493   4.582  15.705  0.6772  0.4789 -0.6504
  436TMC3    C4 6551   0.295   4.622  15.888 -0.0196 -0.0721 -0.1132
  436TMC3    C5 6552   0.263   4.595  15.758  0.2668  0.5643  0.0738
  436TMC3    C6 6553   0.362   4.584  15.661  0.4762 -0.2446 -0.0963
  436TMC3     C 6554   0.461   4.670  16.064  0.1050  0.1792  0.1292
  436TMC3     O 6555   0.577   4.707  16.074  0.4104 -0.3568  0.3689
  436TMC3     H 6556   0.633   4.616  15.858  0.3920  0.4043 -0.9578
  436TMC3    H1 6557   0.213   4.621  15.960 -0.7468  0.5543 -0.9371
  436TMC3    H2 6558   0.344   4.560  15.556 -0.8999 -1.5579  0.4461
  436TMC3    C7 6559   0.132   4.608  15.706  0.2227  0.5246 -0.4534
  436TMC3    C8 6560   0.591   4.542  15.617  0.2272 -0.3837  0.8018
  436TMC3    O1 6561   0.044   4.567  15.781  0.3952 -0.2238 -0.2648
  436TMC3    O2 6562   0.553   4.549  15.500 -0.2096  0.5149  0.1103
  437TMC3    C1 6563   3.804   0.908  12.013  0.0668  0.2611 -0.2700
  437TMC3    C2 6564   3.722   0.895  11.905 -0.2624 -0.2003  0.5280
  437TMC3    C3 6565   3.747   0.977  11.800  0.7297 -0.4934 -0.2919
  437TMC3    C4 6566   3.915   0.987  12.007 -0.1818  0.2524 -0.1162
  437TMC3    C5 6567   3.936   1.059  11.894 -0.6097 -0.3756 -0.2060
  437TMC3    C6 6568   3.852   1.063  11.791  0.2808  0.2779 -0.2901
  437TMC3     C 6569   3.794   0.820  12.132  0.4803  0.1656 -0.4768
  437TMC3     O 6570   3.746   0.711  12.112 -0.3236  0.0964 -0.0100
  437TMC3     H 6571   3.632   0.840  11.927  0.2528 -1.1645  0.2462
  437TMC3    H1 6572   3.992   0.990  12.084  1.1989  0.9639 -1.5115
  437TMC3    H2 6573   3.871   1.116  11.699  0.6960  0.3577 -0.1585
  437TMC3    C7 6574   4.061   1.136  11.883  0.2393  0.2674 -0.5091
  437TMC3    C8 6575   3.656   0.976  11.686 -0.0958 -0.6121 -0.4075
  437TMC3    O1 6576   4.097   1.161  11.770  0.1902 -0.3450 -0.1062
  437TMC3    O2 6577   3.662   1.074  11.615 -0.0327  0.3881 -0.6258
  438MPD2     C 6578   1.364   2.318  16.778 -0.1764  0.0345 -0.0847
  438MPD2    C1 6579   1.439   2.224  16.834 -0.1444  0.0582 -0.0038
  438MPD2    C2 6580   1.434   2.211  16.972  0.4176  0.5303  0.0442
  438MPD2    C3 6581   1.354   2.284  17.058 -0.0788 -0.6831 -0.1688
  438MPD2    C4 6582   1.289   2.388  17.006 -0.5065 -0.1502  0.3051
  438MPD2    C5 6583   1.301   2.402  16.867  1.0299  0.1661 -0.1886
  438MPD2     H 6584   1.489   2.126  17.009 -2.2064  0.1359  3.0483
  438MPD2    H1 6585   1.229   2.460  17.059  0.6149  0.7577  0.3233
  438MPD2    H2 6586   1.364   2.337  16.671  0.6372  0.2883 -0.0388
  438MPD2    H3 6587   1.243   2.479  16.818  1.2309  1.6499  1.8809
  438MPD2     N 6588   1.344   2.267  17.198 -0.3721 -0.8834  0.1414
  438MPD2    H5 6589   1.278   2.327  17.247  1.0547 -0.8146  1.9614
  438MPD2    N1 6590   1.519   2.129  16.766  0.4494  0.7086  0.6721
  438MPD2    H7 6591   1.588   2.073  16.814  1.3378  0.2190 -1.1536
  439TMC3    C1 6592   1.617   2.041  16.564  0.5728 -0.3225  0.1978
  439TMC3    C2 6593   1.597   2.017  16.431 -1.0261  0.0166 -0.1382
  439TMC3    C3 6594   1.702   1.970  16.369  0.2006  0.5640 -1.1376
  439TMC3    C4 6595   1.739   2.040  16.626  0.0393  0.1051  0.5795
  439TMC3    C5 6596   1.849   2.022  16.543 -0.8681  0.2987  0.1207
  439TMC3    C6 6597   1.828   1.970  16.421 -0.0622 -0.3240  0.4126
  439TMC3     C 6598   1.518   2.123  16.629  0.1740 -0.2217  0.4172
  439TMC3     O 6599   1.432   2.171  16.556  0.1019  0.6157 -0.3627
  439TMC3     H 6600   1.500   2.022  16.381 -0.3067 -0.5701 -1.6091
  439TMC3    H1 6601   1.764   2.081  16.723 -0.0590 -0.8514  1.0113
  439TMC3    H2 6602   1.903   1.924  16.358  0.9722  3.4326 -1.0596
  439TMC3    C7 6603   1.971   1.988  16.616  0.0253 -0.4327 -0.0659
  439TMC3    C8 6604   1.680   1.868  16.263  0.4644  0.2779  0.3843
  439TMC3    O1 6605   1.974   1.978  16.740 -0.7811  0.4462  0.4761
  439TMC3    O2 6606   1.767   1.873  16.178 -0.3549  0.5811  0.0836
  440MPD2     C 6607   0.062   2.346  14.740 -0.2266 -0.4730  0.7292
  440MPD2    C1 6608   0.127   2.464  14.773 -0.2451  0.0878  0.0892
  440MPD2    C2 6609   0.254   2.452  14.807  0.3437  0.0990 -0.1621
  440MPD2    C3 6610   0.326   2.332  14.789  0.3307  0.1104  0.6894
  440MPD2    C4 6611   0.259   2.218  14.745  0.2880 -0.3914  0.1596
  440MPD2    C5 6612   0.124   2.228  14.718 -0.0789  0.0032  0.3120
  440MPD2     H 6613   0.299   2.543  14.843  0.5514  0.5885 -1.6501
  440MPD2    H1 6614   0.315   2.126  14.731  1.9302  0.7657 -0.9856
  440MPD2    H2 6615   4.693   2.359  14.710 -0.0665 -0.6313  0.1112
  440MPD2    H3 6616   0.061   2.148  14.679  2.4105 -1.7603 -0.1048
  440MPD2     N 6617   0.464   2.323  14.833  0.3212 -0.2747  0.3424
  440MPD2    H5 6618   0.492   2.229  14.858 -1.1889 -0.3239  1.9114
  440MPD2    N1 6619   0.059   2.585  14.801 -0.3201 -0.0088  0.0265
  440MPD2    H7 6620   0.120   2.663  14.823 -1.4149  0.7316  0.4994
  441TMC3    C1 6621   0.663   2.390  14.933  0.0192  0.4518  0.9124
  441TMC3    C2 6622   0.761   2.484  14.938 -0.0958 -0.9898  0.0457
  441TMC3    C3 6623   0.853   2.476  15.037 -0.0264 -0.1745  0.1434
  441TMC3    C4 6624   0.648   2.298  15.031 -0.0849  0.8112  0.6225
  441TMC3    C5 6625   0.746   2.278  15.123 -0.2615 -0.5262  0.0154
  441TMC3    C6 6626   0.850   2.371  15.126  0.0563 -0.8740 -0.1159
  441TMC3     C 6627   0.544   2.427  14.865 -0.3148 -0.7691  0.5415
  441TMC3     O 6628   0.523   2.547  14.848 -0.4292 -0.0563  0.2415
  441TMC3     H 6629   0.760   2.568  14.869  0.2709 -1.8522 -1.0227
  441TMC3    H1 6630   0.551   2.252  15.046 -0.4774  1.0353 -1.1722
  441TMC3    H2 6631   0.934   2.362  15.194  0.3350  0.3167 -0.2967
  441TMC3    C7 6632   0.702   2.242  15.260 -0.2754 -0.7787  0.6571
  441TMC3    C8 6633   0.877   2.604  15.114  0.6600  0.1325 -0.1534
  441TMC3    O1 6634   0.757   2.297  15.355  0.4151 -0.2854 -0.1161
  441TMC3    O2 6635   0.954   2.594  15.211 -0.0589 -0.3259  0.5919
  442MPD2     C 6636   3.451   2.963  16.448  0.1705 -0.0598  0.6552
  442MPD2    C1 6637   3.341   2.892  16.494  0.0654 -0.9406  0.5215
  442MPD2    C2 6638   3.321   2.761  16.455  0.1162 -0.1691 -0.1024
  442MPD2    C3 6639   3.402   2.696  16.358  0.6075  0.0558  0.2734
  442MPD2    C4 6640   3.517   2.774  16.316 -0.1509 -0.2064 -0.0095
  442MPD2    C5 6641   3.538   2.900  16.364  0.1667 -0.0488 -0.3962
  442MPD2     H 6642   3.230   2.711  16.486  1.9400 -2.6273  1.3334
  442MPD2    H1 6643   3.594   2.732  16.252  0.8203  1.3896  0.1053
  442MPD2    H2 6644   3.474   3.066  16.475 -2.6949  0.2251  1.9444
  442MPD2    H3 6645   3.620   2.954  16.319 -0.2023 -0.1521 -1.1943
  442MPD2     N 6646   3.370   2.576  16.286  0.2350  0.2466 -0.5054
  442MPD2    H5 6647   3.431   2.554  16.208  1.9128 -0.7527  1.0923
  442MPD2    N1 6648   3.242   2.958  16.573  0.6567 -0.4635 -0.1941
  442MPD2    H7 6649   3.168   2.908  16.621 -0.5056  0.2608 -1.2348
  443TMC3    C1 6650   3.138   3.146  16.673 -0.2934 -0.5765  0.1904
  443TMC3    C2 6651   3.083   3.270  16.663  0.2757  0.1126 -0.2357
  443TMC3    C3 6652   2.984   3.316  16.744  0.2020 -0.5583 -0.6286
  443TMC3    C4 6653   3.101   3.065  16.776 -0.1715  0.6417 -0.0535
  443TMC3    C5 6654   3.013   3.112  16.868 -1.2322 -0.5960 -0.0708
  443TMC3    C6 6655   2.950   3.235  16.851  0.7024  0.4706 -0.1337
  443TMC3     C 6656   3.230   3.094  16.572  0.9122 -0.0575  0.3335
  443TMC3     O 6657   3.275   3.173  16.491  0.6151  0.1194  0.3445
  443TMC3     H 6658   3.128   3.331  16.586 -1.4549  1.9210  0.1615
  443TMC3    H1 6659   3.145   2.969  16.799 -0.7973  1.0055  2.7026
  443TMC3    H2 6660   2.863   3.267  16.908  1.3009  2.4651 -0.3435
  443TMC3    C7 6661   2.947   3.005  16.942 -0.2988 -0.5324  0.7047
  443TMC3    C8 6662   2.872   3.369  16.668 -0.3880  0.0957  0.0559
  443TMC3    O1 6663   2.950   2.896  16.900  0.1217 -0.3136 -0.1281
  443TMC3    O2 6664   2.814   3.477  16.687  0.5418  0.0672  1.0279
  444MPD2     C 6665   3.460   2.876  16.867 -0.6857 -0.4399 -0.1871
  444MPD2    C1 6666   3.424   2.755  16.915 -0.6236  0.2100  0.4178
  444MPD2    C2 6667   3.484   2.643  16.863  0.1750  0.0376  0.2650
  444MPD2    C3 6668   3.582   2.657  16.769  0.1607 -0.3424 -0.3211
  444MPD2    C4 6669   3.620   2.780  16.721  0.2582  0.1322  0.2220
  444MPD2    C5 6670   3.559   2.896  16.767  0.0230 -0.6108 -0.6608
  444MPD2     H 6671   3.446   2.546  16.895  0.6605 -0.0121  0.6863
  444MPD2    H1 6672   3.697   2.796  16.647  0.3067 -0.5948  0.1156
  444MPD2    H2 6673   3.412   2.965  16.907  0.6421 -1.1501  2.9443
  444MPD2    H3 6674   3.570   2.996  16.727 -0.8536 -1.0881 -2.1160
  444MPD2     N 6675   3.642   2.537  16.726 -0.1293  0.1107 -0.1497
  444MPD2    H5 6676   3.611   2.455  16.778 -0.9606  0.6425  0.1850
  444MPD2    N1 6677   3.316   2.727  17.003 -0.3200 -0.0321 -0.4552
  444MPD2    H7 6678   3.317   2.633  17.043 -0.8646  0.8169  1.5878
  445TMC3    C1 6679   3.809   2.382  16.639  0.0438  0.4859  0.1817
  445TMC3    C2 6680   3.796   2.298  16.753 -0.4311 -0.5564 -0.4349
  445TMC3    C3 6681   3.874   2.185  16.771 -0.1230 -0.2398  0.1614
  445TMC3    C4 6682   3.904   2.347  16.550  0.2859  0.9024 -0.8592
  445TMC3    C5 6683   3.987   2.241  16.578  0.9281  0.2631 -0.1224
  445TMC3    C6 6684   3.985   2.163  16.688  0.2472 -0.1016 -0.1759
  445TMC3     C 6685   3.749   2.519  16.642  0.6401  0.6205  0.1812
  445TMC3     O 6686   3.795   2.597  16.564  0.4084  0.4518  0.8858
  445TMC3     H 6687   3.740   2.332  16.840  0.0946 -0.6765 -0.0479
  445TMC3    H1 6688   3.918   2.400  16.457 -0.8508 -0.8126 -2.0082
  445TMC3    H2 6689   4.058   2.084  16.702 -0.7750 -0.8924  0.6835
  445TMC3    C7 6690   4.094   2.219  16.483 -0.1462  0.5750  0.4999
  445TMC3    C8 6691   3.862   2.121  16.902 -0.5314 -0.0528 -0.2532
  445TMC3    O1 6692   4.110   2.296  16.393 -0.3682 -0.6310 -0.1814
  445TMC3    O2 6693   3.790   2.176  16.985  0.0666 -0.1587  0.1213
  446MPD2     C 6694   2.737   3.343  11.437  0.6643  0.1653  0.4294
  446MPD2    C1 6695   2.683   3.369  11.310 -0.3948  0.0263 -0.1588
  446MPD2    C2 6696   2.750   3.457  11.223 -0.0168  0.5898 -0.4531
  446MPD2    C3 6697   2.872   3.511  11.261  0.2400  0.7150  0.3719
  446MPD2    C4 6698   2.921   3.477  11.384 -0.6923 -0.0726 -0.2929
  446MPD2    C5 6699   2.857   3.401  11.475 -1.0423 -0.5770  0.5244
  446MPD2     H 6700   2.710   3.483  11.126  2.5216 -0.3358 -1.7588
  446MPD2    H1 6701   3.021   3.505  11.414 -0.9555  0.7997 -0.2327
  446MPD2    H2 6702   2.686   3.279  11.508 -2.1779  0.6105 -1.2471
  446MPD2    H3 6703   2.903   3.375  11.570  0.7703  0.0208 -0.1892
  446MPD2     N 6704   2.951   3.581  11.158  0.5371 -0.4594  0.0021
  446MPD2    H5 6705   2.924   3.573  11.060 -0.7893  0.5486  0.2836
  446MPD2    N1 6706   2.570   3.300  11.257  0.1867  0.1490  0.5158
  446MPD2    H7 6707   2.541   3.328  11.164  0.9703  0.1287  0.2663
  447TMC3    C1 6708   3.142   3.669  11.058  0.5584 -0.0745  0.0953
  447TMC3    C2 6709   3.078   3.685  10.938 -0.5956  0.4654  0.1036
  447TMC3    C3 6710   3.165   3.707  10.833  0.3138  0.7566 -0.2117
  447TMC3    C4 6711   3.276   3.657  11.071  0.6140 -0.0242  0.0651
  447TMC3    C5 6712   3.353   3.673  10.960  0.3057 -0.0496  0.2468
  447TMC3    C6 6713   3.299   3.693  10.835  0.7803 -0.0272  0.3198
  447TMC3     C 6714   3.071   3.644  11.183 -0.2147  0.1877  0.4418
  447TMC3     O 6715   3.120   3.669  11.289 -0.2395 -0.5451 -0.0350
  447TMC3     H 6716   2.972   3.705  10.928 -0.9604 -2.0267 -1.1002
  447TMC3    H1 6717   3.327   3.622  11.160  0.5663 -1.4804 -0.4769
  447TMC3    H2 6718   3.361   3.700  10.746 -0.6518 -1.2399 -0.7762
  447TMC3    C7 6719   3.496   3.648  10.980  0.7457  0.2871  0.2232
  447TMC3    C8 6720   3.103   3.738  10.705  0.3106  0.5625 -0.8115
  447TMC3    O1 6721   3.568   3.631  10.883  0.1384 -0.0200 -0.2432
  447TMC3    O2 6722   3.028   3.655  10.651 -0.2888  0.6046  0.2406
  448TMC3    C1 6723   1.431   3.516  16.832 -0.1175 -0.0198  0.0293
  448TMC3    C2 6724   1.393   3.421  16.741  0.1552  0.8730 -0.9347
  448TMC3    C3 6725   1.373   3.294  16.778 -0.7282  0.7251  0.0078
  448TMC3    C4 6726   1.440   3.479  16.964  0.4037  0.4157 -0.0803
  448TMC3    C5 6727   1.411   3.355  17.000 -0.2004  0.2391  0.5657
  448TMC3    C6 6728   1.386   3.259  16.907 -0.2116  0.4619  0.2851
  448TMC3     C 6729   1.426   3.658  16.792  0.1038  0.1267 -0.2992
  448TMC3     O 6730   1.363   3.694  16.693  0.3250 -0.4473 -0.1851
  448TMC3     H 6731   1.384   3.459  16.640 -1.3984  1.3728 -0.6124
  448TMC3    H1 6732   1.471   3.550  17.040  0.1823 -0.9789  1.2997
  448TMC3    H2 6733   1.350   3.158  16.927  0.4515  0.1508 -0.0974
  448TMC3    C7 6734   1.382   3.327  17.146  0.0436 -0.1872  0.6528
  448TMC3    C8 6735   1.364   3.186  16.683  0.0717  0.9357  0.7382
  448TMC3    O1 6736   1.384   3.418  17.232 -0.6100  0.2228  0.0895
  448TMC3    O2 6737   1.413   3.076  16.701 -0.2133 -0.6467  0.0156
  449MPD2     C 6738   2.971   2.078  14.194 -0.0103 -0.6764 -0.5758
  449MPD2    C1 6739   2.909   2.170  14.114 -0.0680  0.6803 -0.1546
  449MPD2    C2 6740   2.779   2.199  14.137 -0.5478 -0.1668 -0.2807
  449MPD2    C3 6741   2.704   2.134  14.237  0.3397 -0.0358  0.4086
  449MPD2    C4 6742   2.765   2.033  14.306 -0.4534  0.1986 -0.5765
  449MPD2    C5 6743   2.897   2.000  14.278  0.5375  0.0993  0.1532
  449MPD2     H 6744   2.727   2.260  14.064  2.2405 -0.6761 -2.7003
  449MPD2    H1 6745   2.715   1.969  14.377  1.4151  1.5781  1.9966
  449MPD2    H2 6746   3.074   2.048  14.180  1.0170  0.7916  3.9014
  449MPD2    H3 6747   2.947   1.912  14.318 -2.0765 -1.6038 -0.3547
  449MPD2     N 6748   2.566   2.161  14.243 -0.2571 -0.3805 -0.2507
  449MPD2    H5 6749   2.514   2.218  14.176  1.6397  0.6668 -0.8320
  449MPD2    N1 6750   2.968   2.237  14.005 -0.0689  0.5435  0.5498
  449MPD2    H7 6751   2.911   2.304  13.953 -0.5854  1.1922  1.9579
  450TMC3    C1 6752   3.105   2.312  13.845  0.4109  0.3857  0.4864
  450TMC3    C2 6753   3.084   2.232  13.731 -0.0683  0.2150 -0.0095
  450TMC3    C3 6754   2.989   2.279  13.637 -0.1398  0.5694  1.0335
  450TMC3    C4 6755   3.044   2.431  13.858 -0.3813  0.6999 -0.2818
  450TMC3    C5 6756   2.957   2.475  13.763  0.6982  0.0693 -0.6542
  450TMC3    C6 6757   2.931   2.404  13.653  0.4343  0.1892  0.2552
  450TMC3     C 6758   3.093   2.225  13.956 -0.1671 -0.0271 -0.8656
  450TMC3     O 6759   3.176   2.138  13.974  0.1689 -0.6155  0.5406
  450TMC3     H 6760   3.096   2.126  13.749 -0.4621  0.1602 -0.0811
  450TMC3    H1 6761   3.052   2.476  13.956 -0.4247  2.7635 -1.2309
  450TMC3    H2 6762   2.863   2.452  13.583  0.5518  1.2575  0.8671
  450TMC3    C7 6763   2.830   2.508  13.819  0.5248 -0.1268  0.1831
  450TMC3    C8 6764   2.958   2.200  13.517 -0.1026  0.1493  0.0756
  450TMC3    O1 6765   2.818   2.454  13.928 -0.3674  0.0653 -0.0910
  450TMC3    O2 6766   2.858   2.222  13.453 -0.3832  0.3459 -0.3172
  451MPD2     C 6767   4.686   0.765   0.714 -0.1082  0.5694 -0.2412
  451MPD2    C1 6768   4.603   0.656   0.728 -0.3671 -0.7206 -0.4462
  451MPD2    C2 6769   4.651   0.527   0.697 -0.1426 -0.5137  0.1975
  451MPD2    C3 6770   0.045   0.512   0.654  0.1773  0.6495 -0.0744
  451MPD2    C4 6771   0.136   0.617   0.653  0.2159  0.7107  0.0961
  451MPD2    C5 6772   0.080   0.742   0.675  0.4532 -0.1817  0.1631
  451MPD2     H 6773   4.589   0.438   0.688 -0.1923 -0.4229 -0.3549
  451MPD2    H1 6774   0.238   0.599   0.623  0.7841 -1.4311  3.4297
  451MPD2    H2 6775   4.661   0.870   0.725  0.4832  0.8158 -1.1868
  451MPD2    H3 6776   0.151   0.823   0.662  0.3727 -0.1484 -0.0682
  451MPD2     N 6777   0.094   0.394   0.594 -0.3481 -0.3140 -0.9239
  451MPD2    H5 6778   0.175   0.394   0.533  0.2125  1.7661 -0.1685
  451MPD2    N1 6779   4.467   0.679   0.756 -0.0978 -0.0337 -0.1527
  451MPD2    H7 6780   4.432   0.774   0.752  1.8303  0.6849 -0.0410
  452TMC3    C1 6781   0.074   0.166   0.534  0.2140 -0.0185 -0.0197
  452TMC3    C2 6782   0.011   0.047   0.568 -0.3584 -0.3882  0.6320
  452TMC3    C3 6783   4.707   4.696   0.472 -0.0789 -0.0025  0.0512
  452TMC3    C4 6784   0.102   0.196   0.405  0.3713  0.4804 -0.3483
  452TMC3    C5 6785   0.066   0.098   0.312  0.1892 -0.1145 -0.7988
  452TMC3    C6 6786   4.730   4.720   0.342 -0.0952 -0.0928 -0.2549
  452TMC3     C 6787   0.045   0.269   0.634  0.2181  0.8373  1.3173
  452TMC3     O 6788   4.693   0.244   0.718 -0.0934  0.5812  0.0250
  452TMC3     H 6789   0.021   0.019   0.672  3.9407 -1.6587 -0.0879
  452TMC3    H1 6790   0.134   0.293   0.368  1.5393  0.7284  1.3282
  452TMC3    H2 6791   4.685   4.658   0.266 -0.9258 -1.0043  0.9823
  452TMC3    C7 6792   0.098   0.131   0.170  0.9108  1.0097  0.5094
  452TMC3    C8 6793   4.574   4.663   0.485 -0.5491 -0.8755  0.8183
  452TMC3    O1 6794   0.169   0.228   0.146  0.0130 -0.0605  0.2558
  452TMC3    O2 6795   4.529   4.577   0.411 -0.0137 -0.5108  0.3259
  453TMC3    C1 6796   0.010   2.675  12.283 -0.5153  0.9027 -0.8099
  453TMC3    C2 6797   4.656   2.591  12.356 -0.4519 -0.4106  0.3534
  453TMC3    C3 6798   4.530   2.575  12.307  0.2341 -0.1567  0.5007
  453TMC3    C4 6799   4.703   2.734  12.172  0.0143 -0.1829 -0.1989
  453TMC3    C5 6800   4.577   2.713  12.126 -0.8645 -0.0543  0.3302
  453TMC3    C6 6801   4.484   2.641  12.197 -0.5311  0.0047  0.1402
  453TMC3     C 6802   0.153   2.689  12.321 -0.4513 -0.6838 -0.1622
  453TMC3     O 6803   0.218   2.780  12.265 -0.0200 -0.5086  0.1355
  453TMC3     H 6804   4.682   2.531  12.443 -0.2919  0.4307  0.8860
  453TMC3    H1 6805   0.033   2.799  12.114  0.0129 -0.4836 -0.5411
  453TMC3    H2 6806   4.390   2.620  12.146 -1.4079 -1.6080  2.4195
  453TMC3    C7 6807   4.567   2.690  11.983 -1.0186  0.2332  0.1906
  453TMC3    C8 6808   4.480   2.442  12.319  0.2864 -0.0213  0.7075
  453TMC3    O1 6809   4.459   2.721  11.926 -0.0732 -0.5437 -0.2941
  453TMC3    O2 6810   4.370   2.433  12.366  0.1463  0.0317 -0.2760
  454MPD2     C 6811   4.418   2.044  15.855  0.4727 -0.1979  0.3953
  454MPD2    C1 6812   4.347   2.104  15.754 -0.0458  0.0693  0.6948
  454MPD2    C2 6813   4.349   2.241  15.733  0.3421 -0.0926 -0.5417
  454MPD2    C3 6814   4.411   2.320  15.821 -0.3833  1.3100 -0.9711
  454MPD2    C4 6815   4.489   2.264  15.922 -0.0235  0.4141  0.1888
  454MPD2    C5 6816   4.489   2.125  15.938 -0.6024 -0.0264  0.4604
  454MPD2     H 6817   4.295   2.282  15.648  4.3010  1.0918 -2.4765
  454MPD2    H1 6818   4.543   2.314  16.002  0.2270  2.2968 -1.1585
  454MPD2    H2 6819   4.412   1.940  15.885  1.3338 -0.5625 -0.6836
  454MPD2    H3 6820   4.522   2.081  16.031  1.2479 -0.3109 -0.3470
  454MPD2     N 6821   4.388   2.462  15.830  0.0926 -0.3719  0.1736
  454MPD2    H5 6822   4.420   2.500  15.918  2.8706 -1.1695 -0.4851
  454MPD2    N1 6823   4.259   2.036  15.656  0.1992 -0.5598 -0.2130
  454MPD2    H7 6824   4.218   2.102  15.590  2.0269 -1.3372 -2.1186
  455TMC3    C1 6825   4.193   2.560  15.901 -0.6279  0.3285 -0.4284
  455TMC3    C2 6826   4.274   2.569  16.014  0.0112 -0.0178 -0.3888
  455TMC3    C3 6827   4.209   2.537  16.126  0.5948 -0.4344  0.6327
  455TMC3    C4 6828   4.065   2.511  15.900  0.6238  0.2612 -0.1972
  455TMC3    C5 6829   4.011   2.464  16.017 -0.2710  0.3056  0.5828
  455TMC3    C6 6830   4.083   2.480  16.132  0.8562  0.7908 -0.6784
  455TMC3     C 6831   4.272   2.523  15.790  0.4751 -0.8847 -0.4860
  455TMC3     O 6832   4.213   2.505  15.684  0.3213 -0.7693  0.3231
  455TMC3     H 6833   4.364   2.629  16.011  1.9233 -2.8316  0.8455
  455TMC3    H1 6834   4.012   2.493  15.807  1.6356 -1.0410 -0.5124
  455TMC3    H2 6835   4.049   2.455  16.232 -1.2227  1.5947 -1.1812
  455TMC3    C7 6836   3.966   2.324  15.994  0.6853  0.3671  0.8253
  455TMC3    C8 6837   4.281   2.545  16.250  0.6738 -0.3321  0.0536
  455TMC3    O1 6838   3.925   2.297  15.880 -0.0068  0.5020 -0.1690
  455TMC3    O2 6839   4.395   2.497  16.255  0.0838 -0.5023  0.5478
  456MPD2     C 6840   1.926   2.679  15.700  0.3831 -0.4039  0.6257
  456MPD2    C1 6841   1.946   2.553  15.752  0.6626 -0.1158  0.6914
  456MPD2    C2 6842   1.859   2.503  15.849  0.6099 -0.1301  0.3722
  456MPD2    C3 6843   1.755   2.590  15.902  0.4787  0.2849 -0.0593
  456MPD2    C4 6844   1.729   2.710  15.838 -0.0154  0.0764  0.2415
  456MPD2    C5 6845   1.813   2.749  15.738  0.8634  0.0739 -0.1816
  456MPD2     H 6846   1.879   2.409  15.898 -0.6571 -1.2327 -1.2360
  456MPD2    H1 6847   1.650   2.779  15.868 -0.7292 -1.9824  3.0211
  456MPD2    H2 6848   1.988   2.713  15.619 -1.7477  0.6862 -0.5189
  456MPD2    H3 6849   1.800   2.846  15.693  0.2566  0.2383  0.3418
  456MPD2     N 6850   1.689   2.542  16.022  0.2910 -0.7266 -0.2305
  456MPD2    H5 6851   1.737   2.466  16.069  0.7782  0.6746  1.5419
  456MPD2    N1 6852   2.057   2.483  15.698 -0.4452 -0.2051 -0.8451
  456MPD2    H7 6853   2.128   2.537  15.650 -0.3889  0.3719 -0.0968
  457TMC3    C1 6854   1.527   2.524  16.189  0.4326  0.4970  0.0701
  457TMC3    C2 6855   1.410   2.571  16.224 -1.0586 -0.1921 -0.0848
  457TMC3    C3 6856   1.380   2.576  16.359 -0.1137 -0.0183 -0.0095
  457TMC3    C4 6857   1.627   2.490  16.283 -0.6053  0.3141 -0.4531
  457TMC3    C5 6858   1.593   2.486  16.408  0.7114  0.2044  0.2479
  457TMC3    C6 6859   1.469   2.523  16.450  0.4831  0.1122 -0.4119
  457TMC3     C 6860   1.566   2.591  16.064  0.1477 -0.2343 -0.9221
  457TMC3     O 6861   1.488   2.669  16.007  0.4157  0.5894  0.6746
  457TMC3     H 6862   1.338   2.593  16.146 -0.7900  0.0163 -0.2725
  457TMC3    H1 6863   1.720   2.454  16.241  0.4823  3.1465 -0.4794
  457TMC3    H2 6864   1.441   2.522  16.554  1.0476  1.7263 -0.2503
  457TMC3    C7 6865   1.682   2.444  16.515 -0.0328 -0.0420 -0.0733
  457TMC3    C8 6866   1.336   2.701  16.408 -0.3090 -0.5220 -0.5245
  457TMC3    O1 6867   1.628   2.445  16.626  0.2480 -1.2404 -0.0854
  457TMC3    O2 6868   1.325   2.718  16.530  0.1060  0.2765 -0.1630
  458MPD2     C 6869   4.517   1.271  12.078  0.0956  0.6072 -0.4107
  458MPD2    C1 6870   4.420   1.291  12.171 -0.8819  0.1589  0.3031
  458MPD2    C2 6871   4.281   1.253  12.156  1.1811  0.4434  0.2697
  458MPD2    C3 6872   4.251   1.202  12.029 -0.5949  0.1726 -0.1239
  458MPD2    C4 6873   4.347   1.191  11.929  1.2954 -0.6873 -0.0525
  458MPD2    C5 6874   4.478   1.221  11.956 -0.0990  0.1586  0.0101
  458MPD2     H 6875   4.201   1.273  12.227  1.5998 -0.7857  1.0702
  458MPD2    H1 6876   4.325   1.166  11.826  1.6091  1.7799 -0.7121
  458MPD2    H2 6877   4.621   1.287  12.102 -0.1830  0.7350  0.6895
  458MPD2    H3 6878   4.556   1.202  11.884  0.4879  0.7406  0.4854
  458MPD2     N 6879   4.114   1.167  12.001 -0.2819  0.2112 -0.1209
  458MPD2    H5 6880   4.061   1.147  12.085 -2.0725 -0.2111 -1.3553
  458MPD2    N1 6881   4.467   1.376  12.276 -0.2011  0.2777 -0.1743
  458MPD2    H7 6882   4.560   1.416  12.278 -0.6658  1.4833 -2.1884
  459TMC3    C1 6883   4.467   1.490  12.484 -0.2388 -0.8433 -0.1978
  459TMC3    C2 6884   4.567   1.572  12.440 -0.4513 -0.1605 -0.0561
  459TMC3    C3 6885   4.679   1.576  12.518  0.4437 -0.6455  1.0987
  459TMC3    C4 6886   4.459   1.444  12.610 -0.3922 -0.4399 -0.2835
  459TMC3    C5 6887   4.568   1.463  12.691 -0.3423  0.5226 -0.0043
  459TMC3    C6 6888   4.682   1.527  12.647 -0.0742  0.1044 -0.0140
  459TMC3     C 6889   4.395   1.399  12.393  0.0138 -0.3667  0.2173
  459TMC3     O 6890   4.298   1.337  12.429 -0.0832  0.4085 -0.2204
  459TMC3     H 6891   4.569   1.606  12.337  0.2166  0.1908  0.0688
  459TMC3    H1 6892   4.395   1.363  12.644 -3.3684  1.1143 -2.2269
  459TMC3    H2 6893   0.033   1.540  12.712  0.8701 -0.0950 -1.2395
  459TMC3    C7 6894   4.567   1.441  12.834 -0.1012 -0.8715  0.7008
  459TMC3    C8 6895   0.056   1.664  12.478  0.4148  0.1500  0.1783
  459TMC3    O1 6896   4.655   1.485  12.904 -0.3637 -0.1281 -0.4388
  459TMC3    O2 6897   0.030   1.725  12.375  0.0989  0.1497 -0.0104
  460MPD2     C 6898   3.219   4.010  10.492  0.7991  0.3367  0.2724
  460MPD2    C1 6899   3.136   3.904  10.529 -0.0495 -0.2065 -0.1998
  460MPD2    C2 6900   3.018   3.887  10.462  1.4018 -0.3621 -0.6785
  460MPD2    C3 6901   2.979   3.973  10.359  0.4337  0.5951 -0.0033
  460MPD2    C4 6902   3.065   4.071  10.319  0.2296 -0.3143  0.2703
  460MPD2    C5 6903   3.184   4.095  10.390 -0.2663  0.3246 -0.5461
  460MPD2     H 6904   2.949   3.812  10.499 -1.3884  0.6999 -3.8177
  460MPD2    H1 6905   3.040   4.144  10.244  1.3002 -0.4560 -0.2240
  460MPD2    H2 6906   3.306   4.035  10.552  0.7632 -0.0231  0.4751
  460MPD2    H3 6907   3.245   4.178  10.357 -1.2594  1.3061  0.0826
  460MPD2     N 6908   2.859   3.946  10.293 -0.4426  0.7418  0.5071
  460MPD2    H5 6909   2.809   3.864  10.326 -0.7032 -0.2223 -2.3008
  460MPD2    N1 6910   3.163   3.848  10.649  0.1055 -0.4422  0.0581
  460MPD2    H7 6911   3.247   3.881  10.694 -0.0125 -0.7837  0.5282
  461TMC3    C1 6912   2.681   3.975  10.141 -0.4938  0.1110 -0.0123
  461TMC3    C2 6913   2.705   3.845  10.087  0.1519 -0.2450  0.1819
  461TMC3    C3 6914   2.623   3.797   9.990 -0.4248  0.0875  0.3782
  461TMC3    C4 6915   2.580   4.051  10.082  0.6769 -0.1737  0.4952
  461TMC3    C5 6916   2.501   3.996   9.986  0.3568  0.0314  0.3963
  461TMC3    C6 6917   2.511   3.866   9.948 -0.3257  0.0144  0.1867
  461TMC3     C 6918   2.788   4.037  10.216 -0.9167  0.1925  1.2518
  461TMC3     O 6919   2.802   4.162  10.207  0.8186  0.6574 -0.5078
  461TMC3     H 6920   2.789   3.785  10.120  0.1611 -0.2066  0.2283
  461TMC3    H1 6921   2.561   4.150  10.121  0.7917 -0.1006  0.3678
  461TMC3    H2 6922   2.452   3.836   9.862 -0.8952  0.6144  0.3731
  461TMC3    C7 6923   2.430   4.087   9.896 -0.0919  1.3268  0.5697
  461TMC3    C8 6924   2.688   3.703   9.898  0.4207  0.2011  0.8820
  461TMC3    O1 6925   2.361   4.032   9.813 -0.4888  0.3006 -0.3870
  461TMC3    O2 6926   2.798   3.661   9.928  0.2037 -0.1861 -0.6245
  462TMC3    C1 6927   3.266   0.636   0.224  0.5864 -0.8633  0.2788
  462TMC3    C2 6928   3.396   0.624   0.276  0.0906  0.7999  0.0401
  462TMC3    C3 6929   3.417   0.503   0.335 -0.0624  0.0529 -0.3405
  462TMC3    C4 6930   3.173   0.535   0.224  0.0345  0.5343  0.5607
  462TMC3    C5 6931   3.223   0.413   0.269  0.3555 -0.1135  0.4397
  462TMC3    C6 6932   3.348   0.389   0.308 -0.3908  0.2577  0.0965
  462TMC3     C 6933   3.236   0.757   0.153  0.3572  0.2609 -0.1185
  462TMC3     O 6934   3.119   0.796   0.153  0.0867 -0.3111  0.3000
  462TMC3     H 6935   3.471   0.702   0.282 -0.4394  1.1792  1.8599
  462TMC3    H1 6936   3.072   0.550   0.189  0.0923 -1.3424 -0.4328
  462TMC3    H2 6937   3.368   0.312   0.381 -1.8105  0.2362  0.4659
  462TMC3    C7 6938   3.136   0.301   0.289 -0.0733 -0.0675 -0.4240
  462TMC3    C8 6939   3.555   0.472   0.377 -0.2312 -0.5965  0.0963
  462TMC3    O1 6940   3.171   0.187   0.261 -0.2980  0.0439  0.2278
  462TMC3    O2 6941   3.603   0.565   0.441 -0.1680 -0.7851 -0.4775
  463MPD2     C 6942   3.965   3.149   1.797 -0.0361  0.1643  0.6823
  463MPD2    C1 6943   3.856   3.206   1.726  0.0844  0.5283  0.4559
  463MPD2    C2 6944   3.850   3.341   1.716  0.5995 -0.4500 -0.2323
  463MPD2    C3 6945   3.960   3.419   1.754  0.2747 -0.0632  0.4468
  463MPD2    C4 6946   4.066   3.362   1.817  0.5784  0.8171  0.6313
  463MPD2    C5 6947   4.067   3.231   1.837  0.1835 -0.4564 -0.0046
  463MPD2     H 6948   3.758   3.378   1.673  0.1573  1.1038  2.0282
  463MPD2    H1 6949   4.153   3.419   1.849  0.7334  0.7010  0.4165
  463MPD2    H2 6950   3.966   3.044   1.822  2.5792 -0.3125 -1.4758
  463MPD2    H3 6951   4.146   3.183   1.894  2.4353  0.1916 -2.5841
  463MPD2     N 6952   3.954   3.553   1.739  0.4050 -0.4783 -0.0615
  463MPD2    H5 6953   4.042   3.601   1.755  0.4683 -0.3642 -0.7734
  463MPD2    N1 6954   3.748   3.130   1.673  0.3228 -0.1179 -0.7801
  463MPD2    H7 6955   3.661   3.179   1.652  0.5173  1.1790  1.5115
  464TMC3    C1 6956   3.647   2.929   1.598  0.1863  0.2609  0.0473
  464TMC3    C2 6957   3.535   2.999   1.587 -0.5531 -1.1424 -0.8619
  464TMC3    C3 6958   3.444   2.983   1.486  0.3664  1.2216  0.0475
  464TMC3    C4 6959   3.687   2.840   1.505 -0.1811 -0.4022  0.1850
  464TMC3    C5 6960   3.611   2.840   1.394  0.4483  0.1554 -0.0275
  464TMC3    C6 6961   3.495   2.915   1.381  0.4151  0.3477  0.1815
  464TMC3     C 6962   3.757   2.992   1.671  0.1559 -0.3768  0.7283
  464TMC3     O 6963   3.850   2.919   1.696  0.5389  0.6283  0.9301
  464TMC3     H 6964   3.502   3.052   1.675 -0.4453  0.2508 -1.6594
  464TMC3    H1 6965   3.787   2.797   1.507 -0.5267 -1.1333  1.3807
  464TMC3    H2 6966   3.446   2.902   1.285 -0.4423  1.8175  0.4295
  464TMC3    C7 6967   3.682   2.805   1.273 -0.4898  0.5831  0.5796
  464TMC3    C8 6968   3.364   3.095   1.451  0.0741 -0.4181 -0.5721
  464TMC3    O1 6969   3.759   2.708   1.277  0.0308 -0.4314  0.0833
  464TMC3    O2 6970   3.350   3.123   1.332  0.0975 -0.0176  0.4488
  465MPD2     C 6971   0.953   2.231  17.062  0.7653 -0.5824 -0.9463
  465MPD2    C1 6972   0.829   2.266  17.102  0.0660  0.0950  0.2942
  465MPD2    C2 6973   0.744   2.322  17.012 -1.0421 -0.5918  0.4073
  465MPD2    C3 6974   0.772   2.325  16.876  0.2956  0.4170  0.2079
  465MPD2    C4 6975   0.898   2.285  16.833 -0.3744 -1.0972 -0.8233
  465MPD2    C5 6976   0.990   2.246  16.932 -0.0229 -0.5895 -0.3096
  465MPD2     H 6977   0.650   2.362  17.048  0.7484  3.0595  1.0669
  465MPD2    H1 6978   0.943   2.291  16.735 -0.2357 -0.4207 -0.7152
  465MPD2    H2 6979   1.026   2.185  17.128  1.2687  1.2885 -0.2051
  465MPD2    H3 6980   1.092   2.223  16.905  0.0813  0.0124 -0.4169
  465MPD2     N 6981   0.675   2.377  16.782 -0.2347 -0.3399 -0.4265
  465MPD2    H5 6982   0.583   2.404  16.814  0.7096  0.7319  1.3768
  465MPD2    N1 6983   0.786   2.246  17.236 -0.0107 -0.0198 -0.1640
  465MPD2    H7 6984   0.687   2.256  17.255  0.1222 -2.6210  1.9302
  466TMC3    C1 6985   0.388   2.551  16.636 -0.1454 -0.0990  0.1532
  466TMC3    C2 6986   0.418   2.649  16.544  0.8313 -0.1291 -0.1320
  466TMC3    C3 6987   0.532   2.645  16.470  0.4371 -0.1132 -0.3829
  466TMC3    C4 6988   0.464   2.437  16.647 -0.5502  0.4608 -0.2282
  466TMC3    C5 6989   0.584   2.435  16.572 -0.2962  0.7689  0.2838
  466TMC3    C6 6990   0.616   2.540  16.487 -0.6404 -0.2950 -1.0376
  466TMC3     C 6991   0.369   2.599  16.768 -0.2369 -0.4888  0.4044
  466TMC3     O 6992   0.436   2.536  16.845  0.1105 -0.0424  0.7593
  466TMC3     H 6993   0.341   2.721  16.516 -1.5869 -3.2421 -1.5431
  466TMC3    H1 6994   0.434   2.351  16.706  2.6715 -0.5562 -0.0451
  466TMC3    H2 6995   0.713   2.533  16.439  0.1456  0.5123  0.4207
  466TMC3    C7 6996   0.697   2.391  16.642  0.0579 -0.3466 -0.1448
  466TMC3    C8 6997   0.586   2.761  16.407 -0.8984  0.7227  0.9132
  466TMC3    O1 6998   0.797   2.376  16.580  0.1186 -0.0064 -0.2047
  466TMC3    O2 6999   0.649   2.759  16.300 -0.0796  0.8730 -0.7595
  467TMC3    C1 7000   2.008   1.071  13.475  0.2101  0.4307  0.0808
  467TMC3    C2 7001   2.028   1.183  13.547  0.1540  0.5300  0.0387
  467TMC3    C3 7002   1.939   1.282  13.547 -0.0778  0.2561  0.2734
  467TMC3    C4 7003   1.903   1.067  13.389  0.0769 -0.0019 -0.2317
  467TMC3    C5 7004   1.820   1.178  13.384 -0.3228  0.3495 -0.3526
  467TMC3    C6 7005   1.828   1.286  13.468  0.4497  0.1926  0.4297
  467TMC3     C 7006   2.061   0.950  13.530  0.0055 -0.4089  0.4217
  467TMC3     O 7007   2.162   0.947  13.594  0.8423  0.6114  0.0705
  467TMC3     H 7008   2.124   1.191  13.596  0.2211  2.3572 -0.3913
  467TMC3    H1 7009   1.890   0.985  13.319  1.5517  1.5372 -2.2977
  467TMC3    H2 7010   1.769   1.376  13.454  1.0575  0.5169 -0.0554
  467TMC3    C7 7011   1.690   1.143  13.346 -0.7151 -0.2636 -0.7664
  467TMC3    C8 7012   1.979   1.413  13.603  0.1739 -0.1830  0.6180
  467TMC3    O1 7013   1.676   1.062  13.251  0.4000  0.4241 -0.2514
  467TMC3    O2 7014   1.918   1.509  13.563  0.8592  0.5641 -0.0610
  468MPD2     C 7015   0.177   3.362  10.170  0.1647 -0.3155  0.0164
  468MPD2    C1 7016   0.235   3.316  10.285  0.8247 -0.2605 -0.6003
  468MPD2    C2 7017   0.249   3.174  10.311 -0.4490 -0.2211 -0.0917
  468MPD2    C3 7018   0.208   3.087  10.210 -0.0094  0.2228  0.2970
  468MPD2    C4 7019   0.171   3.139  10.089 -0.2910 -0.2956 -0.0847
  468MPD2    C5 7020   0.155   3.273  10.070  0.6347  0.3062  0.3273
  468MPD2     H 7021   0.275   3.138  10.410  0.6705 -0.9365 -0.6461
  468MPD2    H1 7022   0.147   3.076  10.004  1.5771  0.5419 -1.2405
  468MPD2    H2 7023   0.166   3.468  10.149 -0.3160 -0.1894  0.9188
  468MPD2    H3 7024   0.124   3.305   9.972  1.7820 -1.5695 -0.6719
  468MPD2     N 7025   0.212   2.943  10.228 -0.7579 -0.1472 -0.6271
  468MPD2    H5 7026   0.155   2.884  10.168 -0.5690 -0.2771 -0.6782
  468MPD2    N1 7027   0.278   3.405  10.384 -0.0902  0.2805  0.0325
  468MPD2    H7 7028   0.316   3.353  10.462  0.3841  0.2376 -0.2248
  469TMC3    C1 7029   0.352   3.585  10.512  0.2582  0.6949 -0.3701
  469TMC3    C2 7030   0.433   3.497  10.578 -0.6793  0.3415 -0.0376
  469TMC3    C3 7031   0.488   3.547  10.694 -0.2681 -0.0388  0.4032
  469TMC3    C4 7032   0.331   3.713  10.550 -0.0754 -0.6077 -0.4946
  469TMC3    C5 7033   0.395   3.760  10.660 -1.1883 -0.3331 -0.6229
  469TMC3    C6 7034   0.462   3.675  10.746 -0.5174  0.0896  0.0920
  469TMC3     C 7035   0.287   3.540  10.387 -0.1107 -0.4966 -0.0737
  469TMC3     O 7036   0.246   3.633  10.316  0.5440 -0.6756 -0.0774
  469TMC3     H 7037   0.480   3.413  10.528 -1.9611  1.0309 -2.3718
  469TMC3    H1 7038   0.272   3.782  10.492  0.6440  0.2120 -0.2545
  469TMC3    H2 7039   0.513   3.714  10.834  0.4131  2.2163 -1.3898
  469TMC3    C7 7040   0.318   3.870  10.713  0.8498 -0.3698 -0.4780
  469TMC3    C8 7041   0.604   3.471  10.744 -0.1856  0.0198  0.4407
  469TMC3    O1 7042   0.242   3.926  10.639 -0.2274  0.6245 -0.1168
  469TMC3    O2 7043   0.654   3.385  10.673  0.3217  0.4932  0.3132
  470TMC3    C1 7044   2.426   0.523   0.003  1.1014  0.1128 -0.1424
  470TMC3    C2 7045   2.495   0.591   0.097  0.0892  0.3348  0.0449
  470TMC3    C3 7046   2.524   0.528   0.216 -0.9940 -0.1340  0.4645
  470TMC3    C4 7047   2.371   0.399   0.021  0.2360  0.6355  0.0297
  470TMC3    C5 7048   2.398   0.338   0.144  0.1751 -0.7531 -0.5224
  470TMC3    C6 7049   2.486   0.399   0.233  0.2911  0.2370  0.1890
  470TMC3     C 7050   2.385   0.603  17.634 -0.5799 -0.0497 -0.2215
  470TMC3     O 7051   2.387   0.725  17.650 -0.3072 -0.3445 -0.6319
  470TMC3     H 7052   2.550   0.678   0.065  0.9156 -0.3359 -0.3705
  470TMC3    H1 7053   2.295   0.353  17.697 -1.3569  2.5089  0.5878
  470TMC3    H2 7054   2.500   0.370   0.336  2.1383 -1.4957 -0.5346
  470TMC3    C7 7055   2.344   0.210   0.175 -0.1720 -0.8277  0.2687
  470TMC3    C8 7056   2.573   0.600   0.333  0.1230  0.1757 -0.0019
  470TMC3    O1 7057   2.275   0.158   0.084 -0.2450 -0.2356 -0.0172
  470TMC3    O2 7058   2.629   0.534   0.417 -0.0679 -0.5147  0.2138
  471MPD2     C 7059   2.859   1.304  16.722  0.2085 -0.4314 -0.2584
  471MPD2    C1 7060   2.835   1.167  16.746  0.0130  1.0379  0.1688
  471MPD2    C2 7061   2.862   1.114  16.867 -0.0640  0.0461 -0.4018
  471MPD2    C3 7062   2.928   1.182  16.965  0.5707 -0.3500 -0.5065
  471MPD2    C4 7063   2.948   1.311  16.940  0.6425 -0.1631 -0.1798
  471MPD2    C5 7064   2.919   1.379  16.822  0.3443 -0.2714 -0.6083
  471MPD2     H 7065   2.844   1.008  16.880  1.8295 -0.4579 -1.8517
  471MPD2    H1 7066   2.991   1.366  17.023 -4.2474  0.2673  2.0740
  471MPD2    H2 7067   2.834   1.344  16.624 -0.2805 -0.6692 -0.2339
  471MPD2    H3 7068   2.936   1.485  16.808  2.1663 -0.7060 -1.7280
  471MPD2     N 7069   2.960   1.129  17.095 -0.4864  0.4983  0.1676
  471MPD2    H5 7070   3.004   1.190  17.163 -0.2101 -0.5003  0.8788
  471MPD2    N1 7071   2.755   1.085  16.657  0.4376  0.1922  0.5341
  471MPD2    H7 7072   2.757   0.986  16.678  0.7149  0.1031  0.0936
  472TMC3    C1 7073   2.663   1.006  16.466 -0.5897 -0.0988 -0.0857
  472TMC3    C2 7074   2.541   0.943  16.480 -0.1094  0.1385 -0.0939
  472TMC3    C3 7075   2.528   0.815  16.426  0.1500 -0.1413 -0.1702
  472TMC3    C4 7076   2.779   0.947  16.419 -0.2107  0.5883 -0.4175
  472TMC3    C5 7077   2.752   0.823  16.371 -0.3307  0.7761 -0.0849
  472TMC3    C6 7078   2.634   0.750  16.380 -0.1078 -0.4554 -0.7784
  472TMC3     C 7079   2.687   1.123  16.546  0.1153 -0.0625 -0.5126
  472TMC3     O 7080   2.636   1.235  16.521  0.3017 -0.1719  0.1473
  472TMC3     H 7081   2.453   0.994  16.517 -0.3015  0.7952 -1.5061
  472TMC3    H1 7082   2.878   0.990  16.421 -1.2223  2.8220  1.4648
  472TMC3    H2 7083   2.621   0.648  16.346  4.0582 -0.3597 -2.6507
  472TMC3    C7 7084   2.868   0.738  16.374  0.7420 -0.3480 -0.2920
  472TMC3    C8 7085   2.399   0.749  16.457  0.1558  0.4013 -0.1169
  472TMC3    O1 7086   2.855   0.623  16.425 -0.4267  0.1295  0.0282
  472TMC3    O2 7087   2.294   0.818  16.450  0.0546  0.0437  0.1749
  473MPD2     C 7088   3.432   2.910  14.374  0.2931 -0.9823  0.2321
  473MPD2    C1 7089   3.408   3.010  14.293  0.2250  0.5482  0.0010
  473MPD2    C2 7090   3.383   3.138  14.345  0.3600 -0.6936 -0.3878
  473MPD2    C3 7091   3.404   3.158  14.481 -0.1377  0.0634  0.6320
  473MPD2    C4 7092   3.434   3.057  14.563  0.1565 -0.4869  0.6183
  473MPD2    C5 7093   3.442   2.930  14.510  0.7570 -0.1116 -0.6409
  473MPD2     H 7094   3.349   3.207  14.269  2.7677  0.1531 -0.6733
  473MPD2    H1 7095   3.447   3.071  14.670 -1.5476 -0.3338  0.8044
  473MPD2    H2 7096   3.429   2.805  14.345  0.1871 -0.7901 -0.4393
  473MPD2    H3 7097   3.457   2.843  14.572 -2.5235 -0.6347 -0.6267
  473MPD2     N 7098   3.417   3.285  14.533  0.2134  0.0004  0.4190
  473MPD2    H5 7099   3.452   3.294  14.628 -0.6221 -0.1197  0.7385
  473MPD2    N1 7100   3.400   3.000  14.155 -0.5910  0.3371 -0.1137
  473MPD2    H7 7101   3.348   3.072  14.107 -1.5599  1.6250  2.8441
  474TMC3    C1 7102   3.374   3.517  14.559  0.4875 -0.1815  0.1431
  474TMC3    C2 7103   3.279   3.619  14.544  0.4683  0.1609  0.4061
  474TMC3    C3 7104   3.298   3.732  14.620  0.4545 -0.5374 -0.2123
  474TMC3    C4 7105   3.483   3.535  14.638 -0.1905  0.5592 -0.1080
  474TMC3    C5 7106   3.497   3.652  14.706  0.2043 -0.1174 -0.4466
  474TMC3    C6 7107   3.401   3.746  14.701  0.7036 -0.2959 -0.4229
  474TMC3     C 7108   3.347   3.395  14.485  0.2567  0.4243  0.9910
  474TMC3     O 7109   3.276   3.407  14.386 -0.0111 -0.8052  0.5417
  474TMC3     H 7110   3.188   3.605  14.485  0.4358  0.5387  0.3664
  474TMC3    H1 7111   3.573   3.474  14.634  0.0104  0.8944 -0.7286
  474TMC3    H2 7112   3.415   3.840  14.754 -0.6455 -0.7166  0.6556
  474TMC3    C7 7113   3.634   3.702  14.722 -0.1541  0.1560 -0.1395
  474TMC3    C8 7114   3.185   3.826  14.611  0.6129  0.3711  0.0052
  474TMC3    O1 7115   3.719   3.652  14.651 -0.4703  0.3211  0.6764
  474TMC3    O2 7116   3.070   3.783  14.586 -0.3714  0.2765 -0.2866
  475MPD2     C 7117   1.349   1.017  10.629 -0.3738  0.8999  0.0860
  475MPD2    C1 7118   1.404   1.136  10.578  0.1250  0.2302  0.1928
  475MPD2    C2 7119   1.370   1.256  10.649  0.6973  0.4201 -0.3595
  475MPD2    C3 7120   1.300   1.255  10.766  0.0716 -0.6405 -0.3032
  475MPD2    C4 7121   1.239   1.138  10.806 -0.0325 -0.3391 -0.0300
  475MPD2    C5 7122   1.262   1.021  10.733  0.3580  0.1218  0.1417
  475MPD2     H 7123   1.414   1.349  10.614 -0.3742  1.7306  1.8272
  475MPD2    H1 7124   1.178   1.123  10.895  0.1291 -0.1780  0.1070
  475MPD2    H2 7125   1.370   0.924  10.577  1.9796  1.2104  0.4804
  475MPD2    H3 7126   1.234   0.922  10.767 -0.6955 -0.0193 -1.1606
  475MPD2     N 7127   1.293   1.378  10.826  0.4708 -0.2613  0.0266
  475MPD2    H5 7128   1.316   1.464  10.778  1.6615 -0.6299 -0.0837
  475MPD2    N1 7129   1.489   1.148  10.465  0.1813  0.2892 -0.2998
  475MPD2    H7 7130   1.496   1.067  10.405  0.9399 -0.7070  1.1237
  476TMC3    C1 7131   1.659   1.233  10.327 -0.0942  0.1490 -0.0357
  476TMC3    C2 7132   1.589   1.206  10.221 -0.3045 -0.2734 -0.1036
  476TMC3    C3 7133   1.634   1.249  10.101  0.2207 -0.9988 -0.3555
  476TMC3    C4 7134   1.785   1.284  10.327 -0.6081  0.5719  0.3391
  476TMC3    C5 7135   1.839   1.314  10.204  0.3324  0.3587 -0.5065
  476TMC3    C6 7136   1.761   1.302  10.094  0.7373 -0.7634  0.6475
  476TMC3     C 7137   1.586   1.241  10.453 -0.0555  0.0587 -0.3238
  476TMC3     O 7138   1.615   1.335  10.527  0.2469  0.4735 -0.3641
  476TMC3     H 7139   1.489   1.171  10.241 -0.0013  0.4572  2.7562
  476TMC3    H1 7140   1.834   1.281  10.424 -0.7636  2.8737  0.4802
  476TMC3    H2 7141   1.794   1.345  10.000  1.4554  1.3835  1.9013
  476TMC3    C7 7142   1.959   1.399  10.205  0.1703  0.7669  0.7550
  476TMC3    C8 7143   1.536   1.297  10.000 -0.2262  0.2648  0.0689
  476TMC3    O1 7144   2.046   1.378  10.124 -0.1515 -0.2139 -0.2442
  476TMC3    O2 7145   1.579   1.377   9.919  0.2794  0.1671 -0.5233
  477MPD2     C 7146   3.817   2.972  11.481  0.1084 -0.1454 -0.8040
  477MPD2    C1 7147   3.722   2.933  11.573  0.0445 -0.2983 -0.1753
  477MPD2    C2 7148   3.752   2.850  11.681  0.2259 -0.3460  0.6708
  477MPD2    C3 7149   3.888   2.815  11.706 -0.1740  0.0019 -0.4513
  477MPD2    C4 7150   3.986   2.863  11.616 -0.3713 -0.4850 -0.2060
  477MPD2    C5 7151   3.948   2.936  11.509 -0.1425  0.9384  0.4940
  477MPD2     H 7152   3.672   2.823  11.749 -0.0875  0.4566  0.6213
  477MPD2    H1 7153   4.089   2.829  11.608 -0.2169 -0.3897  1.3314
  477MPD2    H2 7154   3.784   3.034  11.398  3.7670  1.3294 -1.1667
  477MPD2    H3 7155   4.013   2.961  11.426 -1.7791 -0.2545 -1.1035
  477MPD2     N 7156   3.922   2.745  11.819  0.4974 -0.0033 -0.0657
  477MPD2    H5 7157   3.841   2.721  11.875 -0.2739  1.1044 -0.6932
  477MPD2    N1 7158   3.596   2.988  11.548 -0.1239 -0.2378  0.0277
  477MPD2    H7 7159   3.583   3.058  11.476  0.9638  1.1782  1.2154
  478TMC3    C1 7160   3.366   3.029  11.561 -0.0669  0.1134 -0.2118
  478TMC3    C2 7161   3.285   3.091  11.651 -0.6146 -0.5843 -0.2234
  478TMC3    C3 7162   3.215   3.201  11.603 -0.0894  0.2867  0.3990
  478TMC3    C4 7163   3.365   3.062  11.428 -1.0923  0.6176 -0.4342
  478TMC3    C5 7164   3.282   3.161  11.386 -0.3050 -0.7213 -0.0281
  478TMC3    C6 7165   3.203   3.230  11.472 -0.0303 -0.3191 -0.3658
  478TMC3     C 7166   3.478   2.954  11.614  0.2956 -0.2268  0.2846
  478TMC3     O 7167   3.454   2.880  11.708 -0.1462  0.2844  0.5999
  478TMC3     H 7168   3.288   3.065  11.756  1.9769 -0.0269 -0.1709
  478TMC3    H1 7169   3.424   3.007  11.356 -0.6121  2.5718 -1.5259
  478TMC3    H2 7170   3.145   3.313  11.435 -2.3347 -1.0989  1.4690
  478TMC3    C7 7171   3.322   3.216  11.256  0.0803 -0.6709  1.2205
  478TMC3    C8 7172   3.170   3.281  11.712  0.4123  0.1950  0.7213
  478TMC3    O1 7173   3.435   3.178  11.220  0.5606  0.5078 -0.2504
  478TMC3    O2 7174   3.150   3.232  11.822 -0.3268  0.2192  0.3805
  479MPD2     C 7175   2.993   0.563  15.183  0.3508 -0.6527 -0.1985
  479MPD2    C1 7176   2.962   0.567  15.314 -0.5356  0.7505 -1.4024
  479MPD2    C2 7177   3.062   0.621  15.397 -0.3014  0.1844 -0.8493
  479MPD2    C3 7178   3.181   0.675  15.352  0.2613  0.3919 -0.1059
  479MPD2    C4 7179   3.207   0.666  15.221  0.0949 -0.1768 -0.4910
  479MPD2    C5 7180   3.112   0.615  15.136 -0.1417 -0.3130 -0.5747
  479MPD2     H 7181   3.047   0.628  15.504  2.7093  3.5797 -0.6321
  479MPD2    H1 7182   3.297   0.707  15.178 -0.1839 -0.7776 -1.6578
  479MPD2    H2 7183   2.933   0.516  15.106 -0.4606  1.0941 -0.6429
  479MPD2    H3 7184   3.126   0.600  15.030  0.4300  1.8728 -0.8108
  479MPD2     N 7185   3.285   0.744  15.429 -0.0163 -0.2313  0.5212
  479MPD2    H5 7186   3.375   0.754  15.383 -0.2223  1.5665  0.5370
  479MPD2    N1 7187   2.839   0.517  15.360  0.1369 -0.0708 -0.4925
  479MPD2    H7 7188   2.762   0.516  15.295  0.5644  1.2817 -1.0190
  480TMC3    C1 7189   2.994   0.766  15.759 -0.2154  0.0627  0.3913
  480TMC3    C2 7190   2.907   0.835  15.682  0.1794  1.1650 -0.2448
  480TMC3    C3 7191   2.957   0.906  15.571  0.4725 -0.1150 -0.2836
  480TMC3    C4 7192   3.130   0.764  15.726  0.4882  0.6819 -0.1607
  480TMC3    C5 7193   3.163   0.828  15.611 -0.3667 -0.1772  0.2195
  480TMC3    C6 7194   3.088   0.907  15.534 -0.4170  0.2383  0.2289
  480TMC3     C 7195   2.952   0.660  15.849  0.1323 -0.9649  0.3456
  480TMC3     O 7196   3.033   0.570  15.876  0.3465  0.2486  0.1429
  480TMC3     H 7197   2.800   0.827  15.696  0.3162 -3.3210 -1.8236
  480TMC3    H1 7198   3.196   0.704  15.789  0.4592  0.0655 -0.7220
  480TMC3    H2 7199   3.118   0.942  15.436 -0.5831  2.3656  0.9338
  480TMC3    C7 7200   3.288   0.780  15.558  0.0523 -0.3341  0.1536
  480TMC3    C8 7201   2.860   0.922  15.463  0.1330 -0.1877  0.1026
  480TMC3    O1 7202   3.388   0.813  15.621  0.1087 -0.2874 -0.2659
  480TMC3    O2 7203   2.746   0.882  15.482 -0.1425 -0.2248 -0.0460
  481MPD2     C 7204   4.652   0.455  14.340  0.3428 -0.0870 -0.1930
  481MPD2    C1 7205   4.525   0.440  14.390 -0.0377 -0.5313  0.1482
  481MPD2    C2 7206   4.518   0.408  14.527 -0.5385  0.8990  0.0149
  481MPD2    C3 7207   4.634   0.398  14.604 -0.2215 -0.7199  0.0191
  481MPD2    C4 7208   0.023   0.410  14.549  0.0661  0.2595  0.0612
  481MPD2    C5 7209   0.029   0.433  14.414 -0.2954  0.3161 -0.1695
  481MPD2     H 7210   4.420   0.399  14.571  0.5611  0.1669  2.3302
  481MPD2    H1 7211   0.108   0.381  14.610 -0.0311  0.6452  0.3798
  481MPD2    H2 7212   4.666   0.478  14.235  0.2018  3.3993  0.5500
  481MPD2    H3 7213   0.124   0.436  14.364  0.2489  0.2659  0.8579
  481MPD2     N 7214   4.631   0.365  14.740  0.3365 -0.2064 -0.5965
  481MPD2    H5 7215   4.717   0.369  14.793  0.4391  0.5969 -0.8251
  481MPD2    N1 7216   4.415   0.447  14.300 -0.1909  0.3083 -0.3164
  481MPD2    H7 7217   4.439   0.472  14.204 -0.1183  0.1375 -0.3416
  482TMC3    C1 7218   4.178   0.431  14.238  0.0929 -0.4636  1.2024
  482TMC3    C2 7219   4.062   0.366  14.258 -0.6319 -0.1835  0.3715
  482TMC3    C3 7220   3.967   0.336  14.163  0.3841 -0.6856  0.5051
  482TMC3    C4 7221   4.211   0.475  14.113 -0.5811 -0.9084  0.5971
  482TMC3    C5 7222   4.118   0.442  14.017 -0.3439  0.4124  0.4358
  482TMC3    C6 7223   3.995   0.377  14.037  0.6862  0.2060  0.4514
  482TMC3     C 7224   4.286   0.419  14.337 -0.3915 -0.5261  1.1206
  482TMC3     O 7225   4.253   0.362  14.440  0.1290  0.3053  0.4825
  482TMC3     H 7226   4.043   0.329  14.357 -1.1482  2.2118  1.1749
  482TMC3    H1 7227   4.303   0.526  14.087 -0.3987 -0.8271  1.3922
  482TMC3    H2 7228   3.931   0.354  13.953  0.7658 -1.7505  0.9199
  482TMC3    C7 7229   4.138   0.480  13.880  0.5490  0.6244 -0.4891
  482TMC3    C8 7230   3.882   0.225  14.200 -0.4930 -0.1266  0.5048
  482TMC3    O1 7231   4.087   0.407  13.793 -0.7455  0.0136 -0.0659
  482TMC3    O2 7232   3.916   0.155  14.293 -0.4351  0.0961 -0.1700
  483TMC3    C1 7233   1.922   4.129   1.021 -0.4586  0.3323  0.2042
  483TMC3    C2 7234   1.967   4.240   0.959 -0.3148  0.6105  0.0506
  483TMC3    C3 7235   2.104   4.263   0.945 -0.1569  0.3195 -0.0214
  483TMC3    C4 7236   2.006   4.037   1.076 -0.9398  0.4551  0.3898
  483TMC3    C5 7237   2.143   4.059   1.075 -0.6554  0.5762 -0.4681
  483TMC3    C6 7238   2.185   4.172   1.012 -0.1064  0.1399 -0.7901
  483TMC3     C 7239   1.787   4.101   1.004 -0.3487  0.9138  0.1520
  483TMC3     O 7240   1.733   4.186   0.934  0.4082  0.1483  0.3982
  483TMC3     H 7241   1.905   4.317   0.914  0.5347  1.6972  0.7337
  483TMC3    H1 7242   1.967   3.949   1.126 -1.6713  0.5556 -0.0088
  483TMC3    H2 7243   2.293   4.182   1.008 -0.0286 -0.4386 -0.2259
  483TMC3    C7 7244   2.237   3.948   1.084 -0.0910 -0.0229  0.3083
  483TMC3    C8 7245   2.154   4.293   0.817  0.0953  0.3513 -0.6770
  483TMC3    O1 7246   2.353   3.975   1.119 -0.0613  0.6187 -0.4971
  483TMC3    O2 7247   2.273   4.275   0.805 -0.3969 -0.3154  0.2526
  484MPD2     C 7248   0.420   1.622  12.513  0.2388  0.1898 -1.4518
  484MPD2    C1 7249   0.301   1.691  12.488 -0.6520 -0.8343  0.3030
  484MPD2    C2 7250   0.301   1.816  12.436 -0.4781  0.3551  0.4327
  484MPD2    C3 7251   0.421   1.879  12.404 -0.3219 -0.0905 -0.1101
  484MPD2    C4 7252   0.540   1.808  12.418  0.1223 -0.6425  0.1670
  484MPD2    C5 7253   0.540   1.680  12.475 -0.2742 -0.0237 -0.4930
  484MPD2     H 7254   0.212   1.877  12.423 -0.3833  0.8525  2.1308
  484MPD2    H1 7255   0.634   1.857  12.396  0.1795 -0.6600  0.3705
  484MPD2    H2 7256   0.424   1.529  12.568  1.4235  1.6387  0.9164
  484MPD2    H3 7257   0.625   1.632  12.520 -0.3969  1.9656  1.8902
  484MPD2     N 7258   0.425   2.005  12.356  0.3401  0.1361 -0.7211
  484MPD2    H5 7259   0.517   2.043  12.332  0.1767 -0.0655 -1.6837
  484MPD2    N1 7260   0.183   1.631  12.530  0.2262  0.0506 -0.3756
  484MPD2    H7 7261   0.186   1.547  12.586 -0.2445 -0.5350 -1.2300
  485TMC3    C1 7262   0.376   2.221  12.281 -0.0899  0.4776 -0.8263
  485TMC3    C2 7263   0.508   2.256  12.300  0.0615 -0.0145  0.2981
  485TMC3    C3 7264   0.543   2.382  12.254 -0.7067 -0.4280  0.1710
  485TMC3    C4 7265   0.292   2.296  12.204 -0.5733  0.7000  0.2760
  485TMC3    C5 7266   0.346   2.416  12.149 -0.5942 -0.4010  0.2626
  485TMC3    C6 7267   0.469   2.463  12.177  0.4656 -0.3323  0.0112
  485TMC3     C 7268   0.323   2.100  12.346  0.1051 -1.3329 -0.1372
  485TMC3     O 7269   0.204   2.098  12.384 -0.0217  0.1486  0.3092
  485TMC3     H 7270   0.567   2.216  12.381  0.8491 -0.8185 -0.6747
  485TMC3    H1 7271   0.184   2.281  12.201 -0.4264  0.0637 -1.9835
  485TMC3    H2 7272   0.507   2.560  12.146  2.4344 -0.7528  1.1208
  485TMC3    C7 7273   0.248   2.501  12.080  0.3636  0.6623  0.1594
  485TMC3    C8 7274   0.684   2.399  12.230  0.2712 -0.5042 -0.4038
  485TMC3    O1 7275   0.129   2.476  12.106 -0.0856 -0.0618  0.2303
  485TMC3    O2 7276   0.714   2.484  12.154  0.4282 -0.3215 -0.2564
  486MPD2     C 7277   2.243   0.706  13.252  0.0259  0.4027 -0.5877
  486MPD2    C1 7278   2.168   0.650  13.154  0.1920 -0.0718  0.2353
  486MPD2    C2 7279   2.088   0.738  13.075 -0.4034  0.0262 -0.7209
  486MPD2    C3 7280   2.094   0.877  13.089 -0.2176 -0.6147  0.5353
  486MPD2    C4 7281   2.174   0.933  13.185 -0.3454 -0.0998  0.0771
  486MPD2    C5 7282   2.246   0.840  13.269 -0.2074 -0.2712 -0.1232
  486MPD2     H 7283   2.013   0.689  13.014 -0.7452  1.7237 -1.6639
  486MPD2    H1 7284   2.176   1.038  13.212 -1.2556  0.1791 -0.9335
  486MPD2    H2 7285   2.306   0.646  13.317 -1.4957 -1.0384 -0.4252
  486MPD2    H3 7286   2.296   0.880  13.356 -1.3942  1.5519 -0.2587
  486MPD2     N 7287   2.012   0.956  13.004 -0.0099  0.1984  0.3585
  486MPD2    H5 7288   1.962   0.906  12.931 -0.0436 -1.2379  1.3702
  486MPD2    N1 7289   2.152   0.507  13.156 -1.2732  0.5670  0.2395
  486MPD2    H7 7290   2.210   0.460  13.225 -0.9690  1.4003  0.5460
  487TMC3    C1 7291   2.060   0.289  13.126  1.0091  0.3114 -0.1896
  487TMC3    C2 7292   2.009   0.195  13.036  0.0766  0.1884 -0.1811
  487TMC3    C3 7293   1.984   0.066  13.084 -0.0925  1.2725  0.4358
  487TMC3    C4 7294   2.099   0.259  13.254 -0.1040  0.4724  0.1818
  487TMC3    C5 7295   2.063   0.138  13.297  0.3919 -0.7577 -0.6024
  487TMC3    C6 7296   2.021   0.036  13.216 -0.0546  0.0807 -0.3528
  487TMC3     C 7297   2.068   0.429  13.074  0.5870 -0.8579 -0.0066
  487TMC3     O 7298   2.000   0.461  12.980 -0.3457  0.4152 -0.2027
  487TMC3     H 7299   1.985   0.221  12.934  2.1045  1.0189 -0.4471
  487TMC3    H1 7300   2.129   0.334  13.327  1.1682 -1.4139  1.5896
  487TMC3    H2 7301   1.977   4.686  13.266  2.7786 -2.5640 -2.3140
  487TMC3    C7 7302   2.041   0.136  13.447 -0.1303 -1.0692  0.7120
  487TMC3    C8 7303   1.875   0.001  13.031 -0.0903  0.4141  0.4271
  487TMC3    O1 7304   2.123   0.202  13.512  0.6335 -0.2059  0.2081
  487TMC3    O2 7305   1.798   0.070  12.970  0.1394  0.0066 -0.6459
  488MPD2     C 7306   2.691   2.240  16.304  0.1752  0.2013  0.2365
  488MPD2    C1 7307   2.660   2.369  16.348  0.2218  0.3184 -0.0486
  488MPD2    C2 7308   2.602   2.387  16.472  0.3872 -0.1954  0.1774
  488MPD2    C3 7309   2.546   2.287  16.546 -0.1325  0.0920  0.4446
  488MPD2    C4 7310   2.565   2.162  16.495 -0.0132  0.3568  0.0537
  488MPD2    C5 7311   2.633   2.143  16.372 -0.0339 -0.2670 -0.5215
  488MPD2     H 7312   2.571   2.488  16.497  0.4256  0.2164 -1.4654
  488MPD2    H1 7313   2.520   2.080  16.549  0.3549  0.9703  1.3115
  488MPD2    H2 7314   2.752   2.223  16.215 -2.1687 -0.4136 -1.2539
  488MPD2    H3 7315   2.643   2.038  16.345 -1.9524  0.1277 -2.7460
  488MPD2     N 7316   2.503   2.313  16.677 -0.4229 -0.2372 -0.3045
  488MPD2    H5 7317   2.484   2.411  16.693  0.7524 -0.1375  0.4749
  488MPD2    N1 7318   2.692   2.491  16.283  0.3272 -0.3724 -0.1786
  488MPD2    H7 7319   2.683   2.579  16.334  1.4077  0.0993 -0.8021
  489TMC3    C1 7320   2.484   2.290  16.905  0.2372  0.1736 -0.3213
  489TMC3    C2 7321   2.547   2.401  16.929 -0.0662  0.2354 -0.1284
  489TMC3    C3 7322   2.558   2.451  17.055 -0.3051 -0.1586 -0.3137
  489TMC3    C4 7323   2.437   2.214  17.010 -0.3264 -1.0427 -0.0076
  489TMC3    C5 7324   2.455   2.258  17.143  0.6490  0.0329 -0.6655
  489TMC3    C6 7325   2.515   2.384  17.169 -0.1229  0.0855  0.3660
  489TMC3     C 7326   2.499   2.222  16.780 -0.2192  0.7183  0.0882
  489TMC3     O 7327   2.543   2.109  16.788  0.2235  0.2608 -0.9370
  489TMC3     H 7328   2.588   2.466  16.852 -1.1549 -2.0319 -2.6373
  489TMC3    H1 7329   2.384   2.123  16.984 -0.2789  0.0131 -3.9578
  489TMC3    H2 7330   2.543   2.415  17.269 -0.7930  1.8263  0.0044
  489TMC3    C7 7331   2.411   2.180  17.262  0.2732  0.5153  0.0771
  489TMC3    C8 7332   2.633   2.574  17.060 -0.3291 -0.1095 -0.1976
  489TMC3    O1 7333   2.465   2.205  17.369 -0.3938 -0.4097  0.3978
  489TMC3    O2 7334   2.703   2.600  16.962 -0.2002 -0.2657 -1.2545
  490MPD2     C 7335   3.280   2.120  17.106  0.0799  0.1763 -0.0217
  490MPD2    C1 7336   3.322   2.072  17.231  0.1329  0.6006  0.4728
  490MPD2    C2 7337   3.447   2.114  17.275 -0.1378  0.4633 -0.3441
  490MPD2    C3 7338   3.530   2.184  17.194  0.3244 -0.1764 -0.2207
  490MPD2    C4 7339   3.493   2.216  17.066  0.4425 -0.6814 -0.3281
  490MPD2    C5 7340   3.364   2.185  17.023 -0.2273  0.0186 -0.4543
  490MPD2     H 7341   3.471   2.101  17.380 -0.2191  0.9819 -0.2625
  490MPD2    H1 7342   3.555   2.267  16.993  0.6272 -1.3133 -0.6059
  490MPD2    H2 7343   3.180   2.115  17.065  0.1785 -2.3602  0.0542
  490MPD2    H3 7344   3.335   2.222  16.926 -2.8965 -0.1812  0.2714
  490MPD2     N 7345   3.659   2.231  17.234 -0.6997 -0.1655  0.5028
  490MPD2    H5 7346   3.720   2.262  17.159 -3.2840  1.9207 -0.7370
  490MPD2    N1 7347   3.237   2.008  17.322  0.7489 -0.4000 -0.3403
  490MPD2    H7 7348   3.277   1.992  17.413  2.0935  2.4383 -0.4538
  491TMC3    C1 7349   3.059   1.887  17.404 -0.8195  0.3347 -0.2048
  491TMC3    C2 7350   3.113   1.899  17.531 -0.3994 -0.2351  0.5465
  491TMC3    C3 7351   3.072   1.808  17.625 -0.2120  0.0213 -0.0064
  491TMC3    C4 7352   2.975   1.794  17.375 -0.1376  0.1100  0.1576
  491TMC3    C5 7353   2.955   1.688  17.461  0.6961  0.3885  0.2250
  491TMC3    C6 7354   3.002   1.689  17.593 -0.6652 -0.5587  0.5327
  491TMC3     C 7355   3.117   1.953  17.287  0.1523 -0.1490 -0.4734
  491TMC3     O 7356   3.050   1.956  17.185 -0.4370  0.1518  0.7082
  491TMC3     H 7357   3.177   1.983  17.553  0.9742 -1.2404  0.3660
  491TMC3    H1 7358   2.929   1.786  17.277 -1.1650  0.0417  0.6375
  491TMC3    H2 7359   2.981   1.610  17.664  2.8963 -3.3593 -1.5474
  491TMC3    C7 7360   2.894   1.574  17.398  0.3625 -0.7173  0.0140
  491TMC3    C8 7361   3.088   1.842   0.026  0.3391 -0.4148  0.2498
  491TMC3    O1 7362   2.893   1.565  17.274  0.1681  0.0332  0.7230
  491TMC3    O2 7363   3.019   1.782   0.110  0.3738 -0.1954 -0.3105
  492MPD2     C 7364   3.377   1.776  11.752  0.4793 -0.2300 -0.6638
  492MPD2    C1 7365   3.311   1.691  11.660  1.0905  0.1653  1.2754
  492MPD2    C2 7366   3.228   1.597  11.719 -0.1075  0.3025  0.0822
  492MPD2    C3 7367   3.228   1.564  11.854  0.1359 -0.6139 -0.0923
  492MPD2    C4 7368   3.300   1.642  11.939  0.6253  0.4731 -0.1446
  492MPD2    C5 7369   3.371   1.749  11.884  0.5835  0.5465  0.1507
  492MPD2     H 7370   3.159   1.549  11.650  0.3271 -1.3813  0.8214
  492MPD2    H1 7371   3.291   1.629  12.046  2.0514  1.5839  0.1074
  492MPD2    H2 7372   3.439   1.863  11.733  2.0576 -0.8099  1.9083
  492MPD2    H3 7373   3.431   1.807  11.953 -0.6559 -0.7203  2.3007
  492MPD2     N 7374   3.147   1.468  11.917 -0.1704  0.6755  0.5206
  492MPD2    H5 7375   3.169   1.433  12.010  0.6651 -3.0036 -1.0754
  492MPD2    N1 7376   3.329   1.711  11.522  0.1085 -0.4199  0.5163
  492MPD2    H7 7377   3.392   1.789  11.504 -0.6142  0.4447  1.7570
  493TMC3    C1 7378   3.352   1.668  11.292  0.5041 -0.3649  0.1047
  493TMC3    C2 7379   3.458   1.749  11.275 -0.6700  0.5423 -0.3510
  493TMC3    C3 7380   3.516   1.768  11.157  0.2081  0.2226  0.3584
  493TMC3    C4 7381   3.290   1.631  11.178  0.2616  0.2049 -0.5238
  493TMC3    C5 7382   3.355   1.635  11.060  0.3423  0.3719  0.0183
  493TMC3    C6 7383   3.473   1.702  11.044 -0.0839 -0.0771  0.6858
  493TMC3     C 7384   3.283   1.635  11.417 -0.1545 -0.6947 -0.1658
  493TMC3     O 7385   3.209   1.539  11.421  0.9031  0.3849  0.0560
  493TMC3     H 7386   3.504   1.801  11.358 -2.0396  1.4818 -0.1843
  493TMC3    H1 7387   3.190   1.591  11.190  0.6875 -1.3089 -2.1331
  493TMC3    H2 7388   3.513   1.725  10.946 -0.5427  2.6103  1.1144
  493TMC3    C7 7389   3.312   1.538  10.966 -0.5809 -0.0222  1.1867
  493TMC3    C8 7390   3.646   1.838  11.169 -0.1739  0.3062 -0.0540
  493TMC3    O1 7391   3.328   1.563  10.848 -0.1543  0.8334  0.9492
  493TMC3    O2 7392   3.706   1.838  11.277 -0.2057 -0.1244  0.3049
  494TMC3    C1 7393   3.944   3.575   0.467 -0.5095 -0.0867 -0.3482
  494TMC3    C2 7394   3.933   3.438   0.440  0.1283 -1.2558 -0.5656
  494TMC3    C3 7395   3.979   3.406   0.316  0.0386 -0.1409 -0.5282
  494TMC3    C4 7396   3.985   3.676   0.379 -0.3610  0.0098  0.1024
  494TMC3    C5 7397   4.037   3.627   0.260 -0.0910 -0.1052  0.1033
  494TMC3    C6 7398   4.039   3.494   0.228  0.3450  0.4064 -0.0779
  494TMC3     C 7399   3.863   3.611   0.589  0.9635 -1.1020 -0.0106
  494TMC3     O 7400   3.799   3.715   0.600  0.4279  0.2258  0.1970
  494TMC3     H 7401   3.864   3.372   0.492  1.7095 -0.3745  2.6564
  494TMC3    H1 7402   4.001   3.778   0.412  0.7237  0.0380 -0.5020
  494TMC3    H2 7403   4.084   3.477   0.131  1.0349 -1.1542  0.5132
  494TMC3    C7 7404   4.127   3.708   0.175 -0.3728 -0.1494  0.2845
  494TMC3    C8 7405   3.974   3.263   0.278 -0.1894 -0.3969  0.5760
  494TMC3    O1 7406   4.222   3.645   0.133 -0.3040 -0.1581  0.3526
  494TMC3    O2 7407   3.961   3.183   0.372 -0.4967  0.2790  0.2698
  495TMC3    C1 7408   3.083   1.507  14.779 -0.6009 -0.9498 -0.5483
  495TMC3    C2 7409   2.977   1.503  14.693 -0.3378  0.0437 -0.6335
  495TMC3    C3 7410   2.853   1.515  14.741 -0.3571  1.0834  0.0791
  495TMC3    C4 7411   3.066   1.532  14.914  0.1642  0.6134 -0.0585
  495TMC3    C5 7412   2.935   1.535  14.964  0.2710 -0.2932 -0.0745
  495TMC3    C6 7413   2.831   1.529  14.874 -0.1503  0.3193  0.0594
  495TMC3     C 7414   3.175   1.397  14.752 -0.0411  0.4765  0.5461
  495TMC3     O 7415   3.189   1.350  14.636 -0.9362 -0.0218 -0.1510
  495TMC3     H 7416   2.996   1.485  14.589  0.2367 -1.1087 -0.3217
  495TMC3    H1 7417   3.152   1.545  14.979 -0.6115 -0.1554  1.1145
  495TMC3    H2 7418   2.729   1.538  14.911 -0.2861  2.6470 -0.8769
  495TMC3    C7 7419   2.921   1.434  15.073  0.1656 -0.3373 -0.2903
  495TMC3    C8 7420   2.766   1.412  14.693  0.0131  0.0416  0.1635
  495TMC3    O1 7421   2.992   1.449  15.173 -0.4525  0.4434  0.1712
  495TMC3    O2 7422   2.720   1.337  14.776  0.1244 -0.4725 -0.3247
  496MPD2     C 7423   0.302   1.038  14.923  0.0293  0.0933  0.2748
  496MPD2    C1 7424   0.365   1.005  15.041  0.2690 -0.3861 -0.2848
  496MPD2    C2 7425   0.298   1.020  15.162 -0.4969 -0.2871 -0.0559
  496MPD2    C3 7426   0.165   1.063  15.170 -0.1875  0.5078 -0.1099
  496MPD2    C4 7427   0.100   1.085  15.048 -0.1280  0.2982 -0.3692
  496MPD2    C5 7428   0.174   1.086  14.928  0.0031 -0.4526 -0.1724
  496MPD2     H 7429   0.341   0.989  15.257  0.6750 -0.0356 -0.5106
  496MPD2    H1 7430   4.733   1.123  15.053  0.0611  0.6371  0.6393
  496MPD2    H2 7431   0.349   1.026  14.826 -1.5520  0.0473 -0.4909
  496MPD2    H3 7432   0.118   1.124  14.844 -2.5344  0.0310  1.7295
  496MPD2     N 7433   0.095   1.103  15.285  0.0363  0.3250 -0.5503
  496MPD2    H5 7434   0.003   1.143  15.269 -0.3791 -1.0631 -1.6378
  496MPD2    N1 7435   0.501   0.963  15.041  0.0981 -0.5144 -0.5176
  496MPD2    H7 7436   0.531   0.937  14.947  1.1078 -2.8639  0.4519
  497TMC3    C1 7437   0.043   1.162  15.504 -0.8478  0.2380  0.0796
  497TMC3    C2 7438   4.638   1.142  15.482  0.1885  0.1618 -1.0016
  497TMC3    C3 7439   4.555   1.173  15.581  0.2844  0.2644 -0.3610
  497TMC3    C4 7440   0.088   1.198  15.624 -0.5418  0.5287  0.0817
  497TMC3    C5 7441   4.730   1.232  15.724  0.7238  0.1472 -0.1494
  497TMC3    C6 7442   4.596   1.216  15.702 -0.4420  0.2315 -0.4451
  497TMC3     C 7443   0.141   1.105  15.411 -0.2128  0.7121  0.4089
  497TMC3     O 7444   0.254   1.076  15.455  0.0974  0.5972  0.2965
  497TMC3     H 7445   4.599   1.120  15.383 -1.4101  0.9575 -0.5440
  497TMC3    H1 7446   0.194   1.204  15.642 -0.4023  1.6669 -1.1141
  497TMC3    H2 7447   4.523   1.252  15.774 -0.2015  2.5301 -1.3527
  497TMC3    C7 7448   0.022   1.354  15.806 -0.1190  0.8496  0.7408
  497TMC3    C8 7449   4.409   1.165  15.552 -0.3271 -0.0599 -0.0439
  497TMC3    O1 7450   4.667   1.434  15.816  0.6331 -0.8103 -0.2407
  497TMC3    O2 7451   4.341   1.265  15.576 -0.3987  0.4450  0.2367
  498MPD2     C 7452   0.043   1.657  10.067 -0.1018 -0.5181  0.7380
  498MPD2    C1 7453   0.162   1.583  10.055 -0.0597  0.6166  1.4042
  498MPD2    C2 7454   0.159   1.452  10.097 -0.0404  0.2283 -0.2420
  498MPD2    C3 7455   0.038   1.396  10.135  0.3612 -0.6433  0.6142
  498MPD2    C4 7456   4.656   1.476  10.138 -0.0367 -0.0355 -0.0965
  498MPD2    C5 7457   4.658   1.605  10.098 -0.1790 -0.8626  0.0523
  498MPD2     H 7458   0.249   1.393  10.102 -1.3179 -1.9165 -2.5728
  498MPD2    H1 7459   4.556   1.440  10.158 -0.4209  0.1879 -1.6552
  498MPD2    H2 7460   0.028   1.763  10.050  1.5432 -0.0617  2.1456
  498MPD2    H3 7461   4.576   1.674  10.111  0.5147  0.4866 -2.7673
  498MPD2     N 7462   0.035   1.264  10.181  0.1736 -0.1635 -0.4606
  498MPD2    H5 7463   0.125   1.224  10.207  0.0010 -0.8996 -0.9724
  498MPD2    N1 7464   0.281   1.635   9.998 -0.5763 -0.5361  0.0687
  498MPD2    H7 7465   0.359   1.570  10.007  1.5823  1.9976 -0.0500
  499TMC3    C1 7466   0.428   1.801   9.893  0.5149 -0.0573  0.2460
  499TMC3    C2 7467   0.493   1.702   9.830 -0.4903 -0.7237 -0.1737
  499TMC3    C3 7468   0.617   1.737   9.786 -0.4469  0.0828 -0.1860
  499TMC3    C4 7469   0.470   1.926   9.911 -0.7050 -0.4412 -0.2095
  499TMC3    C5 7470   0.601   1.950   9.872 -0.1697  0.3820  0.4038
  499TMC3    C6 7471   0.672   1.861   9.806 -0.3456 -0.0962 -0.2436
  499TMC3     C 7472   0.302   1.763   9.960 -0.2492 -0.0784 -0.2772
  499TMC3     O 7473   0.234   1.862   9.991  0.1494  0.3575  0.7835
  499TMC3     H 7474   0.454   1.602   9.821  1.0269 -1.5245  2.1584
  499TMC3    H1 7475   0.431   1.994   9.985  1.4099  1.5927 -0.9437
  499TMC3    H2 7476   0.763   1.889   9.754  0.4821 -1.6352  0.3767
  499TMC3    C7 7477   0.659   2.079   9.907  0.9588 -0.0686 -0.2730
  499TMC3    C8 7478   0.707   1.634   9.727  0.5157  0.4821  0.3144
  499TMC3    O1 7479   0.589   2.182   9.907 -0.7402 -0.7363 -0.0388
  499TMC3    O2 7480   0.819   1.674   9.703  0.0651  0.0678  0.4024
  500MPD2     C 7481   2.425   2.805  10.768  0.3595  0.3553  0.9121
  500MPD2    C1 7482   2.436   2.854  10.640 -0.1761 -0.0438 -0.4292
  500MPD2    C2 7483   2.328   2.920  10.578  0.1567 -0.4192 -0.2774
  500MPD2    C3 7484   2.206   2.925  10.642 -0.3918 -0.1688 -0.0119
  500MPD2    C4 7485   2.197   2.865  10.764 -0.8820 -0.0056 -0.7707
  500MPD2    C5 7486   2.305   2.817  10.834  0.6986 -0.8015 -0.4559
  500MPD2     H 7487   2.345   2.968  10.482 -1.4456 -0.4216 -0.5702
  500MPD2    H1 7488   2.107   2.877  10.822  0.5334 -1.9921  1.8594
  500MPD2    H2 7489   2.500   2.749  10.823  2.1577  0.5535 -1.3371
  500MPD2    H3 7490   2.282   2.762  10.925  0.8982 -0.2690 -0.0817
  500MPD2     N 7491   2.094   2.994  10.592 -0.5220 -0.1637 -0.5904
  500MPD2    H5 7492   2.016   2.998  10.657  1.5817  4.0677  1.6524
  500MPD2    N1 7493   2.560   2.842  10.576  0.5132  0.5482  0.2158
  500MPD2    H7 7494   2.573   2.899  10.492  0.9621  2.0286  1.2873
  501TMC3    C1 7495   2.781   2.781  10.533  0.3416 -0.0394  0.1241
  501TMC3    C2 7496   2.772   2.859  10.423  0.0993 -0.4644 -0.0667
  501TMC3    C3 7497   2.890   2.889  10.354 -0.1516  0.0721  1.1698
  501TMC3    C4 7498   2.894   2.723  10.569 -0.1798 -0.8005  0.5706
  501TMC3    C5 7499   3.006   2.747  10.494 -0.2991  0.6341 -0.5305
  501TMC3    C6 7500   3.014   2.835  10.388 -0.1929 -0.1811  0.0306
  501TMC3     C 7501   2.666   2.761  10.613 -0.4307  0.3757  0.3470
  501TMC3     O 7502   2.673   2.677  10.700 -0.2730 -0.0660 -0.6686
  501TMC3     H 7503   2.679   2.900  10.386 -0.7185 -0.5315  1.9246
  501TMC3    H1 7504   2.906   2.672  10.664  4.9393 -1.1726 -0.2911
  501TMC3    H2 7505   3.111   2.860  10.349 -0.2169  2.2883  1.5823
  501TMC3    C7 7506   3.123   2.687  10.551  0.1477  0.4589  0.0529
  501TMC3    C8 7507   2.896   3.014  10.277  0.6085 -0.0819  0.0059
  501TMC3    O1 7508   3.119   2.666  10.672  0.2591 -0.0127  0.0665
  501TMC3    O2 7509   3.009   3.060  10.252 -0.3071  0.3403 -0.2235
  502TMC3    C1 7510   2.462   2.001  15.217  0.3952 -0.2295  0.0311
  502TMC3    C2 7511   2.427   2.131  15.211  0.2741  0.7542 -0.4927
  502TMC3    C3 7512   2.291   2.167  15.202  0.6511  0.3395  0.2300
  502TMC3    C4 7513   2.367   1.905  15.203 -0.4270 -0.3203 -0.6125
  502TMC3    C5 7514   2.231   1.936  15.208  0.3540  0.8138  0.3052
  502TMC3    C6 7515   2.194   2.068  15.217  0.6848  0.2919 -0.1403
  502TMC3     C 7516   2.540   1.958  15.335  0.3898  0.1344 -0.0276
  502TMC3     O 7517   2.655   1.999  15.353  1.1176  0.0296 -0.1892
  502TMC3     H 7518   2.501   2.209  15.228  0.7044  0.2696 -0.1297
  502TMC3    H1 7519   2.406   1.804  15.195 -1.7339 -0.7591 -1.5725
  502TMC3    H2 7520   2.091   2.100  15.210  0.7456 -0.0172 -2.5000
  502TMC3    C7 7521   2.157   1.834  15.282 -1.1800 -0.4979 -0.6053
  502TMC3    C8 7522   2.247   2.307  15.184  0.1939 -0.5499 -0.0855
  502TMC3    O1 7523   2.218   1.736  15.317  0.4982 -0.1403  0.0378
  502TMC3    O2 7524   2.312   2.384  15.112  0.2724  0.1017 -0.3845
  503MPD2     C 7525   4.709   2.460  16.713  0.2296  0.0973  0.0562
  503MPD2    C1 7526   4.687   2.475  16.845 -0.9273  0.0429  0.1857
  503MPD2    C2 7527   4.731   2.368  16.925 -0.1518 -0.2435 -0.5375
  503MPD2    C3 7528   0.037   2.249  16.880  0.0001  0.5188  0.0434
  503MPD2    C4 7529   0.039   2.229  16.743 -0.3336  0.0365  0.2624
  503MPD2    C5 7530   0.007   2.337  16.664 -0.4989  0.8884 -0.8143
  503MPD2     H 7531   0.016   2.394  17.029 -0.8922 -2.3264  0.1326
  503MPD2    H1 7532   0.090   2.147  16.692  1.1321  0.6538  0.7228
  503MPD2    H2 7533   4.699   2.550  16.654 -1.4961 -0.6856 -0.8793
  503MPD2    H3 7534   0.017   2.335  16.556 -2.0022 -1.3944 -0.9110
  503MPD2     N 7535   0.080   2.150  16.972  0.0479  0.0311 -0.0167
  503MPD2    H5 7536   0.072   2.175  17.070 -0.6021 -0.7752  0.1367
  503MPD2    N1 7537   4.654   2.598  16.907  0.0952 -0.4583 -0.3114
  503MPD2    H7 7538   4.634   2.586  17.006 -1.2083  0.4994 -0.4553
  504TMC3    C1 7539   0.181   1.969  17.061  0.4066  0.0121  0.3393
  504TMC3    C2 7540   0.164   1.838  17.103 -0.2658 -0.3090  0.8916
  504TMC3    C3 7541   0.233   1.790  17.206  0.2007  0.3631  0.3087
  504TMC3    C4 7542   0.271   2.050  17.135 -0.3826  0.2700  0.6111
  504TMC3    C5 7543   0.358   1.989  17.223 -0.5397 -0.0346  0.2755
  504TMC3    C6 7544   0.322   1.869  17.277  0.2258 -0.4414 -0.4706
  504TMC3     C 7545   0.128   2.026  16.942 -0.3024  0.0446 -0.8864
  504TMC3     O 7546   0.131   1.967  16.836 -0.1149  0.1215  0.0770
  504TMC3     H 7547   0.104   1.770  17.044  0.2473 -0.8943  1.0449
  504TMC3    H1 7548   0.290   2.152  17.102  0.7279  0.4780  1.9182
  504TMC3    H2 7549   0.397   1.825  17.342 -0.5622  0.9693  1.4023
  504TMC3    C7 7550   0.498   1.997  17.179 -0.6194  0.6046  1.0085
  504TMC3    C8 7551   0.200   1.667  17.267 -0.0806 -0.0218 -0.3096
  504TMC3    O1 7552   0.532   2.053  17.076  0.0694  0.0796 -0.4178
  504TMC3    O2 7553   0.146   1.578  17.205 -0.2656  0.1443  0.1586
  505MPD2     C 7554   4.408   0.930  11.436  0.3538  0.3292 -0.3116
  505MPD2    C1 7555   4.501   0.827  11.430 -0.4707  0.0627 -0.0610
  505MPD2    C2 7556   4.636   0.859  11.434  0.3379  0.6956 -0.3024
  505MPD2    C3 7557   4.679   0.990  11.446 -0.5715  0.2476  0.2482
  505MPD2    C4 7558   4.590   1.082  11.471  1.1577 -0.0198  0.3284
  505MPD2    C5 7559   4.452   1.057  11.465  0.1252 -0.5691  0.5786
  505MPD2     H 7560   4.703   0.776  11.421  2.8357  2.2399  2.6723
  505MPD2    H1 7561   4.618   1.184  11.496  0.5798  0.1264  0.3711
  505MPD2    H2 7562   4.302   0.908  11.426  0.6442 -0.5211 -1.5074
  505MPD2    H3 7563   4.376   1.134  11.472  1.7149  1.0690 -0.2930
  505MPD2     N 7564   0.076   1.033  11.437 -0.2014  0.0218  0.2766
  505MPD2    H5 7565   0.093   1.132  11.424 -1.6179  0.2861  0.4477
  505MPD2    N1 7566   4.456   0.690  11.420 -0.1372 -0.1585  0.0881
  505MPD2    H7 7567   4.360   0.673  11.391 -0.4752  2.0641 -0.1100
  506TMC3    C1 7568   4.481   0.467  11.367  0.0926 -0.4671  0.2126
  506TMC3    C2 7569   4.437   0.487  11.245 -0.4735  0.1564  0.8034
  506TMC3    C3 7570   4.451   0.378  11.158 -0.1950  0.2067  0.0096
  506TMC3    C4 7571   4.548   0.357  11.411 -0.7092 -0.2581  0.1674
  506TMC3    C5 7572   4.580   0.258  11.321  0.0469 -0.4471 -0.2692
  506TMC3    C6 7573   4.529   0.267  11.194  0.1072 -0.2758 -0.1585
  506TMC3     C 7574   4.538   0.586  11.431 -0.2832  0.5875  0.6430
  506TMC3     O 7575   4.644   0.570  11.494 -0.5197 -0.2372  0.4405
  506TMC3     H 7576   4.382   0.577  11.217  2.0518  1.6009  0.4324
  506TMC3    H1 7577   4.576   0.358  11.516 -0.7837  0.8604  0.1727
  506TMC3    H2 7578   4.572   0.204  11.117  0.1377 -1.5948  0.9315
  506TMC3    C7 7579   4.720   0.244  11.308 -0.1641 -0.2042 -0.3586
  506TMC3    C8 7580   4.386   0.377  11.030 -0.2523  1.0066  0.2243
  506TMC3    O1 7581   0.023   0.152  11.235 -0.5297 -0.0208  0.3785
  506TMC3    O2 7582   4.362   0.265  10.985  0.4037 -0.4530  0.4089
  507TMC3    C1 7583   0.876   1.949  14.738  0.0972  0.0053  0.0495
  507TMC3    C2 7584   0.811   1.840  14.694  0.1941 -0.0229 -0.6652
  507TMC3    C3 7585   0.760   1.852  14.566  0.2817 -0.2724 -0.3959
  507TMC3    C4 7586   0.896   2.061  14.661  0.1840  0.0870 -0.5036
  507TMC3    C5 7587   0.847   2.062  14.533 -0.3581  0.2220 -0.0074
  507TMC3    C6 7588   0.779   1.959  14.481 -0.6610  0.6927 -0.5575
  507TMC3     C 7589   0.916   1.978  14.876 -0.1459 -1.0214 -0.0389
  507TMC3     O 7590   0.985   2.080  14.895  0.0157 -0.2794 -0.0116
  507TMC3     H 7591   0.790   1.757  14.761  0.6442  0.1173 -0.3465
  507TMC3    H1 7592   0.944   2.151  14.698 -0.9168  0.6068 -0.3535
  507TMC3    H2 7593   0.748   1.951  14.377 -1.7130 -0.7045 -0.1416
  507TMC3    C7 7594   0.767   2.180  14.504  0.1733 -0.7192  0.2957
  507TMC3    C8 7595   0.632   1.790  14.548 -0.4059 -0.3942 -0.3933
  507TMC3    O1 7596   0.659   2.158  14.463  0.2225  0.2970  0.3979
  507TMC3    O2 7597   0.590   1.690  14.607 -0.3957  0.1378  0.0750
  508MPD2     C 7598   1.734   4.148  16.221  0.4609  0.2188 -0.2532
  508MPD2    C1 7599   1.745   4.270  16.288  0.9016  0.3991  0.2169
  508MPD2    C2 7600   1.698   4.378  16.211 -0.3678 -0.5866  0.0762
  508MPD2    C3 7601   1.662   4.372  16.078  0.6774  0.5026  0.2253
  508MPD2    C4 7602   1.665   4.246  16.012  0.8435  0.1187  0.3120
  508MPD2    C5 7603   1.692   4.135  16.094 -0.2684 -0.5100 -0.2693
  508MPD2     H 7604   1.681   4.477  16.254  1.0568  1.3678 -3.8987
  508MPD2    H1 7605   1.639   4.245  15.907 -0.7549  0.9650  0.7063
  508MPD2    H2 7606   1.762   4.058  16.274 -2.2588 -1.6240 -1.9328
  508MPD2    H3 7607   1.681   4.034  16.055 -0.0483 -1.1247  1.2682
  508MPD2     N 7608   1.636   4.497  16.014 -0.5426 -0.0611 -0.1807
  508MPD2    H5 7609   1.650   4.577  16.075 -0.9445  0.5437 -0.8867
  508MPD2    N1 7610   1.799   4.280  16.420 -0.0247  0.4104 -0.0167
  508MPD2    H7 7611   1.839   4.194  16.456  0.8891  0.4617 -0.9331
  509TMC3    C1 7612   1.554   0.081  15.685 -0.1044 -0.6558  0.0997
  509TMC3    C2 7613   1.558   0.186  15.774 -0.3199  0.1942  0.4466
  509TMC3    C3 7614   1.568   0.152  15.907  0.1238  0.3898  1.2097
  509TMC3    C4 7615   1.560   4.686  15.715  0.8398 -0.2855  0.6627
  509TMC3    C5 7616   1.574   4.660  15.850 -0.6002  0.8858 -0.2169
  509TMC3    C6 7617   1.558   0.021  15.946 -0.4429  0.4313 -0.5385
  509TMC3     C 7618   1.506   0.120  15.552 -0.6271 -0.4612  0.5239
  509TMC3     O 7619   1.443   0.031  15.500  0.1877 -0.4912  1.1618
  509TMC3     H 7620   1.553   0.293  15.757  0.7158  0.5154  2.1505
  509TMC3    H1 7621   1.552   4.608  15.641  0.1571  0.2299  0.1887
  509TMC3    H2 7622   1.565   0.001  16.052 -0.0154  0.4192 -0.5704
  509TMC3    C7 7623   1.600   4.522  15.884  0.0360 -0.8057 -0.2821
  509TMC3    C8 7624   1.631   0.236  16.009  0.0567 -0.4139 -0.2169
  509TMC3    O1 7625   1.580   4.451  15.791  0.0623  0.0206 -0.7176
  509TMC3    O2 7626   1.630   0.194  16.123 -0.0297 -0.3092 -0.4421
  510MPD2     C 7627   4.274   1.546  14.840  0.6115  0.2962  0.6282
  510MPD2    C1 7628   4.349   1.432  14.855 -0.2493  0.7667  0.7499
  510MPD2    C2 7629   4.461   1.399  14.774  0.8763  0.3479 -0.4451
  510MPD2    C3 7630   4.486   1.486  14.663 -0.1158 -0.4461 -0.5249
  510MPD2    C4 7631   4.413   1.603  14.655 -0.5265  0.4419 -0.9356
  510MPD2    C5 7632   4.302   1.629  14.730  0.4020  0.0902 -0.2819
  510MPD2     H 7633   4.513   1.305  14.777  0.0092 -0.1568 -1.3851
  510MPD2    H1 7634   4.435   1.682  14.583  0.9636 -0.5684 -1.5993
  510MPD2    H2 7635   4.193   1.577  14.905  2.8975  0.9506  3.1862
  510MPD2    H3 7636   4.244   1.713  14.694 -1.5090 -0.0560  2.3992
  510MPD2     N 7637   4.601   1.458  14.582 -0.0695 -0.5500  0.1705
  510MPD2    H5 7638   4.634   1.363  14.594  0.7589 -0.4117 -1.0337
  510MPD2    N1 7639   4.309   1.351  14.970 -0.5337  0.2922  0.3497
  510MPD2    H7 7640   4.222   1.380  15.013 -0.9517 -1.2046  0.5020
  511TMC3    C1 7641   4.278   1.154  15.088  0.2025  0.4694 -0.4835
  511TMC3    C2 7642   4.181   1.205  15.169 -0.0166 -0.0683 -0.3084
  511TMC3    C3 7643   4.086   1.123  15.222  0.0976 -0.8116  0.4760
  511TMC3    C4 7644   4.277   1.024  15.060  0.4541 -0.2629 -0.3439
  511TMC3    C5 7645   4.200   0.938  15.134 -0.2372  0.3473 -0.1641
  511TMC3    C6 7646   4.094   0.986  15.203  0.0605  0.1739  0.0200
  511TMC3     C 7647   4.364   1.236  15.007 -0.0899  0.7344 -0.4293
  511TMC3     O 7648   4.466   1.188  14.960  0.0209 -0.6923 -0.9395
  511TMC3     H 7649   4.173   1.309  15.196  2.5294 -0.7473  3.0594
  511TMC3    H1 7650   4.355   0.981  14.998  0.3702 -0.7565 -0.1044
  511TMC3    H2 7651   4.047   0.915  15.271 -0.2875  0.8263  0.4542
  511TMC3    C7 7652   4.195   0.803  15.097  0.5631 -0.5356  0.5364
  511TMC3    C8 7653   3.975   1.184  15.298  0.4069 -0.5944  0.9339
  511TMC3    O1 7654   4.270   0.775  15.002 -0.3346 -0.4966 -0.3086
  511TMC3    O2 7655   4.003   1.291  15.357  0.0628  0.5243  0.4639
  512TMC3    C1 7656   2.856   4.682  12.769  0.2748 -0.1446  0.4659
  512TMC3    C2 7657   2.955   4.728  12.853  0.6148 -0.0175  0.0232
  512TMC3    C3 7658   3.071   4.661  12.863  0.0830  0.1240 -0.7082
  512TMC3    C4 7659   2.887   4.578  12.685  0.5198  0.6865 -0.1499
  512TMC3    C5 7660   3.011   4.522  12.694 -0.5227  0.0680  0.1170
  512TMC3    C6 7661   3.107   4.561  12.775  0.2660 -0.5593  0.3165
  512TMC3     C 7662   2.721   4.727  12.799 -0.1074  0.0341 -0.0902
  512TMC3     O 7663   2.712   0.072  12.889  0.0104 -0.1408 -0.4098
  512TMC3     H 7664   2.935   0.064  12.933 -0.4320  0.5953 -0.7702
  512TMC3    H1 7665   2.827   4.527  12.611  2.9350  0.6160 -2.0533
  512TMC3    H2 7666   3.201   4.509  12.783  0.1473 -0.6905  0.8892
  512TMC3    C7 7667   3.036   4.391  12.643 -0.4254  0.1406  0.4733
  512TMC3    C8 7668   3.146   4.650  12.987 -0.4064  0.1336  0.1054
  512TMC3    O1 7669   2.993   4.368  12.530  0.8125 -0.3725 -0.0645
  512TMC3    O2 7670   3.182   4.532  13.008  0.0335  0.3169  0.0941
  513MPD2     C 7671   4.625   0.711  13.332  0.6098 -0.0090 -0.3711
  513MPD2    C1 7672   4.656   0.579  13.299  0.3695  0.3506  0.3355
  513MPD2    C2 7673   0.033   0.521  13.361 -0.0417  0.0006  0.3227
  513MPD2    C3 7674   0.103   0.580  13.460  0.1526  0.1870 -0.1840
  513MPD2    C4 7675   0.063   0.704  13.502  0.3452  0.0897  0.6420
  513MPD2    C5 7676   4.699   0.775  13.432  0.7121  0.0448 -0.5123
  513MPD2     H 7677   0.066   0.418  13.354  0.8599  0.3778 -1.1246
  513MPD2    H1 7678   0.124   0.753  13.577  0.3646 -0.6063  1.0774
  513MPD2    H2 7679   4.549   0.767  13.278 -0.3116 -1.4562 -0.5489
  513MPD2    H3 7680   4.685   0.880  13.456  0.2626  0.0760 -0.8924
  513MPD2     N 7681   0.210   0.508  13.521  0.5254 -0.5580 -0.3940
  513MPD2    H5 7682   0.227   0.414  13.485 -3.2857 -1.1704 -0.6925
  513MPD2    N1 7683   4.579   0.502  13.206  0.0320 -0.2884 -0.5997
  513MPD2    H7 7684   4.517   0.551  13.143  0.4711  0.1495 -0.6996
  514TMC3    C1 7685   4.525   0.310  13.098 -0.4207 -0.6190 -0.1676
  514TMC3    C2 7686   4.539   0.375  12.976 -1.3940 -0.4069  0.0102
  514TMC3    C3 7687   4.556   0.296  12.868  0.2986  0.0064 -0.1618
  514TMC3    C4 7688   4.520   0.172  13.103  0.3753 -0.0831  0.1030
  514TMC3    C5 7689   4.558   0.100  12.997  0.1280 -0.2752  0.4688
  514TMC3    C6 7690   4.565   0.160  12.871  0.2869  0.0979  0.0997
  514TMC3     C 7691   4.592   0.365  13.207  0.0832  0.5597 -0.4157
  514TMC3     O 7692   4.651   0.283  13.277 -0.4101 -0.0092 -0.4563
  514TMC3     H 7693   4.568   0.479  12.971  0.9417 -0.8889  3.6550
  514TMC3    H1 7694   4.518   0.127  13.201 -0.3464 -1.1554 -0.4001
  514TMC3    H2 7695   4.600   0.097  12.790  0.2490 -0.9459  0.8892
  514TMC3    C7 7696   4.647   4.730  13.026  0.3861  0.5410 -0.7611
  514TMC3    C8 7697   4.658   0.358  12.780  0.0762 -0.1917  0.2275
  514TMC3    O1 7698   4.653   4.636  12.950  0.0269  0.4604 -0.2336
  514TMC3    O2 7699   4.725   0.449  12.829  0.5313 -0.3180  0.0416
  515MPD2     C 7700   3.434   2.490  14.358 -0.6566 -0.9268 -0.1822
  515MPD2    C1 7701   3.370   2.477  14.480  0.4282  0.0373 -0.4031
  515MPD2    C2 7702   3.431   2.537  14.590  0.0625 -0.5215 -0.0968
  515MPD2    C3 7703   3.556   2.598  14.588 -0.1255 -0.0667 -0.2406
  515MPD2    C4 7704   3.624   2.603  14.467 -0.8745 -0.1535  0.3589
  515MPD2    C5 7705   3.552   2.555  14.360 -0.3289  0.4262  0.3398
  515MPD2     H 7706   3.380   2.531  14.685  0.4530  0.4301  0.1712
  515MPD2    H1 7707   3.722   2.648  14.457 -1.0352  0.2842  0.7320
  515MPD2    H2 7708   3.408   2.434  14.269  1.2472 -0.4769 -1.0327
  515MPD2    H3 7709   3.599   2.575  14.264 -1.5079 -1.1200 -0.5615
  515MPD2     N 7710   3.628   2.648  14.694  0.0408  0.6389 -0.0544
  515MPD2    H5 7711   3.722   2.681  14.674  0.8818 -1.3681  0.5889
  515MPD2    N1 7712   3.242   2.413  14.496  0.5339 -0.1467 -0.7977
  515MPD2    H7 7713   3.215   2.414  14.594 -1.5702  1.3786 -1.3908
  516TMC3    C1 7714   3.020   2.353  14.424  0.2453  0.1723 -0.1897
  516TMC3    C2 7715   2.924   2.419  14.347 -0.0704 -0.0769  0.7952
  516TMC3    C3 7716   2.795   2.398  14.405 -0.4602 -0.8490  0.9117
  516TMC3    C4 7717   3.001   2.268  14.527 -0.2733  0.2354 -0.6427
  516TMC3    C5 7718   2.875   2.243  14.564 -0.2541  0.0239 -0.4343
  516TMC3    C6 7719   2.772   2.312  14.510  0.5303  0.8672 -0.0102
  516TMC3     C 7720   3.158   2.382  14.388  0.2856  0.2260 -1.5263
  516TMC3     O 7721   3.173   2.391  14.267  0.1921  0.0934  0.0474
  516TMC3     H 7722   2.947   2.497  14.275 -0.7466 -2.0445 -1.5764
  516TMC3    H1 7723   3.083   2.217  14.575  0.3559  0.4128 -1.5274
  516TMC3    H2 7724   2.675   2.314  14.559  1.3512 -0.1736  1.6722
  516TMC3    C7 7725   2.853   2.130  14.649  0.6155  0.3006 -0.2673
  516TMC3    C8 7726   2.685   2.482  14.361  0.1754  0.3446 -0.0988
  516TMC3    O1 7727   2.952   2.090  14.714  0.5821 -0.2314  0.1726
  516TMC3    O2 7728   2.587   2.484  14.436  0.1749 -0.1816 -0.2875
  517MPD2     C 7729   3.323   4.139   0.049  0.1087  0.3228  0.2138
  517MPD2    C1 7730   3.218   4.061   0.013 -0.7533 -0.1232  0.3664
  517MPD2    C2 7731   3.092   4.105   0.060 -0.4631  0.6441 -0.6710
  517MPD2    C3 7732   3.072   4.227   0.121  0.8868  0.9503  0.3836
  517MPD2    C4 7733   3.183   4.298   0.157  0.0963 -0.6612 -0.1097
  517MPD2    C5 7734   3.309   4.249   0.122 -0.1518 -0.3444 -0.4428
  517MPD2     H 7735   3.010   4.040   0.031  1.9993 -3.5048  1.5524
  517MPD2    H1 7736   3.174   4.394   0.206  0.4797 -1.4075  1.4310
  517MPD2    H2 7737   3.422   4.100   0.026  0.5984  2.1251 -0.8132
  517MPD2    H3 7738   3.401   4.304   0.141 -0.3458 -0.3910  0.6023
  517MPD2     N 7739   2.944   4.285   0.131 -0.0335  0.0075 -0.3850
  517MPD2    H5 7740   2.940   4.377   0.173 -2.4884 -0.1851 -0.1837
  517MPD2    N1 7741   3.227   3.966  17.651  0.8361 -0.3109 -0.2430
  517MPD2    H7 7742   3.150   3.900  17.641  0.1986  0.5746 -1.2288
  518TMC3    C1 7743   3.312   3.848  17.453 -0.4936  0.5653 -0.3457
  518TMC3    C2 7744   3.223   3.740  17.465 -0.8939 -0.0140 -0.1293
  518TMC3    C3 7745   3.202   3.658  17.362 -0.5629  0.8877  0.1405
  518TMC3    C4 7746   3.389   3.855  17.338 -1.5273 -0.2901 -0.2947
  518TMC3    C5 7747   3.382   3.764  17.233 -0.4330 -0.4041  0.0092
  518TMC3    C6 7748   3.279   3.672  17.247  0.5168 -0.1549  0.5592
  518TMC3     C 7749   3.332   3.952  17.556 -0.4945  0.1849  0.2772
  518TMC3     O 7750   3.430   4.023  17.541 -0.2397  0.7500  0.3569
  518TMC3     H 7751   3.191   3.717  17.566  4.6521 -0.1305  1.5763
  518TMC3    H1 7752   3.473   3.924  17.333 -2.4260  0.6138 -2.8041
  518TMC3    H2 7753   3.265   3.591  17.176 -2.1418 -0.8912  1.9074
  518TMC3    C7 7754   3.491   3.755  17.139 -0.2807  0.2311  0.7256
  518TMC3    C8 7755   3.128   3.534  17.371 -1.2166 -0.4031 -0.3094
  518TMC3    O1 7756   3.568   3.848  17.126  0.1985  0.3909  0.3094
  518TMC3    O2 7757   3.134   3.443  17.288  0.4226  0.3373 -0.3860
  519MPD2     C 7758   4.671   1.939  13.982  0.1314 -0.2960  0.1793
  519MPD2    C1 7759   4.677   1.971  13.847  0.2155 -0.0501 -0.0735
  519MPD2    C2 7760   0.061   1.940  13.780 -0.0832  0.5412 -0.3747
  519MPD2    C3 7761   0.170   1.881  13.853  0.1973 -0.7667  0.7317
  519MPD2    C4 7762   0.162   1.864  13.990 -0.1646  0.2477  0.3395
  519MPD2    C5 7763   0.045   1.895  14.059  0.3814  0.2399  0.4133
  519MPD2     H 7764   0.060   1.952  13.672  2.6087 -0.0165 -0.4719
  519MPD2    H1 7765   0.246   1.822  14.045 -0.1717 -0.0557  0.1172
  519MPD2    H2 7766   4.584   1.970  14.039 -0.3089 -1.1915 -0.0071
  519MPD2    H3 7767   0.040   1.880  14.166 -0.5410  0.5602  0.4130
  519MPD2     N 7768   0.278   1.824  13.790 -0.0202 -0.1218 -0.0011
  519MPD2    H5 7769   0.333   1.760  13.846 -0.9628  0.5380  1.6693
  519MPD2    N1 7770   4.564   2.015  13.782  0.7655 -0.5671  0.4135
  519MPD2    H7 7771   4.479   2.025  13.835  0.9452 -1.2689  0.8423
  520TMC3    C1 7772   0.422   1.787  13.593  0.4114 -0.5668  0.7032
  520TMC3    C2 7773   0.426   1.800  13.456  0.0476 -0.0384 -0.2251
  520TMC3    C3 7774   0.526   1.731  13.388 -0.3351 -0.1785  0.0093
  520TMC3    C4 7775   0.506   1.712  13.670  0.9262  0.2600 -0.0104
  520TMC3    C5 7776   0.596   1.642  13.595 -0.1226 -0.6512  0.1370
  520TMC3    C6 7777   0.612   1.652  13.459  0.4786  0.2898 -0.1505
  520TMC3     C 7778   0.307   1.850  13.653  0.7416 -0.5818  0.5711
  520TMC3     O 7779   0.253   1.931  13.576  0.0935  0.0184  0.0596
  520TMC3     H 7780   0.360   1.860  13.394  0.0505 -0.3766 -0.5544
  520TMC3    H1 7781   0.491   1.687  13.774 -2.6348 -2.9017 -1.2767
  520TMC3    H2 7782   0.685   1.598  13.400 -0.6407 -0.4290 -0.8741
  520TMC3    C7 7783   0.712   1.590  13.670 -0.7081  0.7717  0.0473
  520TMC3    C8 7784   0.519   1.712  13.244 -0.4841 -0.0579 -0.4894
  520TMC3    O1 7785   0.740   1.656  13.768 -0.4429  0.3791  0.0873
  520TMC3    O2 7786   0.615   1.659  13.189  0.3177 -0.2333  0.1152
  521MPD2     C 7787   0.797   4.728  17.325  0.3395  0.0527 -0.2624
  521MPD2    C1 7788   0.819   0.044  17.451 -0.2590  0.1444  0.1399
  521MPD2    C2 7789   0.910   0.135  17.478  0.1909 -0.1591 -0.1484
  521MPD2    C3 7790   0.993   0.170  17.368 -0.2182  0.2322 -0.6784
  521MPD2    C4 7791   0.970   0.117  17.243 -0.5049  0.4451 -0.3090
  521MPD2    C5 7792   0.863   0.037  17.219 -0.1205  0.2451  1.0111
  521MPD2     H 7793   0.931   0.174  17.577  1.2466 -0.7789 -0.1302
  521MPD2    H1 7794   1.031   0.139  17.156  1.5297  2.0110  1.5081
  521MPD2    H2 7795   0.712   4.666  17.303  0.4481  0.8942 -3.0834
  521MPD2    H3 7796   0.842   0.000  17.119 -1.3617 -0.2697  1.4568
  521MPD2     N 7797   1.101   0.257  17.399  0.1745 -0.4848  0.4068
  521MPD2    H5 7798   1.129   0.257  17.496 -1.4716  0.1671  0.8773
  521MPD2    N1 7799   0.723   0.001  17.543  0.1950 -0.5319 -0.0095
  521MPD2    H7 7800   0.661   4.661  17.512 -0.8643 -0.2453  1.4255
  522TMC3    C1 7801   1.304   0.380  17.354  0.0951  0.0626 -0.3061
  522TMC3    C2 7802   1.396   0.297  17.411 -0.0775  0.4108  0.0689
  522TMC3    C3 7803   1.525   0.294  17.364  0.2684  0.6553  0.1543
  522TMC3    C4 7804   1.354   0.461  17.257  0.7942 -0.0287 -0.1141
  522TMC3    C5 7805   1.481   0.460  17.220 -0.1402  0.2531  0.8788
  522TMC3    C6 7806   1.570   0.365  17.261 -0.8387  0.9187  0.2786
  522TMC3     C 7807   1.191   0.307  17.303  0.4974  1.1919 -0.4469
  522TMC3     O 7808   1.189   0.316  17.180 -0.5326 -0.1623 -0.0116
  522TMC3     H 7809   1.371   0.222  17.485 -0.6591 -0.5772 -1.1219
  522TMC3    H1 7810   1.288   0.533  17.210  2.2016  1.6306  0.4962
  522TMC3    H2 7811   1.658   0.338  17.203  0.5201  1.2329  2.1988
  522TMC3    C7 7812   1.499   0.504  17.085  0.2451  0.3959 -0.3428
  522TMC3    C8 7813   1.605   0.180  17.414 -0.1760  0.4493 -0.6654
  522TMC3    O1 7814   1.599   0.572  17.065 -0.3069  0.1085 -0.1843
  522TMC3    O2 7815   1.611   0.157  17.532 -0.1181 -0.0771 -0.2002
  523MPD2     C 7816   2.502   4.441   9.822  0.4966 -0.2088 -0.0698
  523MPD2    C1 7817   2.428   4.322   9.818 -0.3801 -0.6496 -0.5948
  523MPD2    C2 7818   2.321   4.303   9.730  0.2085 -0.1943 -0.3014
  523MPD2    C3 7819   2.289   4.409   9.644 -0.6456 -0.4846 -0.2591
  523MPD2    C4 7820   2.362   4.526   9.668  0.0423 -0.0199 -0.5072
  523MPD2    C5 7821   2.469   4.541   9.744 -0.0325 -0.1346 -0.1454
  523MPD2     H 7822   2.257   4.217   9.743 -0.1550 -0.2694 -2.6605
  523MPD2    H1 7823   2.356   4.607   9.597 -0.9988 -0.3817 -0.8274
  523MPD2    H2 7824   2.598   4.447   9.871  1.2642 -1.5554 -1.4155
  523MPD2    H3 7825   2.524   4.635   9.740 -0.3521  0.1012  1.1517
  523MPD2     N 7826   2.175   4.414   9.559  0.3540  0.2172  0.0909
  523MPD2    H5 7827   2.151   4.502   9.514 -2.0426  0.2128  1.3888
  523MPD2    N1 7828   2.463   4.220   9.909 -0.2590 -0.3223 -0.7366
  523MPD2    H7 7829   2.536   4.248   9.975  0.2137  2.4605 -2.4013
  524TMC3    C1 7830   1.965   4.353   9.460 -0.0037 -0.3377 -0.6483
  524TMC3    C2 7831   1.909   4.249   9.393  0.4534 -0.0389 -0.2199
  524TMC3    C3 7832   1.811   4.277   9.310  0.4777 -0.4034  0.4122
  524TMC3    C4 7833   1.941   4.487   9.441 -0.0750 -0.1956  0.0527
  524TMC3    C5 7834   1.838   4.505   9.361 -0.3112  0.2374 -0.7140
  524TMC3    C6 7835   1.767   4.406   9.295 -0.8007 -0.0210  0.0726
  524TMC3     C 7836   2.088   4.313   9.533  0.0456 -0.1132  0.1511
  524TMC3     O 7837   2.108   4.197   9.560  0.3840 -0.0693  0.2573
  524TMC3     H 7838   1.938   4.146   9.414  0.5582 -0.3639 -1.9811
  524TMC3    H1 7839   1.999   4.565   9.488  0.8615 -0.4223 -0.7268
  524TMC3    H2 7840   1.684   4.429   9.229  0.7202 -0.4612 -1.9943
  524TMC3    C7 7841   1.786   4.639   9.361  0.1872  0.3870 -0.3622
  524TMC3    C8 7842   1.716   4.177   9.264 -0.0832 -0.2074  0.6903
  524TMC3    O1 7843   1.838   4.717   9.437  0.1727 -0.1277  0.5597
  524TMC3    O2 7844   1.640   4.222   9.177 -0.8761 -0.4655  0.0319
  525MPD2     C 7845   1.373   1.696  14.351  1.1565 -0.3415  0.7491
  525MPD2    C1 7846   1.456   1.755  14.444 -0.5187  1.0613  0.2427
  525MPD2    C2 7847   1.464   1.894  14.451  0.2532 -0.6035 -0.4568
  525MPD2    C3 7848   1.389   1.974  14.367 -0.1237 -0.1546 -0.2565
  525MPD2    C4 7849   1.311   1.910  14.273 -0.1887 -0.5182 -0.0082
  525MPD2    C5 7850   1.302   1.772  14.265  0.9248 -0.0369 -0.7220
  525MPD2     H 7851   1.538   1.932  14.521 -1.2117  1.8123 -0.2433
  525MPD2    H1 7852   1.242   1.966  14.211 -1.6847 -0.7670  1.4606
  525MPD2    H2 7853   1.381   1.588  14.339 -0.0272 -0.1331 -1.7403
  525MPD2    H3 7854   1.261   1.735  14.172 -0.1022  0.8507 -0.6182
  525MPD2     N 7855   1.380   2.117  14.366 -0.0537 -0.0823  0.1407
  525MPD2    H5 7856   1.321   2.161  14.297  1.3062  0.1321 -0.9001
  525MPD2    N1 7857   1.548   1.678  14.521  0.2941 -0.3631  0.2088
  525MPD2    H7 7858   1.631   1.715  14.566 -0.5551 -0.9642  2.2382
  526TMC3    C1 7859   1.608   1.494  14.660  0.5306 -0.3064  0.5359
  526TMC3    C2 7860   1.555   1.422  14.762 -0.1886 -0.8458  0.0246
  526TMC3    C3 7861   1.637   1.395  14.866 -1.2658  0.8214 -0.1665
  526TMC3    C4 7862   1.738   1.538  14.664 -0.2524 -0.4181 -0.6235
  526TMC3    C5 7863   1.815   1.494  14.772  0.2557  0.4960 -0.2404
  526TMC3    C6 7864   1.768   1.430  14.880  0.1426 -0.5947 -0.2562
  526TMC3     C 7865   1.514   1.553  14.570  0.0565 -0.1919  0.3866
  526TMC3     O 7866   1.401   1.504  14.562 -0.0665  0.1539  0.9794
  526TMC3     H 7867   1.448   1.407  14.753  0.1830 -4.1337  1.1700
  526TMC3    H1 7868   1.782   1.587  14.578 -1.6442  1.6564 -0.1370
  526TMC3    H2 7869   1.824   1.394  14.965  1.0561 -1.0918 -1.0731
  526TMC3    C7 7870   1.955   1.510  14.759 -0.6742  0.1578 -0.3338
  526TMC3    C8 7871   1.569   1.385  14.989 -0.9866 -0.2721  0.3344
  526TMC3    O1 7872   1.997   1.595  14.681  0.5206  0.0686  0.0753
  526TMC3    O2 7873   1.619   1.441  15.086  0.3839 -0.3866 -0.0705
  527MPD2     C 7874   3.461   4.073   1.505  0.1065 -0.1154  0.0302
  527MPD2    C1 7875   3.528   4.148   1.413  0.3857 -0.7569  0.8566
  527MPD2    C2 7876   3.633   4.103   1.330 -1.0563  0.2540  0.4093
  527MPD2    C3 7877   3.672   3.971   1.342  0.0947 -0.1698 -0.4561
  527MPD2    C4 7878   3.598   3.887   1.431  0.0988  0.1759  0.2362
  527MPD2    C5 7879   3.502   3.936   1.517 -0.1479 -0.4211 -0.2234
  527MPD2     H 7880   3.682   4.174   1.265 -3.1362 -0.0580 -1.4740
  527MPD2    H1 7881   3.636   3.787   1.447 -3.0682 -1.1468 -0.5959
  527MPD2    H2 7882   3.374   4.108   1.559  0.2883  1.7521 -0.9005
  527MPD2    H3 7883   3.447   3.871   1.584  0.9895 -2.0097 -0.8588
  527MPD2     N 7884   3.764   3.920   1.244 -0.1616  0.4597 -0.8834
  527MPD2    H5 7885   3.830   3.991   1.212  0.4216 -0.5461 -1.9368
  527MPD2    N1 7886   3.487   4.281   1.390 -0.4244 -0.0258 -0.3625
  527MPD2    H7 7887   3.544   4.326   1.320  0.5668  0.4224  0.7363
  528TMC3    C1 7888   3.363   4.484   1.384  0.2963  0.1976  0.0222
  528TMC3    C2 7889   3.392   4.501   1.252  0.6210 -0.1241  0.3679
  528TMC3    C3 7890   3.349   4.614   1.192 -0.4017 -0.2929 -0.1774
  528TMC3    C4 7891   3.292   4.574   1.454  0.5759  0.4453 -0.3512
  528TMC3    C5 7892   3.258   4.693   1.389 -0.1693  0.2696 -0.0130
  528TMC3    C6 7893   3.279   4.710   1.254 -0.1979  0.0425  0.1827
  528TMC3     C 7894   3.391   4.357   1.447 -0.0638 -0.0981 -0.7118
  528TMC3     O 7895   3.320   4.322   1.538  0.2719  0.4290  0.2821
  528TMC3     H 7896   3.442   4.428   1.190  0.8239  0.8148 -0.5676
  528TMC3    H1 7897   3.261   4.553   1.556  2.5275  1.1294  0.3840
  528TMC3    H2 7898   3.253   0.075   1.219 -0.2508  0.2013  0.6770
  528TMC3    C7 7899   3.139   0.016   1.438 -0.5786  0.1509 -0.2877
  528TMC3    C8 7900   3.397   4.622   1.057 -0.1954  0.1611  1.0690
  528TMC3    O1 7901   3.049   0.045   1.364  0.5090 -0.4038  0.4835
  528TMC3    O2 7902   3.516   4.591   1.039  0.4855 -0.2229  0.2598
  529MPD2     C 7903   0.949   3.274   0.962 -0.4915  0.3462 -0.2503
  529MPD2    C1 7904   1.017   3.184   0.889  0.9314 -0.1098 -0.1829
  529MPD2    C2 7905   1.039   3.208   0.756 -0.6610 -0.6750  0.9049
  529MPD2    C3 7906   0.987   3.315   0.687 -0.2226  0.1663 -0.7666
  529MPD2    C4 7907   0.922   3.412   0.767  0.7936 -0.1527  0.1800
  529MPD2    C5 7908   0.901   3.391   0.901  0.6687  0.5595  0.2496
  529MPD2     H 7909   1.103   3.137   0.706 -0.0973  1.7131 -1.7919
  529MPD2    H1 7910   0.865   3.490   0.717  2.1388  0.3210 -0.6078
  529MPD2    H2 7911   0.932   3.260   1.068 -0.5418  0.6091 -0.2245
  529MPD2    H3 7912   0.838   3.456   0.961 -0.2168 -0.4137  0.3818
  529MPD2     N 7913   1.005   3.335   0.547  0.0106  0.3492  0.2601
  529MPD2    H5 7914   0.986   3.427   0.508 -1.1342  0.4974  1.1579
  529MPD2    N1 7915   1.056   3.070   0.956 -0.1233 -0.2799  0.4983
  529MPD2    H7 7916   1.042   3.080   1.056  0.1109 -3.0973  0.8252
  530TMC3    C1 7917   1.143   2.861   1.028 -0.4747 -0.3881 -0.7258
  530TMC3    C2 7918   1.222   2.910   1.127  0.4398 -0.2893  0.4439
  530TMC3    C3 7919   1.289   2.813   1.194 -0.4478 -0.0503 -0.0617
  530TMC3    C4 7920   1.138   2.729   0.997  1.1413 -0.1324  0.0513
  530TMC3    C5 7921   1.194   2.635   1.078  0.6263  0.1952 -0.2892
  530TMC3    C6 7922   1.270   2.675   1.180 -0.5664 -0.4420 -0.3285
  530TMC3     C 7923   1.115   2.954   0.915  0.2348  0.3665  0.1106
  530TMC3     O 7924   1.114   2.909   0.796 -0.2734 -0.1642 -0.2495
  530TMC3     H 7925   1.234   3.016   1.146 -2.8224  0.0956  0.4179
  530TMC3    H1 7926   1.092   2.695   0.905 -2.3795  4.7892 -0.0401
  530TMC3    H2 7927   1.315   2.604   1.248 -1.3298 -0.5090  0.1057
  530TMC3    C7 7928   1.245   2.522   1.007  0.1566  0.5929  0.2006
  530TMC3    C8 7929   1.374   2.868   1.297 -0.0637  0.2868  0.4058
  530TMC3    O1 7930   1.286   2.544   0.894  0.4895 -0.3606 -0.4648
  530TMC3    O2 7931   1.344   2.987   1.329  1.1676  0.3262 -0.0980
  531MPD2     C 7932   0.325   4.583  13.299 -0.5618 -0.7288  0.5935
  531MPD2    C1 7933   0.287   4.712  13.328 -0.8664 -0.3804 -0.5857
  531MPD2    C2 7934   0.190   0.040  13.254 -0.2772  0.0233 -0.5292
  531MPD2    C3 7935   0.115   4.696  13.170  0.1303 -0.1332 -0.1467
  531MPD2    C4 7936   0.145   4.565  13.138  0.8883 -0.0389 -0.3931
  531MPD2    C5 7937   0.255   4.510  13.208  0.6233  0.9844 -0.4273
  531MPD2     H 7938   0.157   0.142  13.269  0.5824  0.1873  0.1883
  531MPD2    H1 7939   0.091   4.499  13.071  0.6128 -0.2343  0.0189
  531MPD2    H2 7940   0.401   4.539  13.362  0.2298 -1.1293 -0.6485
  531MPD2    H3 7941   0.287   4.408  13.194 -0.0959  0.2430  3.6024
  531MPD2     N 7942   4.729   0.029  13.128 -0.0082  0.3074  0.8728
  531MPD2    H5 7943   4.714   0.118  13.173  0.4943  1.0441 -0.4140
  531MPD2    N1 7944   0.356   0.052  13.420  0.2518 -0.0628 -0.3604
  531MPD2    H7 7945   0.432   0.006  13.470 -0.5658 -1.4355 -0.3640
  532TMC3    C1 7946   0.393   0.233  13.566  0.2561 -0.4913 -0.0976
  532TMC3    C2 7947   0.324   0.325  13.637 -0.1104  0.2488  0.2381
  532TMC3    C3 7948   0.388   0.444  13.652 -0.0563  0.2008 -0.6574
  532TMC3    C4 7949   0.520   0.248  13.524  0.3249  0.2474  0.0585
  532TMC3    C5 7950   0.594   0.363  13.562  0.5473  0.0527  0.9297
  532TMC3    C6 7951   0.523   0.469  13.626  0.1693  0.3061 -0.3691
  532TMC3     C 7952   0.308   0.175  13.470  0.0489  0.1653  0.1628
  532TMC3     O 7953   0.208   0.239  13.451  0.2415  0.6545 -0.4942
  532TMC3     H 7954   0.221   0.313  13.667 -0.6863  3.1469 -0.5273
  532TMC3    H1 7955   0.564   0.161  13.476 -1.3617 -0.2699 -0.5480
  532TMC3    H2 7956   0.572   0.566  13.629 -0.6514  0.7627 -1.5382
  532TMC3    C7 7957   0.723   0.340  13.615  0.0284  0.1213 -0.8695
  532TMC3    C8 7958   0.306   0.555  13.605  0.2872 -0.2552  0.7280
  532TMC3    O1 7959   0.797   0.431  13.632 -0.2834  0.1330  0.3396
  532TMC3    O2 7960   0.330   0.667  13.652 -0.8069 -0.2540 -0.3736
  533TMC3    C1 7961   1.407   2.337  14.445  0.3329  0.4742 -0.2764
  533TMC3    C2 7962   1.491   2.423  14.516  0.3926 -0.6765 -0.0528
  533TMC3    C3 7963   1.444   2.551  14.519  0.0009 -0.4430 -0.3791
  533TMC3    C4 7964   1.271   2.361  14.423  0.1157 -0.7720 -0.4651
  533TMC3    C5 7965   1.229   2.480  14.475  0.2766  0.6443  0.2652
  533TMC3    C6 7966   1.315   2.583  14.501 -0.0313  0.3435 -0.8516
  533TMC3     C 7967   1.448   2.199  14.447  0.1599  0.2780  0.1177
  533TMC3     O 7968   1.536   2.174  14.530 -0.1434  0.6370  0.2966
  533TMC3     H 7969   1.597   2.400  14.518  0.5201 -0.0146  0.9883
  533TMC3    H1 7970   1.202   2.279  14.405  0.6155 -0.9765 -1.4498
  533TMC3    H2 7971   1.269   2.678  14.523 -2.1003 -1.0699  0.8963
  533TMC3    C7 7972   1.160   2.438  14.596 -0.0659 -0.4244  0.2144
  533TMC3    C8 7973   1.532   2.655  14.574 -0.1364  0.3180  0.5336
  533TMC3    O1 7974   1.096   2.337  14.606 -0.0577 -0.5767  0.8105
  533TMC3    O2 7975   1.630   2.619  14.637 -0.2421 -0.7554 -0.0905
  534MPD2     C 7976   3.764   2.785   0.984 -0.0055 -0.1997 -0.0420
  534MPD2    C1 7977   3.671   2.875   1.030 -0.3833  0.2677  0.3246
  534MPD2    C2 7978   3.611   2.957   0.935  0.7332  0.7255  0.1361
  534MPD2    C3 7979   3.644   2.959   0.803  0.4140 -0.1979 -0.4267
  534MPD2    C4 7980   3.737   2.874   0.758 -0.4073 -0.5999  0.2704
  534MPD2    C5 7981   3.803   2.787   0.849  0.4998  0.3813 -1.1476
  534MPD2     H 7982   3.535   3.029   0.964  0.0901  0.5327 -1.0560
  534MPD2    H1 7983   3.779   2.880   0.659 -0.5563  0.5531  0.2845
  534MPD2    H2 7984   3.813   2.713   1.048  0.2158  0.0957  0.1256
  534MPD2    H3 7985   3.879   2.718   0.815  2.2012  1.3320  0.7715
  534MPD2     N 7986   3.591   3.057   0.712 -0.0667 -0.5088 -0.3329
  534MPD2    H5 7987   3.639   3.073   0.624  2.2729  0.0531  1.0127
  534MPD2    N1 7988   3.640   2.881   1.165 -0.2151  0.0132  0.0363
  534MPD2    H7 7989   3.583   2.960   1.191 -2.1920 -1.1989 -0.5934
  535TMC3    C1 7990   3.439   3.214   0.632  0.4986 -0.1308  0.4030
  535TMC3    C2 7991   3.309   3.245   0.625  0.3081 -0.0649  0.1331
  535TMC3    C3 7992   3.281   3.381   0.590  0.3690 -0.5608  0.1667
  535TMC3    C4 7993   3.545   3.300   0.606  0.0432  0.2798 -0.3350
  535TMC3    C5 7994   3.508   3.426   0.565  0.3557 -0.9113 -0.1745
  535TMC3    C6 7995   3.380   3.468   0.560 -0.7482  0.4121 -0.3756
  535TMC3     C 7996   3.465   3.109   0.728  0.0091  0.0363 -0.2287
  535TMC3     O 7997   3.376   3.087   0.810  0.4317  0.3772 -0.5205
  535TMC3     H 7998   3.233   3.192   0.681 -1.2926  0.9539 -1.0692
  535TMC3    H1 7999   3.648   3.266   0.600 -0.9539 -2.8169  0.0126
  535TMC3    H2 8000   3.339   3.556   0.512  0.2991  1.5258  0.7634
  535TMC3    C7 8001   3.574   3.467   0.441  0.9181  0.0509  0.2425
  535TMC3    C8 8002   3.160   3.426   0.641 -0.0040  0.1277 -1.0225
  535TMC3    O1 8003   3.644   3.380   0.390  0.1140  0.0180  0.3527
  535TMC3    O2 8004   3.065   3.355   0.629 -0.1895  0.4878 -0.7614
  536MPD2     C 8005   2.120   1.537  16.687 -0.7136 -0.3326  0.5692
  536MPD2    C1 8006   2.194   1.436  16.637  0.0823  0.0606  0.6059
  536MPD2    C2 8007   2.198   1.416  16.502  0.4241 -0.4621  0.2915
  536MPD2    C3 8008   2.122   1.500  16.422 -0.1761  0.2884  0.1352
  536MPD2    C4 8009   2.030   1.590  16.479 -0.2038  0.2529 -0.1684
  536MPD2    C5 8010   2.041   1.613  16.608 -0.2249 -0.8306 -0.4679
  536MPD2     H 8011   2.271   1.346  16.461 -0.5216 -1.9634  1.2033
  536MPD2    H1 8012   1.952   1.642  16.425  0.3516 -0.4001 -1.5783
  536MPD2    H2 8013   2.120   1.554  16.794  1.4487  2.4112  0.1454
  536MPD2    H3 8014   1.986   1.697  16.647  0.0898  0.6737 -3.2207
  536MPD2     N 8015   2.117   1.480  16.283 -0.4037 -0.0704 -0.3680
  536MPD2    H5 8016   2.049   1.536  16.233 -1.6983 -0.7283  0.6522
  536MPD2    N1 8017   2.263   1.346  16.726  0.5065 -0.1395 -1.0189
  536MPD2    H7 8018   2.269   1.373  16.824  0.3000 -1.3032 -0.6806
  537TMC3    C1 8019   2.371   1.153  16.806  0.5845  0.3024 -0.2412
  537TMC3    C2 8020   2.453   1.225  16.887 -0.2283 -0.2176  0.3569
  537TMC3    C3 8021   2.542   1.162  16.969 -0.7086  0.1162 -0.5228
  537TMC3    C4 8022   2.372   1.015  16.803 -0.4930 -0.0918 -0.6558
  537TMC3    C5 8023   2.464   0.954  16.884 -0.1056 -0.2322  0.1654
  537TMC3    C6 8024   2.548   1.027  16.970  0.1344  0.1116  0.3290
  537TMC3     C 8025   2.294   1.215  16.699 -0.0745 -0.2673 -0.7270
  537TMC3     O 8026   2.275   1.143  16.600 -0.0944 -0.0177 -0.3644
  537TMC3     H 8027   2.465   1.333  16.878 -2.8537 -0.1199 -2.0808
  537TMC3    H1 8028   2.310   0.969  16.727 -1.5992  0.9764 -0.3998
  537TMC3    H2 8029   2.605   0.966  17.039  0.0678 -0.3885 -0.0591
  537TMC3    C7 8030   2.479   0.811  16.850  0.0070  0.2646 -0.4222
  537TMC3    C8 8031   2.590   1.236  17.085 -0.2520 -0.3869 -0.3421
  537TMC3    O1 8032   2.418   0.761  16.756 -0.6467 -0.0851  0.3132
  537TMC3    O2 8033   2.587   1.357  17.075  0.6122  0.4932 -0.4133
  538TMC3    C1 8034   3.422   4.209  11.197 -0.0636 -0.2998 -0.4393
  538TMC3    C2 8035   3.414   4.126  11.093  0.3606  0.8312 -0.2981
  538TMC3    C3 8036   3.418   4.183  10.970 -0.5027  0.9833  0.0299
  538TMC3    C4 8037   3.416   4.346  11.184  0.1505 -0.1451  0.2879
  538TMC3    C5 8038   3.431   4.399  11.062  0.2858  0.0653 -0.0404
  538TMC3    C6 8039   3.440   4.318  10.950  0.4531  0.3574 -0.5976
  538TMC3     C 8040   3.370   4.166  11.324  0.5270  0.1403  0.0030
  538TMC3     O 8041   3.281   4.082  11.311  0.0839 -0.4398  0.1149
  538TMC3     H 8042   3.407   4.019  11.105 -0.6212  1.0900  1.3701
  538TMC3    H1 8043   3.412   4.405  11.274  0.8013  0.2130  0.0849
  538TMC3    H2 8044   3.451   4.358  10.850  1.3471 -1.6937 -1.3266
  538TMC3    C7 8045   3.340   4.515  11.046 -0.3288  0.6490 -0.4757
  538TMC3    C8 8046   3.435   4.093  10.860  0.3566  0.4876  0.3912
  538TMC3    O1 8047   3.251   4.515  11.130 -0.1023 -0.1105  0.2906
  538TMC3    O2 8048   3.380   3.983  10.853 -0.6472 -0.1922 -0.1497
  539MPD2     C 8049   3.152   3.508  11.898  0.6499 -0.7186 -0.2040
  539MPD2    C1 8050   3.142   3.521  11.761  0.6159  0.1551 -0.2381
  539MPD2    C2 8051   3.113   3.642  11.701  0.6378 -0.0936 -0.4685
  539MPD2    C3 8052   3.091   3.754  11.786  0.5339 -0.2170 -0.7868
  539MPD2    C4 8053   3.102   3.741  11.917 -0.4152 -0.6683 -0.0450
  539MPD2    C5 8054   3.136   3.624  11.975 -0.4383  0.0378  0.1540
  539MPD2     H 8055   3.089   3.655  11.596 -1.0249 -1.5232 -0.2695
  539MPD2    H1 8056   3.086   3.821  11.987 -0.9896 -0.8176 -0.0055
  539MPD2    H2 8057   3.164   3.411  11.944  1.1280 -0.6325 -0.1478
  539MPD2    H3 8058   3.154   3.626  12.082  0.4223 -1.2612  0.0265
  539MPD2     N 8059   3.057   3.885  11.736  0.1331  0.7166 -0.1589
  539MPD2    H5 8060   3.050   3.957  11.808 -0.0403 -0.8460  1.3802
  539MPD2    N1 8061   3.166   3.416  11.675  0.1439  0.1969 -0.4547
  539MPD2    H7 8062   3.183   3.452  11.581 -2.9837  1.4895 -0.5246
  540TMC3    C1 8063   2.993   4.064  11.575  0.4899 -0.6905 -0.2092
  540TMC3    C2 8064   2.990   4.083  11.435 -1.0384 -0.4495  0.6870
  540TMC3    C3 8065   2.932   4.201  11.399  0.6162 -0.0711  0.1364
  540TMC3    C4 8066   2.919   4.134  11.672  0.3484  0.4794  0.0105
  540TMC3    C5 8067   2.854   4.244  11.618 -0.9742 -0.7586  0.6217
  540TMC3    C6 8068   2.858   4.281  11.485  0.3504  0.4544  0.3745
  540TMC3     C 8069   3.019   3.923  11.607  0.4722  0.4738  0.4402
  540TMC3     O 8070   2.985   3.850  11.519  0.0742  0.5720 -0.2630
  540TMC3     H 8071   3.042   4.015  11.368 -3.4482 -2.6739  1.0688
  540TMC3    H1 8072   2.909   4.084  11.768  2.0173  3.1049  1.5654
  540TMC3    H2 8073   2.816   4.372  11.444  2.9727  1.2393 -0.6306
  540TMC3    C7 8074   2.734   4.280  11.698 -0.0991 -0.1090  1.1857
  540TMC3    C8 8075   2.919   4.216  11.252  0.5867  0.1540  0.1985
  540TMC3    O1 8076   2.695   4.205  11.784  0.9476  0.5860  0.4810
  540TMC3    O2 8077   2.932   4.327  11.208 -0.1433  0.4808  0.5605
  541MPD2     C 8078   1.331   0.529  13.309  0.0177  0.1406 -0.7494
  541MPD2    C1 8079   1.345   0.424  13.218 -0.0336 -0.2293 -0.5639
  541MPD2    C2 8080   1.411   0.456  13.101 -0.5347 -0.3160  0.0960
  541MPD2    C3 8081   1.450   0.584  13.073  0.6491  0.3825 -0.2748
  541MPD2    C4 8082   1.423   0.690  13.158 -0.2249  0.0361  0.2495
  541MPD2    C5 8083   1.361   0.662  13.272  0.5628 -0.2267  0.8705
  541MPD2     H 8084   1.433   0.378  13.028 -0.7287  0.7708 -1.1168
  541MPD2    H1 8085   1.470   0.786  13.138 -0.0159 -0.6493 -2.5226
  541MPD2    H2 8086   1.272   0.517  13.400  0.2971 -1.5178 -0.7842
  541MPD2    H3 8087   1.333   0.740  13.342  1.0437  0.1281  0.6625
  541MPD2     N 8088   1.518   0.615  12.954 -0.4533  0.2921 -0.0228
  541MPD2    H5 8089   1.548   0.711  12.937 -0.3935 -0.0676 -1.9716
  541MPD2    N1 8090   1.315   0.293  13.256 -0.6316  0.7681 -0.5205
  541MPD2    H7 8091   1.286   0.291  13.353  0.0959  1.3377 -0.2846
  542TMC3    C1 8092   1.607   0.593  12.733  0.2058 -0.1677  0.6665
  542TMC3    C2 8093   1.677   0.510  12.638 -0.1362 -0.4335  0.2300
  542TMC3    C3 8094   1.692   0.565  12.513  0.0425  0.2135  0.4150
  542TMC3    C4 8095   1.562   0.719  12.702  0.6898 -1.3068  0.3367
  542TMC3    C5 8096   1.572   0.759  12.575  0.0235  0.2893 -0.2768
  542TMC3    C6 8097   1.641   0.692  12.476  0.1501 -0.0236  0.0852
  542TMC3     C 8098   1.572   0.530  12.856  0.1320 -0.8058  0.3459
  542TMC3     O 8099   1.597   0.409  12.876 -0.1532 -0.4531  0.0768
  542TMC3     H 8100   1.711   0.409  12.658  0.2735 -0.6405 -1.4335
  542TMC3    H1 8101   1.518   0.782  12.779  2.7942 -0.2043  0.6568
  542TMC3    H2 8102   1.667   0.735  12.380  1.7131 -0.3854  0.3451
  542TMC3    C7 8103   1.500   0.878  12.530 -0.3049  0.3563 -0.1891
  542TMC3    C8 8104   1.746   0.476  12.416  0.4767 -0.2365 -0.0854
  542TMC3    O1 8105   1.468   0.958  12.614 -0.3296  0.3190 -0.2307
  542TMC3    O2 8106   1.801   0.541  12.331 -0.0977 -0.1990 -0.3026
  543TMC3    C1 8107   1.341   2.134  17.395  0.0419 -0.0462 -0.5385
  543TMC3    C2 8108   1.329   2.002  17.424  0.5083  0.4889 -0.4765
  543TMC3    C3 8109   1.265   1.972  17.541 -0.4308 -0.3414 -0.2098
  543TMC3    C4 8110   1.284   2.226  17.477 -0.6967 -0.1869  0.9389
  543TMC3    C5 8111   1.237   2.189  17.599 -0.3510  0.3403 -0.4783
  543TMC3    C6 8112   1.231   2.057  17.641  0.7427  0.7232 -0.1795
  543TMC3     C 8113   1.395   2.161  17.266 -0.3588 -0.6720 -0.2473
  543TMC3     O 8114   1.442   2.058  17.214 -0.4649 -0.1728  0.5199
  543TMC3     H 8115   1.357   1.928  17.351 -0.8346 -0.4114 -0.0798
  543TMC3    H1 8116   1.308   2.331  17.458 -1.1857 -0.0627  0.9996
  543TMC3    H2 8117   1.167   2.024  17.722  1.2348  0.0611 -0.0595
  543TMC3    C7 8118   1.159   2.277  17.681 -0.2245 -0.3063  0.0462
  543TMC3    C8 8119   1.244   1.830  17.560  0.1757  0.0954 -0.2280
  543TMC3    O1 8120   1.115   2.239   0.048  0.5063  0.2399 -0.3422
  543TMC3    O2 8121   1.226   1.761  17.461  0.6025 -0.6024  0.0454
  544MPD2     C 8122   1.160   1.408   0.101 -0.3419 -0.5678 -0.4646
  544MPD2    C1 8123   1.206   1.423  17.706 -0.6752  0.5475 -0.0493
  544MPD2    C2 8124   1.232   1.553  17.665  0.3548 -0.1083  0.1447
  544MPD2    C3 8125   1.222   1.666   0.004  0.1833 -0.2995  0.3034
  544MPD2    C4 8126   1.192   1.651   0.140 -0.1023 -0.2433  0.6198
  544MPD2    C5 8127   1.166   1.522   0.184 -1.1713  0.2776 -0.1891
  544MPD2     H 8128   1.255   1.572  17.561  0.9392  2.7684  0.8059
  544MPD2    H1 8129   1.193   1.729   0.215  2.1225 -1.9778  2.3800
  544MPD2    H2 8130   1.123   1.315   0.141  1.1524 -0.4857  1.0864
  544MPD2    H3 8131   1.128   1.512   0.285  0.4842  2.3985  0.6278
  544MPD2     N 8132   1.237   1.799  17.688 -0.3809  0.3769  0.0383
  544MPD2    H5 8133   1.224   1.876   0.016 -1.2527 -0.3128  0.6842
  544MPD2    N1 8134   1.217   1.304  17.626 -0.1701 -0.2667  0.0053
  544MPD2    H7 8135   1.160   1.226  17.657 -0.4919  0.7020  1.8509
  545TMC3    C1 8136   1.245   1.207  17.398 -1.0922  0.0338  0.5252
  545TMC3    C2 8137   1.230   1.248  17.270  0.1156  0.3353  0.3308
  545TMC3    C3 8138   1.156   1.176  17.180  0.0334 -0.1111  1.0621
  545TMC3    C4 8139   1.186   1.083  17.438  0.4148 -0.2362  0.5328
  545TMC3    C5 8140   1.131   1.006  17.339  0.4725 -0.5316 -1.2546
  545TMC3    C6 8141   1.111   1.056  17.209 -0.0188 -0.7954  0.0601
  545TMC3     C 8142   1.266   1.312  17.498  0.4523  0.7826  0.0301
  545TMC3     O 8143   1.333   1.401  17.445 -0.3081 -0.4040 -0.0690
  545TMC3     H 8144   1.276   1.336  17.227  2.4926 -1.9363 -1.7942
  545TMC3    H1 8145   1.182   1.050  17.541  2.9952 -0.8072  0.4544
  545TMC3    H2 8146   1.055   0.990  17.144 -0.0264 -2.0857  1.3678
  545TMC3    C7 8147   1.044   0.905  17.387  0.1568 -0.3691  0.1922
  545TMC3    C8 8148   1.168   1.209  17.039 -0.0006  0.7069  0.0491
  545TMC3    O1 8149   0.923   0.914  17.357 -0.5146  0.4407 -0.0237
  545TMC3    O2 8150   1.209   1.123  16.960  0.0358  0.4778  0.1801
  546MPD2     C 8151   2.807   2.089  17.558  0.3855 -0.2630  0.0342
  546MPD2    C1 8152   2.804   2.095  17.422  0.9973 -0.6327 -0.9684
  546MPD2    C2 8153   2.852   2.214  17.362  0.3289 -0.4957  0.3598
  546MPD2    C3 8154   2.906   2.320  17.441 -0.2006 -0.2223  0.2783
  546MPD2    C4 8155   2.904   2.308  17.580  0.6329 -0.4386  0.4067
  546MPD2    C5 8156   2.860   2.194  17.636  0.6525  0.2421  0.5651
  546MPD2     H 8157   2.856   2.215  17.254  0.3779  1.3376  0.3907
  546MPD2    H1 8158   2.949   2.390  17.635 -1.1384  0.7340  0.1310
  546MPD2    H2 8159   2.774   1.997  17.607 -2.2562  1.6321  1.8341
  546MPD2    H3 8160   2.878   2.184   0.005  1.9896 -0.6396  0.2652
  546MPD2     N 8161   2.947   2.444  17.389 -0.3112  0.1554  0.9310
  546MPD2    H5 8162   2.989   2.507  17.456  2.2213  0.5078 -0.9709
  546MPD2    N1 8163   2.733   1.984  17.356  0.2451  0.5204  0.4614
  546MPD2    H7 8164   2.682   1.921  17.416  0.3196 -0.2297 -0.2660
  547TMC3    C1 8165   2.632   1.859  17.184 -0.3200  0.1418  0.1092
  547TMC3    C2 8166   2.575   1.849  17.059  0.7870 -0.1185 -0.0047
  547TMC3    C3 8167   2.472   1.759  17.040  0.8268  0.1589  0.3578
  547TMC3    C4 8168   2.599   1.767  17.279  1.2265  0.0466  0.2632
  547TMC3    C5 8169   2.505   1.671  17.253  0.7199 -0.5183  0.1554
  547TMC3    C6 8170   2.433   1.665  17.140 -0.1759  0.1886  0.2839
  547TMC3     C 8171   2.719   1.971  17.220 -0.0889  1.0746 -0.1960
  547TMC3     O 8172   2.766   2.041  17.127 -0.2585 -0.0430 -0.1558
  547TMC3     H 8173   2.606   1.913  16.977  0.0485 -0.5950 -0.6576
  547TMC3    H1 8174   2.652   1.763  17.373 -1.0266  0.8525  1.5590
  547TMC3    H2 8175   2.348   1.600  17.122  0.2125 -0.8252  2.2346
  547TMC3    C7 8176   2.469   1.599  17.373  0.6088 -0.2390  0.1162
  547TMC3    C8 8177   2.380   1.770  16.926  0.1670  0.1557  0.4826
  547TMC3    O1 8178   2.512   1.635  17.484  0.2495  0.0867  0.6357
  547TMC3    O2 8179   2.261   1.751  16.940 -0.0257  0.1104 -0.2335
  548MPD2     C 8180   2.194   2.304  12.252 -0.3426  0.1657  0.0890
  548MPD2    C1 8181   2.178   2.241  12.372 -0.4785  0.3292  0.2126
  548MPD2    C2 8182   2.265   2.146  12.419  0.0008  0.8442  0.0643
  548MPD2    C3 8183   2.377   2.124  12.345  0.1322  0.2063 -0.1101
  548MPD2    C4 8184   2.404   2.197  12.233  0.1085 -0.1957  0.0076
  548MPD2    C5 8185   2.309   2.285  12.188  0.2900 -0.3672  0.4627
  548MPD2     H 8186   2.257   2.084  12.508 -1.9866  0.5906 -0.2861
  548MPD2    H1 8187   2.498   2.193  12.180 -0.2313 -1.3404 -0.4913
  548MPD2    H2 8188   2.118   2.375  12.220 -1.3217 -0.7132  0.4526
  548MPD2    H3 8189   2.332   2.343  12.099 -0.0383  3.3708  2.7980
  548MPD2     N 8190   2.463   2.017  12.388  0.7529 -0.2780  0.4123
  548MPD2    H5 8191   2.419   1.943  12.442 -1.2419  1.0701  0.6318
  548MPD2    N1 8192   2.053   2.258  12.431 -0.3563  0.4409  0.6021
  548MPD2    H7 8193   1.984   2.302  12.371 -2.1180 -1.9194  0.8803
  549TMC3    C1 8194   1.875   2.254  12.590  0.1455 -0.0921 -0.0227
  549TMC3    C2 8195   1.813   2.359  12.533 -0.3860  0.5658 -0.8890
  549TMC3    C3 8196   1.687   2.391  12.576  0.3781  0.0637  0.2001
  549TMC3    C4 8197   1.825   2.184  12.692  0.3286  0.2738 -0.1147
  549TMC3    C5 8198   1.696   2.209  12.730  0.9290  0.5461  0.0948
  549TMC3    C6 8199   1.630   2.315  12.673  0.5917  0.0088 -0.2934
  549TMC3     C 8200   2.015   2.226  12.557 -0.2799  0.1471  0.5971
  549TMC3     O 8201   2.082   2.179  12.651  0.3874  0.2528  0.3949
  549TMC3     H 8202   1.870   2.412  12.459  0.9614  2.5926  1.5965
  549TMC3    H1 8203   1.880   2.102  12.738  0.6822  0.3985 -0.3154
  549TMC3    H2 8204   1.523   2.320  12.691  0.4777 -2.8132 -0.0997
  549TMC3    C7 8205   1.618   2.096  12.779 -0.1172 -0.1509 -0.1548
  549TMC3    C8 8206   1.593   2.446  12.481  0.0928 -0.0023  0.3336
  549TMC3    O1 8207   1.514   2.124  12.843  0.5935 -0.0327 -0.2245
  549TMC3    O2 8208   1.484   2.391  12.469  0.7197 -0.2835  0.2180
  550TMC3    C1 8209   1.072   0.056  12.060  0.0456  0.0331  0.6854
  550TMC3    C2 8210   1.087   0.081  12.192  0.1687 -0.4855  0.3937
  550TMC3    C3 8211   0.973   0.131  12.253  0.5637  0.4114 -0.1825
  550TMC3    C4 8212   0.955   0.065  11.994 -0.2844 -0.3413 -0.2336
  550TMC3    C5 8213   0.851   0.121  12.056 -0.7242 -0.4262  0.1003
  550TMC3    C6 8214   0.855   0.156  12.186 -0.0195 -0.0695  0.1182
  550TMC3     C 8215   1.178   0.000  11.997 -0.6688 -0.4281 -0.3621
  550TMC3     O 8216   1.256   4.658  12.052 -0.0723  0.1796 -0.2158
  550TMC3     H 8217   1.186   0.078  12.236  0.9744 -0.7285 -1.4345
  550TMC3    H1 8218   0.951   0.034  11.890 -2.3041  0.0824 -0.2797
  550TMC3    H2 8219   0.769   0.203  12.234 -1.3008 -2.4556  0.1217
  550TMC3    C7 8220   0.725   0.115  11.992 -0.8321  0.4584 -0.5145
  550TMC3    C8 8221   1.007   0.246  12.327 -0.8798 -0.0357  0.1932
  550TMC3    O1 8222   0.633   0.108  12.069 -0.2111  0.1136 -0.6236
  550TMC3    O2 8223   0.935   0.343  12.317 -0.6922 -0.2815  0.7465
  551TMC3    C1 8224   3.619   2.653  13.111  0.2339  0.0402  0.4288
  551TMC3    C2 8225   3.719   2.708  13.038  0.7559  0.1890  0.0629
  551TMC3    C3 8226   3.814   2.790  13.093 -0.3013 -0.2454 -0.3288
  551TMC3    C4 8227   3.613   2.675  13.246  0.2631 -0.7215  0.7184
  551TMC3    C5 8228   3.707   2.760  13.299  0.5937  0.2406  0.5574
  551TMC3    C6 8229   3.810   2.817  13.229 -0.2278 -0.1004  0.2259
  551TMC3     C 8230   3.517   2.576  13.043  0.2582 -0.9348  0.1239
  551TMC3     O 8231   3.487   2.598  12.927 -0.6328  0.1750 -0.2149
  551TMC3     H 8232   3.718   2.706  12.930 -2.1662 -4.3134  0.1707
  551TMC3    H1 8233   3.531   2.633  13.303 -0.7484 -0.0356 -0.2271
  551TMC3    H2 8234   3.885   2.875  13.281  0.7711 -1.1437 -0.0590
  551TMC3    C7 8235   3.693   2.806  13.441 -0.5481  0.3489  0.9999
  551TMC3    C8 8236   3.919   2.836  13.005  0.4166  0.0157 -0.4153
  551TMC3    O1 8237   3.679   2.722  13.527 -0.1170  0.3962  0.0774
  551TMC3    O2 8238   3.955   2.744  12.935  0.0467 -0.4473  0.1105
  552MPD2     C 8239   0.860   0.415  14.051  0.0305  0.4015 -0.3437
  552MPD2    C1 8240   0.843   0.301  14.125 -0.4898  0.1570  0.6824
  552MPD2    C2 8241   0.932   0.281  14.228 -0.1776 -0.6038 -0.8487
  552MPD2    C3 8242   1.030   0.374  14.259 -0.3809 -0.2158 -0.4112
  552MPD2    C4 8243   1.048   0.486  14.183 -0.5048  0.4650 -0.1284
  552MPD2    C5 8244   0.960   0.500  14.078 -0.2902 -0.5621 -0.0324
  552MPD2     H 8245   0.928   0.192  14.290  1.4994 -0.6877 -0.8458
  552MPD2    H1 8246   1.120   0.567  14.197  0.7461 -0.6281 -0.1964
  552MPD2    H2 8247   0.795   0.439  13.967 -3.5512  1.6601  2.7529
  552MPD2    H3 8248   0.973   0.594  14.026 -4.1126 -0.2195 -0.3878
  552MPD2     N 8249   1.114   0.361  14.378 -0.0881 -0.7096  0.8137
  552MPD2    H5 8250   1.184   0.434  14.386 -0.5669 -0.0658 -0.8203
  552MPD2    N1 8251   0.742   0.207  14.112 -0.1038  0.3623  0.2700
  552MPD2    H7 8252   0.743   0.119  14.163 -0.8068 -0.3418 -0.9253
  553TMC3    C1 8253   0.572   0.090  13.994 -0.3445  0.0480 -0.1589
  553TMC3    C2 8254   0.538   0.067  13.867 -0.5675 -0.1344 -0.2121
  553TMC3    C3 8255   0.484   4.681  13.835  0.3851  0.3282 -0.5013
  553TMC3    C4 8256   0.573   4.720  14.083 -0.1276  0.1393 -0.4866
  553TMC3    C5 8257   0.497   4.609  14.053 -0.3596  0.3566  0.6329
  553TMC3    C6 8258   0.458   4.587  13.929  0.3632 -0.0366 -0.0308
  553TMC3     C 8259   0.635   0.217  14.026  1.0512  0.3051 -0.3389
  553TMC3     O 8260   0.606   0.312  13.949 -0.5269 -0.2381  0.2576
  553TMC3     H 8261   0.562   0.138  13.788  0.9167 -0.6887 -0.2409
  553TMC3    H1 8262   0.596   4.734  14.188  0.2366 -0.0495 -0.5398
  553TMC3    H2 8263   0.416   4.490  13.906  0.1745 -0.0646  0.4267
  553TMC3    C7 8264   0.530   4.487  14.116 -0.8577  0.0810  0.3793
  553TMC3    C8 8265   0.499   4.638  13.696 -0.0776  0.5147  0.0838
  553TMC3    O1 8266   0.443   4.398  14.128  0.4886 -0.2581 -0.4088
  553TMC3    O2 8267   0.559   4.714  13.615  0.3677 -0.2897  0.2216
  554TMC3    C1 8268   2.077   3.659  11.726  0.0153  0.2467 -0.6269
  554TMC3    C2 8269   1.953   3.657  11.672 -0.1699 -0.0093  0.5468
  554TMC3    C3 8270   1.905   3.763  11.608  0.1302  0.5009 -0.6198
  554TMC3    C4 8271   2.150   3.775  11.731  0.5457  0.1402  0.7204
  554TMC3    C5 8272   2.099   3.885  11.665 -0.1986 -0.0892 -0.1983
  554TMC3    C6 8273   1.977   3.875  11.601 -0.2473  0.2542 -0.0000
  554TMC3     C 8274   2.133   3.528  11.749 -0.1512  1.2421  0.9164
  554TMC3     O 8275   2.069   3.435  11.702 -0.1189 -0.4689 -0.5097
  554TMC3     H 8276   1.898   3.564  11.678 -0.4867  0.1820  0.6044
  554TMC3    H1 8277   2.254   3.777  11.760  1.1377  1.2366 -1.4428
  554TMC3    H2 8278   1.957   3.947  11.522  0.7311  0.8853  0.3221
  554TMC3    C7 8279   2.195   3.985  11.633  0.1824 -0.5332  0.5999
  554TMC3    C8 8280   1.815   3.737  11.502  0.4748  0.6019 -0.7567
  554TMC3    O1 8281   2.315   3.957  11.646 -0.4433  0.4006 -0.6087
  554TMC3    O2 8282   1.811   3.623  11.460  0.0691  0.0209  0.0905
  555TMC3    C1 8283   1.410   3.555  15.117  0.2500  0.4959 -0.0792
  555TMC3    C2 8284   1.405   3.637  15.224  0.0562 -0.5557  0.3859
  555TMC3    C3 8285   1.462   3.586  15.340  0.1030 -0.0213  0.1643
  555TMC3    C4 8286   1.470   3.430  15.109  0.1963  0.4255 -0.6732
  555TMC3    C5 8287   1.537   3.390  15.221 -0.1349 -0.2255 -0.0809
  555TMC3    C6 8288   1.531   3.465  15.338  0.3840  0.1712 -0.1393
  555TMC3     C 8289   1.367   3.618  14.984 -0.6932 -0.6718  0.4327
  555TMC3     O 8290   1.340   3.546  14.885  0.3624 -0.2683  0.2617
  555TMC3     H 8291   1.342   3.724  15.233  2.5851  1.3073  0.2074
  555TMC3    H1 8292   1.463   3.363  15.023 -0.7062 -2.6246  1.7723
  555TMC3    H2 8293   1.598   3.431  15.417 -2.4743  1.3667  2.7939
  555TMC3    C7 8294   1.557   3.250  15.248 -0.1451  0.0416  0.6016
  555TMC3    C8 8295   1.460   3.664  15.458  0.2659  0.1505 -0.1405
  555TMC3    O1 8296   1.527   3.212  15.360  0.2391 -0.0823  0.3568
  555TMC3    O2 8297   1.418   3.776  15.444 -0.0913  0.3344  0.5044
  556MPD2     C 8298   3.956   0.433  10.829 -0.0914 -0.6158 -0.2154
  556MPD2    C1 8299   3.992   0.312  10.889  0.5068 -0.4059  1.2721
  556MPD2    C2 8300   3.992   0.194  10.819  0.0323  0.2297  0.2834
  556MPD2    C3 8301   3.971   0.194  10.684 -0.7305 -0.7899  0.3888
  556MPD2    C4 8302   3.937   0.315  10.622  0.6398 -0.1042  0.1998
  556MPD2    C5 8303   3.932   0.433  10.693 -0.8592 -0.2531  0.0932
  556MPD2     H 8304   4.026   0.108  10.876 -0.3818  0.5064  0.9465
  556MPD2    H1 8305   3.924   0.319  10.515  0.3768  0.9291  0.2663
  556MPD2    H2 8306   3.938   0.532  10.869  1.1805  0.1823 -1.6338
  556MPD2    H3 8307   3.901   0.523  10.641 -1.9628 -0.1868  0.8713
  556MPD2     N 8308   3.979   0.074  10.607  0.6167 -0.8649 -0.3693
  556MPD2    H5 8309   3.984   4.719  10.655  0.2733 -1.0978 -0.7749
  556MPD2    N1 8310   4.011   0.302  11.028 -0.0244  0.0542  0.0318
  556MPD2    H7 8311   4.020   0.207  11.063 -1.2983 -0.1799 -0.3017
  557TMC3    C1 8312   3.981   4.668  10.419  0.9472  0.4066  0.0511
  557TMC3    C2 8313   4.003   4.654  10.291  0.1877  0.0604  0.1310
  557TMC3    C3 8314   4.013   4.530  10.235  0.1404 -0.9458  0.4830
  557TMC3    C4 8315   3.957   4.554  10.492  0.7090 -0.8531  0.1977
  557TMC3    C5 8316   3.970   4.430  10.439 -0.5319  0.3451 -0.1126
  557TMC3    C6 8317   3.996   4.414  10.306  0.1242 -0.1979 -0.0096
  557TMC3     C 8318   3.970   0.064  10.470  0.5892 -0.0077  0.0485
  557TMC3     O 8319   3.978   0.151  10.384 -0.2060 -0.0359 -0.1976
  557TMC3     H 8320   4.010   0.002  10.221 -2.5297  0.2499  0.1053
  557TMC3    H1 8321   3.945   4.563  10.599  0.3338  0.9930 -0.0033
  557TMC3    H2 8322   4.037   4.323  10.266  0.6574 -1.2787  2.9595
  557TMC3    C7 8323   3.916   4.315  10.507  0.2694 -0.2893 -0.1980
  557TMC3    C8 8324   4.116   4.529  10.136  0.3053  0.6984  0.6996
  557TMC3    O1 8325   3.913   4.330  10.629  0.8491  0.0279  0.4075
  557TMC3    O2 8326   4.193   4.624  10.148 -0.1207  0.0778  0.4462
  558TMC3    C1 8327   1.950   3.084  10.434  0.0819  0.6557  0.1180
  558TMC3    C2 8328   1.854   3.049  10.519  0.3533  0.2857  0.6439
  558TMC3    C3 8329   1.726   3.044  10.462  0.0825  0.3137 -0.1258
  558TMC3    C4 8330   1.928   3.134  10.309  0.1092  0.2626  0.6403
  558TMC3    C5 8331   1.806   3.116  10.260  0.1881  0.5633  0.3039
  558TMC3    C6 8332   1.708   3.078  10.334 -0.3492 -0.4342  0.8181
  558TMC3     C 8333   2.086   3.051  10.466  0.3164  0.0502  0.0331
  558TMC3     O 8334   2.167   3.045  10.374  0.1482  0.9731  0.4756
  558TMC3     H 8335   1.870   3.029  10.625  3.0161 -0.7492  0.0559
  558TMC3    H1 8336   2.007   3.165  10.241  1.5034  0.9799  2.5802
  558TMC3    H2 8337   1.603   3.070  10.306 -0.6090 -0.0480  1.6733
  558TMC3    C7 8338   1.764   3.169  10.132  0.2710 -0.7157  0.2883
  558TMC3    C8 8339   1.630   2.940  10.503 -0.1679 -0.1116 -0.2152
  558TMC3    O1 8340   1.826   3.265  10.082 -0.2974 -0.1129 -0.3897
  558TMC3    O2 8341   1.515   2.939  10.458  0.3997  0.0676 -0.2420
  559MPD2     C 8342   1.724   3.310  10.685  0.6843 -1.1685 -0.0366
  559MPD2    C1 8343   1.692   3.207  10.775  0.5464 -0.6929  0.0346
  559MPD2    C2 8344   1.781   3.167  10.875  0.4406  0.0639 -0.8747
  559MPD2    C3 8345   1.908   3.234  10.886 -0.9072  0.4927 -0.0641
  559MPD2    C4 8346   1.933   3.335  10.798 -0.1280 -0.7443 -0.5789
  559MPD2    C5 8347   1.845   3.371  10.699 -0.1462  0.0151  0.1586
  559MPD2     H 8348   1.756   3.090  10.947  0.2886  1.2170  0.3181
  559MPD2    H1 8349   2.021   3.398  10.803 -0.6506  0.0591 -1.3557
  559MPD2    H2 8350   1.660   3.329  10.600  0.7535 -0.2453  0.1155
  559MPD2    H3 8351   1.874   3.452  10.633 -1.0960 -0.2688 -0.6085
  559MPD2     N 8352   1.997   3.190  10.988 -0.0287  0.5370  0.2054
  559MPD2    H5 8353   1.966   3.104  11.031  3.2811 -0.6965  0.1049
  559MPD2    N1 8354   1.563   3.160  10.757 -0.7742  0.0137 -0.0159
  559MPD2    H7 8355   1.494   3.218  10.711 -0.0611  0.2902 -0.7543
  560TMC3    C1 8356   2.193   3.162  11.111 -0.1638 -0.0634 -0.4744
  560TMC3    C2 8357   2.151   3.034  11.132 -0.5894 -0.3706 -0.7094
  560TMC3    C3 8358   2.238   2.960  11.210  0.0976  0.1382 -0.2295
  560TMC3    C4 8359   2.317   3.212  11.154 -0.1852 -0.5558  0.4377
  560TMC3    C5 8360   2.403   3.130  11.224  0.5140  0.6467  0.0523
  560TMC3    C6 8361   2.361   3.005  11.257 -0.5795 -0.4249  0.4723
  560TMC3     C 8362   2.121   3.243  11.019 -0.3946  0.0458  0.4435
  560TMC3     O 8363   2.177   3.341  10.970 -0.2349 -0.2676  0.6866
  560TMC3     H 8364   2.056   2.987  11.110 -0.8475  1.1783 -2.9314
  560TMC3    H1 8365   2.347   3.313  11.129 -0.9199 -0.6039 -0.6499
  560TMC3    H2 8366   2.436   2.939  11.297  0.4958 -0.4188 -1.4983
  560TMC3    C7 8367   2.520   3.181  11.295  0.6217 -0.7521  0.2306
  560TMC3    C8 8368   2.226   2.819  11.186 -0.3113 -0.3641 -0.1883
  560TMC3    O1 8369   2.556   3.112  11.390 -1.1107  0.0113 -0.0182
  560TMC3    O2 8370   2.122   2.765  11.156 -0.3176  0.6083  0.5540
  561TMC3    C1 8371   0.167   2.303  11.224  0.8657  0.1712  0.1580
  561TMC3    C2 8372   0.141   2.212  11.321  0.3875  0.2180 -0.0458
  561TMC3    C3 8373   0.004   2.207  11.358  0.2423  1.0293 -0.0888
  561TMC3    C4 8374   0.078   2.373  11.149 -0.4506  0.6561  0.4957
  561TMC3    C5 8375   4.686   2.365  11.197  0.0750  0.0810 -0.1105
  561TMC3    C6 8376   4.648   2.273  11.292  0.5656 -0.4774 -0.4771
  561TMC3     C 8377   0.304   2.323  11.192  1.0386 -0.4997 -0.1785
  561TMC3     O 8378   0.368   2.223  11.161 -0.3885  0.4865  0.2224
  561TMC3     H 8379   0.220   2.176  11.386 -1.3926 -1.5782  1.1034
  561TMC3    H1 8380   0.108   2.445  11.074 -1.1870  0.8493  0.3859
  561TMC3    H2 8381   4.544   2.243  11.295  0.4757  0.0385  1.3610
  561TMC3    C7 8382   4.599   2.466  11.136 -0.2164 -0.2983 -0.6034
  561TMC3    C8 8383   4.704   2.131  11.473  0.2561  0.5583  0.1268
  561TMC3    O1 8384   4.530   2.538  11.208 -0.5719  0.7921 -0.1429
  561TMC3    O2 8385   0.023   2.022  11.493 -0.4061 -0.4654 -0.0702
  562TMC3    C1 8386   1.616   3.952  16.512  0.0032  0.2470 -0.5302
  562TMC3    C2 8387   1.561   4.077  16.509 -0.0123 -0.8289 -0.5382
  562TMC3    C3 8388   1.458   4.107  16.430  0.1866 -0.7278 -0.3231
  562TMC3    C4 8389   1.570   3.860  16.426  0.6138 -0.3596 -0.0236
  562TMC3    C5 8390   1.460   3.889  16.352  0.4042  0.1987  0.2468
  562TMC3    C6 8391   1.405   4.011  16.349  0.6157  0.0258  0.2241
  562TMC3     C 8392   1.754   3.939  16.556  0.6519 -0.0909  0.5762
  562TMC3     O 8393   1.820   4.040  16.570 -0.1169 -0.6937 -0.2425
  562TMC3     H 8394   1.605   4.146  16.581 -4.0423 -0.0338  1.2054
  562TMC3    H1 8395   1.617   3.763  16.414  2.4876  0.0303  4.3228
  562TMC3    H2 8396   1.320   4.027  16.284 -1.8861 -1.1476  3.1705
  562TMC3    C7 8397   1.415   3.797  16.250  0.0315  0.4651 -0.6396
  562TMC3    C8 8398   1.418   4.244  16.421  0.0794  0.5290  0.1402
  562TMC3    O1 8399   1.355   3.839  16.151 -0.4534  0.4739 -0.3289
  562TMC3    O2 8400   1.424   4.310  16.525 -0.2253  0.2298  0.1725
  563MPD2     C 8401   4.107   0.609  15.896 -0.4854  0.3859  0.2753
  563MPD2    C1 8402   4.092   0.523  16.006  0.4148  0.8102  0.5799
  563MPD2    C2 8403   4.167   0.406  16.011 -0.3293  0.2671 -0.2614
  563MPD2    C3 8404   4.252   0.361  15.912 -0.0370 -0.8860  0.0101
  563MPD2    C4 8405   4.265   0.449  15.803  0.3103  0.2461 -0.3647
  563MPD2    C5 8406   4.198   0.567  15.794 -0.4114  0.3232 -0.3384
  563MPD2     H 8407   4.161   0.352  16.105  0.6412  1.9786  0.7878
  563MPD2    H1 8408   4.342   0.436  15.728  0.1588 -3.0298  0.0809
  563MPD2    H2 8409   4.067   0.710  15.899  1.2579  1.0625  0.4508
  563MPD2    H3 8410   4.224   0.639  15.716  0.4273  1.3879  0.9170
  563MPD2     N 8411   4.325   0.238  15.933  0.3109  0.5781  0.0301
  563MPD2    H5 8412   4.330   0.196  16.025 -0.6487 -0.9597 -0.6228
  563MPD2    N1 8413   4.005   0.546  16.112  0.1637 -0.3507 -0.1165
  563MPD2    H7 8414   4.017   0.485  16.192 -3.0147 -1.4726 -0.4935
  564TMC3    C1 8415   3.821   0.625  16.227 -0.0610  0.6362  0.5511
  564TMC3    C2 8416   3.693   0.582  16.203 -0.0339 -0.1891 -0.5296
  564TMC3    C3 8417   3.618   0.546  16.313  0.5167 -0.9565 -0.8498
  564TMC3    C4 8418   3.864   0.653  16.353  0.2188 -0.5051 -0.5802
  564TMC3    C5 8419   3.793   0.605  16.456 -0.1098  0.4298  0.1095
  564TMC3    C6 8420   3.670   0.556  16.443 -0.2967 -0.4029  0.2673
  564TMC3     C 8421   3.908   0.638  16.115 -0.5057 -0.2649 -0.4732
  564TMC3     O 8422   3.855   0.690  16.018  0.1100 -0.3441  0.0599
  564TMC3     H 8423   3.661   0.554  16.103 -1.9932  0.4625 -0.0880
  564TMC3    H1 8424   3.969   0.675  16.365  0.5786 -2.2267 -0.6076
  564TMC3    H2 8425   3.614   0.524  16.530 -0.9213  3.1344  1.1739
  564TMC3    C7 8426   3.871   0.511  16.528  0.5779  0.4035  0.4142
  564TMC3    C8 8427   3.528   0.434  16.300  0.5972  0.2309 -0.6755
  564TMC3    O1 8428   3.981   0.553  16.561 -0.5201  0.3370 -0.2173
  564TMC3    O2 8429   3.537   0.353  16.390 -0.5058  0.1401  0.2128
  565TMC3    C1 8430   3.721   1.336  10.340  0.6847 -0.5590  0.1567
  565TMC3    C2 8431   3.717   1.205  10.377  0.0612  0.2703 -0.2798
  565TMC3    C3 8432   3.601   1.139  10.349 -0.0442 -0.4666 -0.6523
  565TMC3    C4 8433   3.622   1.403  10.270  0.0619 -0.3355  0.4171
  565TMC3    C5 8434   3.506   1.329  10.246  0.0354 -0.4695  0.0307
  565TMC3    C6 8435   3.502   1.194  10.272  0.2407  0.5964  0.0435
  565TMC3     C 8436   3.841   1.408  10.379 -0.4885  0.0807 -0.8481
  565TMC3     O 8437   3.947   1.345  10.395  0.1643  0.2668  0.3948
  565TMC3     H 8438   3.801   1.154  10.423  0.9688  1.2550 -0.8482
  565TMC3    H1 8439   3.630   1.506  10.238  2.7376 -0.6579  0.0934
  565TMC3    H2 8440   3.403   1.149  10.272  1.6680 -2.5319  0.2929
  565TMC3    C7 8441   3.405   1.404  10.171 -0.4181 -0.1724  0.5447
  565TMC3    C8 8442   3.601   0.991  10.368  0.0215 -0.2029  0.5108
  565TMC3    O1 8443   3.414   1.526  10.158  0.3250  0.2143 -0.1452
  565TMC3    O2 8444   3.689   0.946  10.443 -0.3151  0.3073 -0.0359
  566MPD2     C 8445   0.859   3.289  14.131 -0.0697 -0.0377 -0.0154
  566MPD2    C1 8446   0.896   3.332  14.002 -0.0020  0.1846  0.2473
  566MPD2    C2 8447   0.800   3.392  13.922 -0.2423  0.0916  0.2030
  566MPD2    C3 8448   0.667   3.404  13.951  0.2631  0.5802  0.3464
  566MPD2    C4 8449   0.631   3.367  14.079 -0.4393  0.5989  0.2602
  566MPD2    C5 8450   0.727   3.319  14.173 -0.1122  0.2215  0.3176
  566MPD2     H 8451   0.829   3.431  13.825 -2.4443 -0.3879 -0.6378
  566MPD2    H1 8452   0.531   3.381  14.119 -0.5002  0.9622 -0.0221
  566MPD2    H2 8453   0.936   3.241  14.190 -0.9824  0.4343  1.5556
  566MPD2    H3 8454   0.697   3.290  14.273  0.2136 -1.0992  0.0310
  566MPD2     N 8455   0.566   3.465  13.870  0.4302 -0.5779  0.0521
  566MPD2    H5 8456   0.477   3.490  13.912  1.6354  1.0414  1.6536
  566MPD2    N1 8457   1.032   3.315  13.968 -0.3099 -0.9176 -0.1366
  566MPD2    H7 8458   1.093   3.278  14.040  0.4695 -0.8513 -0.7687
  567TMC3    C1 8459   1.230   3.345  13.847 -0.0444 -0.1462  0.4716
  567TMC3    C2 8460   1.299   3.302  13.738  0.1052  0.5144  0.5059
  567TMC3    C3 8461   1.434   3.307  13.736 -0.0373  0.7589 -0.6594
  567TMC3    C4 8462   1.293   3.376  13.965  0.1888 -0.0016 -0.4310
  567TMC3    C5 8463   1.424   3.367  13.966  0.5942 -0.1424  0.2251
  567TMC3    C6 8464   1.498   3.341  13.849  1.0021 -0.1907  0.6550
  567TMC3     C 8465   1.088   3.339  13.846  0.1275  0.1792 -0.3421
  567TMC3     O 8466   1.029   3.345  13.737 -0.1612  0.1023  0.2139
  567TMC3     H 8467   1.245   3.269  13.650  1.4460  1.5235 -0.6872
  567TMC3    H1 8468   1.241   3.430  14.044  0.7077  0.0692 -0.1432
  567TMC3    H2 8469   1.605   3.343  13.862  0.9553 -0.6872  1.1336
  567TMC3    C7 8470   1.490   3.422  14.084  0.3682 -0.3727  0.6802
  567TMC3    C8 8471   1.499   3.268  13.612 -0.2057  0.0597  0.0887
  567TMC3    O1 8472   1.609   3.456  14.078  0.3919 -0.3024 -0.1586
  567TMC3    O2 8473   1.420   3.222  13.530 -0.3033 -0.1324 -0.3073
  568MPD2     C 8474   3.302   3.649  16.167  0.2925  0.1941 -0.6143
  568MPD2    C1 8475   3.406   3.699  16.251 -0.1510  0.7190  0.4468
  568MPD2    C2 8476   3.397   3.833  16.294 -0.2898 -0.1665  0.6746
  568MPD2    C3 8477   3.296   3.914  16.245  0.1901 -0.0382 -0.0630
  568MPD2    C4 8478   3.195   3.863  16.164 -0.1071  0.5842 -0.3657
  568MPD2    C5 8479   3.205   3.728  16.120 -0.3409 -0.1124  0.0653
  568MPD2     H 8480   3.468   3.881  16.360 -0.0396  2.7460 -1.7310
  568MPD2    H1 8481   3.121   3.927  16.118 -0.3465  0.7656  0.2683
  568MPD2    H2 8482   3.298   3.547  16.130 -3.3616  0.7658 -1.7173
  568MPD2    H3 8483   3.128   3.693  16.052  2.6082 -0.4867 -3.0664
  568MPD2     N 8484   3.290   4.050  16.290  0.0922 -0.0424 -0.2426
  568MPD2    H5 8485   3.365   4.089  16.345  1.2528  1.0801 -2.6205
  568MPD2    N1 8486   3.515   3.611  16.282  0.9823  0.0192 -0.3647
  568MPD2    H7 8487   3.507   3.516  16.248  2.3133  0.2906 -1.4607
  569TMC3    C1 8488   3.214   4.266  16.326  0.8053  0.1664 -0.0143
  569TMC3    C2 8489   3.290   4.269  16.439  0.1735  0.6418 -0.0221
  569TMC3    C3 8490   3.341   4.388  16.485  0.1856  0.3693  0.5110
  569TMC3    C4 8491   3.181   4.387  16.263  0.7616 -0.2757  0.3169
  569TMC3    C5 8492   3.241   4.504  16.304 -0.2770 -0.4880  0.1600
  569TMC3    C6 8493   3.321   4.506  16.415 -0.2675 -0.6691  0.2346
  569TMC3     C 8494   3.187   4.141  16.265 -0.5826  0.5583  0.1423
  569TMC3     O 8495   3.090   4.134  16.192  0.6282  0.1239 -0.1320
  569TMC3     H 8496   3.298   4.177  16.495  1.2899 -0.4502 -1.9931
  569TMC3    H1 8497   3.124   4.385  16.171  1.5030  0.8061 -0.1653
  569TMC3    H2 8498   3.355   4.603  16.450 -1.8196  0.1702 -0.6225
  569TMC3    C7 8499   3.208   4.624  16.219 -0.4647 -0.5970 -0.4395
  569TMC3    C8 8500   3.399   4.377  16.611 -0.3089 -0.7423 -0.0267
  569TMC3    O1 8501   3.120   4.614  16.133 -0.0706 -0.0836 -0.0823
  569TMC3    O2 8502   3.404   4.263  16.659 -0.3650  0.3844  0.0486
  570TMC3    C1 8503   2.777   2.639  16.118 -0.0570  0.2166 -0.8917
  570TMC3    C2 8504   2.861   2.668  16.013  0.1032 -0.1145 -1.1073
  570TMC3    C3 8505   2.849   2.792  15.951 -0.4831  0.4914 -0.4806
  570TMC3    C4 8506   2.684   2.734  16.157  0.5277 -0.5290  0.0437
  570TMC3    C5 8507   2.688   2.862  16.104 -0.5888 -0.6804  0.0832
  570TMC3    C6 8508   2.772   2.892  15.996 -0.4259 -0.0808 -0.9557
  570TMC3     C 8509   2.754   2.505  16.160  0.4594  0.7008  0.8559
  570TMC3     O 8510   2.766   2.413  16.086 -0.0081 -0.5563 -0.2980
  570TMC3     H 8511   2.920   2.584  15.977  1.4616  1.6556 -2.9415
  570TMC3    H1 8512   2.619   2.715  16.242  1.8211 -2.0975  0.6741
  570TMC3    H2 8513   2.790   2.988  15.948 -0.9729 -0.2778 -1.5522
  570TMC3    C7 8514   2.704   2.955  16.209  0.5533 -0.2910  0.0935
  570TMC3    C8 8515   2.938   2.828  15.843  0.3481 -0.7125  0.5674
  570TMC3    O1 8516   2.730   2.909  16.322  0.4492  0.1358 -0.1960
  570TMC3    O2 8517   2.965   2.943  15.832  0.3083  0.1269 -0.1838
  571MPD2     C 8518   0.419   4.212   0.183 -0.8368  0.1536  0.3060
  571MPD2    C1 8519   0.398   4.230   0.317  0.1711 -0.4258 -0.5463
  571MPD2    C2 8520   0.477   4.315   0.398  0.3759 -0.8698 -0.1564
  571MPD2    C3 8521   0.574   4.388   0.330 -0.6885 -0.1189  0.6657
  571MPD2    C4 8522   0.584   4.380   0.190  0.4296  0.1161  0.4043
  571MPD2    C5 8523   0.509   4.290   0.119  0.0386  0.0269  0.1331
  571MPD2     H 8524   0.474   4.306   0.506  1.0851 -1.6902 -0.2074
  571MPD2    H1 8525   0.658   4.438   0.137  1.1552  1.0087  2.3832
  571MPD2    H2 8526   0.355   4.151   0.120  0.9470 -0.0973 -1.2605
  571MPD2    H3 8527   0.520   4.276   0.012 -0.5013  2.6758 -0.2707
  571MPD2     N 8528   0.660   4.479   0.401  0.0880 -0.3967  0.1631
  571MPD2    H5 8529   0.733   4.527   0.349  1.1020 -0.1488  1.8400
  571MPD2    N1 8530   0.296   4.151   0.363  0.4094 -0.0119 -0.7435
  571MPD2    H7 8531   0.262   4.079   0.301 -1.1701 -0.5717  0.7957
  572TMC3    C1 8532   0.736   4.615   0.573  0.0375  0.6610 -0.1393
  572TMC3    C2 8533   0.736   4.647   0.706 -0.3991  0.1047 -0.1081
  572TMC3    C3 8534   0.800   0.020   0.758  0.9329  0.3665  0.4080
  572TMC3    C4 8535   0.803   4.691   0.487 -0.4634  0.9882 -0.3029
  572TMC3    C5 8536   0.863   0.072   0.536 -0.2331  0.1171  0.4963
  572TMC3    C6 8537   0.865   0.104   0.671 -0.4923 -0.5092 -0.1171
  572TMC3     C 8538   0.649   4.514   0.537  0.8778  0.4338 -0.1477
  572TMC3     O 8539   0.576   4.466   0.625 -0.2087 -0.1805 -0.0198
  572TMC3     H 8540   0.707   4.576   0.783  3.6379 -2.2787 -0.7772
  572TMC3    H1 8541   0.793   4.674   0.380 -0.7498 -0.6612 -0.0152
  572TMC3    H2 8542   0.917   0.193   0.703 -2.2196  0.5653 -0.3077
  572TMC3    C7 8543   0.866   0.183   0.443 -0.0911 -0.3915 -0.5578
  572TMC3    C8 8544   0.787   0.068   0.896  0.3021 -0.1946  0.1066
  572TMC3    O1 8545   0.782   0.193   0.358 -0.1242 -0.2012 -0.5794
  572TMC3    O2 8546   0.853   0.167   0.930 -0.2686 -0.0879 -0.0752
  573MPD2     C 8547   1.858   0.620   0.609  0.0969  0.2050 -0.4273
  573MPD2    C1 8548   1.769   0.549   0.669 -0.7425 -1.3741  0.5849
  573MPD2    C2 8549   1.680   0.486   0.589  0.3983  0.5840  0.1881
  573MPD2    C3 8550   1.680   0.483   0.446  0.0492  0.9773 -0.3533
  573MPD2    C4 8551   1.762   0.572   0.398  0.7906  0.4027 -0.6100
  573MPD2    C5 8552   1.850   0.640   0.477  0.4291 -0.5425  0.1464
  573MPD2     H 8553   1.605   0.424   0.636  1.1772 -0.1888  0.4280
  573MPD2    H1 8554   1.763   0.593   0.292 -2.2858  0.3988 -0.6356
  573MPD2    H2 8555   1.933   0.673   0.666  1.2130  0.7762 -2.4368
  573MPD2    H3 8556   1.915   0.714   0.432 -0.3726 -1.5788 -2.6781
  573MPD2     N 8557   1.584   0.421   0.357 -0.0925  1.0121 -0.8863
  573MPD2    H5 8558   1.584   0.456   0.262 -0.6022  3.2965 -0.0257
  573MPD2    N1 8559   1.776   0.544   0.811  0.6228 -0.1479 -0.1081
  573MPD2    H7 8560   1.842   0.605   0.858  0.2169  0.3824 -0.2223
  574TMC3    C1 8561   1.426   0.250   0.301  1.1152 -0.1786  0.0416
  574TMC3    C2 8562   1.389   0.313   0.183  0.4756  0.4481 -0.0193
  574TMC3    C3 8563   1.327   0.238   0.087  0.2405 -0.3679  0.3019
  574TMC3    C4 8564   1.415   0.112   0.314  0.1920 -0.6454  0.1912
  574TMC3    C5 8565   1.371   0.046   0.204  0.0183 -0.2547  0.1561
  574TMC3    C6 8566   1.332   0.103   0.090 -0.2343  0.1514  0.3613
  574TMC3     C 8567   1.502   0.316   0.403  0.4447  0.0171 -0.0375
  574TMC3     O 8568   1.482   0.276   0.519  0.2293 -0.3000  0.1449
  574TMC3     H 8569   1.369   0.419   0.197 -2.6424  0.0891 -1.7500
  574TMC3    H1 8570   1.424   0.063   0.410 -0.7253 -3.3927 -1.0991
  574TMC3    H2 8571   1.282   0.047   0.012  1.0520  1.3496 -1.3255
  574TMC3    C7 8572   1.330   4.638   0.229 -0.3337  0.4767  0.6069
  574TMC3    C8 8573   1.232   0.295  17.732 -0.0215 -0.6268  0.6416
  574TMC3    O1 8574   1.345   4.605   0.343  0.8638  0.2795 -0.1977
  574TMC3    O2 8575   1.161   0.210  17.672  0.4806 -0.2666  0.4763
  575TMC3    C1 8576   3.619   0.307  10.929 -0.8118  0.5039 -0.1182
  575TMC3    C2 8577   3.581   0.177  10.900 -0.1071 -0.0602 -0.1594
  575TMC3    C3 8578   3.570   0.157  10.758  0.5765 -0.4004 -0.2661
  575TMC3    C4 8579   3.626   0.409  10.841 -1.2022 -0.6941 -0.0457
  575TMC3    C5 8580   3.592   0.389  10.713  0.2264  0.1352 -0.8169
  575TMC3    C6 8581   3.560   0.259  10.674 -0.7845  0.1197  0.2469
  575TMC3     C 8582   3.636   0.339  11.066 -0.5155 -0.0789  0.0110
  575TMC3     O 8583   3.611   0.243  11.143 -0.3014 -0.2607  0.8813
  575TMC3     H 8584   3.583   0.097  10.972  1.3763 -2.5357 -2.9700
  575TMC3    H1 8585   3.664   0.505  10.873  0.3365 -1.1563 -0.5033
  575TMC3    H2 8586   3.538   0.248  10.569 -1.8900 -0.4445  0.5379
  575TMC3    C7 8587   3.582   0.504  10.622  0.5967 -0.6574 -0.0735
  575TMC3    C8 8588   3.593   0.019  10.708 -0.3360 -1.1678 -0.3727
  575TMC3    O1 8589   3.634   0.611  10.656  0.3109 -0.2833 -0.3599
  575TMC3    O2 8590   3.595   4.669  10.793  0.2585 -0.7025  0.0233
  576MPD2     C 8591   3.738   2.597  12.472 -0.5542  0.8284  0.0369
  576MPD2    C1 8592   3.814   2.692  12.421  0.8360 -0.0370 -0.3302
  576MPD2    C2 8593   3.805   2.817  12.483  0.2088 -0.3399  0.3498
  576MPD2    C3 8594   3.725   2.845  12.595  0.0964 -0.1833  0.7358
  576MPD2    C4 8595   3.649   2.736  12.643 -0.6646  0.2338  0.2471
  576MPD2    C5 8596   3.652   2.618  12.577  0.2047  0.2695 -0.2002
  576MPD2     H 8597   3.880   2.886  12.446 -1.6788  1.0952 -0.7740
  576MPD2    H1 8598   3.571   2.739  12.719  1.9820 -1.0252  3.0080
  576MPD2    H2 8599   3.721   2.504  12.419  0.3807  0.2228  0.7991
  576MPD2    H3 8600   3.575   2.543  12.587 -3.0208  3.4938 -0.4287
  576MPD2     N 8601   3.738   2.967  12.659  0.0353  0.1370  0.0209
  576MPD2    H5 8602   3.809   3.033  12.628  2.5892 -1.0839  3.2391
  576MPD2    N1 8603   3.906   2.659  12.313  0.2211 -0.2572  0.4123
  576MPD2    H7 8604   3.950   2.738  12.269 -1.4341 -0.3293 -1.3688
  577TMC3    C1 8605   4.035   2.538  12.162  0.5905  0.1532 -0.0561
  577TMC3    C2 8606   4.118   2.431  12.151 -0.1605  0.2022  0.5043
  577TMC3    C3 8607   4.163   2.396  12.024  0.1660 -0.2161 -0.2869
  577TMC3    C4 8608   4.009   2.630  12.064  0.3831  0.5873  0.2413
  577TMC3    C5 8609   4.063   2.594  11.946 -0.5017  0.2260  0.7187
  577TMC3    C6 8610   4.131   2.479  11.923 -0.1036  0.5361 -0.0076
  577TMC3     C 8611   3.944   2.532  12.274 -0.1015  0.4980 -0.1043
  577TMC3     O 8612   3.904   2.424  12.317  0.0271 -0.1137  0.3358
  577TMC3     H 8613   4.135   2.375  12.243 -0.2975 -0.0284  0.3885
  577TMC3    H1 8614   3.966   2.727  12.084 -1.3013 -0.2626  0.6909
  577TMC3    H2 8615   4.141   2.448  11.820 -1.6372  1.0088 -0.3014
  577TMC3    C7 8616   4.043   2.676  11.834 -0.2304 -0.1197  0.6426
  577TMC3    C8 8617   4.252   2.289  12.003 -0.0670  0.7657 -0.5017
  577TMC3    O1 8618   4.135   2.670  11.755  0.5293  0.3294 -0.4658
  577TMC3    O2 8619   4.231   2.196  12.077 -0.1632 -0.1830  0.2247
  578MPD2     C 8620   1.799   3.445   1.441  0.0910 -0.0249 -0.1460
  578MPD2    C1 8621   1.797   3.388   1.316 -0.0776 -0.1275  0.5480
  578MPD2    C2 8622   1.915   3.383   1.242 -0.0898 -0.8261 -0.7573
  578MPD2    C3 8623   2.026   3.442   1.289  0.0108 -0.6300  0.4136
  578MPD2    C4 8624   2.029   3.496   1.419 -0.6456 -1.0149  0.5079
  578MPD2    C5 8625   1.919   3.495   1.498 -0.3703 -0.7708 -0.3893
  578MPD2     H 8626   1.909   3.354   1.137 -1.7004 -0.0505 -0.8777
  578MPD2    H1 8627   2.122   3.519   1.469 -0.7950  0.2413  0.2060
  578MPD2    H2 8628   1.703   3.438   1.491  0.3673 -0.3582  0.3419
  578MPD2    H3 8629   1.918   3.532   1.600 -2.5668  1.5635 -1.2283
  578MPD2     N 8630   2.146   3.420   1.219 -0.1249 -0.2730  0.4261
  578MPD2    H5 8631   2.144   3.371   1.130 -1.6786  1.1215 -0.2986
  578MPD2    N1 8632   1.670   3.346   1.262 -0.8589  0.1104  0.6353
  578MPD2    H7 8633   1.593   3.364   1.325 -1.9517  1.8462 -1.1657
  579TMC3    C1 8634   2.368   3.409   1.179  0.0742 -0.3018 -0.5551
  579TMC3    C2 8635   2.471   3.488   1.143 -0.4032  0.1085  0.4330
  579TMC3    C3 8636   2.583   3.432   1.087  0.0099  0.3664  0.5172
  579TMC3    C4 8637   2.373   3.274   1.161  0.4392 -0.0941  0.1832
  579TMC3    C5 8638   2.488   3.222   1.106 -0.0105  0.4871  0.1982
  579TMC3    C6 8639   2.598   3.301   1.085  0.2150  0.3074 -0.5888
  579TMC3     C 8640   2.269   3.463   1.253  0.2580 -0.3685 -0.2325
  579TMC3     O 8641   2.299   3.565   1.316  0.1790  0.2741 -0.4326
  579TMC3     H 8642   2.463   3.596   1.136  2.2265  0.2106 -1.0748
  579TMC3    H1 8643   2.290   3.214   1.198  0.0834  0.1386 -0.2346
  579TMC3    H2 8644   2.690   3.260   1.044  0.3844  1.5550 -1.4560
  579TMC3    C7 8645   2.492   3.078   1.074  0.2855  0.2699  0.4003
  579TMC3    C8 8646   2.698   3.517   1.086  0.0753 -0.5415  0.4375
  579TMC3    O1 8647   2.599   3.035   1.040 -0.0487 -0.3299 -0.7726
  579TMC3    O2 8648   2.699   3.613   1.164 -0.7465  0.1959 -0.6897
  580TMC3    C1 8649   1.415   1.626  11.772 -0.3132  0.7434 -0.1285
  580TMC3    C2 8650   1.485   1.601  11.660  0.3384 -0.6483 -0.1052
  580TMC3    C3 8651   1.598   1.524  11.675  0.1757 -0.1944  0.3829
  580TMC3    C4 8652   1.441   1.559  11.893  0.4472  0.4278  0.1675
  580TMC3    C5 8653   1.553   1.489  11.907 -0.4357 -0.4291  0.0635
  580TMC3    C6 8654   1.635   1.468  11.796 -0.0427  0.0485 -0.2375
  580TMC3     C 8655   1.369   1.765  11.794  0.2111  0.2003 -0.3717
  580TMC3     O 8656   1.423   1.827  11.882  0.1203  0.9906  0.8211
  580TMC3     H 8657   1.467   1.670  11.578 -2.8506  0.0907  1.2335
  580TMC3    H1 8658   1.386   1.583  11.984  0.0486  2.6919 -0.6757
  580TMC3    H2 8659   1.730   1.420  11.817 -1.2689 -1.6556  1.4270
  580TMC3    C7 8660   1.558   1.403  12.028  1.6050 -0.2806 -0.1856
  580TMC3    C8 8661   1.716   1.562  11.587 -1.0346  0.1224 -0.3755
  580TMC3    O1 8662   1.507   1.449  12.131  0.2939 -0.1849 -0.6679
  580TMC3    O2 8663   1.705   1.539  11.469  0.5658 -0.7299 -0.5752
  581MPD2     C 8664   4.414   2.045  14.737  0.0088 -0.7795 -1.2349
  581MPD2    C1 8665   4.287   2.065  14.793  0.3353 -0.1606 -0.0428
  581MPD2    C2 8666   4.181   2.019  14.717 -0.4234 -0.3887  0.0402
  581MPD2    C3 8667   4.199   1.950  14.604 -0.2986  0.3396 -1.2632
  581MPD2    C4 8668   4.328   1.922  14.557  0.4141 -0.8530  0.3760
  581MPD2    C5 8669   4.435   1.968  14.623 -0.4493  0.2208  0.2247
  581MPD2     H 8670   4.080   2.027  14.754 -0.4742  0.9748 -0.3993
  581MPD2    H1 8671   4.343   1.871  14.463 -2.3558 -1.4017  0.2378
  581MPD2    H2 8672   4.502   2.075  14.793 -0.2700 -1.1838 -0.5742
  581MPD2    H3 8673   4.537   1.953  14.591 -1.0068  1.2223 -1.9707
  581MPD2     N 8674   4.085   1.927  14.528 -0.5363 -1.0927 -0.3988
  581MPD2    H5 8675   4.002   1.972  14.566  0.6745  1.2210 -0.4963
  581MPD2    N1 8676   4.278   2.142  14.907 -0.5640 -0.1342 -0.3626
  581MPD2    H7 8677   4.362   2.172  14.955 -1.7275 -0.7017  1.9927
  582TMC3    C1 8678   4.187   2.282  15.084  0.2656  0.7231 -0.2785
  582TMC3    C2 8679   4.306   2.275  15.154  0.3998  0.3069 -0.0027
  582TMC3    C3 8680   4.323   2.345  15.261  0.1206 -0.1227  1.0218
  582TMC3    C4 8681   4.086   2.352  15.133 -0.5292 -0.1927 -0.1293
  582TMC3    C5 8682   4.109   2.429  15.244  0.6184 -0.2093  0.1360
  582TMC3    C6 8683   4.230   2.431  15.305  0.3557  0.1184  0.0117
  582TMC3     C 8684   4.163   2.201  14.958 -0.2918  0.3267  0.1341
  582TMC3     O 8685   4.051   2.210  14.908 -0.0041 -0.2032  0.4961
  582TMC3     H 8686   4.391   2.222  15.113  1.4767  1.0510  1.2888
  582TMC3    H1 8687   3.990   2.347  15.082 -0.4308  0.0627 -0.3432
  582TMC3    H2 8688   4.238   2.474  15.404  1.4877  0.8589 -0.3960
  582TMC3    C7 8689   4.014   2.521  15.296 -0.1447  0.2320  0.5624
  582TMC3    C8 8690   4.434   2.346  15.352 -0.1654  0.2693  0.1499
  582TMC3    O1 8691   3.894   2.504  15.269  0.1624  0.8769 -0.2816
  582TMC3    O2 8692   4.439   2.439  15.431  0.1116 -0.2397 -0.6565
  583MPD2     C 8693   4.734   3.485  16.668  0.2882  0.1657  0.2477
  583MPD2    C1 8694   0.007   3.620  16.638 -0.7854  0.3869 -0.5530
  583MPD2    C2 8695   4.695   3.715  16.732  0.4899  0.3609 -0.0534
  583MPD2    C3 8696   4.658   3.669  16.861 -0.2642 -0.2609  0.1400
  583MPD2    C4 8697   4.645   3.533  16.880 -0.5550  0.3967 -0.0651
  583MPD2    C5 8698   4.688   3.443  16.789 -0.7919  0.1397 -0.0494
  583MPD2     H 8699   4.706   3.820  16.711  0.5400 -0.0776 -2.3145
  583MPD2    H1 8700   4.598   3.488  16.966 -0.7070 -0.0465 -0.3828
  583MPD2    H2 8701   0.029   3.407  16.600  2.9784  1.2456  0.1883
  583MPD2    H3 8702   4.664   3.338  16.802 -1.0405  0.1234 -0.6228
  583MPD2     N 8703   4.616   3.768  16.953 -0.5275  0.3997 -0.3937
  583MPD2    H5 8704   4.594   3.862  16.922 -1.8962 -0.2391 -1.3622
  583MPD2    N1 8705   0.062   3.671  16.514  0.6859 -0.1828  0.0276
  583MPD2    H7 8706   0.060   3.772  16.502 -2.5801 -0.6321 -3.3302
  584TMC3    C1 8707   4.551   3.859  17.155 -0.0711  0.4470 -0.1736
  584TMC3    C2 8708   4.629   3.971  17.138 -0.1271  0.3827 -0.0230
  584TMC3    C3 8709   4.630   4.063  17.240  0.9757  0.5465  0.2495
  584TMC3    C4 8710   4.479   3.840  17.276  0.4736  0.4336 -0.7715
  584TMC3    C5 8711   4.492   3.935  17.373  0.4598  0.1495  0.6456
  584TMC3    C6 8712   4.568   4.049  17.364 -0.3329 -0.4396  0.1153
  584TMC3     C 8713   4.572   3.738  17.078 -0.2489  0.0635 -0.1193
  584TMC3     O 8714   4.565   3.628  17.129 -0.1874  0.1165  0.1997
  584TMC3     H 8715   4.689   3.984  17.049  1.0348 -0.2209  0.6645
  584TMC3    H1 8716   4.432   3.747  17.306  0.5742  0.2718 -1.1136
  584TMC3    H2 8717   4.589   4.121  17.442  0.6368  0.8733 -1.3550
  584TMC3    C7 8718   4.429   3.907  17.498  0.2329 -0.0383  0.2747
  584TMC3    C8 8719   4.714   4.184  17.216 -0.0726 -0.1656 -0.9107
  584TMC3    O1 8720   4.385   3.788  17.513 -0.3163 -0.6433  0.1067
  584TMC3    O2 8721   0.039   4.176  17.108 -0.6634 -0.0834  0.3211
  585MPD2     C 8722   3.584   2.987  17.701 -0.3375  0.4129  0.2406
  585MPD2    C1 8723   3.662   2.995  17.583 -0.8491 -0.0409  0.4392
  585MPD2    C2 8724   3.734   2.883  17.543 -0.5075 -0.0328 -0.3239
  585MPD2    C3 8725   3.725   2.760  17.610  0.2857 -0.8202  0.3126
  585MPD2    C4 8726   3.636   2.752  17.712  0.2541  0.4697  0.4695
  585MPD2    C5 8727   3.566   2.861   0.017  0.5489 -0.0285 -0.3606
  585MPD2     H 8728   3.794   2.892  17.453 -0.9009  0.5829 -0.5293
  585MPD2    H1 8729   3.617   2.657   0.024 -1.5699  0.3097 -0.5165
  585MPD2    H2 8730   3.530   3.075  17.736  0.0194 -0.1067  2.1254
  585MPD2    H3 8731   3.506   2.857   0.108  1.9271 -2.8781  0.4060
  585MPD2     N 8732   3.799   2.643  17.573  0.1933  0.2849  0.3815
  585MPD2    H5 8733   3.783   2.557  17.625 -1.3351 -1.3319 -2.7216
  585MPD2    N1 8734   3.657   3.118  17.510 -0.3049  0.2378 -0.8221
  585MPD2    H7 8735   3.590   3.189  17.536  1.4387  1.5109  0.2635
  586TMC3    C1 8736   3.914   2.511  17.421 -0.5672  0.3959  0.0200
  586TMC3    C2 8737   3.984   2.515  17.296 -0.3827 -0.3198 -0.1026
  586TMC3    C3 8738   3.985   2.404  17.216  0.0395  0.4388  0.1484
  586TMC3    C4 8739   3.837   2.404  17.456 -0.4927  0.1447  0.1612
  586TMC3    C5 8740   3.830   2.307  17.360 -0.1735  0.7911 -0.3750
  586TMC3    C6 8741   3.907   2.295  17.254 -0.4683 -0.6227  0.2580
  586TMC3     C 8742   3.884   2.641  17.470  0.5013 -0.8855  0.1778
  586TMC3     O 8743   3.935   2.735  17.410  0.1334  0.6222  0.5294
  586TMC3     H 8744   4.037   2.602  17.259 -0.2627 -0.0039  0.8136
  586TMC3    H1 8745   3.771   2.401  17.542 -0.9739 -1.0181 -0.2393
  586TMC3    H2 8746   3.901   2.207  17.190  1.6282 -1.2167  0.8748
  586TMC3    C7 8747   3.700   2.242  17.358 -0.1439  0.6088  0.3310
  586TMC3    C8 8748   4.084   2.383  17.113  0.6969  0.1097  0.0824
  586TMC3    O1 8749   3.636   2.229  17.463 -0.1269 -0.1920  0.3174
  586TMC3    O2 8750   4.120   2.480  17.045 -0.4900 -1.0346 -0.0052
  587TMC3    C1 8751   1.348   0.829  16.914  0.4688 -0.3178 -0.1066
  587TMC3    C2 8752   1.426   0.903  16.828  0.2078  0.7901 -0.0419
  587TMC3    C3 8753   1.534   0.962  16.889  0.1825  0.0324  0.4208
  587TMC3    C4 8754   1.363   0.823  17.047  0.0585  0.4097  0.6388
  587TMC3    C5 8755   1.465   0.897  17.103 -0.2631  0.2622  0.0509
  587TMC3    C6 8756   1.548   0.976  17.025 -0.9035  0.0287  0.6077
  587TMC3     C 8757   1.217   0.797  16.862 -0.5126  0.0655  1.0772
  587TMC3     O 8758   1.151   0.720  16.931  0.0379  0.1811  0.0926
  587TMC3     H 8759   1.429   0.894  16.720  2.9049 -0.5009  0.1301
  587TMC3    H1 8760   1.300   0.770  17.117 -0.3639 -0.1841 -0.1899
  587TMC3    H2 8761   1.640   1.021  17.061  0.2104 -0.3346 -1.7626
  587TMC3    C7 8762   1.453   0.910  17.246  0.9647 -0.0728  0.3135
  587TMC3    C8 8763   1.606   1.047  16.802  0.5746  0.0089 -0.4982
  587TMC3    O1 8764   1.401   0.819  17.314 -0.8611  0.3275  0.4011
  587TMC3    O2 8765   1.643   1.012  16.692  0.3947 -0.1913 -0.3503
  588TMC3    C1 8766   3.377   2.893   9.756 -0.6504  1.3005 -0.4380
  588TMC3    C2 8767   3.383   2.756   9.774 -0.5453 -0.3183  0.3559
  588TMC3    C3 8768   3.480   2.705   9.856  0.3955 -0.0662  0.2033
  588TMC3    C4 8769   3.446   2.976   9.839 -0.1332  0.1467  0.4385
  588TMC3    C5 8770   3.527   2.911   9.929  0.3031  0.0404  0.0456
  588TMC3    C6 8771   3.553   2.781   9.935  0.0301  0.3797  0.3539
  588TMC3     C 8772   3.274   2.952   9.670  0.3251 -0.5664 -0.2212
  588TMC3     O 8773   3.161   2.911   9.676  0.0512  0.4325 -0.4068
  588TMC3     H 8774   3.337   2.691   9.700 -0.7901  1.1218 -0.7606
  588TMC3    H1 8775   3.445   3.085   9.835 -2.5361  0.0009 -2.4940
  588TMC3    H2 8776   3.624   2.753  10.012  1.3180  2.6022 -0.0099
  588TMC3    C7 8777   3.628   2.993   9.999 -0.4359 -1.2595  0.5312
  588TMC3    C8 8778   3.478   2.564   9.867 -0.4955  0.0351  0.2101
  588TMC3    O1 8779   3.740   2.939  10.008  0.1807  0.2144 -0.1959
  588TMC3    O2 8780   3.390   2.503   9.811 -0.0571  0.5127  0.1586
  589TMC3    C1 8781   2.949   0.699   1.105 -0.1524  0.2535  0.5146
  589TMC3    C2 8782   3.078   0.665   1.088 -0.6303  0.4568  0.1069
  589TMC3    C3 8783   3.130   0.662   0.959  0.2563  0.6642 -0.2208
  589TMC3    C4 8784   2.861   0.732   1.002  0.0455  0.6310 -0.4265
  589TMC3    C5 8785   2.919   0.738   0.882  0.5785  0.0452  0.5185
  589TMC3    C6 8786   3.047   0.695   0.855  0.3760 -0.2298 -0.6059
  589TMC3     C 8787   2.921   0.732   1.243 -0.2232 -0.0135  0.1934
  589TMC3     O 8788   3.013   0.743   1.319 -0.4286 -0.1563  0.5967
  589TMC3     H 8789   3.138   0.636   1.173 -1.7948 -0.4474  0.6137
  589TMC3    H1 8790   2.769   0.785   1.023  1.0612  1.9199  0.7640
  589TMC3    H2 8791   3.080   0.708   0.752  1.4328 -0.3953 -0.2908
  589TMC3    C7 8792   2.838   0.732   0.764 -0.0777  0.1230 -0.3794
  589TMC3    C8 8793   3.273   0.635   0.942  0.2232  0.7916  0.4665
  589TMC3    O1 8794   2.859   0.634   0.693  0.6938 -0.6328 -0.0570
  589TMC3    O2 8795   3.349   0.673   1.029  0.0645 -0.0542  0.1421
  590MPD2     C 8796   2.461   4.235  16.676 -0.7931 -0.1283  0.6094
  590MPD2    C1 8797   2.368   4.284  16.589 -0.5429 -0.1427 -0.7106
  590MPD2    C2 8798   2.405   4.330  16.468  0.2085 -0.0165 -0.3222
  590MPD2    C3 8799   2.538   4.344  16.435 -0.3827 -0.6879  0.2465
  590MPD2    C4 8800   2.633   4.283  16.520 -0.2093 -0.1815 -0.1280
  590MPD2    C5 8801   2.588   4.231  16.639 -0.4675 -0.3877 -0.2122
  590MPD2     H 8802   2.332   4.364  16.395 -0.2231  1.6295  0.8868
  590MPD2    H1 8803   2.739   4.268  16.507 -0.7293 -3.5486 -0.5852
  590MPD2    H2 8804   2.441   4.190  16.773  1.3338  0.5992  1.3821
  590MPD2    H3 8805   2.670   4.196  16.700 -0.9097 -1.8211 -0.4489
  590MPD2     N 8806   2.575   4.402  16.314 -0.0147 -0.1163  0.4388
  590MPD2    H5 8807   2.498   4.442  16.262  1.7396 -0.5986 -2.4726
  590MPD2    N1 8808   2.232   4.277  16.617 -0.0274  0.0843  0.3474
  590MPD2    H7 8809   2.166   4.300  16.544  0.2602 -1.2475 -0.3411
  591TMC3    C1 8810   2.717   4.501  16.153  0.9431  0.2896 -0.5873
  591TMC3    C2 8811   2.797   4.459  16.051 -0.0153  0.1367 -0.1136
  591TMC3    C3 8812   2.847   4.557  15.963 -0.4255 -0.3601 -0.0693
  591TMC3    C4 8813   2.695   4.630  16.182 -0.0648 -0.1379 -0.2233
  591TMC3    C5 8814   2.743   4.732  16.094 -0.0640 -0.2485  0.4874
  591TMC3    C6 8815   2.819   4.695  15.982  0.2824 -0.1226  0.8633
  591TMC3     C 8816   2.700   4.407  16.262 -0.8333 -0.0488 -0.6688
  591TMC3     O 8817   2.795   4.333  16.269  0.0575 -0.1749 -0.2783
  591TMC3     H 8818   2.816   4.353  16.044 -0.7976 -0.2693  4.1916
  591TMC3    H1 8819   2.624   4.654  16.261 -0.6254 -0.6980 -0.5510
  591TMC3    H2 8820   2.828   0.026  15.896 -0.1799  0.0033  0.9089
  591TMC3    C7 8821   2.672   0.128  16.093 -0.1383  0.4881 -0.1593
  591TMC3    C8 8822   2.937   4.518  15.860  0.1858  0.0560 -0.4203
  591TMC3    O1 8823   2.567   0.129  16.154  0.3240 -0.1224  0.4190
  591TMC3    O2 8824   2.971   4.399  15.868 -0.4867 -0.2842  0.2939
  592MPD2     C 8825   2.664   1.338  11.450 -0.2149 -0.4288  0.4815
  592MPD2    C1 8826   2.659   1.362  11.583  0.4061 -0.2234  0.1458
  592MPD2    C2 8827   2.580   1.285  11.656  0.6331  0.6627  0.5235
  592MPD2    C3 8828   2.502   1.188  11.604  0.4441 -0.2526 -0.1661
  592MPD2    C4 8829   2.521   1.148  11.474  0.1939 -0.4067 -0.0697
  592MPD2    C5 8830   2.607   1.223  11.399 -0.9049  0.7601 -0.1407
  592MPD2     H 8831   2.569   1.298  11.763 -2.2646  1.1547  0.1679
  592MPD2    H1 8832   2.471   1.069  11.419  1.5930 -1.7034  0.5510
  592MPD2    H2 8833   2.716   1.408  11.387  0.5112  0.8680  2.5220
  592MPD2    H3 8834   2.627   1.179  11.302  0.1218  2.5592 -0.7392
  592MPD2     N 8835   2.427   1.112  11.698  0.3191 -0.0617 -0.5312
  592MPD2    H5 8836   2.435   1.139  11.795  1.4526  1.1679 -0.9542
  592MPD2    N1 8837   2.733   1.471  11.630  0.3097 -0.1590  0.0874
  592MPD2    H7 8838   2.797   1.518  11.567  0.9749 -2.2131 -0.7355
  593TMC3    C1 8839   2.807   1.641  11.762  0.4490  0.2846  1.0724
  593TMC3    C2 8840   2.859   1.669  11.885  0.4325  0.1412 -0.0118
  593TMC3    C3 8841   2.950   1.774  11.895  0.4124  0.1254  0.1701
  593TMC3    C4 8842   2.839   1.724  11.657 -0.2082 -0.1281  0.6284
  593TMC3    C5 8843   2.936   1.823  11.673  0.2668  1.1592 -0.7797
  593TMC3    C6 8844   2.991   1.849  11.791 -0.2101 -0.5505  0.1620
  593TMC3     C 8845   2.725   1.525  11.751  0.4015  0.0038  0.2426
  593TMC3     O 8846   2.678   1.478  11.856  0.3717 -0.6942 -1.0464
  593TMC3     H 8847   2.831   1.607  11.969  0.1702  1.4448  0.8763
  593TMC3    H1 8848   2.790   1.704  11.562  1.0737 -0.6630  0.0800
  593TMC3    H2 8849   3.058   1.934  11.799 -1.7538  0.6929 -0.0766
  593TMC3    C7 8850   2.999   1.883  11.552 -0.0054  0.7104 -0.2348
  593TMC3    C8 8851   2.975   1.825  12.028 -0.2606  0.2711 -0.1326
  593TMC3    O1 8852   3.074   1.979  11.570  0.3320 -0.1253  0.2273
  593TMC3    O2 8853   2.902   1.786  12.119  0.2760  0.1467 -0.0859
  594MPD2     C 8854   1.647   0.647  14.381 -0.9501 -0.0660 -0.2377
  594MPD2    C1 8855   1.659   0.569  14.496  0.4531 -0.3525 -0.4921
  594MPD2    C2 8856   1.779   0.577  14.562  0.4842 -0.1512  0.3265
  594MPD2    C3 8857   1.866   0.681  14.523  0.1923 -0.0333  0.3077
  594MPD2    C4 8858   1.825   0.785  14.439  0.4116 -0.0261  0.3512
  594MPD2    C5 8859   1.713   0.765  14.368  0.1453  0.6616 -0.3264
  594MPD2     H 8860   1.800   0.516  14.649  0.1269 -0.2787  0.3235
  594MPD2    H1 8861   1.873   0.882  14.431  0.8020 -0.1086  1.6620
  594MPD2    H2 8862   1.565   0.643  14.311 -0.2671 -0.2220 -1.0274
  594MPD2    H3 8863   1.676   0.842  14.302 -0.3599  0.2441 -0.5292
  594MPD2     N 8864   1.986   0.685  14.599  0.6247  0.6396  0.0125
  594MPD2    H5 8865   1.992   0.619  14.676 -0.1146 -0.8042 -1.1468
  594MPD2    N1 8866   1.554   0.482  14.525 -1.2768  0.7062  0.9396
  594MPD2    H7 8867   1.488   0.472  14.447 -0.8578 -1.8211  0.8908
  595TMC3    C1 8868   2.417   0.833  14.673 -0.2260 -0.1461 -0.0975
  595TMC3    C2 8869   2.318   0.798  14.583 -0.6411  0.0362  0.4676
  595TMC3    C3 8870   2.201   0.748  14.639 -0.9355 -0.1148  0.2663
  595TMC3    C4 8871   2.399   0.832  14.809  0.7505 -0.2562 -0.5146
  595TMC3    C5 8872   2.265   0.817  14.856 -0.4609 -0.5033 -0.8055
  595TMC3    C6 8873   2.173   0.768  14.767 -0.2021 -0.4154  0.9988
  595TMC3     C 8874   2.514   0.938  14.636  0.2126  0.0114  0.1475
  595TMC3     O 8875   2.574   0.983  14.733 -0.6735  0.2880  0.5117
  595TMC3     H 8876   2.321   0.801  14.475  1.8232 -0.0664  0.5301
  595TMC3    H1 8877   2.474   0.858  14.882 -1.5698 -3.8411  3.1259
  595TMC3    H2 8878   2.072   0.758  14.806 -0.9990  0.6057 -0.8270
  595TMC3    C7 8879   2.220   0.942  14.915  0.4001 -0.5222 -0.4298
  595TMC3    C8 8880   2.094   0.760  14.550 -0.2330  0.6526 -0.6342
  595TMC3    O1 8881   2.099   0.958  14.940 -0.7447 -0.0323 -0.2401
  595TMC3    O2 8882   2.111   0.809  14.442 -0.2522  0.1830 -0.2941
  596MPD2     C 8883   0.715   3.289  16.832 -0.5829 -0.0099 -0.1604
  596MPD2    C1 8884   0.733   3.403  16.765 -0.7288  0.2215  0.0346
  596MPD2    C2 8885   0.765   3.402  16.631 -0.6903  0.4319 -0.1126
  596MPD2    C3 8886   0.774   3.287  16.561  0.0289 -0.0695 -0.1532
  596MPD2    C4 8887   0.761   3.171  16.630 -0.1358 -0.0505 -0.7966
  596MPD2    C5 8888   0.729   3.172  16.767  0.5342  0.1827 -1.6866
  596MPD2     H 8889   0.772   3.494  16.575 -1.4978  1.0362  0.7798
  596MPD2    H1 8890   0.765   3.068  16.597  0.6914  0.2855 -1.7473
  596MPD2    H2 8891   0.694   3.287  16.939  2.7057  0.4245  0.4940
  596MPD2    H3 8892   0.711   3.079  16.820  1.8471  0.5347 -0.5913
  596MPD2     N 8893   0.786   3.280  16.419  0.2114  0.1655 -0.1281
  596MPD2    H5 8894   0.786   3.194  16.365  0.4639  0.4329 -0.5505
  596MPD2    N1 8895   0.723   3.526  16.823 -0.7930  1.3472  0.3970
  596MPD2    H7 8896   0.754   3.607  16.771  0.9961 -0.5631 -1.5438
  597TMC3    C1 8897   0.641   3.693  16.983  0.0727 -0.5980  0.0751
  597TMC3    C2 8898   0.683   3.788  16.899  0.0878  0.5725  0.5922
  597TMC3    C3 8899   0.635   3.913  16.922  0.0419  0.2390 -0.6263
  597TMC3    C4 8900   0.555   3.719  17.088  0.6450 -0.4113 -0.2643
  597TMC3    C5 8901   0.508   3.844  17.101 -1.2037 -0.2690 -0.4800
  597TMC3    C6 8902   0.545   3.944  17.025  0.2159 -0.2985 -0.9182
  597TMC3     C 8903   0.667   3.552  16.949  0.8816  0.6530 -0.9551
  597TMC3     O 8904   0.590   3.480  17.012  0.8444 -0.3653  0.0798
  597TMC3     H 8905   0.748   3.769  16.815 -0.4262  1.1951  0.0517
  597TMC3    H1 8906   0.509   3.645  17.153 -1.4213  1.3423  0.2747
  597TMC3    H2 8907   0.518   4.046  17.047 -1.7107 -1.2915  1.4094
  597TMC3    C7 8908   0.396   3.865  17.191  0.7597  0.0828  0.1916
  597TMC3    C8 8909   0.699   4.034  16.859  0.1629  0.8359 -0.3446
  597TMC3    O1 8910   0.312   3.773  17.209  0.8003  0.4405 -0.1719
  597TMC3    O2 8911   0.664   4.145  16.893  0.1545 -0.3578  0.8293
  598TMC3    C1 8912   3.683   0.117  15.579 -0.3650 -0.6338 -0.2210
  598TMC3    C2 8913   3.645   4.727  15.559 -0.2520 -0.1531  1.2289
  598TMC3    C3 8914   3.636   4.688  15.430 -0.0887  0.0608  0.3321
  598TMC3    C4 8915   3.718   0.203  15.478 -0.2052 -0.3700 -0.8179
  598TMC3    C5 8916   3.703   0.157  15.352  0.0039 -0.4864  0.4332
  598TMC3    C6 8917   3.662   0.028  15.326  1.0910  0.3435  0.0853
  598TMC3     C 8918   3.720   0.169  15.711  0.3980 -0.0343  0.9636
  598TMC3     O 8919   3.795   0.267  15.705  1.1238 -0.4312 -0.3983
  598TMC3     H 8920   3.632   4.668  15.649 -2.7114 -1.7334 -0.1502
  598TMC3    H1 8921   3.757   0.302  15.496  0.1586 -0.8112  0.7546
  598TMC3    H2 8922   3.658   4.725  15.224 -4.8663  1.8949 -0.2624
  598TMC3    C7 8923   3.762   0.225  15.237  0.3817  0.2322  0.2744
  598TMC3    C8 8924   3.598   4.546  15.398  0.6463 -0.2093  0.4205
  598TMC3    O1 8925   3.769   0.161  15.135 -0.6022 -0.1810 -0.0891
  598TMC3    O2 8926   3.602   4.513  15.280  0.9943 -0.0765  0.5822
  599MPD2     C 8927   3.734   2.363  15.532 -0.4825 -0.2464 -0.2473
  599MPD2    C1 8928   3.718   2.246  15.605  0.0223  0.4888 -0.4848
  599MPD2    C2 8929   3.630   2.247  15.709  0.1087 -0.3343 -0.0837
  599MPD2    C3 8930   3.547   2.356  15.738 -0.4061 -0.1114  0.1349
  599MPD2    C4 8931   3.569   2.473  15.671 -0.9355  0.6489 -0.0463
  599MPD2    C5 8932   3.648   2.479  15.559 -0.6249 -0.5620 -0.3263
  599MPD2     H 8933   3.624   2.165  15.780  0.2034 -1.2982 -1.1798
  599MPD2    H1 8934   3.507   2.560  15.693 -2.3711  0.4459 -3.2627
  599MPD2    H2 8935   3.806   2.372  15.451 -1.0064  0.7532 -0.6022
  599MPD2    H3 8936   3.642   2.572  15.503  1.0730 -0.6063 -0.5683
  599MPD2     N 8937   3.460   2.359  15.849 -0.1379  0.0893  0.0273
  599MPD2    H5 8938   3.413   2.447  15.864  0.5141  0.0678  2.1034
  599MPD2    N1 8939   3.807   2.139  15.585  0.1302  0.0771 -0.2145
  599MPD2    H7 8940   3.868   2.153  15.506 -0.6087  1.0418 -0.6208
  600TMC3    C1 8941   3.313   2.278  16.018  0.3703 -0.2493  0.4140
  600TMC3    C2 8942   3.233   2.177  16.049 -0.7377 -0.7643 -0.5119
  600TMC3    C3 8943   3.167   2.177  16.166 -0.8325 -0.2960 -0.2349
  600TMC3    C4 8944   3.340   2.388  16.099 -0.0136 -0.0455 -0.4480
  600TMC3    C5 8945   3.266   2.384  16.219 -0.2226  0.5929  0.5431
  600TMC3    C6 8946   3.193   2.270  16.257  0.0164 -0.6666  0.3377
  600TMC3     C 8947   3.415   2.243  15.922  0.2475  0.2102  0.2114
  600TMC3     O 8948   3.451   2.123  15.922  0.0756 -0.0342  0.0137
  600TMC3     H 8949   3.212   2.094  15.982 -0.6342 -0.5254 -0.8401
  600TMC3    H1 8950   3.395   2.474  16.065  1.9726 -1.1897 -0.1504
  600TMC3    H2 8951   3.139   2.266  16.351  1.9275 -1.2556  1.4095
  600TMC3    C7 8952   3.271   2.495  16.313 -0.5018 -0.0711 -0.5578
  600TMC3    C8 8953   3.045   2.096  16.181 -0.3318  0.1759  0.3926
  600TMC3    O1 8954   3.191   2.495  16.407  0.3153  0.1643  0.0564
  600TMC3    O2 8955   3.027   2.055  16.295  0.1528  0.0222 -0.1844
  601MPD2     C 8956   1.144   0.589   0.269  0.3332 -0.3322 -0.3509
  601MPD2    C1 8957   1.014   0.549   0.242 -0.5737  0.1652  0.4784
  601MPD2    C2 8958   0.965   0.436   0.304  0.5357 -0.1027  0.2221
  601MPD2    C3 8959   1.033   0.377   0.405  0.3848  0.0055 -0.5210
  601MPD2    C4 8960   1.158   0.426   0.445  0.6203 -0.5573 -0.5155
  601MPD2    C5 8961   1.214   0.530   0.372  0.4557  0.1547  0.3931
  601MPD2     H 8962   0.869   0.401   0.269  0.7518 -2.4970  1.9851
  601MPD2    H1 8963   1.219   0.394   0.528  1.0686  2.1552  0.2026
  601MPD2    H2 8964   1.182   0.681   0.227  1.2771 -0.6569 -0.1976
  601MPD2    H3 8965   1.310   0.569   0.405 -0.0682  0.4467  1.5653
  601MPD2     N 8966   0.985   0.257   0.467 -0.6518  0.4240  0.0456
  601MPD2    H5 8967   1.046   0.210   0.533 -1.9319 -0.5185  0.5576
  601MPD2    N1 8968   0.927   0.616   0.157 -0.9765  0.1865  0.4558
  601MPD2    H7 8969   0.830   0.586   0.146 -0.8496  0.3272 -1.1091
  602TMC3    C1 8970   0.855   0.805   0.032 -0.3038 -0.4592  0.4065
  602TMC3    C2 8971   0.871   0.938   0.007 -0.4920  0.4342 -0.5446
  602TMC3    C3 8972   0.781   0.996  17.665  0.8431 -0.1731  0.4811
  602TMC3    C4 8973   0.761   0.734  17.707  0.4416 -0.5314 -0.2571
  602TMC3    C5 8974   0.682   0.797  17.619 -0.7816  0.2176  0.5024
  602TMC3    C6 8975   0.687   0.929  17.592  0.2099  0.9797  0.2122
  602TMC3     C 8976   0.959   0.744   0.112  0.2255 -1.1969 -0.2082
  602TMC3     O 8977   1.047   0.821   0.149  0.1730 -0.5027  0.3061
  602TMC3     H 8978   0.936   0.996   0.072  1.1323  0.3071 -2.0307
  602TMC3    H1 8979   0.760   0.626  17.716 -4.1289 -0.5086 -0.2699
  602TMC3    H2 8980   0.619   0.977  17.523 -0.3417 -0.5155 -0.2964
  602TMC3    C7 8981   0.621   0.715  17.515  0.3884 -0.5824 -0.5743
  602TMC3    C8 8982   0.824   1.126  17.636  1.3648  0.0832  0.0691
  602TMC3    O1 8983   0.544   0.623  17.552 -0.3301 -0.2714  0.0964
  602TMC3    O2 8984   0.878   1.199  17.716 -0.1126 -0.8509 -0.2876
  603TMC3    C1 8985   3.103   1.127  11.513  0.1900 -0.3822 -0.9260
  603TMC3    C2 8986   3.102   1.052  11.626 -0.0467  0.3300  0.3946
  603TMC3    C3 8987   3.209   1.066  11.710 -0.0858 -0.5247  0.6156
  603TMC3    C4 8988   3.206   1.208  11.482  1.4102  0.4203 -0.3724
  603TMC3    C5 8989   3.302   1.225  11.574  0.4650 -0.1517  0.8759
  603TMC3    C6 8990   3.300   1.165  11.700 -0.5491  0.2671  0.2647
  603TMC3     C 8991   3.001   1.097  11.414  0.2701  0.0273  1.0133
  603TMC3     O 8992   3.013   1.155  11.302  0.4550 -0.2130  0.8344
  603TMC3     H 8993   3.022   0.988  11.661 -0.6026  1.3310  0.9791
  603TMC3    H1 8994   3.198   1.265  11.390 -1.3914 -0.7095 -0.8265
  603TMC3    H2 8995   3.399   1.156  11.744  0.6033 -0.4445 -2.4456
  603TMC3    C7 8996   3.419   1.292  11.537 -0.6475  0.0089 -0.2904
  603TMC3    C8 8997   3.212   0.991  11.832 -0.1187  0.6258 -0.0633
  603TMC3    O1 8998   3.475   1.364  11.618 -0.1217  0.5223  0.0640
  603TMC3    O2 8999   3.143   0.888  11.840 -0.0746 -0.3501 -0.5512
  604MPD2     C 9000   0.356   0.176  16.517  0.4394 -0.2905  0.3339
  604MPD2    C1 9001   0.241   0.128  16.469  0.3084  0.2901 -0.3724
  604MPD2    C2 9002   0.241   0.053  16.351 -0.8628 -0.1707  0.1477
  604MPD2    C3 9003   0.359   0.032  16.271  0.0684  0.1295  0.5342
  604MPD2    C4 9004   0.472   0.082  16.324  0.1873 -0.1937  0.1501
  604MPD2    C5 9005   0.466   0.153  16.445 -0.3544 -0.4284 -0.2879
  604MPD2     H 9006   0.146   0.024  16.307  0.6838 -1.8774 -2.0501
  604MPD2    H1 9007   0.570   0.065  16.280  0.0821 -0.4242  0.0059
  604MPD2    H2 9008   0.354   0.225  16.614 -3.0369  2.8460 -1.3291
  604MPD2    H3 9009   0.556   0.193  16.491 -1.3334  1.4615  0.0022
  604MPD2     N 9010   0.358   4.681  16.154 -0.1180  0.2117  0.0735
  604MPD2    H5 9011   0.269   4.639  16.129 -0.9253  1.3294  1.0343
  604MPD2    N1 9012   0.124   0.154  16.548 -0.4497 -0.1411  0.0713
  604MPD2    H7 9013   0.137   0.212  16.630 -0.9553  0.7608 -0.4910
  605TMC3    C1 9014   4.652   0.158  16.647 -0.7076  0.2438  0.2813
  605TMC3    C2 9015   4.711   0.185  16.763  0.2656 -0.0954  0.1559
  605TMC3    C3 9016   4.639   0.225  16.870  0.5940 -0.3993 -0.5492
  605TMC3    C4 9017   4.516   0.168  16.632  0.0467 -0.4437  0.4999
  605TMC3    C5 9018   4.441   0.212  16.743  0.2040  0.3101 -0.0628
  605TMC3    C6 9019   4.501   0.237  16.861 -0.1651 -0.0755 -0.0898
  605TMC3     C 9020   4.728   0.126  16.521 -0.5207 -0.5229 -0.1625
  605TMC3     O 9021   4.676   0.051  16.437 -0.3266  0.0621 -0.2742
  605TMC3     H 9022   0.082   0.166  16.776  0.4195  0.5856 -0.0867
  605TMC3    H1 9023   4.470   0.147  16.536 -1.7049 -0.1496  1.2674
  605TMC3    H2 9024   4.436   0.274  16.940 -0.1171 -2.0034  0.8567
  605TMC3    C7 9025   4.297   0.245  16.714  0.2259  0.1987 -0.3811
  605TMC3    C8 9026   4.712   0.259  16.991 -0.3850  0.3442 -0.3261
  605TMC3    O1 9027   4.250   0.340  16.771 -0.2736  0.2485 -0.7183
  605TMC3    O2 9028   4.658   0.241  17.102 -0.0898  0.3449  0.5694
  606TMC3    C1 9029   0.894   4.186  17.307  0.2357 -0.8050 -0.2099
  606TMC3    C2 9030   0.809   4.143  17.406 -0.2008 -0.1055  0.0725
  606TMC3    C3 9031   0.764   4.008  17.402 -0.0968  0.1147  0.0163
  606TMC3    C4 9032   0.922   4.109  17.198 -0.0166 -0.1888  0.0651
  606TMC3    C5 9033   0.872   3.981  17.197 -0.0259  0.7516 -0.1440
  606TMC3    C6 9034   0.792   3.928  17.298  0.0121 -0.3548 -0.1202
  606TMC3     C 9035   0.958   4.319  17.317  0.1882  0.3921  0.5512
  606TMC3     O 9036   0.906   4.385  17.406 -0.3031 -0.1074 -0.4469
  606TMC3     H 9037   0.790   4.208  17.491  0.5770 -0.2621  0.3734
  606TMC3    H1 9038   0.992   4.138  17.120  1.5143 -0.5125  1.3225
  606TMC3    H2 9039   0.744   3.832  17.279  0.8854 -0.8336  0.1348
  606TMC3    C7 9040   0.927   3.891  17.101 -0.5057  0.1529  0.3913
  606TMC3    C8 9041   0.725   3.956  17.533  0.4664  0.3203 -0.2072
  606TMC3    O1 9042   0.975   3.950  17.007 -0.1256  0.1642 -0.7631
  606TMC3    O2 9043   0.673   3.850  17.535  0.2422 -0.5320  0.3877
  607MPD2     C 9044   2.590   0.778  11.776 -0.4391 -0.1203 -0.1556
  607MPD2    C1 9045   2.603   0.841  11.900 -0.3993  0.2546  0.4931
  607MPD2    C2 9046   2.532   0.792  12.008  0.7732  0.1299 -0.3877
  607MPD2    C3 9047   2.450   0.680  11.992  0.4640  0.2642  0.3467
  607MPD2    C4 9048   2.428   0.632  11.862 -0.0249  0.5424 -0.2538
  607MPD2    C5 9049   2.496   0.685  11.754  0.3645  0.2160 -0.1256
  607MPD2     H 9050   2.542   0.833  12.108  0.5383  1.1212 -0.7710
  607MPD2    H1 9051   2.376   0.537  11.864 -1.9918  1.6052 -0.5783
  607MPD2    H2 9052   2.669   0.791  11.703  1.4330 -0.3833  1.8012
  607MPD2    H3 9053   2.483   0.636  11.658 -3.6230  0.6354  0.2175
  607MPD2     N 9054   2.394   0.624  12.109 -0.5591 -0.1293  0.7002
  607MPD2    H5 9055   2.417   0.674  12.195  0.5693  0.9851 -0.2424
  607MPD2    N1 9056   2.691   0.954  11.928  0.2288  0.0135 -0.2010
  607MPD2    H7 9057   2.685   0.988  12.023 -0.6776 -0.7243  0.0065
  608TMC3    C1 9058   2.881   1.090  11.915 -0.2958  0.3481  0.6058
  608TMC3    C2 9059   2.902   1.066  12.048 -0.7343 -0.1016 -0.0785
  608TMC3    C3 9060   2.974   1.155  12.127 -0.6440 -0.2856 -0.9805
  608TMC3    C4 9061   2.909   1.208  11.860 -0.1292 -0.6449 -0.0455
  608TMC3    C5 9062   2.985   1.292  11.934 -0.9229 -0.1646 -0.4776
  608TMC3    C6 9063   3.016   1.272  12.068  0.0268 -0.1222 -0.0824
  608TMC3     C 9064   2.786   1.006  11.842  0.4692 -0.2496 -0.5552
  608TMC3     O 9065   2.816   0.978  11.727 -0.1545  0.4317  0.6224
  608TMC3     H 9066   2.877   0.968  12.087 -1.2287  0.0273 -0.0755
  608TMC3    H1 9067   2.883   1.222  11.755  0.1183 -0.2040 -0.0482
  608TMC3    H2 9068   3.084   1.327  12.131  1.0335  0.3285 -1.5599
  608TMC3    C7 9069   3.046   1.397  11.857 -0.2603  0.2007 -0.7271
  608TMC3    C8 9070   2.971   1.144  12.268 -0.4117 -0.4597 -0.9772
  608TMC3    O1 9071   3.020   1.389  11.736 -0.2187  0.2199  0.2480
  608TMC3    O2 9072   3.043   1.212  12.342 -0.1148  0.3503  0.2175
  609TMC3    C1 9073   0.034   4.323   9.451  0.3385 -0.6361  0.7803
  609TMC3    C2 9074   4.653   4.251   9.458  0.9101 -0.1950  0.3881
  609TMC3    C3 9075   4.647   4.126   9.407 -0.1196 -0.5487 -0.9050
  609TMC3    C4 9076   0.145   4.273   9.392 -1.2240 -0.2156  0.6621
  609TMC3    C5 9077   0.139   4.142   9.349 -0.2216 -0.6949  0.1943
  609TMC3    C6 9078   0.022   4.067   9.354 -0.2514  0.5040  0.7260
  609TMC3     C 9079   0.015   4.464   9.452 -0.4381  0.4586 -0.0786
  609TMC3     O 9080   4.692   4.510   9.546  0.3377 -0.2610 -0.1963
  609TMC3     H 9081   4.562   4.301   9.489  0.5647 -0.8036  0.3522
  609TMC3    H1 9082   0.242   4.321   9.387 -1.7065  0.6902 -0.1421
  609TMC3    H2 9083   0.010   3.959   9.351  0.4595  0.3724  2.3566
  609TMC3    C7 9084   0.243   4.097   9.261  0.2890 -0.3045 -0.0472
  609TMC3    C8 9085   4.530   4.058   9.440  0.3256  1.2523 -0.6372
  609TMC3    O1 9086   0.339   4.173   9.240  0.0013 -0.2959 -0.3961
  609TMC3    O2 9087   4.460   4.115   9.523  0.2320 -0.1518  0.2697
  610TMC3    C1 9088   3.063   0.731  12.777 -0.7038 -0.3940 -0.2363
  610TMC3    C2 9089   3.037   0.729  12.646 -0.8136  0.3172  0.0775
  610TMC3    C3 9090   3.140   0.751  12.556 -0.5077 -0.4124  0.0205
  610TMC3    C4 9091   3.192   0.723  12.823  0.1427  0.1528 -0.3212
  610TMC3    C5 9092   3.295   0.720  12.728  0.0211  0.2163  0.1115
  610TMC3    C6 9093   3.272   0.747  12.595 -0.6099  0.2631  0.5487
  610TMC3     C 9094   2.954   0.732  12.865 -0.3010  0.4636  0.5313
  610TMC3     O 9095   2.958   0.793  12.975 -0.2498 -0.9020  0.2413
  610TMC3     H 9096   2.935   0.738  12.610 -1.4004 -2.5400  1.0599
  610TMC3    H1 9097   3.217   0.717  12.928 -0.9116  0.1420 -0.0757
  610TMC3    H2 9098   3.350   0.766  12.522 -0.1505 -1.0835  0.6937
  610TMC3    C7 9099   3.430   0.727  12.779 -0.0365 -0.0856  0.5295
  610TMC3    C8 9100   3.113   0.742  12.417  0.8061  0.8440 -0.8039
  610TMC3    O1 9101   3.516   0.648  12.740 -0.1525 -0.1687  0.1572
  610TMC3    O2 9102   3.160   0.828  12.347 -0.1692  0.1857  0.2180
  611MPD2     C 9103   3.134   0.635  10.619 -0.0888  0.1982  0.0507
  611MPD2    C1 9104   3.082   0.746  10.548  0.4952 -0.1626 -0.3699
  611MPD2    C2 9105   3.151   0.868  10.555  1.0418  0.1029  0.1227
  611MPD2    C3 9106   3.264   0.884  10.633  0.0930  0.5685  0.0070
  611MPD2    C4 9107   3.300   0.781  10.714 -0.4938 -0.2128  0.5506
  611MPD2    C5 9108   3.239   0.659  10.703 -0.5078  0.0661 -0.1280
  611MPD2     H 9109   3.119   0.951  10.493  0.5131  0.2235  0.5615
  611MPD2    H1 9110   3.384   0.799  10.780 -0.6562 -0.8835  0.9390
  611MPD2    H2 9111   3.083   0.539  10.618  0.7696 -0.2674  0.3877
  611MPD2    H3 9112   3.283   0.580  10.763 -2.3598 -0.4195  0.5895
  611MPD2     N 9113   3.330   1.010  10.661  0.7500  0.2954  0.3090
  611MPD2    H5 9114   3.404   0.999  10.729 -1.1131  0.8896  2.4414
  611MPD2    N1 9115   2.969   0.720  10.468 -0.0070 -0.4482 -0.3030
  611MPD2    H7 9116   2.933   0.625  10.469  0.8626 -0.7760  0.1135
  612TMC3    C1 9117   3.393   1.248  10.640 -0.2749  0.5076  0.5300
  612TMC3    C2 9118   3.499   1.248  10.724 -0.0114 -0.4657  0.1646
  612TMC3    C3 9119   3.590   1.351  10.729 -0.4341 -0.2984  0.2458
  612TMC3    C4 9120   3.368   1.358  10.560  0.3052  0.2636  0.3223
  612TMC3    C5 9121   3.464   1.456  10.566  0.8233 -0.8619  0.0733
  612TMC3    C6 9122   3.571   1.464  10.653  0.6549 -1.0440 -0.4416
  612TMC3     C 9123   3.315   1.130  10.599  0.1115 -0.1183 -0.3222
  612TMC3     O 9124   3.245   1.156  10.504  0.2199 -0.3225 -0.4542
  612TMC3     H 9125   3.540   1.162  10.776 -0.1709 -0.3497  0.4820
  612TMC3    H1 9126   3.288   1.357  10.487 -0.1592 -0.8546  0.8549
  612TMC3    H2 9127   3.633   1.552  10.664 -2.6889  0.9369  2.4705
  612TMC3    C7 9128   3.434   1.574  10.496 -0.4512  0.4114 -0.8240
  612TMC3    C8 9129   3.655   1.386  10.856  0.0693  0.8841  0.4655
  612TMC3    O1 9130   3.531   1.642  10.463 -0.4643  0.2360  0.2771
  612TMC3    O2 9131   3.737   1.478  10.856 -0.3937  0.0445 -0.3333
  613MPD2     C 9132   2.194   3.320  16.671 -0.4168 -0.6244  0.5548
  613MPD2    C1 9133   2.093   3.361  16.587 -0.1978 -0.0878 -0.2672
  613MPD2    C2 9134   1.998   3.265  16.555  0.1808  0.0642  0.0636
  613MPD2    C3 9135   2.004   3.134  16.605 -0.0319 -0.4822  0.1667
  613MPD2    C4 9136   2.098   3.112  16.705  0.4841  0.2324 -0.0108
  613MPD2    C5 9137   2.198   3.198  16.730 -0.1702 -0.4829 -0.2763
  613MPD2     H 9138   1.931   3.284  16.473 -0.4442  2.2478  1.0815
  613MPD2    H1 9139   2.106   3.015  16.753  0.2753  0.6262  0.8191
  613MPD2    H2 9140   2.276   3.385  16.699  0.1751 -0.6169 -1.1681
  613MPD2    H3 9141   2.274   3.176  16.804 -1.9627  1.4840  2.1613
  613MPD2     N 9142   1.912   3.035  16.562 -0.5723  0.2316  0.0322
  613MPD2    H5 9143   1.929   2.937  16.582  0.0541  0.5006  0.8099
  613MPD2    N1 9144   2.107   3.485  16.521 -0.2384  0.0740  0.2355
  613MPD2    H7 9145   2.193   3.539  16.531 -0.9517  1.1496  0.5191
  614TMC3    C1 9146   2.056   3.638  16.342 -0.0316 -0.0930 -0.5065
  614TMC3    C2 9147   2.157   3.568  16.275 -0.3430 -1.0741 -0.0430
  614TMC3    C3 9148   2.131   3.540  16.140  0.4792 -0.1908 -0.3194
  614TMC3    C4 9149   1.951   3.698  16.282 -0.1869  0.7377  0.2195
  614TMC3    C5 9150   1.923   3.661  16.155  0.0194 -0.1552 -0.3500
  614TMC3    C6 9151   2.015   3.586  16.082  0.4678  0.0415 -0.0234
  614TMC3     C 9152   2.004   3.547  16.446  0.0970 -0.5675  0.5766
  614TMC3     O 9153   1.882   3.531  16.445 -0.0391 -0.0149 -0.0439
  614TMC3     H 9154   2.250   3.537  16.322 -0.3712  0.9824  1.3999
  614TMC3    H1 9155   1.876   3.745  16.344 -0.0441  0.7564  0.3789
  614TMC3    H2 9156   1.996   3.564  15.978  1.7935  1.5698 -0.5902
  614TMC3    C7 9157   1.808   3.717  16.095 -0.3698 -0.1583  0.6382
  614TMC3    C8 9158   2.186   3.412  16.100  0.2929  0.8465 -0.1847
  614TMC3    O1 9159   1.774   3.820  16.155 -0.0781 -0.1375 -0.7008
  614TMC3    O2 9160   2.218   3.341  16.191 -0.2269 -0.0999 -0.2734
  615MPD2     C 9161   1.576   0.279  16.578  0.0813 -0.1608 -0.2789
  615MPD2    C1 9162   1.658   0.391  16.569  0.8370  0.4190 -0.0025
  615MPD2    C2 9163   1.640   0.477  16.457 -0.6517  0.6639  0.1055
  615MPD2    C3 9164   1.539   0.452  16.358  0.0026 -0.1114 -0.6764
  615MPD2    C4 9165   1.466   0.337  16.377 -0.6155  0.5513  0.4859
  615MPD2    C5 9166   1.480   0.257  16.486  0.4134 -0.4703  0.8909
  615MPD2     H 9167   1.701   0.566  16.458  0.3741 -0.0563  1.7191
  615MPD2    H1 9168   1.395   0.300  16.305 -0.1636 -1.1150  0.8925
  615MPD2    H2 9169   1.578   0.199  16.651 -0.1955  1.1619  1.1877
  615MPD2    H3 9170   1.412   0.176  16.510  1.2050 -1.4376 -0.1156
  615MPD2     N 9171   1.497   0.528  16.244  0.2443  0.1707  0.5142
  615MPD2    H5 9172   1.413   0.508  16.191 -0.8593 -0.2685  2.4379
  615MPD2    N1 9173   1.755   0.418  16.665  0.1471 -0.2868 -0.4384
  615MPD2    H7 9174   1.817   0.496  16.643  0.8956 -0.5160  0.9403
  616TMC3    C1 9175   1.827   0.427  16.894  0.1021  0.0248  0.3941
  616TMC3    C2 9176   1.859   0.340  16.993 -0.8751  0.2385 -0.2872
  616TMC3    C3 9177   1.913   0.394  17.100 -0.4052 -0.0024  0.1391
  616TMC3    C4 9178   1.840   0.565  16.896  0.0143  0.2917 -0.6465
  616TMC3    C5 9179   1.898   0.608  17.009  0.1497 -0.3001  0.1283
  616TMC3    C6 9180   1.941   0.527  17.111  0.7107  0.9896 -0.8079
  616TMC3     C 9181   1.744   0.364  16.792  0.1741 -0.0640  0.4002
  616TMC3     O 9182   1.683   0.272  16.840  0.3196  0.7621 -0.1323
  616TMC3     H 9183   1.834   0.234  16.986  2.3226 -0.5316 -0.0945
  616TMC3    H1 9184   1.802   0.628  16.816  0.3138 -0.0548 -1.0618
  616TMC3    H2 9185   1.994   0.561  17.199 -1.3215 -0.9133  1.1580
  616TMC3    C7 9186   1.892   0.749  17.039 -0.3714  0.2245  0.0611
  616TMC3    C8 9187   2.002   0.305  17.176  0.1947 -0.1601 -0.0637
  616TMC3    O1 9188   1.872   0.791  17.155 -0.0931 -0.2323  0.6114
  616TMC3    O2 9189   2.027   0.340  17.291 -0.1648  0.7366  0.4631
  617MPD2     C 9190   4.431   3.169  13.323 -0.0620 -0.0952  0.6448
  617MPD2    C1 9191   4.442   3.079  13.430  0.1691 -0.3544  0.5212
  617MPD2    C2 9192   4.371   2.958  13.425 -0.5864 -0.0188  0.3511
  617MPD2    C3 9193   4.297   2.921  13.317 -0.0886  0.4025  0.1996
  617MPD2    C4 9194   4.304   3.005  13.207  0.5173 -0.4560  0.1511
  617MPD2    C5 9195   4.372   3.124  13.208  0.5957  0.5792 -0.2346
  617MPD2     H 9196   4.360   2.901  13.517 -1.3574  0.5417  0.6066
  617MPD2    H1 9197   4.237   2.974  13.128  0.3831  0.6173 -0.1663
  617MPD2    H2 9198   4.469   3.271  13.321 -1.9849  0.5882 -0.5883
  617MPD2    H3 9199   4.381   3.190  13.123 -0.0868  2.5227  1.2035
  617MPD2     N 9200   4.212   2.805  13.308 -0.0311  0.2458 -0.4706
  617MPD2    H5 9201   4.186   2.777  13.214  0.9887  2.5370 -1.4328
  617MPD2    N1 9202   4.509   3.128  13.544  0.0104 -0.2855  0.0260
  617MPD2    H7 9203   4.563   3.212  13.529  0.3573 -0.8493 -1.9526
  618TMC3    C1 9204   4.612   3.133  13.759 -0.1313 -0.0162 -0.2539
  618TMC3    C2 9205   4.639   3.056  13.875 -0.3801 -0.2249 -0.7963
  618TMC3    C3 9206   4.720   3.110  13.967 -0.0723 -0.5484  0.5200
  618TMC3    C4 9207   4.682   3.248  13.727  0.0371  0.3821  0.1570
  618TMC3    C5 9208   0.044   3.290  13.815  0.1135  0.2596 -0.7875
  618TMC3    C6 9209   0.059   3.219  13.934  0.0773  0.3425 -0.1247
  618TMC3     C 9210   4.512   3.075  13.672  0.4742  0.8060 -0.2899
  618TMC3     O 9211   4.442   2.985  13.714  0.4486  0.0521  0.2365
  618TMC3     H 9212   4.599   2.958  13.902 -2.2882  0.9781  0.7026
  618TMC3    H1 9213   4.653   3.308  13.642 -0.1620  0.3108  0.1748
  618TMC3    H2 9214   0.139   3.242  14.003 -0.8882  0.5851  0.8988
  618TMC3    C7 9215   0.149   3.378  13.764  0.0333  0.3840 -0.0138
  618TMC3    C8 9216   0.079   3.014  14.024 -0.7650 -0.2085 -0.3175
  618TMC3    O1 9217   0.118   3.443  13.662 -0.7399  0.2384  0.5375
  618TMC3    O2 9218   0.139   3.048  14.119 -0.1452 -0.2177  0.0793
  619MPD2     C 9219   0.811   3.817  14.029  0.9144  0.1757  0.5657
  619MPD2    C1 9220   0.779   3.904  13.927 -0.1196  0.0916 -0.4907
  619MPD2    C2 9221   0.650   3.939  13.918 -0.3528  0.2912  0.0432
  619MPD2    C3 9222   0.553   3.897  14.013  0.4232 -0.3461  0.4807
  619MPD2    C4 9223   0.581   3.792  14.103 -0.3063 -0.1478 -0.4121
  619MPD2    C5 9224   0.713   3.765  14.115 -0.1670  0.3363 -0.2021
  619MPD2     H 9225   0.634   4.006  13.834  1.1439  0.1736 -0.3362
  619MPD2    H1 9226   0.508   3.742  14.165 -0.6649  0.4904 -0.3156
  619MPD2    H2 9227   0.914   3.784  14.040  0.0988 -2.3234  0.7591
  619MPD2    H3 9228   0.744   3.699  14.195 -1.1503 -3.3966 -2.8553
  619MPD2     N 9229   0.425   3.957  14.010  0.0890  0.8513 -0.6141
  619MPD2    H5 9230   0.351   3.910  14.061  0.8232  0.9336  0.5260
  619MPD2    N1 9231   0.870   3.964  13.844 -0.3307  0.1657 -0.2199
  619MPD2    H7 9232   0.819   4.032  13.788  0.8397  0.5762 -0.8026
  620TMC3    C1 9233   1.038   4.115  13.774  0.1873 -0.2008 -1.6275
  620TMC3    C2 9234   0.978   4.133  13.651 -0.0793 -0.5662 -0.2718
  620TMC3    C3 9235   0.989   4.254  13.591  0.4965  0.6336  0.6974
  620TMC3    C4 9236   1.093   4.223  13.843  0.1932  0.2535 -0.2284
  620TMC3    C5 9237   1.099   4.343  13.775 -0.0978 -0.0222  0.1689
  620TMC3    C6 9238   1.065   4.354  13.647  0.1852  0.2061 -0.9299
  620TMC3     C 9239   1.001   3.993  13.860 -0.3124 -0.4736  0.2101
  620TMC3     O 9240   1.077   3.958  13.948 -0.5643  0.0043 -0.3393
  620TMC3     H 9241   0.926   4.053  13.599  1.5673 -1.3662 -0.6829
  620TMC3    H1 9242   1.124   4.218  13.947 -0.0519  1.5330 -0.0925
  620TMC3    H2 9243   1.079   4.450  13.598  2.4613  0.9706  1.2152
  620TMC3    C7 9244   1.081   4.468  13.855  0.7909 -0.3700 -0.4851
  620TMC3    C8 9245   0.870   4.316  13.538  0.4116  0.2960  0.4084
  620TMC3    O1 9246   1.125   4.489  13.966 -0.1718  0.2157  0.0229
  620TMC3    O2 9247   0.877   4.439  13.545  0.1862 -0.3629  0.3289
  621MPD2     C 9248   0.493   0.064  10.423 -0.2781  0.2699  0.3299
  621MPD2    C1 9249   0.554   4.693  10.357 -0.9093  0.6776  0.6912
  621MPD2    C2 9250   0.608   4.709  10.232  0.7537  0.2263  0.0618
  621MPD2    C3 9251   0.618   0.099  10.169 -0.2459 -0.7117 -0.7745
  621MPD2    C4 9252   0.560   0.202  10.243  0.7617 -0.5647  0.1778
  621MPD2    C5 9253   0.502   0.188  10.367  0.0088 -0.2574  0.0505
  621MPD2     H 9254   0.669   4.628  10.193  0.6119 -0.5519  1.4687
  621MPD2    H1 9255   0.577   0.302  10.204  0.5645  0.0929  1.7893
  621MPD2    H2 9256   0.465   0.055  10.527 -0.3829 -0.0622  0.2725
  621MPD2    H3 9257   0.470   0.269  10.432 -0.7000 -1.0068  0.6250
  621MPD2     N 9258   0.698   0.123  10.053  1.1539  0.2022 -0.0398
  621MPD2    H5 9259   0.708   0.222  10.033 -1.2011  0.1550 -1.4278
  621MPD2    N1 9260   0.577   4.572  10.423  0.0247  0.8358 -0.7550
  621MPD2    H7 9261   0.627   4.498  10.376 -0.6328  0.5619 -1.0218
  622TMC3    C1 9262   0.645   4.431  10.598  0.1870  0.8615 -0.3625
  622TMC3    C2 9263   0.668   4.431  10.734  0.9216 -0.0812 -0.1896
  622TMC3    C3 9264   0.657   4.316  10.802  0.2648 -0.6442  0.6057
  622TMC3    C4 9265   0.630   4.311  10.530  0.7690 -0.0339  0.4082
  622TMC3    C5 9266   0.625   4.193  10.597 -0.3978 -0.4788 -0.0628
  622TMC3    C6 9267   0.636   4.201  10.735  0.6420  0.0501 -0.7591
  622TMC3     C 9268   0.568   4.545  10.556 -0.2118 -0.0345 -0.1333
  622TMC3     O 9269   0.497   4.584  10.644 -0.3250  0.0701 -0.1611
  622TMC3     H 9270   0.688   4.525  10.784  2.5898  0.2751 -1.5130
  622TMC3    H1 9271   0.614   4.315  10.423  0.2111  0.6235  0.5122
  622TMC3    H2 9272   0.608   4.111  10.790  2.5313  0.9561  1.6774
  622TMC3    C7 9273   0.616   4.063  10.532 -0.4311  0.2075  0.1360
  622TMC3    C8 9274   0.583   4.328  10.926  1.3499 -0.8049  0.1369
  622TMC3    O1 9275   0.648   3.957  10.584  0.1363  0.4497  0.0398
  622TMC3    O2 9276   0.599   4.241  11.011  0.2943  0.0590 -0.5664
  623MPD2     C 9277   0.416   0.299  15.894 -0.5368 -0.8624 -0.2917
  623MPD2    C1 9278   0.339   0.319  16.006  0.4456  0.2612  0.3395
  623MPD2    C2 9279   0.400   0.359  16.126  0.3760  0.3153  0.0099
  623MPD2    C3 9280   0.539   0.375  16.147 -0.0568  0.2929  0.2348
  623MPD2    C4 9281   0.609   0.364  16.025  0.3163 -0.8086 -0.4737
  623MPD2    C5 9282   0.547   0.331  15.907 -0.1735  0.2034 -0.3408
  623MPD2     H 9283   0.332   0.349  16.209 -0.8133  0.4605 -0.9591
  623MPD2    H1 9284   0.715   0.391  16.026 -0.3629  1.9183 -1.3789
  623MPD2    H2 9285   0.374   0.272  15.797 -1.4016 -1.4831  0.2552
  623MPD2    H3 9286   0.615   0.330  15.822  0.4095 -0.3749  0.1319
  623MPD2     N 9287   0.595   0.415  16.268  0.0938 -0.2671 -0.4289
  623MPD2    H5 9288   0.521   0.416  16.338  2.0855  1.1258  1.6405
  623MPD2    N1 9289   0.206   0.280  16.015  0.1738  0.2103 -0.8225
  623MPD2    H7 9290   0.162   0.310  16.102 -0.0644  1.2076 -1.2869
  624TMC3    C1 9291   0.885   0.414  16.606  0.2227 -0.0004 -0.8806
  624TMC3    C2 9292   0.778   0.423  16.685  0.5363 -0.2084  0.5532
  624TMC3    C3 9293   0.654   0.467  16.639  0.2380  0.5977 -0.2232
  624TMC3    C4 9294   0.877   0.438  16.477  0.3431 -0.0331 -0.5390
  624TMC3    C5 9295   0.750   0.473  16.431 -0.1373  0.6661  0.9559
  624TMC3    C6 9296   0.640   0.489  16.507  0.4335  0.1402  1.0711
  624TMC3     C 9297   1.008   0.382  16.668  0.3923 -0.4007 -0.6986
  624TMC3     O 9298   1.011   0.305  16.759 -0.0366 -0.2042  0.2044
  624TMC3     H 9299   0.797   0.405  16.790  1.5797  0.3396  0.4599
  624TMC3    H1 9300   0.951   0.396  16.410  0.4812  1.0982 -1.1093
  624TMC3    H2 9301   0.553   0.546  16.476  0.5575  0.9338  2.1601
  624TMC3    C7 9302   0.723   0.457  16.290  0.3305 -0.1954 -0.1589
  624TMC3    C8 9303   0.534   0.452  16.725  0.0655 -0.4977  0.6741
  624TMC3    O1 9304   0.816   0.487  16.216 -0.3279  0.0807 -0.1329
  624TMC3    O2 9305   0.425   0.466  16.664 -0.6486 -0.3659  0.2886
  625MPD2     C 9306   0.638   1.283   0.724  0.6476 -0.5061 -0.3060
  625MPD2    C1 9307   0.628   1.420   0.679  0.1524  0.0666  0.3035
  625MPD2    C2 9308   0.731   1.506   0.716  0.6267  0.7535 -0.0272
  625MPD2    C3 9309   0.844   1.466   0.791 -0.0887  0.1634  0.1398
  625MPD2    C4 9310   0.851   1.337   0.835 -0.2543 -0.2880 -0.5482
  625MPD2    C5 9311   0.744   1.252   0.814  0.0211  0.2493  0.0756
  625MPD2     H 9312   0.715   1.606   0.678 -1.3035  2.0396  4.1965
  625MPD2    H1 9313   0.933   1.303   0.897 -0.3721 -0.3953 -0.4526
  625MPD2    H2 9314   0.563   1.206   0.714 -0.8741  1.3687 -3.3925
  625MPD2    H3 9315   0.751   1.156   0.864  2.5708 -0.2979 -1.3128
  625MPD2     N 9316   0.947   1.564   0.814 -0.1149 -0.7621 -0.4611
  625MPD2    H5 9317   0.921   1.662   0.812 -0.9409 -1.0225 -2.0770
  625MPD2    N1 9318   0.520   1.479   0.608  0.2652  0.1241 -0.5413
  625MPD2    H7 9319   0.523   1.579   0.593 -0.0531 -0.2124 -2.9090
  626TMC3    C1 9320   0.303   1.483   0.503  0.1799 -0.4491  0.1302
  626TMC3    C2 9321   0.296   1.496   0.370 -0.9010  0.0488 -0.1407
  626TMC3    C3 9322   0.241   1.606   0.320 -0.5030 -0.7406  0.0683
  626TMC3    C4 9323   0.269   1.594   0.583  0.3580  0.4287 -0.3260
  626TMC3    C5 9324   0.215   1.706   0.528 -0.6311  0.0142 -0.1374
  626TMC3    C6 9325   0.192   1.718   0.391  0.0639 -0.1055 -0.4563
  626TMC3     C 9326   0.419   1.400   0.553 -0.0166  0.0414  0.0878
  626TMC3     O 9327   0.400   1.281   0.546 -1.2673 -0.0008  0.5461
  626TMC3     H 9328   0.334   1.420   0.302  0.0242  1.2281 -0.9288
  626TMC3    H1 9329   0.278   1.583   0.690 -2.4630  0.3285 -0.0894
  626TMC3    H2 9330   0.144   1.805   0.348  0.5781  0.4627  0.0998
  626TMC3    C7 9331   0.123   1.776   0.623 -0.3312 -0.6886 -0.1194
  626TMC3    C8 9332   0.225   1.625   0.175  0.2588 -0.2870 -0.0436
  626TMC3    O1 9333   0.150   1.776   0.742  0.0676 -0.0385  0.2729
  626TMC3    O2 9334   0.211   1.734   0.128 -0.2657  0.4332 -0.4683
  627MPD2     C 9335   3.665   1.494  13.983 -0.5654 -0.5562  0.1858
  627MPD2    C1 9336   3.642   1.532  14.112 -0.0020 -0.8843  0.1217
  627MPD2    C2 9337   3.566   1.458  14.195 -0.7850 -0.3909 -0.2342
  627MPD2    C3 9338   3.517   1.339  14.155 -0.3734  0.7398  0.3472
  627MPD2    C4 9339   3.548   1.300  14.028  0.5217 -0.5683  0.1543
  627MPD2    C5 9340   3.623   1.377  13.947  0.0305  0.4089 -0.1753
  627MPD2     H 9341   3.547   1.486  14.298  0.6820 -3.2149  0.7948
  627MPD2    H1 9342   3.522   1.202  13.989 -0.9251 -0.5907  1.1712
  627MPD2    H2 9343   3.704   1.560  13.906  2.5182 -1.8350  0.6600
  627MPD2    H3 9344   3.650   1.340  13.849 -0.4151 -0.9639  0.2092
  627MPD2     N 9345   3.452   1.261  14.252  0.1480  0.0235  0.3049
  627MPD2    H5 9346   3.437   1.314  14.337  3.0865  0.5593  0.4798
  627MPD2    N1 9347   3.711   1.645  14.163 -0.0073  0.3788  0.3465
  627MPD2    H7 9348   3.721   1.656  14.263  1.1479  1.2936  0.1239
  628TMC3    C1 9349   3.827   1.846  14.169 -0.0516 -0.0057 -1.2413
  628TMC3    C2 9350   3.882   1.797  14.288  0.1996 -0.7004  0.0390
  628TMC3    C3 9351   3.952   1.893  14.358 -0.1659 -0.4093 -0.3420
  628TMC3    C4 9352   3.817   1.976  14.125 -0.2601  0.0530 -0.2058
  628TMC3    C5 9353   3.900   2.059  14.194  0.8669 -0.3827  0.1852
  628TMC3    C6 9354   3.956   2.021  14.312  0.6597 -0.0958 -0.2841
  628TMC3     C 9355   3.771   1.745  14.087 -0.3520 -0.1543 -0.4071
  628TMC3     O 9356   3.749   1.778  13.969  0.2934  0.0315 -0.5460
  628TMC3     H 9357   3.902   1.695  14.322 -1.9950 -1.0369  0.3182
  628TMC3    H1 9358   3.761   1.999  14.035 -2.4289 -3.2679  0.2663
  628TMC3    H2 9359   4.036   2.083  14.350 -0.6230  0.5011  1.4400
  628TMC3    C7 9360   3.866   2.202  14.180 -0.3957  0.0153  0.1387
  628TMC3    C8 9361   4.071   1.843  14.424 -0.1566  0.1176 -0.2801
  628TMC3    O1 9362   3.848   2.273  14.283  0.1315 -0.0642 -0.1376
  628TMC3    O2 9363   4.152   1.773  14.365 -0.3152  0.0053 -0.3765
  629MPD2     C 9364   2.247   4.595  17.179  0.7103  0.4255 -0.0468
  629MPD2    C1 9365   2.246   4.630  17.052  0.7397 -0.0786 -0.2845
  629MPD2    C2 9366   2.180   0.013  17.019 -0.4413  0.3423 -0.1230
  629MPD2    C3 9367   2.118   0.089  17.122  0.2477 -0.0303 -0.2311
  629MPD2    C4 9368   2.125   0.047  17.252  0.3305  0.0618 -0.4318
  629MPD2    C5 9369   2.190   4.663  17.283  0.1207 -0.5273 -0.2907
  629MPD2     H 9370   2.188   0.059  16.921  1.6038 -0.5946 -0.3961
  629MPD2    H1 9371   2.084   0.100  17.337  0.3520  2.0942 -1.6802
  629MPD2    H2 9372   2.305   4.509  17.208 -1.1874 -0.9717 -0.3776
  629MPD2    H3 9373   2.209   4.628  17.385 -0.1734 -0.9295 -0.3739
  629MPD2     N 9374   2.054   0.214  17.090 -0.5705 -0.4020 -0.2119
  629MPD2    H5 9375   2.067   0.239  16.992  2.9211 -0.0539  0.3361
  629MPD2    N1 9376   2.322   4.563  16.958 -0.0409  0.0266 -0.1646
  629MPD2    H7 9377   2.394   4.496  16.984 -1.4012 -0.8674  1.3040
  630TMC3    C1 9378   2.419   4.568  16.735  0.0649 -0.3147 -0.3508
  630TMC3    C2 9379   2.406   4.625  16.610 -0.5986 -0.5788 -0.8774
  630TMC3    C3 9380   2.513   4.687  16.551  0.3929 -0.6355  0.4490
  630TMC3    C4 9381   2.541   4.567  16.796 -0.2976  0.5627  1.0701
  630TMC3    C5 9382   2.645   4.620  16.725  0.1561 -0.4916 -0.8078
  630TMC3    C6 9383   2.637   4.670  16.597  0.1240  0.4155 -0.3677
  630TMC3     C 9384   2.302   4.578  16.823 -0.4887 -0.0142  0.6705
  630TMC3     O 9385   2.205   4.630  16.766  0.0285  0.2340  0.0510
  630TMC3     H 9386   2.307   4.634  16.568 -0.5288 -1.3510 -1.1961
  630TMC3    H1 9387   2.556   4.534  16.898  1.2002  0.8441  0.9314
  630TMC3    H2 9388   2.723   4.709  16.545  2.2652 -0.6626  2.3140
  630TMC3    C7 9389   2.743   4.685  16.807 -0.4833 -0.3208  0.7461
  630TMC3    C8 9390   2.491   0.096  16.530 -0.7123  0.5993 -0.5083
  630TMC3    O1 9391   2.760   4.628  16.916  0.4458  0.7986 -0.2280
  630TMC3    O2 9392   2.588   0.168  16.550 -0.7071 -0.2372 -0.0755
  631MPD2     C 9393   1.066   0.385  15.384  0.4931  0.3347 -0.1730
  631MPD2    C1 9394   1.080   0.525  15.385  0.1579  0.2365 -0.0552
  631MPD2    C2 9395   1.168   0.589  15.472  0.1421  1.0466  0.1647
  631MPD2    C3 9396   1.232   0.510  15.568  0.8029 -0.0844 -0.2496
  631MPD2    C4 9397   1.206   0.372  15.568  0.2462 -0.0285 -0.7945
  631MPD2    C5 9398   1.119   0.316  15.481  0.4113  0.7939 -0.1675
  631MPD2     H 9399   1.194   0.694  15.469  0.4219  0.9338 -1.1404
  631MPD2    H1 9400   1.255   0.307  15.639 -0.7709  0.9713  0.8253
  631MPD2    H2 9401   0.992   0.344  15.317  2.1287 -0.0665 -1.7474
  631MPD2    H3 9402   1.080   0.216  15.492  0.7588  0.7007  0.2132
  631MPD2     N 9403   1.335   0.566  15.650 -0.0055 -0.2895 -0.3146
  631MPD2    H5 9404   1.369   0.656  15.619 -1.2450  0.5203  0.6359
  631MPD2    N1 9405   1.014   0.605  15.289 -0.3014 -0.3317 -0.2533
  631MPD2    H7 9406   0.969   0.563  15.208  0.8143 -1.4410 -0.3040
  632TMC3    C1 9407   0.892   0.787  15.201  0.2144  0.4938  0.8422
  632TMC3    C2 9408   0.771   0.847  15.223 -0.0054  0.7858 -0.2394
  632TMC3    C3 9409   0.706   0.898  15.115 -0.1633 -0.5449  0.1881
  632TMC3    C4 9410   0.942   0.778  15.071 -0.8435 -0.5061  0.1610
  632TMC3    C5 9411   0.875   0.839  14.970  0.0249  0.0614 -0.8312
  632TMC3    C6 9412   0.745   0.891  14.980 -0.4250 -0.2880 -0.9607
  632TMC3     C 9413   0.972   0.736  15.309  0.3280  0.3618  0.4012
  632TMC3     O 9414   0.950   0.792  15.421  0.1449 -0.3575 -0.0273
  632TMC3     H 9415   0.744   0.866  15.327 -1.3035  1.0704 -0.6355
  632TMC3    H1 9416   1.039   0.733  15.058 -0.0154 -0.0537  4.5476
  632TMC3    H2 9417   0.694   0.932  14.893  0.0295  0.7061 -0.7550
  632TMC3    C7 9418   0.944   0.891  14.845 -0.0733  0.3208 -0.3661
  632TMC3    C8 9419   0.582   0.957  15.152 -0.6651  0.4505  0.4650
  632TMC3    O1 9420   0.892   0.964  14.761 -0.2285  0.1919  0.2684
  632TMC3    O2 9421   0.565   0.974  15.274 -0.2090  0.2572  0.9294
  633MPD2     C 9422   0.305   3.350  17.379  0.4365  0.1305 -0.2521
  633MPD2    C1 9423   0.393   3.366  17.279 -0.5775  0.2175  0.0109
  633MPD2    C2 9424   0.521   3.309  17.279 -0.0358 -0.0473  0.5002
  633MPD2    C3 9425   0.549   3.221  17.383  0.0248  0.3543  0.6949
  633MPD2    C4 9426   0.453   3.183  17.470  0.3757 -0.8150  0.2214
  633MPD2    C5 9427   0.328   3.246  17.473  0.2305  0.5225  0.2729
  633MPD2     H 9428   0.588   3.324  17.195 -0.1145  1.3567  0.6892
  633MPD2    H1 9429   0.472   3.103  17.541  0.7142  1.0435  2.2412
  633MPD2    H2 9430   0.212   3.406  17.384 -0.3653 -1.2324 -0.0000
  633MPD2    H3 9431   0.254   3.218  17.547  0.4475 -1.5244 -0.2975
  633MPD2     N 9432   0.673   3.148  17.391 -1.0182  0.3455  0.2167
  633MPD2    H5 9433   0.682   3.068  17.452 -2.4772 -1.9474 -2.6083
  633MPD2    N1 9434   0.363   3.450  17.166  0.2338  0.1860 -0.2200
  633MPD2    H7 9435   0.437   3.467  17.098  1.2353 -1.9539  0.3440
  634TMC3    C1 9436   0.251   3.516  16.973  0.1590 -0.1172  1.4054
  634TMC3    C2 9437   0.279   3.411  16.893  0.0564  0.2087  0.8496
  634TMC3    C3 9438   0.347   3.421  16.773 -0.4155 -0.2642 -0.0069
  634TMC3    C4 9439   0.273   3.641  16.928 -0.2910  0.7513  0.2962
  634TMC3    C5 9440   0.322   3.657  16.802  0.1961  1.0993  1.3440
  634TMC3    C6 9441   0.367   3.552  16.727 -0.3985 -0.7134  0.5348
  634TMC3     C 9442   0.238   3.494  17.122  0.4300  1.1703 -0.0127
  634TMC3     O 9443   0.130   3.491  17.178 -0.4726  0.8201  0.3385
  634TMC3     H 9444   0.282   3.313  16.941  1.4184  1.3498  3.0875
  634TMC3    H1 9445   0.241   3.716  17.000 -1.7581 -1.9731  2.4634
  634TMC3    H2 9446   0.386   3.571  16.622  1.1745 -0.0261  0.9363
  634TMC3    C7 9447   0.340   3.791  16.748  0.4428 -0.3151  0.0102
  634TMC3    C8 9448   0.361   3.305  16.687 -0.3384  0.6535  0.2921
  634TMC3    O1 9449   0.400   3.799  16.646 -0.3383  0.1179  0.3266
  634TMC3    O2 9450   0.323   3.195  16.728  0.3196  0.5466 -0.5173
  635TMC3    C1 9451   0.160   4.044   0.514  0.3560  0.0013 -0.4545
  635TMC3    C2 9452   0.186   3.918   0.462  0.6647 -0.0620  0.1160
  635TMC3    C3 9453   0.103   3.818   0.495 -0.3055 -0.1059 -0.0486
  635TMC3    C4 9454   0.050   4.075   0.598  0.3705 -0.2818 -0.4987
  635TMC3    C5 9455   4.700   3.972   0.630  0.0642  0.8766  0.1734
  635TMC3    C6 9456   4.726   3.843   0.572 -0.1244  0.4095 -0.5636
  635TMC3     C 9457   0.255   4.151   0.500 -0.9824  0.2781  0.1284
  635TMC3     O 9458   0.253   4.252   0.576 -0.1027 -0.1287 -0.3588
  635TMC3     H 9459   0.281   3.898   0.414  0.8871  1.1382  0.0479
  635TMC3    H1 9460   0.045   4.177   0.636 -1.9118 -0.7532  0.4514
  635TMC3    H2 9461   4.655   3.765   0.596  1.6489 -0.6338  1.3318
  635TMC3    C7 9462   4.591   3.997   0.730 -0.3706 -0.1809 -0.5298
  635TMC3    C8 9463   0.129   3.685   0.450  0.9969  0.3247  0.0730
  635TMC3    O1 9464   4.560   3.900   0.799 -0.9367 -0.1021 -0.1284
  635TMC3    O2 9465   0.086   3.600   0.527  0.2749  0.6875 -0.0964
  636MPD2     C 9466   1.393   3.560  16.065 -0.0889 -0.1345  0.1546
  636MPD2    C1 9467   1.447   3.552  16.192  0.0407 -0.6057  0.2684
  636MPD2    C2 9468   1.503   3.430  16.235 -0.4898 -0.1992 -0.2649
  636MPD2    C3 9469   1.504   3.321  16.145  0.1786  0.0098 -0.0723
  636MPD2    C4 9470   1.453   3.333  16.013  0.2139  0.2110  0.3197
  636MPD2    C5 9471   1.394   3.454  15.981 -0.0770  0.5235  0.3413
  636MPD2     H 9472   1.551   3.420  16.331  1.7758 -1.5636 -1.5268
  636MPD2    H1 9473   1.467   3.256  15.938 -3.2496  0.0847 -0.1780
  636MPD2    H2 9474   1.359   3.649  16.014  0.9793 -0.6726 -1.5104
  636MPD2    H3 9475   1.353   3.468  15.882 -0.2759 -1.5860  0.1253
  636MPD2     N 9476   1.568   3.205  16.190 -0.3753  0.0883 -0.1148
  636MPD2    H5 9477   1.603   3.204  16.285 -4.5601 -0.4773  1.4098
  636MPD2    N1 9478   1.459   3.668  16.277 -0.1662  1.0326  0.4050
  636MPD2    H7 9479   1.511   3.658  16.363 -1.1937 -2.3384  0.6177
  637TMC3    C1 9480   1.641   2.982  16.201  0.0643  0.4240  0.3266
  637TMC3    C2 9481   1.643   2.995  16.338  0.2121 -0.0636  0.2166
  637TMC3    C3 9482   1.756   2.953  16.402  0.2956 -0.5476  0.2459
  637TMC3    C4 9483   1.734   2.907  16.129 -0.5885 -0.0033  0.9003
  637TMC3    C5 9484   1.848   2.874  16.195  0.8897  0.0230  0.4452
  637TMC3    C6 9485   1.858   2.893  16.331 -0.0294  0.8083  0.1181
  637TMC3     C 9486   1.581   3.090  16.119 -0.3848 -0.0558 -0.2528
  637TMC3     O 9487   1.551   3.051  16.005 -0.3023  0.9728 -0.4019
  637TMC3     H 9488   1.556   3.040  16.385  0.9092  0.7520  0.7190
  637TMC3    H1 9489   1.713   2.890  16.024 -1.9476  1.2312  0.9757
  637TMC3    H2 9490   1.948   2.871  16.388  0.4261 -1.6299 -1.5163
  637TMC3    C7 9491   1.969   2.926  16.138  0.2135 -0.3919 -0.3833
  637TMC3    C8 9492   1.806   3.061  16.482 -0.4284 -0.0793 -0.9354
  637TMC3    O1 9493   2.063   2.959  16.210 -0.0742  0.6164  0.4143
  637TMC3    O2 9494   1.737   3.160  16.465  0.6308 -0.6306  0.3182
  638MPD2     C 9495   1.214   2.584  14.924  0.2376 -1.1310 -0.7663
  638MPD2    C1 9496   1.188   2.479  14.833 -0.1039  0.0016 -0.4225
  638MPD2    C2 9497   1.171   2.347  14.880 -0.2786  0.3901  0.0335
  638MPD2    C3 9498   1.206   2.320  15.012  0.0436 -0.8434  1.0050
  638MPD2    C4 9499   1.241   2.426  15.097  0.5983  0.4105 -0.0765
  638MPD2    C5 9500   1.243   2.553  15.055  0.0651  0.1225 -0.5099
  638MPD2     H 9501   1.159   2.263  14.812 -0.3459  0.9055 -0.5981
  638MPD2    H1 9502   1.259   2.419  15.203 -1.4364 -0.1516  0.2494
  638MPD2    H2 9503   1.231   2.687  14.894  0.9959 -1.2504 -0.7551
  638MPD2    H3 9504   1.276   2.632  15.121  1.5178  0.3725 -1.5483
  638MPD2     N 9505   1.203   2.188  15.055 -0.7001  0.7385 -0.6599
  638MPD2    H5 9506   1.181   2.119  14.984  0.3525 -0.0790 -0.1875
  638MPD2    N1 9507   1.183   2.526  14.700 -0.0885  0.0252  0.7982
  638MPD2    H7 9508   1.222   2.618  14.683  1.1687 -0.5998  0.2116
  639TMC3    C1 9509   1.281   1.995  15.169 -0.1326 -0.5043  0.3705
  639TMC3    C2 9510   1.224   1.922  15.073 -0.0520 -0.6034  0.2418
  639TMC3    C3 9511   1.221   1.792  15.095 -0.3492 -0.1270 -0.5748
  639TMC3    C4 9512   1.338   1.940  15.279 -0.1161 -0.5957  0.0855
  639TMC3    C5 9513   1.333   1.803  15.299  0.2222  0.0883 -0.1956
  639TMC3    C6 9514   1.266   1.728  15.207  0.6750  0.4393  0.1129
  639TMC3     C 9515   1.268   2.140  15.164  0.4572 -0.6104  0.8576
  639TMC3     O 9516   1.329   2.200  15.252 -0.4145  0.4389 -0.2764
  639TMC3     H 9517   1.184   1.968  14.983 -0.6226  0.1219  0.8631
  639TMC3    H1 9518   1.395   2.003  15.347 -1.3408  1.6284 -0.9371
  639TMC3    H2 9519   1.250   1.621  15.217  0.0737  0.5102 -0.1184
  639TMC3    C7 9520   1.433   1.732  15.376  0.3634 -0.0949 -0.2394
  639TMC3    C8 9521   1.177   1.709  14.977  0.5195  0.5450 -0.2865
  639TMC3    O1 9522   1.420   1.613  15.405 -0.2351 -0.0301 -0.9698
  639TMC3    O2 9523   1.194   1.756  14.866 -0.5218 -0.5470  0.6151
  640MPD2     C 9524   1.000   0.544   9.501  0.8596  0.6346  0.6236
  640MPD2    C1 9525   0.875   0.597   9.469 -0.4554 -0.6139 -0.0191
  640MPD2    C2 9526   0.806   0.694   9.535  0.5826  0.4161 -0.0899
  640MPD2    C3 9527   0.877   0.762   9.634  0.0335 -0.2798  0.2668
  640MPD2    C4 9528   1.002   0.715   9.668 -0.3320 -0.1666 -0.0411
  640MPD2    C5 9529   1.057   0.606   9.610 -0.4462 -0.6336  0.1492
  640MPD2     H 9530   0.708   0.730   9.503 -0.0430 -0.7819  0.4585
  640MPD2    H1 9531   1.059   0.754   9.751  0.9439 -1.0372 -0.4911
  640MPD2    H2 9532   1.045   0.453   9.464  0.0849  0.8449 -0.8369
  640MPD2    H3 9533   1.155   0.574   9.643 -1.9278 -2.5767  2.6712
  640MPD2     N 9534   0.828   0.865   9.716  0.3298  0.3058  0.4819
  640MPD2    H5 9535   0.886   0.906   9.790  0.8677  0.0327  0.2115
  640MPD2    N1 9536   0.814   0.536   9.358 -0.1072 -0.0787  0.7084
  640MPD2    H7 9537   0.865   0.451   9.335 -0.3255 -0.4572  1.6279
  641TMC3    C1 9538   0.670   0.473   9.194 -0.5384  0.1739  0.0901
  641TMC3    C2 9539   0.753   0.362   9.166  0.2240 -0.3973  0.5299
  641TMC3    C3 9540   0.699   0.271   9.087  0.2735 -0.2658  0.7239
  641TMC3    C4 9541   0.536   0.482   9.155 -0.1395 -1.0288  0.5207
  641TMC3    C5 9542   0.478   0.374   9.096  0.7952 -0.1324  0.2244
  641TMC3    C6 9543   0.564   0.272   9.059 -0.0219  0.1150 -0.2997
  641TMC3     C 9544   0.711   0.572   9.288 -0.3833  0.0268 -0.5924
  641TMC3     O 9545   0.637   0.667   9.303 -0.1689  0.2702 -0.1191
  641TMC3     H 9546   0.860   0.376   9.176  0.0599  1.0345  0.1825
  641TMC3    H1 9547   0.488   0.579   9.161 -1.9952 -1.9774  0.8889
  641TMC3    H2 9548   0.521   0.193   8.998  0.9933 -0.1175 -0.7037
  641TMC3    C7 9549   0.342   0.376   9.047 -0.0916  0.3904  0.6063
  641TMC3    C8 9550   0.758   0.145   9.061  0.3062 -0.2304 -1.0188
  641TMC3    O1 9551   0.310   0.293   8.965 -0.1788 -0.5978  0.0392
  641TMC3    O2 9552   0.678   0.054   9.063 -0.0418  0.5196 -0.2466
  642TMC3    C1 9553   2.639   1.873  12.401 -0.0486  0.4551 -0.2729
  642TMC3    C2 9554   2.740   1.849  12.489 -0.4579  0.6260  0.0152
  642TMC3    C3 9555   2.777   1.724  12.517 -0.0020  0.2817  0.6157
  642TMC3    C4 9556   2.567   1.768  12.356  0.4069 -0.6881  0.3656
  642TMC3    C5 9557   2.598   1.640  12.396 -0.5427  0.0646  0.7303
  642TMC3    C6 9558   2.706   1.617  12.480 -0.1246 -0.4797 -0.0385
  642TMC3     C 9559   2.599   2.010  12.368 -0.0040  0.7838  0.3660
  642TMC3     O 9560   2.680   2.100  12.368 -0.2944 -0.4504  0.4819
  642TMC3     H 9561   2.793   1.937  12.525  1.1813 -0.0693 -0.6837
  642TMC3    H1 9562   2.495   1.787  12.277  0.5999 -0.3720  0.2668
  642TMC3    H2 9563   2.746   1.518  12.501  0.6275 -0.4932 -1.5547
  642TMC3    C7 9564   2.520   1.527  12.342  1.2546  0.6925 -0.0314
  642TMC3    C8 9565   2.918   1.709  12.527  0.2268 -0.1939 -0.4203
  642TMC3    O1 9566   2.466   1.540  12.233 -0.1373  0.0429  0.2902
  642TMC3    O2 9567   2.972   1.615  12.465  0.2521 -0.3986  0.0066
  643TMC3    C1 9568   1.979   1.659   0.317 -0.0477 -0.2461 -0.2206
  643TMC3    C2 9569   1.853   1.626   0.294  0.4352 -0.2127  0.2962
  643TMC3    C3 9570   1.832   1.517   0.212  0.1312  0.2899  0.3130
  643TMC3    C4 9571   2.085   1.593   0.267  0.2764  0.5041 -0.2919
  643TMC3    C5 9572   2.067   1.492   0.181  0.5523 -0.1436 -0.1169
  643TMC3    C6 9573   1.937   1.452   0.144  0.4544  0.2869 -0.0152
  643TMC3     C 9574   2.004   1.758   0.422  0.2657  0.0151  0.9044
  643TMC3     O 9575   1.934   1.858   0.410 -0.5692  0.8753  0.2492
  643TMC3     H 9576   1.773   1.666   0.355 -0.5619  0.6070 -1.5422
  643TMC3    H1 9577   2.185   1.632   0.281  0.5843 -0.4312  0.0452
  643TMC3    H2 9578   1.922   1.382   0.063 -0.3645 -0.3190  0.6546
  643TMC3    C7 9579   2.167   1.484   0.076  0.8908 -0.6780 -0.7606
  643TMC3    C8 9580   1.733   1.549   0.111  0.1985 -0.0099 -0.0865
  643TMC3    O1 9581   2.237   1.581   0.043  0.4458  0.0812 -0.7015
  643TMC3    O2 9582   1.647   1.474   0.076 -0.5134 -0.3443  0.2958
  644MPD2     C 9583   0.848   0.590   8.887 -0.1446 -0.1326 -0.2027
  644MPD2    C1 9584   0.815   0.487   8.806  0.4226  0.7047 -0.1589
  644MPD2    C2 9585   0.686   0.475   8.765 -0.8382 -0.2631  0.0060
  644MPD2    C3 9586   0.589   0.566   8.795  0.0469  0.1968 -0.1604
  644MPD2    C4 9587   0.632   0.670   8.873  0.0865 -0.0914  0.1510
  644MPD2    C5 9588   0.759   0.685   8.926  0.3571  0.4886 -0.2807
  644MPD2     H 9589   0.661   0.380   8.718  0.4383  0.3636 -1.9332
  644MPD2    H1 9590   0.553   0.736   8.907  0.7747  1.4413 -1.2708
  644MPD2    H2 9591   0.942   0.598   8.941 -0.3391  1.7414 -0.1448
  644MPD2    H3 9592   0.781   0.763   8.998  1.3280  0.7843 -0.9087
  644MPD2     N 9593   0.455   0.542   8.757  0.2303  0.2553 -0.4062
  644MPD2    H5 9594   0.442   0.456   8.704  0.5650 -0.0092 -0.0576
  644MPD2    N1 9595   0.922   0.392   8.782 -0.2464  0.2843  0.4256
  644MPD2    H7 9596   1.010   0.416   8.826 -0.9563 -1.1415  2.6039
  645TMC3    C1 9597   0.226   0.569   8.722  0.2057 -0.1419 -0.2903
  645TMC3    C2 9598   0.215   0.435   8.716  0.1508  1.0190  0.2144
  645TMC3    C3 9599   0.091   0.380   8.686  0.2853 -0.1407  0.4340
  645TMC3    C4 9600   0.117   0.649   8.698  0.9167 -0.2706 -0.5905
  645TMC3    C5 9601   4.725   0.595   8.674 -0.3931  0.8848  0.0244
  645TMC3    C6 9602   4.715   0.456   8.665  0.1477 -0.5849 -0.2655
  645TMC3     C 9603   0.348   0.628   8.775  0.3331 -0.0885 -0.5625
  645TMC3     O 9604   0.351   0.745   8.811  0.2640  0.0921 -0.0891
  645TMC3     H 9605   0.292   0.371   8.757  1.2143  1.3508 -1.2998
  645TMC3    H1 9606   0.144   0.754   8.702 -2.6425  0.6801 -0.9722
  645TMC3    H2 9607   4.620   0.409   8.644 -0.3461 -0.3343  1.4818
  645TMC3    C7 9608   4.605   0.674   8.722 -0.1076  0.3017  0.1151
  645TMC3    C8 9609   0.062   0.233   8.685  0.0543 -0.1291 -0.3091
  645TMC3    O1 9610   4.629   0.792   8.731 -0.6869  0.3124 -0.4330
  645TMC3    O2 9611   4.703   0.199   8.612  0.0716  0.0708 -0.4873
  646MPD2     C 9612   1.930   1.101  14.645 -0.5976  0.4252  0.2885
  646MPD2    C1 9613   1.805   1.085  14.704 -0.6852  0.3915  0.2821
  646MPD2    C2 9614   1.691   1.119  14.638  0.7289 -0.3033 -0.0550
  646MPD2    C3 9615   1.701   1.169  14.511  0.1304 -0.4229 -0.3856
  646MPD2    C4 9616   1.828   1.188  14.448 -0.5601 -0.2283  0.2638
  646MPD2    C5 9617   1.943   1.141  14.510 -0.3417  0.1808 -0.1953
  646MPD2     H 9618   1.589   1.115  14.674  0.1952 -0.5248 -1.5610
  646MPD2    H1 9619   1.841   1.223  14.346 -2.2959 -2.0792 -0.5988
  646MPD2    H2 9620   2.019   1.068  14.697 -0.2181 -0.2831 -0.8165
  646MPD2    H3 9621   2.038   1.140  14.458  0.3685 -0.2995  1.1125
  646MPD2     N 9622   1.577   1.183  14.437 -0.3218  0.6145 -0.0507
  646MPD2    H5 9623   1.497   1.171  14.498  0.4897 -1.0699  0.6728
  646MPD2    N1 9624   1.799   1.033  14.836  0.1881 -0.1307  0.1176
  646MPD2    H7 9625   1.891   1.013  14.876 -0.2329  0.9137  1.6093
  647TMC3    C1 9626   1.718   0.954  15.048 -0.1943 -0.7418  0.5570
  647TMC3    C2 9627   1.629   0.870  15.109 -0.7437  0.2640 -0.2830
  647TMC3    C3 9628   1.655   0.836  15.240  0.2862 -0.7756 -0.3740
  647TMC3    C4 9629   1.839   0.988  15.104  0.5619  0.3672  0.6379
  647TMC3    C5 9630   1.856   0.959  15.235 -0.3534  0.4870  0.5305
  647TMC3    C6 9631   1.763   0.892  15.304  0.2466 -0.3378 -0.0382
  647TMC3     C 9632   1.695   0.997  14.913  0.0420  0.5567 -0.5722
  647TMC3     O 9633   1.574   1.006  14.892  0.1445  0.7809 -0.4407
  647TMC3     H 9634   1.542   0.836  15.055  0.5653 -2.7999 -0.4820
  647TMC3    H1 9635   1.910   1.048  15.048 -0.2468  0.1059 -0.6475
  647TMC3    H2 9636   1.784   0.854  15.403  1.1988  0.7432  0.1784
  647TMC3    C7 9637   1.987   0.932  15.294  0.4775 -0.6495  0.4584
  647TMC3    C8 9638   1.593   0.724  15.302 -0.4020  0.3801  0.6469
  647TMC3    O1 9639   1.995   0.831  15.363 -0.5133  0.0976 -0.0934
  647TMC3    O2 9640   1.591   0.720  15.426 -0.5389  0.8094  0.1375
  648TMC3    C1 9641   0.796   3.346  16.193 -0.3568  0.3930 -0.8615
  648TMC3    C2 9642   0.881   3.253  16.151  0.0827  0.0737 -0.1340
  648TMC3    C3 9643   0.904   3.248  16.010 -0.7505 -0.5215  0.2387
  648TMC3    C4 9644   0.749   3.447  16.115  0.5666 -0.0018  0.0087
  648TMC3    C5 9645   0.771   3.435  15.980 -0.6511 -0.4356  0.2595
  648TMC3    C6 9646   0.853   3.338  15.924  0.2879 -0.0106 -0.8423
  648TMC3     C 9647   0.800   3.386  16.337  0.1244  0.1339  0.0356
  648TMC3     O 9648   0.816   3.509  16.359 -0.4039 -0.5857 -0.2756
  648TMC3     H 9649   0.943   3.192  16.216 -0.5639 -0.3600  0.0696
  648TMC3    H1 9650   0.684   3.523  16.156  1.3558  0.6341  0.0843
  648TMC3    H2 9651   0.873   3.328  15.818  3.0334 -1.4121 -0.1775
  648TMC3    C7 9652   0.726   3.541  15.891  0.3750  0.0711  0.5307
  648TMC3    C8 9653   0.962   3.122  15.963 -0.5280 -0.2196 -0.3151
  648TMC3    O1 9654   0.727   3.526  15.768 -0.5229  0.2572  0.0057
  648TMC3    O2 9655   0.998   3.117  15.848 -0.0447  0.3494  0.3522
  649TMC3    C1 9656   3.892   4.043  13.478 -0.1086  0.2514 -0.1943
  649TMC3    C2 9657   4.013   4.102  13.483 -0.1468 -0.2104  0.3116
  649TMC3    C3 9658   4.091   4.078  13.592 -0.0644 -0.0801  0.2800
  649TMC3    C4 9659   3.839   3.978  13.584 -0.7860  0.6776  0.6689
  649TMC3    C5 9660   3.920   3.949  13.693 -0.3338 -0.3076 -0.0976
  649TMC3    C6 9661   4.044   4.011  13.698 -0.6468 -0.5703 -1.5788
  649TMC3     C 9662   3.820   4.048  13.349  0.3912 -0.0500  0.0338
  649TMC3     O 9663   3.827   4.152  13.284  0.1011  0.1197 -0.2153
  649TMC3     H 9664   4.054   4.164  13.404  0.5006  0.1602  0.9311
  649TMC3    H1 9665   3.738   3.939  13.581 -0.6185  0.4403 -1.9554
  649TMC3    H2 9666   4.103   3.999  13.788  0.3285  1.2179 -1.9670
  649TMC3    C7 9667   3.859   3.920  13.819  0.6719 -0.3058  0.6103
  649TMC3    C8 9668   4.233   4.098  13.589  0.1591 -0.5057 -0.7982
  649TMC3    O1 9669   3.916   3.959  13.918  0.2100 -0.1834 -0.5110
  649TMC3    O2 9670   4.291   4.053  13.684  0.7847  0.3699  0.4273
  650TMC3    C1 9671   1.903   1.157  12.906  0.1477  0.3206  0.7616
  650TMC3    C2 9672   1.884   1.294  12.902 -0.7705 -0.4705  0.5111
  650TMC3    C3 9673   1.821   1.348  12.794  0.1118 -0.0360  0.4006
  650TMC3    C4 9674   1.862   1.073  12.799 -0.1341  0.6563 -0.4162
  650TMC3    C5 9675   1.786   1.139  12.702 -0.2247  0.2181 -0.2260
  650TMC3    C6 9676   1.782   1.271  12.690 -0.4793 -0.3604  0.3725
  650TMC3     C 9677   1.995   1.092  13.010 -0.5743 -0.4106 -0.6541
  650TMC3     O 9678   2.049   1.172  13.087 -0.2740 -0.2903  0.2904
  650TMC3     H 9679   1.925   1.359  12.978  1.4818  0.3305 -1.3839
  650TMC3    H1 9680   1.868   0.966  12.786  1.4569  0.6572  0.2570
  650TMC3    H2 9681   1.763   1.326  12.598  0.8378 -1.1036 -0.3437
  650TMC3    C7 9682   1.778   1.064  12.572 -0.1288 -0.3441  0.4758
  650TMC3    C8 9683   1.774   1.487  12.808  0.7018 -0.1164 -0.1794
  650TMC3    O1 9684   1.861   0.972  12.560  0.1876 -0.4591  0.6219
  650TMC3    O2 9685   1.818   1.549  12.902 -0.4236 -0.0774  0.1618
  651MPD2     C 9686   0.733   2.425  10.671 -0.0417 -0.2350 -0.4794
  651MPD2    C1 9687   0.704   2.553  10.624  0.4573 -0.2387 -0.4276
  651MPD2    C2 9688   0.802   2.653  10.635 -0.3421  0.5195 -0.5811
  651MPD2    C3 9689   0.928   2.632  10.679  0.3943 -0.3792  0.0620
  651MPD2    C4 9690   0.957   2.507  10.722 -0.2993 -0.4053  0.7131
  651MPD2    C5 9691   0.861   2.404  10.722  0.2221  0.0811 -0.2661
  651MPD2     H 9692   0.768   2.751  10.602 -0.0267  1.3583  1.5797
  651MPD2    H1 9693   1.054   2.486  10.767 -0.2174  2.3522  1.8453
  651MPD2    H2 9694   0.664   2.341  10.674 -1.0627  0.6616  1.5523
  651MPD2    H3 9695   0.887   2.310  10.769  2.0509  0.2129 -1.0268
  651MPD2     N 9696   1.022   2.736  10.660 -0.1114 -1.3588 -0.3510
  651MPD2    H5 9697   0.979   2.817  10.616 -0.6607 -0.6640  1.4577
  651MPD2    N1 9698   0.584   2.582  10.556 -0.2516 -0.1634 -0.0787
  651MPD2    H7 9699   0.581   2.673  10.511 -1.3759  0.2319  0.8156
  652TMC3    C1 9700   1.377   3.017  10.770 -0.5230 -0.5117  0.1717
  652TMC3    C2 9701   1.339   2.891  10.743 -0.2996 -0.1125 -0.0147
  652TMC3    C3 9702   1.219   2.874  10.672 -0.2474  0.0545 -0.4686
  652TMC3    C4 9703   1.304   3.128  10.725  0.0651 -0.2179  0.2595
  652TMC3    C5 9704   1.189   3.101  10.657 -1.0362 -0.2226  0.5475
  652TMC3    C6 9705   1.140   2.979  10.639 -0.2760  0.0819  0.2119
  652TMC3     C 9706   1.521   3.036  10.799 -1.3887 -0.2393  0.2082
  652TMC3     O 9707   1.592   2.948  10.851 -0.3408  0.0970  0.0186
  652TMC3     H 9708   1.403   2.808  10.772 -0.7270 -0.3847  0.1507
  652TMC3    H1 9709   1.327   3.231  10.749 -1.5848  0.0917  0.4849
  652TMC3    H2 9710   1.045   2.976  10.587  0.3562 -3.1125 -0.7204
  652TMC3    C7 9711   1.100   3.206  10.623  0.0094 -0.4142  0.7742
  652TMC3    C8 9712   1.155   2.744  10.697 -0.5370  0.0650  0.3827
  652TMC3    O1 9713   0.982   3.186  10.640 -0.5336  0.1308  0.2372
  652TMC3    O2 9714   1.217   2.658  10.747  0.5605 -0.0954  0.3078
  653MPD2     C 9715   0.025   3.159  17.715  0.2886 -0.8473 -0.2762
  653MPD2    C1 9716   4.705   3.265  17.635 -0.5341  0.0440  0.3796
  653MPD2    C2 9717   4.681   3.237  17.504  0.6925  1.0045  0.0967
  653MPD2    C3 9718   4.677   3.106  17.456 -0.4762 -0.1333 -0.2789
  653MPD2    C4 9719   4.705   3.004  17.544 -0.2827  0.2387  0.1222
  653MPD2    C5 9720   0.013   3.033  17.671  0.6508 -0.0418  0.4482
  653MPD2     H 9721   4.673   3.317  17.432 -0.8343  2.0723  1.4259
  653MPD2    H1 9722   4.708   2.899  17.518  0.3029 -0.1615  1.7692
  653MPD2    H2 9723   0.059   3.171   0.079 -0.9463  0.5384 -0.0253
  653MPD2    H3 9724   0.048   2.959   0.004 -0.0114 -0.8715 -0.0834
  653MPD2     N 9725   4.644   3.088  17.318  0.2026 -0.0924  0.4169
  653MPD2    H5 9726   4.608   3.173  17.274  2.4154  0.3967 -0.4253
  653MPD2    N1 9727   4.707   3.403  17.683 -0.1918  0.6178  0.3489
  653MPD2    H7 9728   4.692   3.482  17.621 -1.1476  1.6085  1.8282
  654TMC3    C1 9729   4.586   2.951  17.123 -0.5469 -0.5775  0.1247
  654TMC3    C2 9730   4.515   3.053  17.069  0.0352 -0.2717 -0.2662
  654TMC3    C3 9731   4.452   3.019  16.949  0.0582  0.4761  0.0509
  654TMC3    C4 9732   4.607   2.834  17.059  0.0190  0.5555  0.7501
  654TMC3    C5 9733   4.546   2.805  16.939  0.6345 -0.1814  0.5781
  654TMC3    C6 9734   4.470   2.902  16.877  0.3540 -0.4281 -0.3093
  654TMC3     C 9735   4.648   2.964  17.258 -1.3362 -0.5646  0.6423
  654TMC3     O 9736   4.706   2.868  17.306 -0.3679 -0.0644 -0.2661
  654TMC3     H 9737   4.490   3.145  17.120  1.6017 -1.3973  2.4635
  654TMC3    H1 9738   4.674   2.758  17.097 -2.4917 -2.5957 -1.1097
  654TMC3    H2 9739   4.426   2.901  16.778 -0.4486 -1.3610  0.0530
  654TMC3    C7 9740   4.603   2.710  16.846 -0.0059  0.1021  0.3610
  654TMC3    C8 9741   4.365   3.116  16.887 -0.0471  0.9299 -0.4090
  654TMC3    O1 9742   4.589   2.748  16.731  0.2955  0.0037 -0.0535
  654TMC3    O2 9743   4.299   3.076  16.797  0.6574 -1.1026  0.8953
  655MPD2     C 9744   1.197   3.329  15.473 -0.1018 -0.3692 -0.3413
  655MPD2    C1 9745   1.112   3.432  15.436 -0.5712  0.1686 -0.4873
  655MPD2    C2 9746   1.049   3.436  15.310  0.3897 -0.0833  0.3577
  655MPD2    C3 9747   1.077   3.341  15.214  0.6987  0.0799  0.1350
  655MPD2    C4 9748   1.163   3.239  15.250 -0.4801  0.5295  0.1505
  655MPD2    C5 9749   1.220   3.233  15.374 -0.5032 -0.4238  0.1700
  655MPD2     H 9750   0.979   3.518  15.293 -1.3985 -1.7562 -0.3108
  655MPD2    H1 9751   1.195   3.155  15.189  0.1542  0.6449  0.3258
  655MPD2    H2 9752   1.260   3.334  15.561  1.1644  2.4155 -1.3940
  655MPD2    H3 9753   1.289   3.150  15.382 -0.1041 -0.2411 -1.4658
  655MPD2     N 9754   1.043   3.344  15.079 -0.8466 -0.1083 -0.1696
  655MPD2    H5 9755   1.082   3.275  15.016  0.5278  0.7233 -0.2326
  655MPD2    N1 9756   1.089   3.544  15.518 -0.5352  0.5487 -0.0120
  655MPD2    H7 9757   1.045   3.621  15.468 -1.2718  0.1322 -0.0105
  656TMC3    C1 9758   1.099   3.676  15.713 -0.4138 -0.3457  0.0234
  656TMC3    C2 9759   1.077   3.677  15.848 -0.1057 -0.0685 -0.3203
  656TMC3    C3 9760   1.062   3.801  15.922  0.2668  0.3418 -0.2928
  656TMC3    C4 9761   1.130   3.790  15.647  0.4791 -0.1990  0.3022
  656TMC3    C5 9762   1.101   3.909  15.714  0.4367  1.0008 -0.0591
  656TMC3    C6 9763   1.075   3.919  15.852 -0.2236 -0.2594 -0.7782
  656TMC3     C 9764   1.126   3.547  15.653  1.1467 -0.3209  0.0212
  656TMC3     O 9765   1.157   3.458  15.730  0.5430  0.0688  0.0633
  656TMC3     H 9766   1.044   3.590  15.903  0.2558 -0.9638 -1.5188
  656TMC3    H1 9767   1.166   3.785  15.545  1.1985 -1.6201  0.6264
  656TMC3    H2 9768   1.041   4.011  15.899  0.2278  0.3387 -1.6208
  656TMC3    C7 9769   1.088   4.025  15.628 -0.4607  0.8098  0.2485
  656TMC3    C8 9770   0.998   3.798  16.053 -0.3643  0.6906 -0.3045
  656TMC3    O1 9771   1.104   4.001  15.509 -0.2775 -0.4010 -0.1063
  656TMC3    O2 9772   0.956   3.697  16.106  0.0145 -0.2269 -0.8099
  657TMC3    C1 9773   4.645   2.765  14.815  0.0368  0.1026  0.2059
  657TMC3    C2 9774   4.713   2.814  14.921 -0.6886  0.2645  0.1958
  657TMC3    C3 9775   4.685   2.942  14.948  0.3619 -0.6971  0.0139
  657TMC3    C4 9776   4.573   2.839  14.733 -0.8117 -0.8230 -0.0173
  657TMC3    C5 9777   4.551   2.970  14.756 -0.4175  0.5068 -0.2758
  657TMC3    C6 9778   4.606   3.025  14.869  0.8290 -0.4838 -0.0415
  657TMC3     C 9779   4.657   2.621  14.783  0.3190 -0.5936  0.3833
  657TMC3     O 9780   4.568   2.561  14.726  0.4655  0.6621 -0.7427
  657TMC3     H 9781   0.033   2.748  14.988  1.3430 -0.4500 -2.1776
  657TMC3    H1 9782   4.533   2.788  14.647  0.9992  0.3937 -1.5806
  657TMC3    H2 9783   4.595   3.131  14.886 -1.5358 -0.8578  0.7978
  657TMC3    C7 9784   4.449   3.044  14.685  0.6284 -0.7703  0.2392
  657TMC3    C8 9785   0.039   3.003  15.049  0.5288  0.3194  0.3978
  657TMC3    O1 9786   4.419   3.148  14.745  0.2366  0.1220 -0.6839
  657TMC3    O2 9787   0.124   2.930  15.096  0.2640 -0.9968 -0.7165
  658MPD2     C 9788   1.432   3.590  14.570  0.3578 -0.3559  0.0613
  658MPD2    C1 9789   1.318   3.533  14.526 -0.5053  0.2388 -0.7208
  658MPD2    C2 9790   1.314   3.483  14.396 -0.0660  0.2829 -0.1500
  658MPD2    C3 9791   1.426   3.487  14.319  0.2046  0.1485 -0.2366
  658MPD2    C4 9792   1.544   3.541  14.363  0.8072  0.3867 -0.1953
  658MPD2    C5 9793   1.547   3.600  14.486  0.1852 -0.9936 -0.2197
  658MPD2     H 9794   1.223   3.436  14.361  0.4407 -0.3676 -0.5837
  658MPD2    H1 9795   1.640   3.551  14.313 -0.2155 -1.3876 -2.4789
  658MPD2    H2 9796   1.429   3.626  14.672 -0.8568  0.2582 -0.1956
  658MPD2    H3 9797   1.643   3.643  14.512 -1.1389  1.1962  1.0581
  658MPD2     N 9798   1.407   3.418  14.194  0.5114  0.2420  0.4348
  658MPD2    H5 9799   1.322   3.364  14.190 -0.1056  1.2015  0.5095
  658MPD2    N1 9800   1.218   3.504  14.619  0.3469 -0.2979  0.2724
  658MPD2    H7 9801   1.247   3.510  14.716 -0.2060 -1.2131  0.4996
  659TMC3    C1 9802   0.995   3.417  14.681  0.2795 -0.3144  0.3270
  659TMC3    C2 9803   1.016   3.422  14.816  0.1381 -1.0440  0.0621
  659TMC3    C3 9804   0.911   3.402  14.898  0.8157  0.3423  0.3394
  659TMC3    C4 9805   0.867   3.385  14.629 -0.3358  0.0631 -0.8738
  659TMC3    C5 9806   0.770   3.375  14.719  0.2138  0.2408  0.4748
  659TMC3    C6 9807   0.784   3.396  14.849 -0.0787 -0.1538  0.5541
  659TMC3     C 9808   1.087   3.463  14.576 -0.4383 -0.5559 -0.0343
  659TMC3     O 9809   1.038   3.474  14.465 -0.8573 -0.3294  0.2646
  659TMC3     H 9810   1.116   3.427  14.856 -0.2296 -0.6807  0.9476
  659TMC3    H1 9811   0.857   3.382  14.521 -1.7407  1.1436 -0.7677
  659TMC3    H2 9812   0.700   3.420  14.913 -0.6242  1.6669 -0.8232
  659TMC3    C7 9813   0.641   3.326  14.686 -0.0822  0.0063 -0.4620
  659TMC3    C8 9814   0.938   3.419  15.036 -0.3765 -0.1371  0.4399
  659TMC3    O1 9815   0.547   3.325  14.762  0.0315 -0.1200 -0.5273
  659TMC3    O2 9816   0.844   3.470  15.094  0.0177 -0.1794  0.0938
  660MPD2     C 9817   4.030   1.713  12.581  0.0628 -0.0580  0.3440
  660MPD2    C1 9818   3.957   1.816  12.631  0.0119  0.1002  1.0802
  660MPD2    C2 9819   3.887   1.809  12.752  0.0202 -0.4094 -0.1865
  660MPD2    C3 9820   3.901   1.686  12.829  0.5488 -0.9883 -0.7140
  660MPD2    C4 9821   3.974   1.580  12.771  0.0046  0.0368  0.5830
  660MPD2    C5 9822   4.044   1.601  12.656  0.0941  0.8942  0.2701
  660MPD2     H 9823   3.834   1.899  12.780  1.0723  1.1780 -3.2901
  660MPD2    H1 9824   3.992   1.494  12.834 -2.3664 -1.2928 -0.5792
  660MPD2    H2 9825   4.084   1.722  12.487  0.9059  0.2587  0.8603
  660MPD2    H3 9826   4.114   1.521  12.633 -1.1172 -0.3003  0.7382
  660MPD2     N 9827   3.848   1.662  12.956  0.1575  0.0889  0.1888
  660MPD2    H5 9828   3.842   1.563  12.978 -0.7967  0.1985  0.3804
  660MPD2    N1 9829   3.933   1.931  12.559  0.1476  0.0015  0.9795
  660MPD2    H7 9830   3.871   1.994  12.609 -1.5145 -0.4261 -0.5702
  661TMC3    C1 9831   3.897   2.062  12.375 -0.0124  0.2748  0.3307
  661TMC3    C2 9832   3.923   2.103  12.244 -0.8044 -0.7495  0.7864
  661TMC3    C3 9833   3.820   2.161  12.169 -1.1600 -0.2135 -0.4098
  661TMC3    C4 9834   3.770   2.075  12.428 -0.3952 -0.1319  0.3058
  661TMC3    C5 9835   3.676   2.124  12.346  0.2074 -0.4166 -0.0962
  661TMC3    C6 9836   3.691   2.164  12.218  0.1800 -0.3361  0.2240
  661TMC3     C 9837   3.978   1.960  12.430  0.6381  0.7416 -0.6055
  661TMC3     O 9838   4.073   1.915  12.370 -0.5157 -0.2484  0.2190
  661TMC3     H 9839   4.021   2.109  12.199 -1.2939 -1.1749 -0.3270
  661TMC3    H1 9840   3.735   2.040  12.524  0.2242 -1.0146  0.2119
  661TMC3    H2 9841   3.610   2.198  12.155 -1.4850 -1.3143  1.8294
  661TMC3    C7 9842   3.540   2.091  12.390 -0.1218 -0.3668  0.3465
  661TMC3    C8 9843   3.839   2.235  12.042 -1.0898 -0.3771  0.3445
  661TMC3    O1 9844   3.517   2.078  12.506  0.3360 -0.0789 -0.1647
  661TMC3    O2 9845   3.918   2.195  11.961  0.1909  0.5965  0.0369
  662MPD2     C 9846   4.408   2.074  16.871 -0.3008 -0.0359 -0.0450
  662MPD2    C1 9847   4.392   2.024  16.998 -1.3122  0.7225 -0.0160
  662MPD2    C2 9848   4.294   2.091  17.079  0.1831 -1.0203  0.3034
  662MPD2    C3 9849   4.231   2.205  17.036 -0.2020  0.1375 -0.4037
  662MPD2    C4 9850   4.256   2.257  16.911 -0.2232 -0.0493 -0.4924
  662MPD2    C5 9851   4.344   2.189  16.833 -0.2511 -0.3124 -0.3958
  662MPD2     H 9852   4.273   2.060  17.181  1.1628 -2.5523  0.0465
  662MPD2    H1 9853   4.198   2.338  16.868  1.8638  0.0962 -2.9864
  662MPD2    H2 9854   4.464   2.019  16.797  1.2847 -0.1032  1.2090
  662MPD2    H3 9855   4.364   2.222  16.731 -0.2218  1.1335  0.0837
  662MPD2     N 9856   4.143   2.259  17.126  0.0437 -0.6334 -0.2360
  662MPD2    H5 9857   4.130   2.210  17.214 -2.3496 -1.6511 -1.1292
  662MPD2    N1 9858   4.456   1.909  17.049  0.1142 -0.0189  0.7358
  662MPD2    H7 9859   4.445   1.884  17.147 -0.6335 -1.2597  0.3499
  663TMC3    C1 9860   4.582   1.706  17.041  0.3971 -0.1595 -0.1101
  663TMC3    C2 9861   4.581   1.727  17.174 -0.1196  0.3573  0.7330
  663TMC3    C3 9862   4.561   1.620  17.258  0.7183 -0.5853  0.3668
  663TMC3    C4 9863   4.527   1.592  16.987 -0.2983 -0.0935 -0.0106
  663TMC3    C5 9864   4.497   1.494  17.072  0.2653 -0.1707  0.5918
  663TMC3    C6 9865   4.499   1.509  17.210  0.0516 -0.3087 -0.7100
  663TMC3     C 9866   4.539   1.824  16.966 -0.6067  0.0130 -0.2561
  663TMC3     O 9867   4.545   1.809  16.844  0.2306  0.0941  0.2297
  663TMC3     H 9868   4.630   1.815  17.213  3.0043  0.4516 -3.4194
  663TMC3    H1 9869   4.547   1.577  16.882  0.1476 -2.2157  0.3793
  663TMC3    H2 9870   4.490   1.422  17.274 -0.8890  2.0375  2.3485
  663TMC3    C7 9871   4.403   1.397  17.011 -0.3031  1.1969  0.0241
  663TMC3    C8 9872   4.500   1.653  17.383  0.1960  0.1909  0.1262
  663TMC3    O1 9873   4.363   1.414  16.898  0.0717 -0.0578 -0.4876
  663TMC3    O2 9874   4.569   1.730  17.450  0.6516 -0.3588  0.4306
  664MPD2     C 9875   2.524   4.497  17.533 -0.1457 -0.0803 -0.7396
  664MPD2    C1 9876   2.514   4.632  17.567 -0.2878  0.3870 -0.3774
  664MPD2    C2 9877   2.402   4.677  17.628 -0.4777 -0.8730  0.0419
  664MPD2    C3 9878   2.293   4.590  17.652 -0.1301  0.3982  0.2773
  664MPD2    C4 9879   2.305   4.463  17.611  1.1195  0.8262  0.5652
  664MPD2    C5 9880   2.419   4.414  17.555 -0.0727  0.2134 -0.0675
  664MPD2     H 9881   2.390   0.045  17.661  0.0886 -0.7389 -0.1674
  664MPD2    H1 9882   2.225   4.392  17.628 -0.9936  3.2475  0.7012
  664MPD2    H2 9883   2.608   4.463  17.473  0.5043 -0.1773  0.2203
  664MPD2    H3 9884   2.423   4.311  17.522  2.1787 -0.3945  2.0925
  664MPD2     N 9885   2.181   4.653  17.709 -0.4511  0.1832  0.1787
  664MPD2    H5 9886   2.175   0.018  17.725  0.8628  0.2302  0.3766
  664MPD2    N1 9887   2.615   4.726  17.524 -0.2422  0.0161 -0.4876
  664MPD2    H7 9888   2.581   0.086  17.535  0.5133  0.1908  0.3026
  665TMC3    C1 9889   1.969   4.671   0.058 -0.3587  0.6000  0.8694
  665TMC3    C2 9890   1.900   4.617   0.162 -0.1189  0.2774  0.3404
  665TMC3    C3 9891   1.831   4.704   0.242  0.1683 -0.0429  0.7014
  665TMC3    C4 9892   1.968   0.072   0.036  0.0539 -0.5115 -0.2922
  665TMC3    C5 9893   1.901   0.151   0.122  0.4555 -0.2427  0.1598
  665TMC3    C6 9894   1.840   0.107   0.231  0.3886 -0.2681 -0.2948
  665TMC3     C 9895   2.061   4.587  17.734 -1.0780 -0.3854 -0.6986
  665TMC3     O 9896   2.035   4.471  17.734 -0.1182  0.3516  0.0595
  665TMC3     H 9897   1.905   4.511   0.183 -1.0290 -0.0371 -1.0255
  665TMC3    H1 9898   2.018   0.121  17.691 -1.5040 -0.3166 -1.1175
  665TMC3    H2 9899   1.787   0.168   0.303 -0.9667 -3.0392  1.0428
  665TMC3    C7 9900   1.914   0.295   0.104  0.2645 -0.2574  0.0866
  665TMC3    C8 9901   1.744   4.643   0.345  0.4502 -0.1877  0.3608
  665TMC3    O1 9902   1.890   0.342  17.730 -0.2807 -0.5517  0.1222
  665TMC3    O2 9903   1.708   4.717   0.437  0.2065  0.3836  0.6619
  666TMC3    C1 9904   0.846   0.085   9.871  1.1396 -0.6113  0.1938
  666TMC3    C2 9905   0.944   4.729   9.844  0.7228 -0.1429 -0.2310
  666TMC3    C3 9906   1.070   0.034   9.855  0.3825 -0.3129  0.3920
  666TMC3    C4 9907   0.874   0.217   9.905 -1.2048  0.2025 -0.6167
  666TMC3    C5 9908   1.004   0.255   9.884  0.1756  0.1299  0.5494
  666TMC3    C6 9909   1.106   0.163   9.879  0.2396 -0.3366  0.0570
  666TMC3     C 9910   0.742   0.028   9.963 -0.6795  0.8752 -0.0727
  666TMC3     O 9911   0.734   4.641   9.972 -0.2387 -1.0278 -0.1898
  666TMC3     H 9912   0.923   4.623   9.841  1.7519 -0.3351 -0.6141
  666TMC3    H1 9913   0.807   0.302   9.902 -1.6647 -0.2571 -3.0956
  666TMC3    H2 9914   1.204   0.190   9.916 -0.5516  0.9842  1.1671
  666TMC3    C7 9915   1.038   0.391   9.932  0.0256 -0.4089 -0.8744
  666TMC3    C8 9916   1.172   4.668   9.891 -0.6486  0.0176 -0.0615
  666TMC3    O1 9917   0.950   0.454   9.991 -0.1838 -0.2831 -0.3513
  666TMC3    O2 9918   1.116   4.558   9.916 -0.3167  0.3857 -0.3443
  667MPD2     C 9919   2.893   0.237  14.724  0.6284 -0.2543  0.3319
  667MPD2    C1 9920   2.837   0.184  14.840 -0.1856  0.4621 -0.3532
  667MPD2    C2 9921   2.702   0.147  14.833  0.5049 -0.1714 -0.0649
  667MPD2    C3 9922   2.633   0.139  14.709 -0.8138  0.1627  0.0181
  667MPD2    C4 9923   2.700   0.191  14.598  0.4435 -0.6380 -0.0675
  667MPD2    C5 9924   2.825   0.237  14.605 -0.1429  0.5214  0.6356
  667MPD2     H 9925   2.653   0.125  14.927  1.1518 -3.1343 -0.4014
  667MPD2    H1 9926   2.658   0.183  14.498 -1.7390 -0.2395  0.8268
  667MPD2    H2 9927   2.992   0.281  14.732 -0.3443  2.3756 -2.0266
  667MPD2    H3 9928   2.875   0.279  14.518 -1.2009  0.3842 -0.0409
  667MPD2     N 9929   2.502   0.087  14.694 -0.1132  0.1850  0.3056
  667MPD2    H5 9930   2.456   0.104  14.605  1.7112 -1.4252 -0.9415
  667MPD2    N1 9931   2.900   0.177  14.965 -0.7607  0.1150 -0.3395
  667MPD2    H7 9932   2.840   0.164  15.046 -3.3213  2.1104 -1.8958
  668TMC3    C1 9933   3.064   0.194  15.135  0.1299 -0.1456  0.3346
  668TMC3    C2 9934   3.181   0.258  15.178  0.5025 -0.1280 -0.1646
  668TMC3    C3 9935   3.196   0.278  15.312  0.5193  0.5551  0.1444
  668TMC3    C4 9936   2.973   0.131  15.224  0.0935  0.5349  0.9378
  668TMC3    C5 9937   3.002   0.159  15.358 -0.2582 -0.1682 -0.2248
  668TMC3    C6 9938   3.111   0.224  15.402  0.5054 -0.0723 -0.4550
  668TMC3     C 9939   3.021   0.227  14.996 -1.7651  1.2400  0.7146
  668TMC3     O 9940   3.105   0.273  14.925  0.3431  0.3703  0.1591
  668TMC3     H 9941   3.238   0.316  15.106  0.5334  0.4513  0.3382
  668TMC3    H1 9942   2.889   0.071  15.191  0.7285 -0.6610  1.4988
  668TMC3    H2 9943   3.122   0.235  15.509  2.3049  0.3877 -0.6886
  668TMC3    C7 9944   2.897   0.117  15.458 -0.3332  0.4573 -0.3182
  668TMC3    C8 9945   3.322   0.337  15.370  0.1517 -0.4652  0.6940
  668TMC3    O1 9946   2.893   0.181  15.562 -0.0105  0.1402  0.3026
  668TMC3    O2 9947   3.352   0.319  15.487 -0.1974 -0.0195 -0.1928
  669TMC3    C1 9948   1.277   0.194  14.780  0.5412  0.1276 -1.2860
  669TMC3    C2 9949   1.179   0.199  14.682 -0.0115  0.2230 -0.6151
  669TMC3    C3 9950   1.205   0.266  14.569  0.0940  0.1839  0.8182
  669TMC3    C4 9951   1.399   0.246  14.751  0.3636  1.1897  0.4541
  669TMC3    C5 9952   1.421   0.314  14.634 -0.3706  0.0251  0.6464
  669TMC3    C6 9953   1.321   0.342  14.550  0.2354  0.0689 -0.3456
  669TMC3     C 9954   1.248   0.100  14.891 -0.4727 -0.3384  0.0363
  669TMC3     O 9955   1.142   0.116  14.946 -0.5328 -0.4426 -0.2266
  669TMC3     H 9956   1.087   0.144  14.696  0.6692 -0.8114 -0.2243
  669TMC3    H1 9957   1.471   0.232  14.831 -0.8140  1.3223  1.5569
  669TMC3    H2 9958   1.343   0.392  14.456 -1.1978 -0.6190 -1.0626
  669TMC3    C7 9959   1.536   0.398  14.637 -0.3522 -0.3341  0.5499
  669TMC3    C8 9960   1.101   0.258  14.465  0.4670  0.0461  0.5630
  669TMC3    O1 9961   1.608   0.384  14.733  0.1115 -0.0636 -0.3574
  669TMC3    O2 9962   1.017   0.171  14.481 -0.4526 -0.5970  0.6302
  670MPD2     C 9963   4.423   2.627  13.017 -0.0762  0.0352 -0.5395
  670MPD2    C1 9964   4.487   2.674  13.130 -1.0151  0.1712  0.0608
  670MPD2    C2 9965   4.471   2.595  13.249  0.3244 -0.2234  0.3446
  670MPD2    C3 9966   4.388   2.484  13.246  0.6387 -0.5323  0.1051
  670MPD2    C4 9967   4.330   2.438  13.128  0.0770 -0.0717 -0.0882
  670MPD2    C5 9968   4.347   2.513  13.016 -0.3405  1.0528  0.2071
  670MPD2     H 9969   4.519   2.619  13.343 -3.4255  1.6937  1.7548
  670MPD2    H1 9970   4.281   2.341  13.126 -2.5465  1.1948  3.1388
  670MPD2    H2 9971   4.445   2.672  12.920  1.5209 -0.7809 -0.5519
  670MPD2    H3 9972   4.316   2.475  12.920 -1.4984  0.0761  0.9761
  670MPD2     N 9973   4.366   2.415  13.364 -0.0055 -0.3574  0.1840
  670MPD2    H5 9974   4.427   2.446  13.439 -0.2389  0.7983 -0.0985
  670MPD2    N1 9975   4.563   2.793  13.134  0.3996  1.0632 -0.2344
  670MPD2    H7 9976   4.612   2.813  13.221  1.0674  0.5005 -0.4768
  671TMC3    C1 9977   4.278   2.254  13.515  0.2470  0.4382 -0.1101
  671TMC3    C2 9978   4.407   2.217  13.546  0.4574 -0.1729 -0.3500
  671TMC3    C3 9979   4.418   2.111  13.631 -0.0928  0.6085  0.2152
  671TMC3    C4 9980   4.176   2.175  13.545 -0.3463  0.4281  0.3474
  671TMC3    C5 9981   4.195   2.053  13.610  0.2133 -0.6720  0.1736
  671TMC3    C6 9982   4.313   2.028  13.670 -0.3907  0.0167 -0.5691
  671TMC3     C 9983   4.265   2.324  13.390 -0.5765 -0.2028 -0.0786
  671TMC3     O 9984   4.165   2.283  13.334 -0.6236  0.4087 -0.7461
  671TMC3     H 9985   4.491   2.285  13.534 -0.9862  1.3322 -1.9319
  671TMC3    H1 9986   4.077   2.196  13.507 -2.1127 -0.5730  4.4658
  671TMC3    H2 9987   4.344   1.932  13.711  0.7903  0.3058 -0.7780
  671TMC3    C7 9988   4.164   1.950  13.518 -0.4981 -0.3032 -1.0984
  671TMC3    C8 9989   4.554   2.059  13.655 -0.0414  0.5343 -0.0306
  671TMC3    O1 9990   4.126   1.991  13.408  0.4656  0.8133 -1.0719
  671TMC3    O2 9991   4.638   2.077  13.568  0.1724 -0.2791  0.1293
  672MPD2     C 9992   3.974   2.455   0.856 -0.6612 -0.7871 -1.5739
  672MPD2    C1 9993   4.111   2.469   0.837  0.3577  0.9212 -0.0105
  672MPD2    C2 9994   4.197   2.498   0.942  0.1781  0.0188 -0.0927
  672MPD2    C3 9995   4.139   2.531   1.064  0.3425  0.4219 -0.0705
  672MPD2    C4 9996   4.001   2.522   1.086  0.3866 -0.2344 -0.4399
  672MPD2    C5 9997   3.928   2.479   0.984 -1.1228  0.0123 -0.2593
  672MPD2     H 9998   4.301   2.527   0.930  0.3749 -0.2809  0.9348
  672MPD2    H1 9999   3.947   2.564   1.171 -1.2389  0.4584 -1.8252
  672MPD2    H210000   3.901   2.436   0.778  0.1109 -1.0594 -2.2417
  672MPD2    H310001   3.821   2.497   0.992 -0.9205  1.3101 -0.4713
  672MPD2     N10002   4.224   2.581   1.166 -0.2728  0.5597  0.4644
  672MPD2    H510003   4.172   2.633   1.236 -0.3177  1.5414 -0.3155
  672MPD2    N110004   4.162   2.477   0.704 -0.0330  0.3839  0.1942
  672MPD2    H710005   4.263   2.470   0.694 -0.0546 -2.2452  1.6688
  673TMC3    C110006   4.162   2.494   0.476  0.0904 -0.6384 -0.2574
  673TMC3    C210007   4.287   2.429   0.467  0.2010 -0.8362  0.0492
  673TMC3    C310008   4.346   2.424   0.345 -0.0235 -0.0839 -0.2324
  673TMC3    C410009   4.105   2.563   0.371  0.1801 -0.5254 -0.2368
  673TMC3    C510010   4.170   2.560   0.248 -0.3714 -0.4137  0.3412
  673TMC3    C610011   4.286   2.491   0.237  0.2240  0.1069  0.0276
  673TMC3     C10012   4.079   2.482   0.589 -0.1620 -0.3150 -0.1897
  673TMC3     O10013   3.968   2.532   0.579  0.2350 -0.4390 -0.0286
  673TMC3     H10014   4.319   2.358   0.542  1.1498  0.6063  0.9886
  673TMC3    H110015   4.013   2.622   0.376  0.1293 -0.6845  0.6551
  673TMC3    H210016   4.325   2.480   0.136  2.1433  0.6779  0.6933
  673TMC3    C710017   4.133   2.652   0.138  0.3418  0.4310 -0.1498
  673TMC3    C810018   4.453   2.330   0.311 -0.7844  0.0888 -0.0993
  673TMC3    O110019   4.190   2.631   0.033  0.3919 -0.2457  0.1463
  673TMC3    O210020   4.462   2.281   0.200 -0.2052  0.5237  0.3127
  674MPD2     C10021   4.344   3.337  17.569  0.8959 -0.1250  0.6514
  674MPD2    C110022   4.309   3.234  17.488  0.4004 -0.8750  0.9578
  674MPD2    C210023   4.234   3.262  17.375 -0.2283 -0.1296 -0.2829
  674MPD2    C310024   4.183   3.386  17.346  0.2749  0.3976 -0.1952
  674MPD2    C410025   4.213   3.483  17.438 -0.0337 -0.4950 -0.6201
  674MPD2    C510026   4.297   3.460  17.545 -0.2539 -0.5519 -0.0124
  674MPD2     H10027   4.216   3.182  17.304  1.5927 -1.6464  0.9663
  674MPD2    H110028   4.172   3.583  17.422 -1.9795 -1.2478 -0.3283
  674MPD2    H210029   4.408   3.321  17.655  0.6115 -3.0634  0.3126
  674MPD2    H310030   4.327   3.545  17.606  0.3456 -0.8756  0.1409
  674MPD2     N10031   4.084   3.388  17.239 -0.1827 -0.5514  0.6782
  674MPD2    H510032   4.062   3.304  17.187 -0.3018 -0.7474  1.0457
  674MPD2    N110033   4.358   3.106  17.527  1.0007 -0.0052  0.1713
  674MPD2    H710034   4.403   3.103  17.618 -0.0694 -1.8724  0.6288
  675TMC3    C110035   4.399   2.869  17.526 -0.1723 -0.4045 -0.1205
  675TMC3    C210036   4.397   2.747  17.465  0.1577  0.8279  0.3611
  675TMC3    C310037   4.448   2.635  17.529  0.0184 -0.7863  0.8348
  675TMC3    C410038   4.423   2.873  17.661  0.3790  0.4192  0.1967
  675TMC3    C510039   4.453   2.751  17.724  0.6449  0.3211 -0.1269
  675TMC3    C610040   4.468   2.632  17.660 -0.2114 -0.1619  0.1143
  675TMC3     C10041   4.352   2.992  17.452 -0.0733 -0.4287  0.2014
  675TMC3     O10042   4.304   2.985  17.340 -0.5544 -0.0330  0.4624
  675TMC3     H10043   4.381   2.753  17.358 -3.8453 -0.3572  0.8792
  675TMC3    H110044   4.437   2.965  17.716 -0.8308  1.2016 -0.8097
  675TMC3    H210045   4.497   2.537  17.705  2.2093  0.4812 -0.0803
  675TMC3    C710046   4.488   2.753   0.120  0.7795  0.0605 -0.5764
  675TMC3    C810047   4.378   2.520  17.476 -0.6791  0.0776  1.1328
  675TMC3    O110048   4.558   2.661   0.169  0.2315  0.1840  0.3767
  675TMC3    O210049   4.394   2.494  17.360 -0.5480  0.5029  0.3403
  676MPD2     C10050   2.043   0.854  11.010  0.5186 -0.1211 -0.7634
  676MPD2    C110051   1.961   0.775  11.092  1.1102 -0.5017  0.3493
  676MPD2    C210052   1.969   0.633  11.087  0.2677  0.3837 -0.8433
  676MPD2    C310053   2.061   0.573  11.003 -0.0012  0.0083  0.6006
  676MPD2    C410054   2.142   0.650  10.922 -0.5332  0.5380 -0.2420
  676MPD2    C510055   2.131   0.786  10.924  0.6689 -0.1154  0.3105
  676MPD2     H10056   1.900   0.575  11.147  0.7153  1.3130  0.5780
  676MPD2    H110057   2.203   0.613  10.841 -0.7584  1.1787 -0.7018
  676MPD2    H210058   2.044   0.962  11.016  2.5458 -0.2368  0.8172
  676MPD2    H310059   2.195   0.843  10.858  0.6327  0.9696  1.2054
  676MPD2     N10060   2.044   0.444  10.961 -0.0824 -0.1166  0.1222
  676MPD2    H510061   2.088   0.420  10.873  2.5834 -1.1195  1.7255
  676MPD2    N110062   1.862   0.830  11.182  0.6938  0.4500  0.7475
  676MPD2    H710063   1.828   0.765  11.252  0.2133  1.2763  1.2787
  677TMC3    C110064   1.761   0.987  11.320  0.4531  0.1101 -0.0136
  677TMC3    C210065   1.635   0.942  11.326  0.1006  0.2205 -0.2925
  677TMC3    C310066   1.557   0.988  11.422  0.1913 -0.5494 -0.1892
  677TMC3    C410067   1.812   1.074  11.414  0.5601 -0.9459  0.1996
  677TMC3    C510068   1.726   1.121  11.516  0.2053 -0.3962 -0.5183
  677TMC3    C610069   1.593   1.078  11.517 -0.0215 -0.0024 -0.3554
  677TMC3     C10070   1.851   0.958  11.218 -0.0792 -0.9898  0.3875
  677TMC3     O10071   1.895   1.059  11.162  0.3069  0.3153 -0.4599
  677TMC3     H10072   1.597   0.870  11.254 -0.6381  1.5258 -1.2164
  677TMC3    H110073   1.918   1.100  11.409  0.0359  0.8006 -1.9864
  677TMC3    H210074   1.528   1.113  11.596  0.3176 -1.0575  0.3888
  677TMC3    C710075   1.783   1.179  11.639  0.1147  0.2770 -0.0278
  677TMC3    C810076   1.432   0.922  11.453  0.6432  1.1662 -0.1802
  677TMC3    O110077   1.709   1.175  11.733 -0.3721 -0.6229  0.0668
  677TMC3    O210078   1.359   0.928  11.359  0.5182  0.8970  0.5485
  678MPD2     C10079   3.656   0.358   0.728 -0.6955  0.5279  0.2061
  678MPD2    C110080   3.657   0.467   0.812 -0.0828  0.6230 -0.5005
  678MPD2    C210081   3.541   0.530   0.858 -0.9011 -0.6491  0.4981
  678MPD2    C310082   3.416   0.490   0.808  0.7106  0.4991 -0.1403
  678MPD2    C410083   3.413   0.383   0.718  0.0356 -0.9041  0.2192
  678MPD2    C510084   3.531   0.319   0.686 -0.4171  0.1296  0.7547
  678MPD2     H10085   3.535   0.608   0.933 -3.0176 -0.5152  0.1937
  678MPD2    H110086   3.318   0.352   0.675 -0.4139 -0.1335  0.6427
  678MPD2    H210087   3.745   0.313   0.685 -0.3491  1.0961  0.3202
  678MPD2    H310088   3.523   0.238   0.614 -2.2323  0.7205  0.3007
  678MPD2     N10089   3.292   0.548   0.842 -0.4740 -0.0644  0.0030
  678MPD2    H510090   3.208   0.524   0.789 -0.7972  4.2013 -1.3619
  678MPD2    N110091   3.779   0.517   0.856  0.4578  0.1992  0.2229
  678MPD2    H710092   3.773   0.610   0.895  0.3951 -0.4606  1.7774
  679TMC3    C110093   4.237   0.626   0.775  0.7921 -0.1860 -0.0163
  679TMC3    C210094   4.138   0.542   0.823 -0.3839  0.5676  0.2099
  679TMC3    C310095   4.008   0.583   0.811  0.3828  0.5338 -0.1534
  679TMC3    C410096   4.196   0.729   0.691 -0.4121  0.4661  0.9094
  679TMC3    C510097   4.064   0.747   0.664 -0.4014 -0.2524 -0.3090
  679TMC3    C610098   3.965   0.689   0.730  0.9211  0.2468  0.6346
  679TMC3     C10099   4.371   0.581   0.784 -0.3640 -0.4195 -0.4253
  679TMC3     O10100   4.385   0.458   0.789 -0.1036 -0.1690 -0.2514
  679TMC3     H10101   4.170   0.462   0.889 -1.6768 -1.4148 -1.5487
  679TMC3    H110102   4.258   0.805   0.645  0.7515 -0.4948  0.8799
  679TMC3    H210103   3.863   0.696   0.693  0.3622 -1.2873  1.8625
  679TMC3    C710104   4.026   0.822   0.548 -0.1245  0.1743  0.5708
  679TMC3    C810105   3.904   0.477   0.819 -0.1951 -0.2708 -0.0228
  679TMC3    O110106   3.906   0.855   0.539 -0.1071  0.7583  0.2648
  679TMC3    O210107   3.940   0.368   0.776  0.2894  0.1475  0.3145
  680MPD2     C10108   3.448   4.692  14.182 -0.0015  0.0117 -0.3314
  680MPD2    C110109   3.575   4.657  14.230 -0.9428 -0.0367  0.5153
  680MPD2    C210110   3.674   0.013  14.207  0.2184 -0.3442  0.7814
  680MPD2    C310111   3.657   0.131  14.147  0.5469 -0.6179  0.0744
  680MPD2    C410112   3.533   0.160  14.093 -0.0634 -0.2067  0.4505
  680MPD2    C510113   3.420   0.080  14.124  0.0967  1.1550 -0.1872
  680MPD2     H10114   3.774   4.717  14.238 -0.2042 -2.2375  0.2664
  680MPD2    H110115   3.500   0.249  14.041  0.2320 -0.0230  0.5800
  680MPD2    H210116   3.361   4.627  14.183  0.8467 -1.1146  1.1520
  680MPD2    H310117   3.322   0.104  14.087 -1.1148  1.1068  2.9652
  680MPD2     N10118   3.762   0.222  14.131  0.3423 -0.2058 -0.4987
  680MPD2    H510119   3.738   0.280  14.051 -1.1670  0.6490  0.5657
  680MPD2    N110120   3.599   4.542  14.299  0.2214 -1.1229 -0.1722
  680MPD2    H710121   3.690   4.532  14.342 -0.2888 -3.0200  0.4766
  681TMC3    C110122   3.568   4.315  14.400 -0.2880  0.1180 -0.2769
  681TMC3    C210123   3.653   4.329  14.504  0.7639 -0.2644  0.1652
  681TMC3    C310124   3.677   4.220  14.585  0.1409 -0.0374 -0.9118
  681TMC3    C410125   3.515   4.195  14.368 -0.2866  0.2040  0.0615
  681TMC3    C510126   3.539   4.088  14.449 -0.0056 -0.0302 -0.0074
  681TMC3    C610127   3.619   4.099  14.561  0.4945 -0.4975 -0.4702
  681TMC3     C10128   3.518   4.428  14.315  0.3102 -0.1527 -0.0299
  681TMC3     O10129   3.401   4.416  14.273  0.3207 -0.3397 -0.1767
  681TMC3     H10130   3.675   4.427  14.545  0.0859 -1.1089  2.5699
  681TMC3    H110131   3.450   4.184  14.282 -0.7570  1.2866  0.2829
  681TMC3    H210132   3.637   4.014  14.626 -0.2681 -0.9769 -0.8895
  681TMC3    C710133   3.525   3.963  14.383 -0.9451  0.3307 -1.1848
  681TMC3    C810134   3.722   4.259  14.718 -0.4153 -0.4202 -0.3958
  681TMC3    O110135   3.474   3.867  14.437  0.2983 -0.1307  0.3591
  681TMC3    O210136   3.642   4.242  14.806  0.4377  0.4443  0.0026
  682MPD2     C10137   0.923   1.474  10.701 -0.5472 -0.9369 -0.9435
  682MPD2    C110138   0.925   1.345  10.745 -0.3445 -0.0182 -0.2341
  682MPD2    C210139   0.913   1.323  10.879 -0.2499  0.2477 -0.1160
  682MPD2    C310140   0.875   1.413  10.969  0.8613 -0.4191 -0.7974
  682MPD2    C410141   0.866   1.545  10.928 -1.0117 -0.3654  0.2981
  682MPD2    C510142   0.897   1.573  10.796 -0.6409  0.6083 -0.8543
  682MPD2     H10143   0.933   1.221  10.910 -0.8369  0.6770  1.6470
  682MPD2    H110144   0.820   1.622  10.989 -0.7957 -0.8704  1.1050
  682MPD2    H210145   0.950   1.496  10.598 -0.1984  1.0960 -0.4046
  682MPD2    H310146   0.884   1.672  10.756 -2.4353 -0.2360 -2.3667
  682MPD2     N10147   0.852   1.387  11.105  0.2850  0.2331  0.4386
  682MPD2    H510148   0.838   1.459  11.176 -1.2646  0.7104 -0.3471
  682MPD2    N110149   0.955   1.233  10.661 -0.0017  0.4042 -0.7964
  682MPD2    H710150   0.953   1.140  10.702 -0.2733  1.5694  1.7985
  683TMC3    C110151   0.801   1.359  11.503  0.0859  0.1304  0.7444
  683TMC3    C210152   0.779   1.236  11.558 -0.3950  0.0335  0.6516
  683TMC3    C310153   0.757   1.130  11.475  0.1451 -0.4003  0.9084
  683TMC3    C410154   0.804   1.372  11.370 -0.9055 -0.0649 -0.5342
  683TMC3    C510155   0.786   1.258  11.290  0.6528  0.8072 -0.2098
  683TMC3    C610156   0.767   1.132  11.342  0.1764 -0.0528  0.3787
  683TMC3     C10157   0.831   1.469  11.587 -0.3779  0.2895  0.3031
  683TMC3     O10158   0.794   1.577  11.544  0.8046  0.5006 -0.3748
  683TMC3     H10159   0.769   1.219  11.665  0.3569  1.2069  0.9127
  683TMC3    H110160   0.795   1.470  11.326 -0.9220  0.4491  0.6284
  683TMC3    H210161   0.762   1.042  11.280 -2.3451  0.6215 -0.3806
  683TMC3    C710162   0.813   1.265  11.146  0.5344  0.4203 -0.7854
  683TMC3    C810163   0.745   1.004  11.541 -0.7496  0.7958 -0.0012
  683TMC3    O110164   0.777   1.163  11.085 -0.4168 -0.2938  0.2886
  683TMC3    O210165   0.667   0.997  11.638  0.3339  0.5201 -0.1647
  684MPD2     C10166   4.324   0.407  16.343 -0.0807 -0.5199  0.2068
  684MPD2    C110167   4.439   0.418  16.274  0.1721 -0.4606  0.5434
  684MPD2    C210168   4.483   0.549  16.244 -0.6791 -0.3573 -0.5115
  684MPD2    C310169   4.400   0.659  16.270  0.2398 -0.2234  0.6399
  684MPD2    C410170   4.283   0.640  16.334 -0.9415  0.0845 -0.4059
  684MPD2    C510171   4.255   0.513  16.372  0.2506  0.4560 -0.2012
  684MPD2     H10172   4.580   0.561  16.197 -0.5202 -0.1614 -0.1381
  684MPD2    H110173   4.213   0.722  16.348  0.4550  1.2620 -0.3834
  684MPD2    H210174   4.280   0.313  16.372 -0.4562 -0.8312 -1.3441
  684MPD2    H310175   4.158   0.499  16.420  0.3209 -1.9356 -0.7316
  684MPD2     N10176   4.431   0.790  16.239 -0.2941  0.0264 -0.0942
  684MPD2    H510177   4.379   0.874  16.264 -1.2358 -0.4524 -0.4261
  684MPD2    N110178   4.507   0.309  16.221 -0.0955  0.0779  0.1654
  684MPD2    H710179   4.603   0.324  16.191  0.5313  2.2578  3.2728
  685TMC3    C110180   4.556   0.109  16.120  0.2721 -0.1967  0.0697
  685TMC3    C210181   4.470   0.061  16.024  0.3067  0.2191 -0.5690
  685TMC3    C310182   4.508   0.096  15.900  0.2342  0.2619 -0.2104
  685TMC3    C410183   4.682   0.163  16.094 -0.1704  1.0043 -0.3016
  685TMC3    C510184   4.731   0.160  15.969  0.0410 -0.3269  0.0542
  685TMC3    C610185   4.633   0.141  15.873 -0.1904 -0.7914  0.1768
  685TMC3     C10186   4.468   0.183  16.211 -0.6264  0.1075 -0.7151
  685TMC3     O10187   4.359   0.135  16.213 -0.7922  0.1846 -0.6984
  685TMC3     H10188   4.378   0.006  16.038  0.4192  0.4873  1.2571
  685TMC3    H110189   0.012   0.189  16.177 -0.7616  2.8473 -0.4152
  685TMC3    H210190   4.660   0.153  15.768  0.5671  0.1019  0.4779
  685TMC3    C710191   0.128   0.215  15.923 -0.0142  0.2969  0.8258
  685TMC3    C810192   4.409   0.181  15.840  0.1867 -0.5455 -0.7824
  685TMC3    O110193   0.158   0.193  15.804  0.1330  0.7252 -0.4912
  685TMC3    O210194   4.444   0.223  15.732  0.3990  0.4128 -0.1795
  686MPD2     C10195   1.269   0.991  15.530  0.8755  0.3403 -0.2099
  686MPD2    C110196   1.274   0.930  15.652 -0.8404  0.2504 -0.0567
  686MPD2    C210197   1.399   0.918  15.713 -0.6857 -0.1599  0.2264
  686MPD2    C310198   1.513   0.949  15.642 -0.5683  0.6047 -0.9003
  686MPD2    C410199   1.507   0.998  15.518  0.1206 -0.0933 -0.6018
  686MPD2    C510200   1.386   1.021  15.463  0.2505  0.1612  0.6710
  686MPD2     H10201   1.415   0.888  15.816 -1.2043  1.9164  0.9159
  686MPD2    H110202   1.599   1.038  15.477 -0.1550  0.8293 -0.3324
  686MPD2    H210203   1.171   1.002  15.485  0.7574 -0.4742 -0.1509
  686MPD2    H310204   1.382   1.076  15.369 -1.5793 -2.3084 -0.7138
  686MPD2     N10205   1.645   0.933  15.696  0.1679  0.1263  0.5460
  686MPD2    H510206   1.707   0.994  15.644 -0.5669  1.2869  1.0115
  686MPD2    N110207   1.163   0.870  15.702  0.3389 -0.0522 -0.2207
  686MPD2    H710208   1.076   0.873  15.650  0.9901 -2.2183 -1.4520
  687TMC3    C110209   1.623   0.763  15.862  0.4768  0.2564  0.2635
  687TMC3    C210210   1.557   0.678  15.776  0.2686  0.0001 -0.3869
  687TMC3    C310211   1.470   0.587  15.842  0.3652 -0.4742 -0.7180
  687TMC3    C410212   1.617   0.755  15.995  1.2278 -0.2205  0.1946
  687TMC3    C510213   1.537   0.659  16.055 -0.0072 -0.0439 -0.3687
  687TMC3    C610214   1.467   0.567  15.978  0.6404 -0.2279 -0.5914
  687TMC3     C10215   1.697   0.873  15.804 -0.1004  0.1569  0.6020
  687TMC3     O10216   1.791   0.912  15.868 -0.0332  0.5075  0.5400
  687TMC3     H10217   1.559   0.684  15.668  1.2424  1.9806 -0.2623
  687TMC3    H110218   1.673   0.831  16.048 -1.7991  0.7583  1.9807
  687TMC3    H210219   1.404   0.492  16.025 -2.0213 -0.0208 -3.8364
  687TMC3    C710220   1.560   0.642  16.199 -0.0947 -0.5249  0.0949
  687TMC3    C810221   1.369   0.508  15.770  0.4279  0.5845  0.3567
  687TMC3    O110222   1.644   0.711  16.255  0.2571  0.3290  0.1058
  687TMC3    O210223   1.335   0.400  15.817 -0.6310 -0.1492  0.1431
  688MPD2     C10224   0.181   4.110  17.580  0.0026  0.1689  0.6286
  688MPD2    C110225   0.161   3.978  17.541 -0.2597  0.0491 -0.1069
  688MPD2    C210226   0.230   3.942  17.429 -0.1168  0.0319 -0.3155
  688MPD2    C310227   0.327   4.018  17.370  0.1460 -0.7633 -0.1001
  688MPD2    C410228   0.347   4.146  17.408  0.2663  0.2321  0.1701
  688MPD2    C510229   0.280   4.185  17.524  0.1562 -0.2877  0.0311
  688MPD2     H10230   0.212   3.843  17.390 -0.5375 -0.1561  0.3577
  688MPD2    H110231   0.420   4.212  17.362  0.7554  0.7189  1.6560
  688MPD2    H210232   0.135   4.165  17.661 -0.9934 -2.4880  1.8558
  688MPD2    H310233   0.312   4.281  17.562 -3.0650  0.3043  1.2804
  688MPD2     N10234   0.404   3.984  17.254 -0.1376  0.3717  0.6595
  688MPD2    H510235   0.471   4.049  17.217  1.2477 -0.9116  0.9253
  688MPD2    N110236   0.077   3.886  17.596 -0.0469 -0.3503  0.2533
  688MPD2    H710237   0.070   3.794  17.553  0.9344 -0.2736 -0.0502
  689TMC3    C110238   4.659   3.797   0.023 -0.4731 -0.0615  1.0137
  689TMC3    C210239   4.568   3.829   0.125 -0.3615 -0.5125  0.2163
  689TMC3    C310240   4.542   3.734   0.215  0.2465 -0.7442 -0.0705
  689TMC3    C410241   4.703   3.668  17.738  0.1757 -0.3582  0.0135
  689TMC3    C510242   4.662   3.572   0.091 -0.6155  0.3520 -0.3467
  689TMC3    C610243   4.586   3.604   0.199  0.6725  1.0675  0.7027
  689TMC3     C10244   0.002   3.905  17.707 -0.6409  0.5532  0.0754
  689TMC3     O10245   0.004   4.008   0.035 -0.1317  0.2762  0.0236
  689TMC3     H10246   4.557   3.934   0.150  1.0921 -0.4453  0.5717
  689TMC3    H110247   0.051   3.645  17.671  0.5397 -1.2017  0.7605
  689TMC3    H210248   4.557   3.529   0.271  0.6033  0.2450 -0.1816
  689TMC3    C710249   4.703   3.436   0.076  0.1365 -0.4815 -0.3373
  689TMC3    C810250   4.466   3.755   0.337 -0.4099 -0.1853  0.1953
  689TMC3    O110251   4.681   3.360   0.171  0.7202 -0.1116  0.2570
  689TMC3    O210252   4.453   3.660   0.414  0.0119 -0.3775 -0.1041
  690MPD2     C10253   2.808   1.099  15.805 -0.5377  0.1920 -0.0171
  690MPD2    C110254   2.697   1.150  15.744 -0.3251  0.8680  0.6044
  690MPD2    C210255   2.713   1.260  15.662  0.1404 -0.0668 -0.0401
  690MPD2    C310256   2.834   1.326  15.654 -0.2222  0.0552  0.0809
  690MPD2    C410257   2.947   1.277  15.724 -0.5504 -0.2980  0.0078
  690MPD2    C510258   2.928   1.169  15.803  0.6023 -0.2580 -0.2392
  690MPD2     H10259   2.632   1.315  15.615  2.7436  0.1307 -4.2288
  690MPD2    H110260   3.043   1.327  15.720 -0.4660 -0.3104  1.8649
  690MPD2    H210261   2.803   1.017  15.876  0.1520  0.2478  0.0916
  690MPD2    H310262   3.012   1.133  15.862 -1.1895 -2.1023  1.1770
  690MPD2     N10263   2.842   1.437  15.566  0.3258  0.3133 -0.2675
  690MPD2    H510264   2.751   1.469  15.533  0.9171  1.3523 -0.8804
  690MPD2    N110265   2.577   1.082  15.740  0.3669 -0.5089 -0.0876
  690MPD2    H710266   2.498   1.128  15.696  0.5303 -0.2777 -0.1387
  691TMC3    C110267   2.397   0.958  15.823  0.3787 -0.2335 -0.4585
  691TMC3    C210268   2.316   1.052  15.754  0.1289 -0.3886  0.8098
  691TMC3    C310269   2.182   1.036  15.772  0.1772  0.4840 -0.2765
  691TMC3    C410270   2.348   0.853  15.894 -0.1946  0.3306 -0.5035
  691TMC3    C510271   2.216   0.844  15.904  0.2895 -0.3441  0.1930
  691TMC3    C610272   2.130   0.939  15.850 -0.3678  0.3105 -0.9002
  691TMC3     C10273   2.543   0.972  15.817  0.3057  0.5376  1.0112
  691TMC3     O10274   2.611   0.910  15.895  0.3807 -0.1556 -0.2993
  691TMC3     H10275   2.351   1.129  15.686 -1.3990  0.9995  1.6101
  691TMC3    H110276   2.413   0.767  15.911 -0.1365  0.2109 -1.3463
  691TMC3    H210277   2.025   0.926  15.874  0.3828 -0.7139  1.8569
  691TMC3    C710278   2.162   0.750  15.993 -0.5899  1.0354 -0.5889
  691TMC3    C810279   2.103   1.116  15.686 -0.5065  0.0316 -0.2652
  691TMC3    O110280   2.221   0.712  16.091 -0.2111  0.0730 -0.1739
  691TMC3    O210281   2.153   1.186  15.599  0.3124 -0.8789 -0.1088
  692TMC3    C110282   3.890   1.913  15.591  0.7138  0.4161 -0.3982
  692TMC3    C210283   4.017   1.961  15.564  0.4369  0.0409  1.1457
  692TMC3    C310284   4.121   1.876  15.561 -0.0070  0.1254  0.2471
  692TMC3    C410285   3.865   1.779  15.590 -0.2102  0.3898  0.1635
  692TMC3    C510286   3.978   1.692  15.586 -0.3320  0.4762  0.0863
  692TMC3    C610287   4.100   1.742  15.565  0.2379 -0.6330 -0.2912
  692TMC3     C10288   3.791   2.008  15.628  0.1521  1.3531 -0.3018
  692TMC3     O10289   3.699   1.949  15.694  0.5163 -0.3085  0.4021
  692TMC3     H10290   4.035   2.068  15.570 -1.3668  0.4095 -0.2473
  692TMC3    H110291   3.766   1.745  15.618  0.9157 -2.2914  0.9009
  692TMC3    H210292   4.175   1.666  15.545 -0.1231 -0.8602 -0.7724
  692TMC3    C710293   3.951   1.556  15.619 -0.0383 -0.0655  0.5342
  692TMC3    C810294   4.227   1.906  15.654  0.2485  0.6843  0.9418
  692TMC3    O110295   3.831   1.527  15.612  0.0993 -0.5352 -0.3513
  692TMC3    O210296   4.282   1.814  15.713 -0.8952  0.3511  0.0435
  693MPD2     C10297   3.014   4.543  10.662  0.9285 -0.5633 -0.4777
  693MPD2    C110298   2.999   4.508  10.798  0.0724  0.5005 -0.4646
  693MPD2    C210299   3.101   4.535  10.888 -0.8034 -0.5688  0.8031
  693MPD2    C310300   3.230   4.569  10.845  0.1657  0.3566  1.3242
  693MPD2    C410301   3.246   4.598  10.711 -0.2860  0.7252 -0.6029
  693MPD2    C510302   3.140   4.586  10.622  0.3127 -0.7046  1.0634
  693MPD2     H10303   3.084   4.505  10.991  0.2524  1.4133  1.5645
  693MPD2    H110304   3.338   4.640  10.673  0.4658 -0.0521  0.3550
  693MPD2    H210305   2.936   4.564  10.589 -0.8747  0.4966  1.7752
  693MPD2    H310306   3.152   4.617  10.518  1.6525 -0.6503  1.2423
  693MPD2     N10307   3.352   4.561  10.923 -0.0156  0.0355 -0.0838
  693MPD2    H510308   3.445   4.572  10.884  1.0314 -2.9788  1.5446
  693MPD2    N110309   2.876   4.460  10.853 -0.0498  0.4183  0.2245
  693MPD2    H710310   2.884   4.459  10.954  1.9564 -3.3214  0.0341
  694TMC3    C110311   2.656   4.362  10.858 -0.1104 -0.7623 -0.7062
  694TMC3    C210312   2.582   4.268  10.801 -1.2992 -0.7328  0.3971
  694TMC3    C310313   2.535   4.165  10.876 -0.4459 -0.2434  0.6792
  694TMC3    C410314   2.672   4.360  10.997  0.8738  0.0136  0.4176
  694TMC3    C510315   2.603   4.268  11.073 -0.0816 -0.4744  0.2929
  694TMC3    C610316   2.539   4.165  11.010 -0.2034 -0.0909  0.1116
  694TMC3     C10317   2.771   4.411  10.777  0.0510 -0.4828  0.4531
  694TMC3     O10318   2.765   4.403  10.658 -0.0359 -0.7016  0.0037
  694TMC3     H10319   2.569   4.261  10.694  0.2169  0.6597  0.1390
  694TMC3    H110320   2.729   4.429  11.058 -0.9930  2.1935 -0.3128
  694TMC3    H210321   2.476   4.098  11.068  0.0627 -0.8991 -0.5392
  694TMC3    C710322   2.559   4.318  11.198 -0.3618  0.2922 -0.1921
  694TMC3    C810323   2.454   4.068  10.811  0.0505  0.4092  0.4512
  694TMC3    O110324   2.568   4.443  11.220 -0.0413  0.0076  0.4939
  694TMC3    O210325   2.402   3.985  10.887 -0.2000  0.3018  0.1866
  695MPD2     C10326   0.432   1.748  12.959  0.5846  0.0108  0.7425
  695MPD2    C110327   0.347   1.743  13.065  0.5804 -0.0803 -0.0471
  695MPD2    C210328   0.210   1.761  13.048  0.2503 -0.1399 -0.5008
  695MPD2    C310329   0.155   1.802  12.933 -0.2947 -0.2956  0.1327
  695MPD2    C410330   0.242   1.827  12.830  0.7001  0.5329 -0.5473
  695MPD2    C510331   0.373   1.778  12.843  0.0476 -0.3952 -0.1047
  695MPD2     H10332   0.139   1.740  13.126 -0.7683  0.5076 -1.2508
  695MPD2    H110333   0.214   1.869  12.734  2.4182  3.2407  0.1451
  695MPD2    H210334   0.534   1.711  12.957  1.3797  2.2795 -0.8843
  695MPD2    H310335   0.426   1.773  12.749 -0.2460  1.7585 -0.3762
  695MPD2     N10336   0.013   1.813  12.924 -0.4758  0.4506 -0.9528
  695MPD2    H510337   4.686   1.789  13.001 -0.0058 -0.5519 -0.8889
  695MPD2    N110338   0.388   1.730  13.198 -0.2382  0.5034  0.1488
  695MPD2    H710339   0.318   1.737  13.271  0.7223  0.4697  1.0669
  696TMC3    C110340   4.533   1.802  12.812  0.3337 -0.1698 -0.5688
  696TMC3    C210341   4.467   1.742  12.915 -0.5621 -0.6702  0.2983
  696TMC3    C310342   4.329   1.750  12.923 -0.1816  0.0466  0.2524
  696TMC3    C410343   4.464   1.865  12.712  0.1312 -0.7600 -0.8365
  696TMC3    C510344   4.329   1.877  12.725 -0.6946 -0.2846 -0.0528
  696TMC3    C610345   4.260   1.825  12.831  0.3057  0.7246  0.0364
  696TMC3     C10346   4.678   1.826  12.807 -0.0491 -0.4102 -0.5572
  696TMC3     O10347   4.733   1.832  12.697 -0.2395 -0.3316  0.1716
  696TMC3     H10348   4.527   1.704  12.997  1.3323  1.2563 -0.1838
  696TMC3    H110349   4.509   1.917  12.628  0.4865 -0.3376 -0.3845
  696TMC3    H210350   4.153   1.833  12.844 -0.0559 -0.7641 -2.0468
  696TMC3    C710351   4.267   2.000  12.675  0.1642  0.1685 -0.2884
  696TMC3    C810352   4.256   1.707  13.038 -0.2493  0.0734 -0.0339
  696TMC3    O110353   4.318   2.059  12.581 -0.0078  0.4558 -0.2868
  696TMC3    O210354   4.137   1.737  13.056  0.2275 -0.0708  0.3462
  697MPD2     C10355   3.621   3.722  15.868 -0.4136  0.4391 -0.1040
  697MPD2    C110356   3.674   3.677  15.753 -0.9921 -0.1346 -0.7852
  697MPD2    C210357   3.729   3.767  15.667  0.9261  0.1506  0.7036
  697MPD2    C310358   3.737   3.901  15.698 -0.4765 -0.6517 -0.0204
  697MPD2    C410359   3.676   3.941  15.822  0.6264 -0.6579  0.5079
  697MPD2    C510360   3.618   3.851  15.907  0.0332  0.1476  0.1830
  697MPD2     H10361   3.757   3.723  15.572  0.0089  0.9035  0.0809
  697MPD2    H110362   3.662   4.046  15.847  2.3344 -0.4068  0.4214
  697MPD2    H210363   3.587   3.645  15.937  1.5510  0.0617  0.4521
  697MPD2    H310364   3.572   3.877  16.001  0.4003  0.8305  0.1701
  697MPD2     N10365   3.797   3.995  15.602 -0.3933  0.0617  0.2552
  697MPD2    H510366   3.842   3.954  15.521 -3.0548 -1.4939 -0.4169
  697MPD2    N110367   3.671   3.546  15.701 -0.3660 -0.1073 -0.0244
  697MPD2    H710368   3.711   3.534  15.608  0.7420  0.9619  0.3224
  698TMC3    C110369   3.885   4.203  15.526  0.4375 -0.1992  0.1662
  698TMC3    C210370   3.917   4.327  15.572  0.1654 -0.3255  0.3404
  698TMC3    C310371   3.944   4.412  15.469  0.7853  0.7951  0.2606
  698TMC3    C410372   3.893   4.156  15.397  0.1436 -0.2163 -0.2637
  698TMC3    C510373   3.916   4.250  15.299 -0.2550 -0.2113  0.0652
  698TMC3    C610374   3.941   4.382  15.332  0.0320 -0.0220  1.1048
  698TMC3     C10375   3.816   4.127  15.628 -0.4494  0.3335 -0.6471
  698TMC3     O10376   3.801   4.180  15.735 -0.0512 -0.7330  0.4023
  698TMC3     H10377   3.931   4.353  15.676  3.8853  0.1747 -0.3070
  698TMC3    H110378   3.879   4.053  15.369 -1.9248 -0.0484  0.1687
  698TMC3    H210379   3.963   4.450  15.250  0.9705 -2.1763 -0.4512
  698TMC3    C710380   3.939   4.207  15.166  0.1259  0.4880 -0.1626
  698TMC3    C810381   3.961   4.548  15.505  0.0848  0.4797  0.1903
  698TMC3    O110382   4.040   4.257  15.122  0.4729 -0.2877 -0.2458
  698TMC3    O210383   3.907   4.576  15.608  0.0469  0.0130 -0.1668
  699TMC3    C110384   3.690   1.700  13.136  0.1398 -0.6431 -0.8710
  699TMC3    C210385   3.715   1.574  13.179  0.2504 -0.1951  0.9326
  699TMC3    C310386   3.619   1.509  13.253 -0.2711  0.0071  0.4198
  699TMC3    C410387   3.580   1.772  13.169  0.4937  0.1576 -0.6159
  699TMC3    C510388   3.488   1.705  13.243  0.3211  0.2523 -0.2758
  699TMC3    C610389   3.509   1.583  13.294  0.0171  0.1705  0.0208
  699TMC3     C10390   3.758   1.751  13.012  0.3821  0.5460 -0.4889
  699TMC3     O10391   3.739   1.868  12.981 -0.7821  0.5806 -0.0376
  699TMC3     H10392   3.801   1.518  13.142  1.3098  1.4252  0.9814
  699TMC3    H110393   3.566   1.877  13.144  0.6931  0.6553  1.3408
  699TMC3    H210394   3.432   1.542  13.358 -0.1083 -1.2342 -1.0210
  699TMC3    C710395   3.385   1.791  13.308 -0.2555 -0.4516 -0.2496
  699TMC3    C810396   3.633   1.368  13.289  0.2337 -0.1483 -0.8261
  699TMC3    O110397   3.430   1.899  13.354 -0.4353  0.2010 -0.0001
  699TMC3    O210398   3.532   1.300  13.309  0.3438  0.6830  1.1338
  700TMC3    C110399   3.052   4.079  16.757  0.0947  0.0067  0.3123
  700TMC3    C210400   3.125   3.973  16.709 -0.4151  0.3995  0.4913
  700TMC3    C310401   3.144   3.870  16.797  0.5408 -0.0369 -0.0046
  700TMC3    C410402   3.002   4.081  16.888 -0.3892  0.5005  0.0962
  700TMC3    C510403   3.029   3.978  16.972 -0.7168  0.0292 -0.1269
  700TMC3    C610404   3.101   3.871  16.929  0.4723 -0.9352 -0.8098
  700TMC3     C10405   3.014   4.180  16.663 -0.2555  0.5383  0.7626
  700TMC3     O10406   3.005   4.146  16.547  0.0262 -0.3227  0.1096
  700TMC3     H10407   3.158   3.966  16.606 -1.5587  3.1988 -0.0661
  700TMC3    H110408   2.970   4.178  16.926 -1.8035  1.3518 -3.2394
  700TMC3    H210409   3.124   3.796  17.005  1.7707 -0.6061 -0.8680
  700TMC3    C710410   3.016   4.004  17.112 -0.5714 -0.1420 -0.0201
  700TMC3    C810411   3.225   3.761  16.753 -0.6096  0.0755 -0.3787
  700TMC3    O110412   3.115   3.987  17.186 -0.2544 -0.0607 -0.5473
  700TMC3    O210413   3.315   3.806  16.681  0.7089  0.2813 -0.1000
  701TMC3    C110414   2.841   2.945  15.480 -0.2910  0.4458  0.7919
  701TMC3    C210415   2.835   2.902  15.349  0.1315 -0.4140 -0.3049
  701TMC3    C310416   2.944   2.927  15.268  0.0930  0.2231  0.9316
  701TMC3    C410417   2.946   3.023  15.527  0.4082  0.2987 -0.4606
  701TMC3    C510418   3.039   3.070  15.435  0.2912 -0.3070 -0.1509
  701TMC3    C610419   3.040   3.018  15.312 -0.9312  0.3244  0.4568
  701TMC3     C10420   2.723   2.942  15.563 -0.7912 -0.9985  0.3716
  701TMC3     O10421   2.638   2.851  15.555 -0.3305  0.1588  0.8404
  701TMC3     H10422   2.763   2.822  15.338  1.8796 -1.9040 -0.9093
  701TMC3    H110423   2.950   3.072  15.624 -0.4030  1.5785 -1.0680
  701TMC3    H210424   3.094   3.066  15.232 -0.9004 -2.6195 -1.3076
  701TMC3    C710425   3.084   3.200  15.449  0.4551 -0.2334 -0.5058
  701TMC3    C810426   2.906   2.945  15.130  0.7354  0.8160 -0.0106
  701TMC3    O110427   3.100   3.262  15.346 -0.4316  0.4211  0.0037
  701TMC3    O210428   3.005   2.959  15.051 -0.4082 -0.3052 -0.4868
  702MPD2     C10429   2.244   0.077  10.374  0.4074  0.1534  0.7766
  702MPD2    C110430   2.236   0.168  10.480  0.4980  0.3185  0.4434
  702MPD2    C210431   2.327   0.274  10.475  0.0598  0.2474  0.1829
  702MPD2    C310432   2.425   0.276  10.377  0.8132  0.6834 -0.4052
  702MPD2    C410433   2.438   0.184  10.276  0.3139 -0.5386 -0.1416
  702MPD2    C510434   2.340   0.090  10.279  0.2650 -0.2428  0.2092
  702MPD2     H10435   2.307   0.351  10.548 -0.0027  0.4262 -0.0218
  702MPD2    H110436   2.513   0.187  10.198 -0.1305 -0.5068 -0.5680
  702MPD2    H210437   2.183   4.722  10.364 -0.2007  0.8362 -1.5944
  702MPD2    H310438   2.336   0.018  10.199  1.1282  0.8261 -0.7984
  702MPD2     N10439   2.507   0.394  10.376  0.5366 -0.7487 -0.0484
  702MPD2    H510440   2.476   0.470  10.436  0.0632  1.0813 -2.6108
  702MPD2    N110441   2.144   0.178  10.581  0.2873 -0.2683  0.6662
  702MPD2    H710442   2.153   0.262  10.636  0.2039 -0.2953  0.7203
  703TMC3    C110443   2.635   0.567  10.290 -0.0399 -0.0426  0.6539
  703TMC3    C210444   2.530   0.648  10.317  0.0841  0.0155  0.0684
  703TMC3    C310445   2.545   0.783  10.315  0.0025  0.0305 -0.3204
  703TMC3    C410446   2.768   0.622  10.291 -0.1318  0.3553 -0.4031
  703TMC3    C510447   2.782   0.756  10.309 -0.3176  0.0960  0.1170
  703TMC3    C610448   2.669   0.845  10.320 -0.2024  0.5482 -0.4774
  703TMC3     C10449   2.615   0.419  10.296  0.2258 -0.0466 -0.0087
  703TMC3     O10450   2.676   0.345  10.217 -0.1709  0.3786  0.1343
  703TMC3     H10451   2.428   0.614  10.299 -0.2310  0.9651  0.0590
  703TMC3    H110452   2.848   0.549  10.285 -2.5502 -2.3879  0.9289
  703TMC3    H210453   2.677   0.953  10.325  4.1171  0.2654 -1.0191
  703TMC3    C710454   2.897   0.812  10.387 -0.4910  0.5956  0.4895
  703TMC3    C810455   2.434   0.868  10.316 -0.4970  0.0709 -0.5386
  703TMC3    O110456   2.912   0.935  10.378 -0.3868  0.3504  0.2681
  703TMC3    O210457   2.446   0.975  10.261  0.5985  0.1970  0.2041
  704TMC3    C110458   0.076   3.675  12.229 -0.2522  0.1700  0.0735
  704TMC3    C210459   0.057   3.632  12.104 -0.8888  0.9673 -0.0504
  704TMC3    C310460   0.130   3.526  12.060 -0.0031 -0.2631 -0.7769
  704TMC3    C410461   0.177   3.620  12.306 -0.3414 -0.2980  0.3779
  704TMC3    C510462   0.252   3.523  12.250  0.2631 -0.1105 -0.0676
  704TMC3    C610463   0.230   3.472  12.128 -0.0248 -0.1645 -0.0253
  704TMC3     C10464   4.717   3.758  12.298 -0.2058 -0.3311  0.0704
  704TMC3     O10465   4.694   3.735  12.415  0.3486 -0.2941 -0.4888
  704TMC3     H10466   4.700   3.658  12.053 -1.3331  2.2811  1.4160
  704TMC3    H110467   0.198   3.648  12.408  1.0795  0.7492 -0.1976
  704TMC3    H210468   0.303   3.410  12.075  0.8733  2.2615 -1.6216
  704TMC3    C710469   0.330   3.438  12.342  0.1023 -0.1585  0.2513
  704TMC3    C810470   0.043   3.435  11.992 -0.5442  0.2655  0.4878
  704TMC3    O110471   0.347   3.322  12.299 -0.2521  0.0896 -0.4957
  704TMC3    O210472   4.654   3.454  12.004 -0.0372 -0.1308  0.4385
  705MPD2     C10473   4.580   2.049  16.416 -0.8968 -0.2164  0.1208
  705MPD2    C110474   4.526   2.174  16.381 -0.6545 -0.7208 -0.6663
  705MPD2    C210475   4.387   2.192  16.400  0.2024 -0.7154  0.9657
  705MPD2    C310476   4.314   2.091  16.459  0.7175 -0.0340  0.1108
  705MPD2    C410477   4.373   1.971  16.481  0.5965 -0.4949 -0.3588
  705MPD2    C510478   4.499   1.948  16.451  0.1664  0.3601 -0.6055
  705MPD2     H10479   4.353   2.292  16.373 -0.5860 -0.6977  1.9797
  705MPD2    H110480   4.323   1.881  16.517 -2.1117  1.3751  0.5511
  705MPD2    H210481   4.688   2.038  16.413 -0.6641  2.2686 -0.1363
  705MPD2    H310482   4.540   1.855  16.487  3.4957  2.2483  0.4796
  705MPD2     N10483   4.178   2.108  16.502 -0.3133  0.1631 -0.1072
  705MPD2    H510484   4.145   2.026  16.551  2.1140 -0.5129  0.3497
  705MPD2    N110485   4.593   2.276  16.316 -0.7000  0.5177  0.0157
  705MPD2    H710486   4.541   2.358  16.286 -0.3494 -0.0039 -2.0765
  706TMC3    C110487   0.082   2.384  15.948 -0.2117 -0.2476 -0.3063
  706TMC3    C210488   0.012   2.507  15.939 -0.2041  0.1865  0.5631
  706TMC3    C310489   4.683   2.547  16.051 -0.1469  0.4993  0.1901
  706TMC3    C410490   0.089   2.316  16.063  0.2108  0.4411 -0.1812
  706TMC3    C510491   0.022   2.364  16.170  0.0217 -0.1671  0.3137
  706TMC3    C610492   4.683   2.475  16.163 -0.2296 -0.6808 -0.4121
  706TMC3     C10493   0.113   2.304  15.828  0.4406 -0.4649 -0.7590
  706TMC3     O10494   0.179   2.201  15.841 -0.5208  0.3565 -0.3534
  706TMC3     H10495   0.009   2.575  15.855  1.9072  2.0561  2.0150
  706TMC3    H110496   0.125   2.214  16.064 -3.3562 -0.7960 -0.1224
  706TMC3    H210497   4.651   2.518  16.257 -1.5021  0.1780 -1.2304
  706TMC3    C710498   4.725   2.263  16.266 -0.2049 -0.0647  0.2016
  706TMC3    C810499   4.624   2.682  16.046 -0.5984  0.0872  0.4527
  706TMC3    O110500   0.075   2.177  16.284 -0.3722 -0.0944 -0.4221
  706TMC3    O210501   4.569   2.727  15.939 -0.6881  0.2999  0.0514
  707TMC3    C110502   0.923   0.380   1.658 -0.5888 -0.0648 -0.3960
  707TMC3    C210503   0.945   0.246   1.670 -0.1696  0.1897  0.3196
  707TMC3    C310504   0.839   0.163   1.709 -0.4166  0.2879 -0.3673
  707TMC3    C410505   0.801   0.442   1.685  0.3170  0.4779  0.3771
  707TMC3    C510506   0.701   0.355   1.725  0.3578 -0.4672 -0.2353
  707TMC3    C610507   0.709   0.219   1.727  0.6117  0.0753  1.1140
  707TMC3     C10508   1.034   0.461   1.595  0.3339 -0.1731 -0.8723
  707TMC3     O10509   1.146   0.427   1.631 -0.3075 -0.1785  0.3109
  707TMC3     H10510   1.041   0.202   1.647 -0.4993 -0.6546  0.5543
  707TMC3    H110511   0.788   0.549   1.669 -1.4174  0.0728 -0.7951
  707TMC3    H210512   0.623   0.153   1.722  0.8863 -0.3633  2.1540
  707TMC3    C710513   0.561   0.410   1.730  0.2685 -0.3398  0.2472
  707TMC3    C810514   0.841   0.024   1.669  0.8383 -0.4497 -0.7262
  707TMC3    O110515   0.551   0.521   1.678 -0.1641 -0.0568 -0.3377
  707TMC3    O210516   0.745   4.695   1.718  0.0256 -0.0391 -0.6479
  708MPD2     C10517   2.353   0.763  14.011  0.6089  0.4261  0.3275
  708MPD2    C110518   2.343   0.679  14.116 -0.5735  0.1077 -0.4315
  708MPD2    C210519   2.451   0.662  14.197  0.4008 -0.9800 -0.3659
  708MPD2    C310520   2.569   0.738  14.187  0.5920  0.9327 -0.1856
  708MPD2    C410521   2.576   0.822  14.073 -0.3219 -0.0094  0.0177
  708MPD2    C510522   2.470   0.836  13.988  0.5189  0.4974 -0.2390
  708MPD2     H10523   2.438   0.593  14.279 -0.8600 -0.2244  0.0623
  708MPD2    H110524   2.661   0.882  14.042 -2.4834  1.9655 -2.0458
  708MPD2    H210525   2.269   0.781  13.944  0.8323  2.9271  0.7103
  708MPD2    H310526   2.475   0.906  13.906 -0.2286 -0.8960 -1.4588
  708MPD2     N10527   2.675   0.738  14.274  0.0049  0.3385  0.1859
  708MPD2    H510528   2.755   0.795  14.247 -0.0560  0.7366  0.8457
  708MPD2    N110529   2.237   0.592  14.149 -0.3257 -0.2888  0.6623
  708MPD2    H710530   2.257   0.525  14.223  1.0414 -0.1840  0.3950
  709TMC3    C110531   2.027   0.512  14.167 -0.9887 -0.6331  0.0882
  709TMC3    C210532   1.950   0.442  14.086 -0.5694 -0.3833  0.4263
  709TMC3    C310533   1.887   0.337  14.147  0.0660 -0.3552 -0.2714
  709TMC3    C410534   2.054   0.488  14.299  0.0335  0.0803  0.5561
  709TMC3    C510535   1.983   0.382  14.352 -0.3994  0.4257  0.6458
  709TMC3    C610536   1.903   0.307  14.275 -0.4845 -0.1037 -0.0765
  709TMC3     C10537   2.116   0.594  14.095 -0.0592  0.2224  0.4509
  709TMC3     O10538   2.072   0.679  14.020 -0.6150  0.0046 -0.3257
  709TMC3     H10539   1.939   0.465  13.980  0.7200  1.3253  0.6579
  709TMC3    H110540   2.116   0.553  14.360 -0.6026  0.9468  0.2735
  709TMC3    H210541   1.850   0.220  14.311 -1.7970  0.5959 -0.3150
  709TMC3    C710542   2.030   0.340  14.487 -0.3375  0.3766  0.0005
  709TMC3    C810543   1.825   0.234  14.065  0.4101  0.3462 -0.1505
  709TMC3    O110544   1.956   0.299  14.574 -0.0512 -0.0794  0.4763
  709TMC3    O210545   1.736   0.171  14.118 -0.4115 -0.6763 -0.5150
  710TMC3    C110546   3.689   1.449   0.190 -0.0411 -0.2605  0.3565
  710TMC3    C210547   3.753   1.517   0.090 -0.7496  0.6240  0.1937
  710TMC3    C310548   3.803   1.430  17.730 -0.0435 -0.2745  0.9283
  710TMC3    C410549   3.683   1.309   0.197 -0.2301  0.1916 -0.1237
  710TMC3    C510550   3.733   1.226   0.103 -0.4139 -0.2896 -0.9578
  710TMC3    C610551   3.799   1.286  17.731  0.7247 -0.1846  0.0413
  710TMC3     C10552   3.593   1.514   0.269 -0.2192  0.2300 -0.2127
  710TMC3     O10553   3.518   1.447   0.341 -0.1475 -0.2424  0.0935
  710TMC3     H10554   3.751   1.625   0.079 -1.8046  0.3355 -2.4952
  710TMC3    H110555   3.641   1.267   0.288 -0.5085 -1.3275 -0.9545
  710TMC3    H210556   3.854   1.228  17.658  0.9343  0.5213 -0.3693
  710TMC3    C710557   3.785   1.100   0.160 -0.0834 -0.5567 -0.0192
  710TMC3    C810558   3.904   1.477  17.641  0.4738 -0.4312  0.4337
  710TMC3    O110559   3.754   1.063   0.273  0.6163  0.7554  0.2169
  710TMC3    O210560   3.927   1.413  17.543 -0.1342 -0.0383 -0.3376
  711TMC3    C110561   3.690   2.693  14.926  0.3396 -0.5578  0.3814
  711TMC3    C210562   3.647   2.759  15.039 -0.5356 -0.6625 -0.4004
  711TMC3    C310563   3.746   2.791  15.120  0.2063  0.5146  0.1356
  711TMC3    C410564   3.825   2.692  14.889 -0.0275 -0.3073 -0.1749
  711TMC3    C510565   3.922   2.744  14.966  0.2684  0.0509  0.4994
  711TMC3    C610566   3.883   2.785  15.089 -0.4366  0.6199  0.1684
  711TMC3     C10567   3.591   2.642  14.826  0.5546 -0.6390  0.3690
  711TMC3     O10568   3.479   2.635  14.871 -0.4916 -0.1568  0.1782
  711TMC3     H10569   3.541   2.763  15.064  0.0189 -1.8283  2.1681
  711TMC3    H110570   3.847   2.637  14.798 -0.1915  1.0496 -1.0367
  711TMC3    H210571   3.945   2.805  15.176  0.9204  0.8324 -0.8533
  711TMC3    C710572   4.062   2.706  14.954  0.0696  0.1809 -0.2734
  711TMC3    C810573   3.700   2.805  15.257 -0.3668  0.2701 -0.5565
  711TMC3    O110574   4.085   2.603  14.892 -0.2047 -0.2490  0.3297
  711TMC3    O210575   3.589   2.752  15.284 -0.7716  0.3828  0.6238
  712MPD2     C10576   4.509   3.458  13.927  0.0695 -0.3026 -0.1783
  712MPD2    C110577   4.517   3.534  13.805  0.3122 -0.3425 -0.4156
  712MPD2    C210578   4.593   3.652  13.807  0.4619  0.4843  0.2827
  712MPD2    C310579   4.661   3.694  13.924 -0.4092 -0.6657  0.1484
  712MPD2    C410580   4.660   3.614  14.032 -0.0986  0.5823 -0.4946
  712MPD2    C510581   4.582   3.500  14.036  0.8043 -0.0848 -0.2144
  712MPD2     H10582   4.609   3.703  13.713 -0.0078 -0.2090 -0.1668
  712MPD2    H110583   4.712   3.648  14.121 -0.1534 -1.4534  0.3164
  712MPD2    H210584   4.447   3.370  13.943  0.1070 -0.4203 -0.6822
  712MPD2    H310585   4.572   3.448  14.130  1.6013 -1.3754 -0.8480
  712MPD2     N10586   4.716   3.825  13.941 -0.3661  0.2794  0.3050
  712MPD2    H510587   0.027   3.854  14.027 -2.0229 -0.0765  1.3069
  712MPD2    N110588   4.439   3.509  13.684  0.0423  0.1114 -0.2744
  712MPD2    H710589   4.447   3.588  13.621 -0.3990 -1.9474 -2.9076
  713TMC3    C110590   0.051   4.037  13.875 -0.1998  0.4075  0.0027
  713TMC3    C210591   0.171   4.003  13.931 -0.1162 -0.5018  0.5731
  713TMC3    C310592   0.256   4.107  13.948 -0.2055 -0.0409 -0.6031
  713TMC3    C410593   0.010   4.154  13.828  0.2960  0.6511 -0.4996
  713TMC3    C510594   0.102   4.254  13.836  0.3897 -0.5339 -1.1681
  713TMC3    C610595   0.224   4.226  13.887 -0.4495 -0.6372  0.0527
  713TMC3     C10596   4.692   3.928  13.853 -0.4987 -0.5422 -0.6473
  713TMC3     O10597   4.606   3.937  13.765  0.1013  0.5446  0.0117
  713TMC3     H10598   0.196   3.899  13.948  3.0366  0.3357  1.0122
  713TMC3    H110599   4.651   4.175  13.778  0.6889  0.5881 -1.2573
  713TMC3    H210600   0.292   4.310  13.895 -4.0722  2.2463  0.5513
  713TMC3    C710601   0.082   4.382  13.767  0.0068 -0.0940  0.0311
  713TMC3    C810602   0.400   4.077  13.955  0.8324 -0.4141 -0.6273
  713TMC3    O110603   0.181   4.456  13.753 -0.0895 -0.1509 -0.1424
  713TMC3    O210604   0.475   4.160  13.904  0.0250  0.0532 -0.3989
  714MPD2     C10605   1.851   2.958   1.450 -0.0345  0.6560 -0.5903
  714MPD2    C110606   1.850   2.831   1.403 -0.1626 -0.1340 -1.0656
  714MPD2    C210607   1.727   2.781   1.357  0.1148 -0.4048 -0.3577
  714MPD2    C310608   1.613   2.855   1.364  0.0048 -0.1727 -0.4430
  714MPD2    C410609   1.615   2.989   1.407 -0.0751  0.0980 -0.3723
  714MPD2    C510610   1.741   3.039   1.440  0.7468 -0.4630 -0.3157
  714MPD2     H10611   1.717   2.688   1.301  0.0653  0.7623 -2.2850
  714MPD2    H110612   1.531   3.057   1.415 -0.6379 -0.6997  0.5498
  714MPD2    H210613   1.942   3.002   1.488  0.9014  0.5960 -2.7349
  714MPD2    H310614   1.745   3.145   1.459  0.0950 -0.4268 -0.3613
  714MPD2     N10615   1.494   2.797   1.311  0.2471 -0.6185 -0.3011
  714MPD2    H510616   1.494   2.707   1.264  0.7591 -0.4033 -0.7233
  714MPD2    N110617   1.973   2.763   1.396 -0.1552 -0.4559 -1.0765
  714MPD2    H710618   2.054   2.809   1.437 -0.6315 -0.1624 -0.4628
  715TMC3    C110619   2.127   2.601   1.341 -0.8206  0.0669  0.1400
  715TMC3    C210620   2.161   2.470   1.359  0.4497 -0.8444 -0.4586
  715TMC3    C310621   2.293   2.443   1.381  0.4123 -0.5410  0.3883
  715TMC3    C410622   2.218   2.700   1.352 -0.1402  0.1587  0.6720
  715TMC3    C510623   2.347   2.669   1.383 -0.2466  0.5598  0.6073
  715TMC3    C610624   2.389   2.542   1.395  0.4313  0.5382  0.3589
  715TMC3     C10625   1.990   2.636   1.341  0.4013  0.5670 -0.2246
  715TMC3     O10626   1.909   2.549   1.314 -0.0177 -0.2066  0.0039
  715TMC3     H10627   2.092   2.387   1.351 -2.3238  1.0378  3.8008
  715TMC3    H110628   2.200   2.805   1.333 -2.2234 -0.2632  0.3816
  715TMC3    H210629   2.492   2.514   1.414  0.5175  0.5877 -0.0356
  715TMC3    C710630   2.446   2.768   1.391 -0.0686 -0.4464  0.1776
  715TMC3    C810631   2.322   2.299   1.407 -0.5188 -0.2828 -0.0468
  715TMC3    O110632   2.553   2.734   1.348  0.3523 -0.1739  0.3797
  715TMC3    O210633   2.252   2.223   1.348 -0.3420  0.1269  0.0551
  716MPD2     C10634   1.103   0.026   9.101  0.2611 -0.7894  0.8759
  716MPD2    C110635   0.969   0.020   9.068  0.4480 -0.4593 -0.4663
  716MPD2    C210636   0.917   4.642   9.001  0.0039  0.4628 -0.1347
  716MPD2    C310637   1.000   4.532   8.969  0.6471 -0.0239  0.6529
  716MPD2    C410638   1.134   4.550   8.997  0.1198 -0.2954 -0.1270
  716MPD2    C510639   1.182   4.656   9.071  0.2629  0.0566 -0.5973
  716MPD2     H10640   0.810   4.634   8.988  0.3810 -3.2304 -0.9612
  716MPD2    H110641   1.209   4.473   8.983  0.0134 -0.5446  0.6366
  716MPD2    H210642   1.142   0.101   9.168  3.5472 -0.2020 -1.6963
  716MPD2    H310643   1.283   4.667   9.110 -1.0121  2.1807  2.1107
  716MPD2     N10644   0.942   4.430   8.894  0.7577  0.9329  0.0542
  716MPD2    H510645   0.846   4.426   8.863  0.1553  0.7338  1.9712
  716MPD2    N110646   0.895   0.139   9.082 -0.2181 -0.4318  0.0888
  716MPD2    H710647   0.949   0.223   9.098 -1.3557  0.4952 -1.0479
  717TMC3    C110648   0.932   4.199   8.836  0.0483 -0.0330 -0.3397
  717TMC3    C210649   0.792   4.200   8.859  0.1310  0.0110 -0.3708
  717TMC3    C310650   0.732   4.083   8.810  0.5653 -0.0129 -0.3105
  717TMC3    C410651   0.997   4.100   8.766  0.6073  0.3883 -0.7317
  717TMC3    C510652   0.929   3.995   8.713  0.0321  0.2672  0.3453
  717TMC3    C610653   0.794   3.977   8.740 -0.0207 -0.0255 -0.0943
  717TMC3     C10654   1.007   4.312   8.881  0.2553  1.0470 -0.0129
  717TMC3     O10655   1.120   4.273   8.905 -0.5931  0.7779  0.2623
  717TMC3     H10656   0.744   4.267   8.930 -1.1414 -1.0201 -0.2832
  717TMC3    H110657   1.105   4.095   8.771  0.4775 -1.5201  0.0257
  717TMC3    H210658   0.740   3.896   8.692 -1.7071  0.0956  1.6147
  717TMC3    C710659   0.993   3.879   8.646  0.2739  0.6825 -0.8097
  717TMC3    C810660   0.609   4.059   8.868  0.2398 -0.6113  0.2155
  717TMC3    O110661   0.923   3.788   8.602 -0.1691 -0.1522 -0.0692
  717TMC3    O210662   0.543   4.162   8.900  0.0436 -0.0422  0.3380
  718MPD2     C10663   0.845   3.599  11.989 -0.5731  0.3981  0.1954
  718MPD2    C110664   0.914   3.498  12.052  0.5785  0.6671  0.2616
  718MPD2    C210665   0.891   3.469  12.178 -0.7390  0.3422 -0.3916
  718MPD2    C310666   0.791   3.529  12.249 -0.5326 -0.5264 -0.3848
  718MPD2    C410667   0.716   3.631  12.187  0.2832  0.4296  0.4817
  718MPD2    C510668   0.760   3.669  12.061  0.5501 -0.1847 -0.0843
  718MPD2     H10669   0.946   3.393  12.231 -0.1397  0.0620 -1.4235
  718MPD2    H110670   0.637   3.686  12.237  0.0367 -0.7563  1.4116
  718MPD2    H210671   0.860   3.616  11.883 -2.1473 -1.5075 -0.3272
  718MPD2    H310672   0.698   3.739  12.007 -0.4614 -2.5862 -2.0293
  718MPD2     N10673   0.796   3.492  12.382  1.1113  0.0300 -0.0970
  718MPD2    H510674   0.851   3.411  12.409  0.9247  0.2700  0.9779
  718MPD2    N110675   1.006   3.409  11.993  0.1284  0.8213 -0.6872
  718MPD2    H710676   1.048   3.341  12.055 -0.1900  0.9308 -0.3461
  719TMC3    C110677   1.197   3.340  11.879  0.4424  0.2481  0.2605
  719TMC3    C210678   1.187   3.229  11.953 -0.9834  0.0463  0.2557
  719TMC3    C310679   1.296   3.198  12.032  0.1996 -0.0158 -0.2453
  719TMC3    C410680   1.307   3.418  11.889 -0.2682  1.0786 -0.6031
  719TMC3    C510681   1.407   3.395  11.973  0.4876  0.0033 -0.0799
  719TMC3    C610682   1.406   3.278  12.043 -0.0425 -0.2388  0.1914
  719TMC3     C10683   1.076   3.421  11.875 -0.0998  0.2822  0.0847
  719TMC3     O10684   1.076   3.508  11.793 -0.1506 -0.7777 -0.6177
  719TMC3     H10685   1.103   3.162  11.943  0.0335 -1.5034  1.9688
  719TMC3    H110686   1.315   3.506  11.826  2.0262  1.5463  0.3888
  719TMC3    H210687   1.480   3.247  12.115  1.4636 -0.3038 -1.3981
  719TMC3    C710688   1.512   3.494  11.995  0.0100 -0.2299 -0.4476
  719TMC3    C810689   1.235   3.177  12.164 -0.0849  0.1397 -0.8399
  719TMC3    O110690   1.483   3.613  11.981  0.2124  0.8168  0.1179
  719TMC3    O210691   1.123   3.225  12.174 -0.2886  0.3332  0.5962
  720MPD2     C10692   0.485   1.268  13.783 -0.4687  0.1467  0.7597
  720MPD2    C110693   0.523   1.156  13.725 -0.4931 -0.0601 -0.3186
  720MPD2    C210694   0.642   1.091  13.767  0.3353 -0.1008  0.0598
  720MPD2    C310695   0.715   1.138  13.867 -0.7187 -0.9168 -0.0565
  720MPD2    C410696   0.676   1.257  13.936 -0.0230 -0.6038 -0.2475
  720MPD2    C510697   0.562   1.317  13.890  0.1019 -0.1204  0.0640
  720MPD2     H10698   0.672   0.999  13.719 -0.4004  0.1461 -0.8689
  720MPD2    H110699   0.724   1.303  14.022 -0.3170  0.2029 -0.5177
  720MPD2    H210700   0.394   1.321  13.757 -0.6720 -0.1507  0.8729
  720MPD2    H310701   0.523   1.404  13.942 -0.7521  0.1011 -0.9419
  720MPD2     N10702   0.825   1.056  13.908  0.8200 -0.2193  0.2464
  720MPD2    H510703   0.843   0.965  13.867 -1.0842 -1.2212  1.6407
  720MPD2    N110704   0.443   1.095  13.627  0.3632 -0.5134 -0.0384
  720MPD2    H710705   0.486   1.013  13.584  3.1551  1.2190 -0.5309
  721TMC3    C110706   1.026   1.001  14.012 -0.3233  0.2643  0.5783
  721TMC3    C210707   1.092   1.000  14.132 -0.8228  0.4237 -0.7993
  721TMC3    C310708   1.215   0.946  14.141  1.7832  0.2768 -0.4130
  721TMC3    C410709   1.085   0.964  13.895  0.8657 -0.0034  0.5252
  721TMC3    C510710   1.216   0.923  13.908  0.3076 -0.7843  0.2194
  721TMC3    C610711   1.278   0.906  14.029  0.0865 -0.1180 -0.0464
  721TMC3     C10712   0.906   1.080  14.018  0.2804  0.1569  0.6591
  721TMC3     O10713   0.887   1.156  14.110  0.0629  0.0338 -0.2263
  721TMC3     H10714   1.045   1.042  14.220  1.8024 -0.6390  1.1190
  721TMC3    H110715   1.040   0.982  13.798 -1.9188  0.9094  1.9998
  721TMC3    H210716   1.385   0.889  14.032  0.6164  3.4722  1.1174
  721TMC3    C710717   1.305   0.926  13.794 -0.0585 -0.0952  0.1856
  721TMC3    C810718   1.284   0.930  14.270  0.2640  0.0008  0.1778
  721TMC3    O110719   1.425   0.920  13.814 -0.4601 -0.0585  0.2127
  721TMC3    O210720   1.392   0.874  14.275 -0.2240  0.2748  0.2234
  722MPD2     C10721   3.689   4.293  13.785  0.1601 -0.0638  0.0486
  722MPD2    C110722   3.690   4.321  13.653  0.0655 -0.4783 -0.3533
  722MPD2    C210723   3.597   4.259  13.571  0.7718 -0.5576 -0.0106
  722MPD2    C310724   3.520   4.156  13.619 -0.2359 -0.4746 -0.7022
  722MPD2    C410725   3.522   4.123  13.753  0.0451 -0.8351  0.3015
  722MPD2    C510726   3.612   4.195  13.834 -0.0651 -0.3029  0.0847
  722MPD2     H10727   3.589   4.288  13.467  1.7642 -1.1444 -0.2445
  722MPD2    H110728   3.490   4.028  13.794  1.4536 -0.0919  3.0870
  722MPD2    H210729   3.759   4.342  13.851  0.7067  0.1967 -0.7239
  722MPD2    H310730   3.621   4.170  13.939  0.1811 -0.6274 -0.0111
  722MPD2     N10731   3.449   4.075  13.522 -0.5503 -0.0076 -0.2968
  722MPD2    H510732   3.451   4.091  13.422  1.0900 -1.9069 -0.5574
  722MPD2    N110733   3.765   4.425  13.593 -0.4909 -0.3948  0.8589
  722MPD2    H710734   3.753   4.434  13.492 -2.1766 -0.7524  1.0335
  723TMC3    C110735   3.323   3.905  13.431 -0.8973 -0.1890  0.6504
  723TMC3    C210736   3.336   3.775  13.428  0.2000 -0.0465  0.0687
  723TMC3    C310737   3.334   3.714  13.310  0.7103  0.8045 -0.0116
  723TMC3    C410738   3.301   3.979  13.316 -0.4367  0.4778  0.6402
  723TMC3    C510739   3.303   3.911  13.199 -0.8587  0.0042  0.2038
  723TMC3    C610740   3.312   3.775  13.193 -0.4726 -0.0942 -0.2508
  723TMC3     C10741   3.369   3.965  13.551  0.1655  0.8731  0.1187
  723TMC3     O10742   3.356   3.903  13.653  0.2801 -0.7273  0.0795
  723TMC3     H10743   3.356   3.718  13.519 -1.0285 -1.2929 -0.4366
  723TMC3    H110744   3.282   4.085  13.327 -0.7092  0.5184 -0.2183
  723TMC3    H210745   3.329   3.719  13.101  0.9567 -1.7749  1.0423
  723TMC3    C710746   3.284   3.993  13.083 -0.1456 -0.8586 -0.0505
  723TMC3    C810747   3.367   3.579  13.308  0.3076  0.2648 -0.0866
  723TMC3    O110748   3.331   4.109  13.082  0.6866  0.9395  0.2730
  723TMC3    O210749   3.448   3.532  13.389  0.2735  0.3668 -0.0194
  724TMC3    C110750   3.936   2.079   9.887 -0.5715  0.8689  0.6101
  724TMC3    C210751   3.843   2.149   9.812 -0.6111  0.2904  0.4650
  724TMC3    C310752   3.887   2.276   9.782 -0.3729  0.4975 -0.4787
  724TMC3    C410753   4.074   2.106   9.888  0.3930  1.1058  0.0102
  724TMC3    C510754   4.111   2.231   9.835  0.5660  0.1353 -0.3258
  724TMC3    C610755   4.020   2.312   9.777 -0.7794 -0.5158  0.0213
  724TMC3     C10756   3.908   1.936   9.907  0.5166  0.4636 -0.1550
  724TMC3     O10757   3.806   1.892   9.856 -0.0581  0.0930 -0.3307
  724TMC3     H10758   3.738   2.122   9.810 -0.7512  0.8266  0.5657
  724TMC3    H110759   4.146   2.053   9.948 -2.3046 -2.6777 -0.1019
  724TMC3    H210760   4.047   2.407   9.731 -0.3077 -2.3740 -3.5757
  724TMC3    C710761   4.260   2.257   9.836 -0.3793 -0.0083  0.2548
  724TMC3    C810762   3.784   2.356   9.713  0.0908 -0.3633 -0.6212
  724TMC3    O110763   4.337   2.162   9.855  0.1223  0.2269  0.8584
  724TMC3    O210764   3.681   2.299   9.675 -0.0700 -0.7277 -0.3682
  725TMC3    C110765   1.104   1.080  12.621  0.7593 -0.0449  0.1430
  725TMC3    C210766   1.010   1.126  12.530 -0.7374  0.0732  0.3477
  725TMC3    C310767   0.969   1.042  12.427 -0.5632 -0.0973  0.5044
  725TMC3    C410768   1.155   0.948  12.612  0.4746 -0.1216  1.0774
  725TMC3    C510769   1.097   0.874  12.514 -0.7950 -0.1388 -0.2496
  725TMC3    C610770   1.019   0.920  12.419  0.5050 -1.0168 -0.0402
  725TMC3     C10771   1.160   1.170  12.722  0.9214 -0.1488  0.0127
  725TMC3     O10772   1.098   1.267  12.758 -0.4603  0.3067  0.2285
  725TMC3     H10773   0.978   1.229  12.540 -2.0769 -0.1586 -1.5311
  725TMC3    H110774   1.218   0.901  12.686 -0.0185 -0.2447  1.4197
  725TMC3    H210775   0.999   0.857  12.333  1.2355 -2.0438  0.5482
  725TMC3    C710776   1.150   0.740  12.484  0.0875  0.4254  0.6740
  725TMC3    C810777   0.835   1.052  12.366  0.7629  1.0974  0.4839
  725TMC3    O110778   1.163   0.699  12.368 -0.5385  0.4155 -0.6193
  725TMC3    O210779   0.798   0.944  12.315  0.0143 -0.4273 -0.0256
  726MPD2     C10780   3.123   2.460  10.216  0.2673 -0.1233 -0.4292
  726MPD2    C110781   3.014   2.542  10.212  0.0627 -0.2720 -0.1363
  726MPD2    C210782   2.898   2.511  10.284 -0.6283  0.2813  0.4502
  726MPD2    C310783   2.909   2.409  10.384 -0.6722 -0.5917 -0.4077
  726MPD2    C410784   3.029   2.346  10.394  0.4906 -0.1778 -0.1122
  726MPD2    C510785   3.131   2.359  10.304  0.4727  0.5707 -0.0050
  726MPD2     H10786   2.807   2.568  10.267  0.6590  2.1555 -0.2194
  726MPD2    H110787   3.031   2.264  10.465  0.4944 -0.4995 -0.4862
  726MPD2    H210788   3.204   2.460  10.144  0.8550  1.5671  0.2307
  726MPD2    H310789   3.220   2.301  10.326  1.0813  0.9626 -1.4548
  726MPD2     N10790   2.806   2.368  10.466  0.0899 -0.2498 -0.3660
  726MPD2    H510791   2.824   2.286  10.522 -1.8731 -0.5556 -0.1831
  726MPD2    N110792   3.009   2.652  10.128  0.2416  0.0056 -0.4575
  726MPD2    H710793   2.914   2.683  10.114  0.3358 -0.2134 -1.6398
  727TMC3    C110794   3.078   2.833  10.000  0.1843 -0.3871 -0.4873
  727TMC3    C210795   3.155   2.939  10.031 -0.3081 -0.8791  1.2314
  727TMC3    C310796   3.113   3.062   9.990 -0.5917  0.4991  0.3066
  727TMC3    C410797   2.963   2.836   9.931 -0.0341 -0.0212 -0.3749
  727TMC3    C510798   2.911   2.963   9.895  0.0758 -0.4541 -0.6828
  727TMC3    C610799   2.988   3.071   9.929  0.1472  0.6725 -0.4071
  727TMC3     C10800   3.118   2.720  10.080  0.0502 -0.4480 -0.0629
  727TMC3     O10801   3.235   2.716  10.118 -0.1333 -0.0931  0.2019
  727TMC3     H10802   3.256   2.937  10.070 -0.0738  2.0309  0.7689
  727TMC3    H110803   2.923   2.744   9.889 -0.4766 -1.2820  2.7926
  727TMC3    H210804   2.968   3.161   9.872 -0.5804  0.4882 -0.4417
  727TMC3    C710805   2.781   2.986   9.839  0.5948  0.7138 -0.5228
  727TMC3    C810806   3.192   3.175  10.016  0.0317 -0.1802  0.0359
  727TMC3    O110807   2.717   2.885   9.855  0.6259 -0.2151  0.1867
  727TMC3    O210808   3.312   3.150  10.038  0.5089 -0.2224 -0.2878
  728TMC3    C110809   2.924   1.632  15.462 -0.2483  0.6242  0.0038
  728TMC3    C210810   3.030   1.721  15.468  0.1702 -0.2193 -0.8087
  728TMC3    C310811   3.035   1.825  15.376  0.2582 -0.0365 -0.6666
  728TMC3    C410812   2.826   1.641  15.364  0.1184 -0.6671  0.7148
  728TMC3    C510813   2.846   1.742  15.275  0.4757  0.0092  0.3408
  728TMC3    C610814   2.941   1.837  15.289 -0.5403 -0.6139  0.2693
  728TMC3     C10815   2.957   1.506  15.538  1.0391  0.2662  0.7630
  728TMC3     O10816   3.073   1.483  15.569 -0.1122 -0.1463  0.4894
  728TMC3     H10817   3.095   1.717  15.555 -0.0779  0.3395 -0.5937
  728TMC3    H110818   2.753   1.567  15.333 -0.4551  0.2550 -0.1433
  728TMC3    H210819   2.933   1.925  15.226 -1.9741 -0.7667  0.2329
  728TMC3    C710820   2.750   1.743  15.164  0.3750  0.2317 -0.6963
  728TMC3    C810821   3.162   1.879  15.344 -0.1657 -0.3052 -0.8241
  728TMC3    O110822   2.651   1.674  15.169  0.3728  0.4284 -0.2957
  728TMC3    O210823   3.161   1.963  15.256  0.4644  0.3093 -0.4353
  729MPD2     C10824   0.248   2.906  16.927  0.0558  0.2329 -0.3476
  729MPD2    C110825   0.337   2.812  16.885 -0.0010  0.7646  0.1701
  729MPD2    C210826   0.464   2.810  16.947  0.5169  0.1504 -0.9749
  729MPD2    C310827   0.496   2.899  17.047 -0.0671  0.2750 -0.6029
  729MPD2    C410828   0.402   2.988  17.091 -0.2982  0.4344 -0.3312
  729MPD2    C510829   0.279   2.999  17.030  0.2859 -0.2438  0.2215
  729MPD2     H10830   0.541   2.752  16.898  1.9721  1.2057  0.0832
  729MPD2    H110831   0.423   3.062  17.167  0.0227 -2.1002  2.0429
  729MPD2    H210832   0.152   2.900  16.877  0.1507  0.6466 -0.5881
  729MPD2    H310833   0.202   3.072  17.053  3.5596  2.7612  1.5805
  729MPD2     N10834   0.623   2.895  17.109  0.1686 -0.2702 -0.1902
  729MPD2    H510835   0.635   2.952  17.192  1.5587 -0.2833 -0.3731
  729MPD2    N110836   0.317   2.728  16.772  0.1492  0.1537  0.1384
  729MPD2    H710837   0.239   2.751  16.711  1.7882  2.1135 -1.2156
  730TMC3    C110838   0.852   2.902  17.141 -0.0099  0.6481 -0.2374
  730TMC3    C210839   0.939   2.970  17.057 -0.1099  0.1908 -0.0787
  730TMC3    C310840   1.017   3.070  17.103  0.0325 -0.1396  0.3414
  730TMC3    C410841   0.812   2.962  17.257  0.1197  0.6951  0.6000
  730TMC3    C510842   0.880   3.073  17.297 -0.5321  0.0702  0.3903
  730TMC3    C610843   0.992   3.114  17.233  0.5192 -0.3508  0.2431
  730TMC3     C10844   0.743   2.843  17.068 -0.1473 -0.3079  0.3775
  730TMC3     O10845   0.759   2.799  16.955  0.2553 -0.3291  0.5133
  730TMC3     H10846   0.943   2.935  16.954 -2.6496 -0.7300  0.1358
  730TMC3    H110847   0.735   2.912  17.314  0.6177 -0.1880  0.4967
  730TMC3    H210848   1.058   3.184  17.283  1.4550 -0.4617 -0.8476
  730TMC3    C710849   0.790   3.185  17.334 -0.1308  0.5057 -0.0606
  730TMC3    C810850   1.041   3.171  17.010  0.6086 -0.1690  0.0113
  730TMC3    O110851   0.815   3.295  17.283  0.0724  0.3233  0.2411
  730TMC3    O210852   1.080   3.150  16.896 -0.4709 -0.2241  0.1243
  731MPD2     C10853   0.169   0.416  12.334 -0.5112 -0.4412  0.1780
  731MPD2    C110854   0.061   0.338  12.313 -0.1261 -0.7841 -0.4575
  731MPD2    C210855   4.725   0.299  12.427 -0.7004  0.2198 -0.2820
  731MPD2    C310856   0.022   0.347  12.547 -0.4348 -0.1816  1.0654
  731MPD2    C410857   0.126   0.428  12.571  0.6015  0.3277 -0.2824
  731MPD2    C510858   0.201   0.460  12.460  0.7310  0.4292  0.5783
  731MPD2     H10859   4.637   0.235  12.426 -0.7084  0.2290  0.1314
  731MPD2    H110860   0.174   0.456  12.664 -0.8297 -2.6107  1.3515
  731MPD2    H210861   0.228   0.447  12.248 -0.0721  2.5072  1.5419
  731MPD2    H310862   0.298   0.507  12.472  0.5293  0.5696  1.6238
  731MPD2     N10863   4.674   0.299  12.657  0.0963 -0.0295  0.0908
  731MPD2    H510864   4.604   0.231  12.631 -0.4786 -0.0785  1.8191
  731MPD2    N110865   0.043   0.271  12.187  0.3713  0.0999 -0.2689
  731MPD2    H710866   0.097   0.301  12.106 -0.7880 -0.4313 -1.2396
  732TMC3    C110867   4.685   0.128  12.026 -0.0763 -0.3922 -0.2274
  732TMC3    C210868   4.561   0.094  11.977  1.3217 -0.2664 -0.2577
  732TMC3    C310869   4.543   0.080  11.844 -0.0508  0.0255 -0.3424
  732TMC3    C410870   0.056   0.162  11.948 -0.4880 -0.4334 -0.1146
  732TMC3    C510871   0.029   0.144  11.812  0.2834  0.1133  0.1448
  732TMC3    C610872   4.649   0.104  11.757  0.2118  0.1527 -0.4420
  732TMC3     C10873   4.688   0.171  12.164  0.5765  0.4758  0.4116
  732TMC3     O10874   4.599   0.134  12.236  0.4998 -0.5334 -0.0612
  732TMC3     H10875   4.482   0.083  12.051  0.7129 -2.7074 -1.2703
  732TMC3    H110876   0.154   0.183  11.991 -0.7825 -0.1274  0.4096
  732TMC3    H210877   4.631   0.104  11.650  1.9307 -1.8683 -0.7242
  732TMC3    C710878   0.139   0.150  11.718  0.0495 -0.2478 -0.0361
  732TMC3    C810879   4.409   0.053  11.789 -0.1871 -0.8559 -0.2728
  732TMC3    O110880   0.114   0.169  11.602 -0.3728  0.0327 -0.4598
  732TMC3    O210881   4.381   0.078  11.673 -0.4605 -0.2851  0.7086
  733TMC3    C110882   0.804   3.513  12.835 -0.3293  0.0782 -0.5105
  733TMC3    C210883   0.769   3.578  12.718 -0.4078 -0.5395 -0.3810
  733TMC3    C310884   0.765   3.497  12.613  0.1897  0.0930  0.8037
  733TMC3    C410885   0.839   3.382  12.845 -0.3760  0.0636  0.3283
  733TMC3    C510886   0.845   3.309  12.731 -0.2019 -0.1344  0.7698
  733TMC3    C610887   0.802   3.365  12.615 -0.0209  0.5421  0.4075
  733TMC3     C10888   0.743   3.577  12.951  0.1365 -0.4268 -0.1298
  733TMC3     O10889   0.726   3.700  12.941 -0.5016 -0.1942  0.4326
  733TMC3     H10890   0.713   3.670  12.704 -2.1603 -1.6739 -0.8020
  733TMC3    H110891   0.880   3.337  12.934 -1.1496 -0.3598  0.4675
  733TMC3    H210892   0.782   3.293  12.537 -0.1390  1.9648 -0.8730
  733TMC3    C710893   0.933   3.195  12.728  0.5316 -0.1505  0.1734
  733TMC3    C810894   0.742   3.562  12.482 -0.1115  0.3323  0.1394
  733TMC3    O110895   0.968   3.135  12.831 -0.7095 -0.1348 -0.2353
  733TMC3    O210896   0.679   3.668  12.484 -0.8201  0.4635  0.0871
  734MPD2     C10897   2.718   0.928  12.675  0.2314  0.8366 -0.1702
  734MPD2    C110898   2.667   0.882  12.552 -0.4876  0.7362  0.2631
  734MPD2    C210899   2.718   0.939  12.437 -0.2069 -0.5458  0.5509
  734MPD2    C310900   2.829   1.018  12.428  0.2427  0.3468 -0.1482
  734MPD2    C410901   2.886   1.055  12.550 -0.2500  0.5006  0.4294
  734MPD2    C510902   2.834   1.005  12.669  0.3209 -0.0097  0.4032
  734MPD2     H10903   2.673   0.907  12.344  0.9954 -0.6861  0.0201
  734MPD2    H110904   2.980   1.110  12.557  0.2188 -0.4728  1.6812
  734MPD2    H210905   2.679   0.888  12.767 -0.5095  0.8229 -0.4896
  734MPD2    H310906   2.896   1.016  12.758  0.2059 -1.6340  0.6768
  734MPD2     N10907   2.868   1.063  12.304 -0.3107 -0.2845 -0.9480
  734MPD2    H510908   2.811   1.026  12.228 -0.1000  0.5775 -1.5303
  734MPD2    N110909   2.568   0.787  12.551  0.0222  0.0914 -0.0757
  734MPD2    H710910   2.537   0.760  12.644  0.2708  0.4634  0.1170
  735TMC3    C110911   2.401   0.641  12.464 -0.7338 -0.1723  0.0794
  735TMC3    C210912   2.325   0.625  12.353 -0.4794  0.3279  0.1191
  735TMC3    C310913   2.325   0.503  12.287  0.6186 -0.4357 -0.0360
  735TMC3    C410914   2.478   0.530  12.507 -0.3093 -0.6924  0.2681
  735TMC3    C510915   2.475   0.412  12.444 -0.1297  0.1935  0.1516
  735TMC3    C610916   2.392   0.392  12.335 -0.0076  0.5573  0.1255
  735TMC3     C10917   2.494   0.751  12.440  0.5551  0.2980 -0.5560
  735TMC3     O10918   2.481   0.786  12.325  0.3921 -0.4036  0.1349
  735TMC3     H10919   2.273   0.716  12.323  1.5449  1.7093  0.7888
  735TMC3    H110920   2.549   0.544  12.588 -0.8306 -0.0448  0.6148
  735TMC3    H210921   2.401   0.308  12.267 -3.1046  0.5992 -0.3212
  735TMC3    C710922   2.592   0.327  12.468  0.4907 -1.0854  0.1102
  735TMC3    C810923   2.327   0.508  12.142 -0.1276  0.2109 -0.6636
  735TMC3    O110924   2.693   0.376  12.526  0.4344  0.2895 -0.0659
  735TMC3    O210925   2.304   0.404  12.079 -0.2579 -0.3612  0.1429
  736MPD2     C10926   2.624   4.706  12.384  0.4306 -0.3878 -0.7482
  736MPD2    C110927   2.668   0.099  12.418  0.2323  0.5128  0.5525
  736MPD2    C210928   2.798   0.135  12.409  0.8725 -0.3617 -0.0322
  736MPD2    C310929   2.889   0.036  12.385 -0.0169  0.3727 -0.8476
  736MPD2    C410930   2.848   4.639  12.364  0.1286 -0.6361  0.3248
  736MPD2    C510931   2.715   4.609  12.359 -0.0712 -0.6749  0.5344
  736MPD2     H10932   2.828   0.239  12.405  0.7713 -0.3178  0.3574
  736MPD2    H110933   2.923   4.562  12.352  1.1789  0.3270  0.7557
  736MPD2    H210934   2.517   4.689  12.385  0.4076 -0.2202 -0.1666
  736MPD2    H310935   2.673   4.511  12.340 -0.4267 -0.0257 -2.0883
  736MPD2     N10936   3.029   0.066  12.371  0.2296 -0.3452 -0.0197
  736MPD2    H510937   3.090   4.723  12.345  0.0264 -1.1076  1.8262
  736MPD2    N110938   2.573   0.200  12.421  0.0742 -0.1898 -0.5041
  736MPD2    H710939   2.476   0.175  12.402 -0.1408  0.1840  0.0963
  737TMC3    C110940   3.212   0.213  12.330  0.0041  0.1977 -0.1201
  737TMC3    C210941   3.260   0.339  12.348 -0.0026  0.9522 -0.1167
  737TMC3    C310942   3.336   0.388  12.245 -0.9904  0.4512 -0.0556
  737TMC3    C410943   3.259   0.128  12.232  0.1488 -0.5456  0.3011
  737TMC3    C510944   3.343   0.181  12.137  0.5965 -0.5273  0.3051
  737TMC3    C610945   3.376   0.312  12.133  0.3738 -0.0828 -0.0810
  737TMC3     C10946   3.083   0.191  12.395  0.5503  0.1676  0.3777
  737TMC3     O10947   3.034   0.284  12.455  0.1208 -0.4182 -0.2398
  737TMC3     H10948   3.216   0.405  12.422 -0.7179  1.3833 -0.9203
  737TMC3    H110949   3.220   0.027  12.221  0.5713 -0.2764 -3.6083
  737TMC3    H210950   3.421   0.363  12.048  0.2879  2.0659  1.1481
  737TMC3    C710951   3.395   0.083  12.040 -0.0514 -0.4768 -0.8379
  737TMC3    C810952   3.386   0.524  12.265  0.0438 -0.5056  0.1853
  737TMC3    O110953   3.373   4.702  12.069 -0.3286  0.0580 -0.1475
  737TMC3    O210954   3.415   0.551  12.384 -0.3318  0.2749 -0.7632
  738MPD2     C10955   4.034   0.095  15.545 -0.4404  0.6646 -0.4239
  738MPD2    C110956   4.063   0.020  15.429 -0.4946  0.6068 -0.0453
  738MPD2    C210957   4.136   0.085  15.331 -0.0137  0.0110  0.2255
  738MPD2    C310958   4.187   0.216  15.346 -0.6384 -0.0399 -0.4537
  738MPD2    C410959   4.157   0.280  15.465 -0.1901 -0.5551 -0.1612
  738MPD2    C510960   4.083   0.222  15.559 -0.5959 -0.2518 -0.4193
  738MPD2     H10961   4.155   0.032  15.239  0.3451 -1.0655  0.9261
  738MPD2    H110962   4.189   0.382  15.483 -3.6124  0.3148  1.0275
  738MPD2    H210963   3.987   0.052  15.633  1.0733  1.0876  0.5940
  738MPD2    H310964   4.059   0.281  15.647  0.7309  1.7303 -1.3676
  738MPD2     N10965   4.281   0.267  15.252  0.2467  0.5342  0.5758
  738MPD2    H510966   4.297   0.218  15.164 -0.2878  0.5514  0.4695
  738MPD2    N110967   4.034   4.614  15.415 -0.1068 -0.0343  0.4965
  738MPD2    H710968   4.080   4.559  15.343 -0.7807 -1.3821  1.0947
  739TMC3    C110969   4.464   0.381  15.172  0.4695  0.4293  0.1803
  739TMC3    C210970   4.449   0.341  15.047  0.5288 -0.5219  0.0557
  739TMC3    C310971   4.554   0.342  14.956  0.2682 -0.0431  0.3046
  739TMC3    C410972   4.587   0.423  15.218 -0.2144 -0.4492  0.2613
  739TMC3    C510973   4.692   0.401  15.135 -0.2757 -0.7486  0.1679
  739TMC3    C610974   4.682   0.359  15.002  0.1042 -0.0417  0.4698
  739TMC3     C10975   4.357   0.376  15.267  0.5318  0.6340 -0.2985
  739TMC3     O10976   4.381   0.448  15.364 -0.3899  0.0031 -0.1379
  739TMC3     H10977   4.350   0.310  15.013  0.8242 -1.0899 -0.2796
  739TMC3    H110978   4.596   0.456  15.320 -0.4925 -0.5484  0.3193
  739TMC3    H210979   0.034   0.350  14.939 -0.7836 -1.0665 -0.6148
  739TMC3    C710980   0.091   0.431  15.191  0.0706 -0.5501  0.5460
  739TMC3    C810981   4.518   0.353  14.815  0.9598 -0.3486 -0.0678
  739TMC3    O110982   0.096   0.481  15.303 -0.0439 -0.9616 -0.2547
  739TMC3    O210983   4.401   0.342  14.781  0.1663  0.5855 -0.1440
  740TMC3    C110984   0.009   1.453  14.395  0.3019  0.9739  0.0842
  740TMC3    C210985   0.075   1.347  14.453  0.4310 -0.5086  0.2291
  740TMC3    C310986   0.152   1.276  14.368 -0.2021  0.7375 -0.1664
  740TMC3    C410987   0.002   1.469  14.259 -0.0471 -0.2236 -1.0604
  740TMC3    C510988   0.088   1.392  14.180 -0.1636 -0.3015  0.0858
  740TMC3    C610989   0.160   1.293  14.231  0.1927 -0.0156 -0.4910
  740TMC3     C10990   4.639   1.526  14.470 -0.3029 -0.4007  0.7151
  740TMC3     O10991   4.589   1.626  14.424  0.7931 -0.4098  0.0182
  740TMC3     H10992   0.078   1.343  14.562  0.2416  0.1805  0.2603
  740TMC3    H110993   4.694   1.563  14.226 -2.6750 -0.7315  0.8276
  740TMC3    H210994   0.220   1.230  14.167  0.8967  0.1779 -0.0233
  740TMC3    C710995   0.099   1.414  14.032  0.6672  0.9532  0.0692
  740TMC3    C810996   0.243   1.185  14.431 -1.1713 -0.5786 -0.3190
  740TMC3    O110997   0.180   1.346  13.972 -0.4337  0.7285 -0.4699
  740TMC3    O210998   0.272   1.209  14.547 -0.0190 -0.8684  0.4418
  741TMC3    C110999   4.120   0.844  14.563  0.0158 -0.0776  0.5589
  741TMC3    C211000   4.029   0.749  14.602 -0.7611  0.8537 -0.1924
  741TMC3    C311001   4.078   0.634  14.667  0.2044  0.6399 -0.6293
  741TMC3    C411002   4.257   0.828  14.579  1.0580  0.0383  0.4920
  741TMC3    C511003   4.291   0.724  14.653 -0.7846 -0.1187 -0.3677
  741TMC3    C611004   4.210   0.621  14.696 -0.4354  0.6410 -0.6514
  741TMC3     C11005   4.073   0.949  14.472 -0.0911  0.3319  0.3852
  741TMC3     O11006   3.969   0.933  14.410 -0.1131 -0.3180 -0.3091
  741TMC3     H11007   3.923   0.767  14.588 -1.1180 -0.3334  1.0482
  741TMC3    H111008   4.332   0.904  14.559  0.4329  0.4260 -0.3858
  741TMC3    H211009   4.251   0.532  14.743  0.7981  0.2545 -2.4779
  741TMC3    C711010   4.431   0.714  14.677 -0.3495  0.0475  0.3054
  741TMC3    C811011   3.985   0.527  14.691 -0.5687  0.6154 -0.2041
  741TMC3    O111012   4.500   0.745  14.580  0.3861 -0.0215  0.1523
  741TMC3    O211013   3.868   0.557  14.715  1.0520 -0.3121 -0.6291
  742TMC3    C111014   4.079   3.747  15.086 -1.0348  0.3151 -0.9931
  742TMC3    C211015   3.991   3.670  15.014 -0.2681  0.1973 -0.7924
  742TMC3    C311016   4.029   3.643  14.884  0.0676  0.3814 -0.4350
  742TMC3    C411017   4.199   3.788  15.035  0.0806  0.6656  0.0650
  742TMC3    C511018   4.224   3.766  14.906  0.4770  0.2201  0.4254
  742TMC3    C611019   4.140   3.695  14.830 -0.6663 -0.3108  0.5115
  742TMC3     C11020   4.060   3.759  15.229  0.5233  0.0698  0.3798
  742TMC3     O11021   3.979   3.681  15.275  0.4698  0.2182 -0.1594
  742TMC3     H11022   3.891   3.657  15.056  0.2431  0.4624  0.5248
  742TMC3    H111023   4.274   3.824  15.104 -0.1697  0.5194  0.4170
  742TMC3    H211024   4.174   3.655  14.735 -0.2858  1.1816  0.0083
  742TMC3    C711025   4.360   3.730  14.879  0.3790  0.2770 -0.2860
  742TMC3    C811026   3.986   3.520  14.816 -0.6675  0.1842 -0.4498
  742TMC3    O111027   4.393   3.641  14.802 -0.0238  0.3583 -0.3404
  742TMC3    O211028   4.056   3.480  14.724  0.2192  0.3461 -0.0978
  743MPD2     C11029   1.949   4.292   1.385  0.4894 -0.2084  0.5101
  743MPD2    C111030   1.912   4.371   1.276  0.2174 -0.0488 -0.3694
  743MPD2    C211031   2.014   4.438   1.212 -0.3142  0.2467 -0.0633
  743MPD2    C311032   2.144   4.431   1.251 -0.2608  0.1730 -0.5632
  743MPD2    C411033   2.175   4.345   1.355  0.2930  0.4779 -0.0014
  743MPD2    C511034   2.076   4.283   1.425 -0.3647 -0.1402  0.2151
  743MPD2     H11035   1.989   4.509   1.133  0.7572 -0.6716 -1.2279
  743MPD2    H111036   2.273   4.329   1.397  0.1367 -1.9359 -0.5386
  743MPD2    H211037   1.877   4.224   1.430  1.8622 -1.4003  0.8931
  743MPD2    H311038   2.108   4.211   1.500 -2.4220  0.1459  1.3491
  743MPD2     N11039   2.235   4.501   1.176 -0.1035  0.0828 -0.0472
  743MPD2    H511040   2.202   4.568   1.107  1.4655 -1.4863 -2.3048
  743MPD2    N111041   1.776   4.388   1.237 -0.1667  0.3991 -0.1662
  743MPD2    H711042   1.705   4.345   1.295 -0.1138  0.3576 -0.1324
  744TMC3    C111043   1.597   4.441   1.094  0.1270  0.3973  0.5412
  744TMC3    C211044   1.513   4.437   1.198 -1.0514  0.2260  0.5477
  744TMC3    C311045   1.378   4.436   1.178  0.0521 -1.0337 -0.0915
  744TMC3    C411046   1.565   4.432   0.963  0.5317 -0.0655 -0.7308
  744TMC3    C511047   1.430   4.416   0.947 -0.2250  0.5749  0.6667
  744TMC3    C611048   1.335   4.424   1.047  0.0642 -1.0582  0.4000
  744TMC3     C11049   1.738   4.459   1.126  0.0357 -0.3853 -0.0055
  744TMC3     O11050   1.803   4.511   1.035 -0.5234  0.4445 -0.3732
  744TMC3     H11051   1.541   4.485   1.292  0.6477 -0.3360  0.3264
  744TMC3    H111052   1.642   4.423   0.887  0.3944  0.7532 -0.9605
  744TMC3    H211053   1.230   4.422   1.019 -0.5900  1.1190  2.7628
  744TMC3    C711054   1.395   4.376   0.813  0.3492  0.2784 -0.9685
  744TMC3    C811055   1.294   4.488   1.286  0.2745  0.4299  0.2527
  744TMC3    O111056   1.313   4.285   0.812 -0.3333 -1.1447 -0.1411
  744TMC3    O211057   1.334   4.576   1.362 -0.1830 -0.8439  0.6408
  745TMC3    C111058   4.250   3.423  13.557 -0.4819  0.1574  0.1251
  745TMC3    C211059   4.132   3.363  13.584 -0.1037  0.2740  0.2299
  745TMC3    C311060   4.015   3.430  13.550 -0.4199 -0.1264 -0.5290
  745TMC3    C411061   4.251   3.532  13.477  0.5261  0.1680  0.0638
  745TMC3    C511062   4.134   3.570  13.420  0.3344  0.7010  0.6913
  745TMC3    C611063   4.009   3.534  13.464  0.5253 -0.1000  0.8354
  745TMC3     C11064   4.351   3.403  13.659  0.0031  0.0282 -0.0077
  745TMC3     O11065   4.330   3.318  13.743 -0.4064  0.5190  0.2708
  745TMC3     H11066   4.127   3.272  13.643 -4.9109  0.3945  0.0102
  745TMC3    H111067   4.348   3.567  13.443  0.2095  1.3843  0.4367
  745TMC3    H211068   3.924   3.596  13.438  2.2456  1.0246 -2.1652
  745TMC3    C711069   4.135   3.694  13.344  0.4156 -0.2418 -0.3052
  745TMC3    C811070   3.938   3.463  13.670 -0.0008  0.1342  0.4536
  745TMC3    O111071   4.038   3.764  13.345 -0.2793  0.2984  0.3511
  745TMC3    O211072   3.830   3.517  13.638  0.2216  0.0908 -0.0329
  746TMC3    C111073   1.928   0.246  10.918  0.2306 -0.1267  0.2685
  746TMC3    C211074   1.993   0.244  10.791  0.1431 -0.4721  0.2359
  746TMC3    C311075   1.947   0.157  10.692 -0.1514 -0.5277  0.9393
  746TMC3    C411076   1.805   0.174  10.931 -0.0362  0.5357  0.3591
  746TMC3    C511077   1.764   0.097  10.823  0.7038  0.1670  0.0895
  746TMC3    C611078   1.834   0.087  10.707 -0.2794 -0.7044 -0.3927
  746TMC3     C11079   1.949   0.354  11.017  0.3638  0.4174 -0.2672
  746TMC3     O11080   1.868   0.360  11.108 -0.4169  0.3727 -0.0587
  746TMC3     H11081   2.083   0.304  10.782 -1.1972  1.5250  0.3371
  746TMC3    H111082   1.733   0.185  11.011 -1.3050  1.4433 -0.9073
  746TMC3    H211083   1.799   0.020  10.630 -0.5466 -0.3185 -0.6103
  746TMC3    C711084   1.632   0.043  10.826  0.3838 -0.7159  0.0926
  746TMC3    C811085   2.038   0.096  10.602  0.4764 -0.2458 -0.0563
  746TMC3    O111086   1.581   0.035  10.715  0.0256  0.0970  0.4053
  746TMC3    O211087   2.004   4.729  10.545  0.2827  0.3619  0.6506
  747TMC3    C111088   4.019   0.359  11.256 -0.0373 -0.3875  0.3805
  747TMC3    C211089   3.936   0.251  11.283 -0.7760  0.0810  0.0388
  747TMC3    C311090   3.923   0.213  11.413  0.3517 -1.0400 -0.2522
  747TMC3    C411091   4.089   0.424  11.352 -0.0555 -0.2906  0.0514
  747TMC3    C511092   4.080   0.382  11.482  0.0413  0.7522  0.2024
  747TMC3    C611093   3.996   0.274  11.513  0.1537  0.8196 -0.8544
  747TMC3     C11094   4.019   0.410  11.119 -0.3312 -0.3849 -0.7861
  747TMC3     O11095   4.048   0.529  11.101 -0.2669  0.1122 -0.1275
  747TMC3     H11096   3.866   0.221  11.206  0.2677 -0.9908 -0.4724
  747TMC3    H111097   4.148   0.511  11.325  0.4959 -1.3048 -2.0125
  747TMC3    H211098   3.994   0.233  11.613  0.4342 -0.0226 -1.1917
  747TMC3    C711099   4.175   0.437  11.575 -0.1504  0.2403 -1.0266
  747TMC3    C811100   3.829   0.107  11.449  0.1101 -0.8267  0.0466
  747TMC3    O111101   4.236   0.537  11.541  0.3003 -0.1787 -0.1695
  747TMC3    O211102   3.834   4.731  11.395  0.1885  0.6045 -0.0570
  748MPD2     C11103   1.233   1.159   1.338  0.0348  0.0653  0.2541
  748MPD2    C111104   1.364   1.120   1.349  0.5559  0.4567  0.2695
  748MPD2    C211105   1.462   1.171   1.267  0.8237  0.4318  0.5768
  748MPD2    C311106   1.428   1.272   1.181  0.3477  0.2938  0.5958
  748MPD2    C411107   1.300   1.322   1.176 -0.2672 -0.5664  0.3853
  748MPD2    C511108   1.203   1.252   1.247  0.4733  0.5561 -0.5861
  748MPD2     H11109   1.562   1.132   1.254  0.6347  0.8068 -1.9399
  748MPD2    H111110   1.254   1.396   1.113 -0.6290 -1.3641 -0.2842
  748MPD2    H211111   1.163   1.102   1.399 -0.3229 -1.8116 -1.9124
  748MPD2    H311112   1.101   1.265   1.214  0.3914  1.4526  0.0474
  748MPD2     N11113   1.539   1.327   1.115 -0.7506 -0.5341  0.1049
  748MPD2    H511114   1.633   1.304   1.146 -1.8137 -1.9095  2.2682
  748MPD2    N111115   1.381   1.004   1.437  0.2121 -0.1952  0.3417
  748MPD2    H711116   1.306   0.982   1.501 -1.0236 -1.5760 -1.5897
  749TMC3    C111117   1.665   1.474   0.981  0.0430  1.0167  0.5002
  749TMC3    C211118   1.775   1.420   1.046  0.1778  0.1956  0.7444
  749TMC3    C311119   1.889   1.498   1.050 -0.3113 -0.5944 -0.1577
  749TMC3    C411120   1.672   1.596   0.921 -0.3111  0.3314  0.1037
  749TMC3    C511121   1.785   1.669   0.938 -0.2821 -0.6263 -0.9475
  749TMC3    C611122   1.893   1.626   1.005  0.1577 -0.0909  0.1461
  749TMC3     C11123   1.535   1.432   1.023  0.1853 -0.6197 -0.1423
  749TMC3     O11124   1.438   1.479   0.969  0.5487  0.0363  0.3546
  749TMC3     H11125   1.781   1.318   1.081  0.0522 -0.1258 -0.1822
  749TMC3    H111126   1.588   1.651   0.880  0.0921  1.0581  0.2332
  749TMC3    H211127   1.986   1.680   1.019 -0.2293  0.6736 -0.2315
  749TMC3    C711128   1.789   1.806   0.895  0.5099  0.5446 -0.0079
  749TMC3    C811129   2.000   1.445   1.129 -0.2591 -0.6015  0.3852
  749TMC3    O111130   1.827   1.888   0.977 -0.5409 -0.3342 -0.2363
  749TMC3    O211131   2.054   1.522   1.207  0.4678 -0.0383 -0.3948
  750MPD2     C11132   2.270   2.210  11.398  0.4096  0.0240 -0.3836
  750MPD2    C111133   2.134   2.169  11.409  0.5662 -0.6559  0.0585
  750MPD2    C211134   2.088   2.073  11.321  0.2527  0.8133  0.0212
  750MPD2    C311135   2.166   2.024  11.218 -0.3647 -0.3101 -0.1469
  750MPD2    C411136   2.301   2.063  11.208  0.5911 -0.7616  0.0782
  750MPD2    C511137   2.348   2.152  11.300  0.3992  0.3349 -0.0406
  750MPD2     H11138   1.985   2.046  11.337  0.0953  0.5308 -1.5353
  750MPD2    H111139   2.369   2.011  11.142  0.5047  0.1577 -0.7246
  750MPD2    H211140   2.312   2.286  11.463 -0.1859 -0.7582  0.9206
  750MPD2    H311141   2.454   2.174  11.288  0.2377  0.5711 -1.0323
  750MPD2     N11142   2.131   1.925  11.127 -0.4478 -0.3058  0.0003
  750MPD2    H511143   2.211   1.885  11.080 -1.0475  1.1533 -2.2385
  750MPD2    N111144   2.054   2.228  11.506  0.0279 -0.1286  0.0285
  750MPD2    H711145   2.102   2.285  11.574  0.6418  2.7585 -2.8499
  751TMC3    C111146   1.978   1.799  10.996 -0.6404 -0.8108  0.7205
  751TMC3    C211147   1.845   1.784  10.957 -0.2617 -0.1374 -0.2484
  751TMC3    C311148   1.827   1.693  10.853 -0.7044  0.4717  0.3909
  751TMC3    C411149   2.079   1.716  10.953  0.1883 -0.2000 -0.6397
  751TMC3    C511150   2.048   1.616  10.864 -0.1286  0.1941  0.2840
  751TMC3    C611151   1.929   1.610  10.805  0.6310  0.1940  0.2235
  751TMC3     C11152   2.000   1.888  11.103 -0.6493  0.3362 -0.5745
  751TMC3     O11153   1.897   1.938  11.148  0.3121  0.5329  0.1186
  751TMC3     H11154   1.762   1.844  10.992 -0.4928 -0.1135 -0.8320
  751TMC3    H111155   2.180   1.704  10.990 -0.3515  2.1484  1.5559
  751TMC3    H211156   1.910   1.536  10.728 -1.7606  0.8816  0.1517
  751TMC3    C711157   2.154   1.533  10.809 -0.2531 -0.3985  0.3786
  751TMC3    C811158   1.714   1.607  10.868  0.0787 -0.3727  0.7454
  751TMC3    O111159   2.265   1.590  10.803  0.0467  0.1387 -0.6892
  751TMC3    O211160   1.666   1.543  10.772 -0.2147 -0.0412  0.0759
  752TMC3    C111161   0.796   2.218  17.469 -0.1885  0.0815 -0.5306
  752TMC3    C211162   0.841   2.129  17.562 -0.3687  0.3690  0.8268
  752TMC3    C311163   0.781   2.115  17.683  0.4292 -0.6109 -0.0559
  752TMC3    C411164   0.697   2.297  17.499 -0.4589  0.2899 -0.3730
  752TMC3    C511165   0.646   2.306  17.623 -0.1953 -0.4380 -0.6479
  752TMC3    C611166   0.684   2.211  17.718  0.2147  0.1854 -0.2555
  752TMC3     C11167   0.865   2.217  17.340  0.8485 -0.3070  0.6925
  752TMC3     O11168   0.988   2.220  17.354 -0.0870  0.1858  0.0905
  752TMC3     H11169   0.925   2.065  17.535  0.7975  1.8795  0.8826
  752TMC3    H111170   0.682   2.390  17.444 -0.1868 -0.5600 -1.8759
  752TMC3    H211171   0.632   2.200   0.075 -0.0684  3.7920 -0.0002
  752TMC3    C711172   0.539   2.400  17.668  0.4784  0.0545 -0.1867
  752TMC3    C811173   0.844   2.028   0.040  0.0869  0.8263  0.5771
  752TMC3    O111174   0.546   2.437   0.049 -0.5205  0.0081  0.0498
  752TMC3    O211175   0.916   1.941  17.733  0.1495  1.2386 -0.1493
  753TMC3    C111176   3.384   3.043  13.756 -0.0282  0.2471  0.0223
  753TMC3    C211177   3.385   3.035  13.891 -0.1880  0.3096  0.4449
  753TMC3    C311178   3.423   2.911  13.944 -0.0333 -0.1307  0.6751
  753TMC3    C411179   3.425   2.942  13.676  0.5358  0.8120 -0.0576
  753TMC3    C511180   3.458   2.825  13.726 -0.5526  0.0071 -0.9903
  753TMC3    C611181   3.465   2.808  13.863 -0.5313  0.0539 -0.5157
  753TMC3     C11182   3.299   3.137  13.688 -0.1513 -0.0805  0.5416
  753TMC3     O11183   3.234   3.090  13.595  0.0254 -0.0761 -0.1940
  753TMC3     H11184   3.345   3.112  13.956 -0.1964  1.6630 -1.1472
  753TMC3    H111185   3.434   2.951  13.569 -2.7540  0.7933 -0.3264
  753TMC3    H211186   3.483   2.708  13.899 -0.1178  1.0251  1.9854
  753TMC3    C711187   3.396   2.713  13.656 -0.7274  0.6513  0.3251
  753TMC3    C811188   3.435   2.892  14.084 -0.0321  0.5559 -0.1927
  753TMC3    O111189   3.456   2.606  13.657  0.0581 -0.2383  0.1422
  753TMC3    O211190   3.488   2.791  14.125  1.1039 -0.4184  0.1433
  754MPD2     C11191   2.169   1.887  13.080 -0.4421 -0.5347 -0.3887
  754MPD2    C111192   2.093   1.938  13.185 -0.7858  0.0632  0.2855
  754MPD2    C211193   1.958   1.925  13.186  0.3341 -0.6174 -0.2117
  754MPD2    C311194   1.888   1.863  13.087  0.2353  0.1713 -0.0996
  754MPD2    C411195   1.965   1.826  12.980 -0.4021 -0.2486  0.3335
  754MPD2    C511196   2.099   1.829  12.977 -0.6687  0.2370  0.4705
  754MPD2     H11197   1.909   1.958  13.277  0.2811  1.7454 -1.0956
  754MPD2    H111198   1.907   1.770  12.907 -2.0753  1.6194  0.2406
  754MPD2    H211199   2.277   1.894  13.086 -0.3625 -0.5942 -1.7951
  754MPD2    H311200   2.147   1.776  12.896  0.5678  1.4476  0.4193
  754MPD2     N11201   1.750   1.833  13.089  0.7750 -0.1147 -0.1057
  754MPD2    H511202   1.708   1.780  13.013  1.1488 -0.0403 -0.3686
  754MPD2    N111203   2.157   2.015  13.284  0.1133 -0.5266 -0.1258
  754MPD2    H711204   2.258   2.010  13.275  0.3567  1.8564  1.5615
  755MPD2     C11205   1.070   2.234  13.728 -0.3695  0.0382  0.0700
  755MPD2    C111206   0.993   2.199  13.618 -0.3318 -0.1449  0.1733
  755MPD2    C211207   1.055   2.117  13.519  0.2343 -0.1520  0.9033
  755MPD2    C311208   1.187   2.081  13.534  0.4932 -0.0541  0.2221
  755MPD2    C411209   1.260   2.123  13.641  0.2806  0.5096  0.9932
  755MPD2    C511210   1.206   2.202  13.738  0.6473 -0.1759 -0.9746
  755MPD2     H11211   0.998   2.092  13.431 -0.8009  0.4531  1.4114
  755MPD2    H111212   1.364   2.095  13.659  0.8106 -0.2884 -3.3042
  755MPD2    H211213   1.022   2.292  13.805  0.5716 -0.1365  0.7819
  755MPD2    H311214   1.278   2.216  13.818 -1.1982  0.2682  0.6248
  755MPD2     N11215   1.265   2.011  13.435  0.2019  0.0961  0.1801
  755MPD2    H511216   1.364   2.010  13.456  0.2600  1.5505 -0.0275
  755MPD2    N111217   0.865   2.249  13.589 -0.5327  0.0275  0.2728
  755MPD2    H711218   0.821   2.212  13.505 -1.2896 -0.5739  0.9429
  756MPD2     C11219   1.567   3.271   9.937  0.3934  0.5749  0.0451
  756MPD2    C111220   1.545   3.162  10.010  0.7128 -0.0764 -0.0904
  756MPD2    C211221   1.435   3.090   9.983  0.3067  0.8005  0.4942
  756MPD2    C311222   1.337   3.141   9.903 -0.1677  0.3634 -0.3405
  756MPD2    C411223   1.351   3.262   9.839  0.6082 -0.1024  0.1316
  756MPD2    C511224   1.470   3.329   9.857  0.0568  0.4549  0.3089
  756MPD2     H11225   1.429   2.993  10.031  1.1502 -0.5808 -2.1483
  756MPD2    H111226   1.281   3.316   9.776 -0.1896 -0.2033  0.9273
  756MPD2    H211227   1.656   3.329   9.957  1.7174 -1.6110  0.4676
  756MPD2    H311228   1.488   3.428   9.818  0.0265  1.5350  3.0063
  756MPD2     N11229   1.226   3.061   9.888  0.3993 -0.2063  0.0870
  756MPD2    H511230   1.230   2.968   9.930 -0.7436  0.8663  2.5827
  756MPD2    N111231   1.648   3.103  10.092  0.3119  0.9054  0.5042
  756MPD2    H711232   1.640   3.008  10.126  0.4659  0.2773 -1.1907
  757MPD2     C11233   1.014   2.121   9.948 -0.6637  0.3809 -0.3331
  757MPD2    C111234   0.888   2.168   9.925 -0.0070  0.4413 -0.3819
  757MPD2    C211235   0.860   2.304   9.938  0.2529 -0.1665 -0.6454
  757MPD2    C311236   0.954   2.405   9.941 -1.0720 -0.2855 -0.4337
  757MPD2    C411237   1.078   2.354   9.960  0.7236 -0.1702 -0.4509
  757MPD2    C511238   1.104   2.217   9.969  0.4386 -0.8826  0.5234
  757MPD2     H11239   0.756   2.328   9.922  0.3946 -0.8177 -2.4984
  757MPD2    H111240   1.169   2.413   9.963  0.2918  0.4693  0.1989
  757MPD2    H211241   1.048   2.019   9.957  2.1888  1.3701  0.2412
  757MPD2    H311242   1.208   2.189   9.974 -0.2523 -3.6587 -1.0510
  757MPD2     N11243   0.919   2.541   9.930  0.0710  0.2247  0.4360
  757MPD2    H511244   0.819   2.558   9.925 -0.4438 -1.5979  4.2784
  757MPD2    N111245   0.795   2.063   9.914  0.4638  0.1247 -0.0595
  757MPD2    H711246   0.831   1.969   9.901  0.6998  0.2346 -0.1883
  758MPD2     C11247   1.581   1.375  16.202  0.2172  0.0029 -0.3433
  758MPD2    C111248   1.642   1.457  16.117  0.0587 -0.3511  0.1795
  758MPD2    C211249   1.650   1.592  16.145 -0.6313  0.0672  0.1543
  758MPD2    C311250   1.584   1.644  16.251  0.3014 -0.5940  0.3590
  758MPD2    C411251   1.497   1.563  16.320 -0.1220 -0.2215  0.6367
  758MPD2    C511252   1.505   1.423  16.298  0.4847 -0.5052 -0.5655
  758MPD2     H11253   1.711   1.656  16.082 -0.3072 -2.5454 -2.1694
  758MPD2    H111254   1.436   1.606  16.398 -0.4088  0.1189  0.2220
  758MPD2    H211255   1.596   1.270  16.179 -2.4012 -0.4229 -0.1457
  758MPD2    H311256   1.447   1.359  16.363 -1.8956  1.9632 -0.2256
  758MPD2     N11257   1.593   1.774  16.298  0.4245 -0.3531 -0.2205
  758MPD2    H511258   1.548   1.790  16.388  1.6370 -1.0827  0.5150
  758MPD2    N111259   1.731   1.388  16.021  0.1432 -0.8081  0.0672
  758MPD2    H711260   1.757   1.294  16.050 -0.6473 -1.7531 -2.3026
  759MPD2     C11261   0.237   0.652  10.417 -0.7121 -0.9771  0.8978
  759MPD2    C111262   0.126   0.568  10.414 -0.1337  0.0680  0.6314
  759MPD2    C211263   0.062   0.546  10.298  0.1653 -0.1171 -0.2991
  759MPD2    C311264   0.106   0.602  10.182 -0.0311  0.1815  0.4333
  759MPD2    C411265   0.212   0.690  10.187  0.4623 -0.7401  0.4317
  759MPD2    C511266   0.268   0.716  10.302  0.5388 -0.4200  0.5388
  759MPD2     H11267   4.715   0.475  10.295  0.9953 -1.1658  2.3620
  759MPD2    H111268   0.250   0.753  10.108 -1.1670  0.1503  0.3449
  759MPD2    H211269   0.284   0.672  10.512  2.3655 -0.0478 -0.8041
  759MPD2    H311270   0.350   0.786  10.308  0.4847 -0.0402 -3.1459
  759MPD2     N11271   0.053   0.564  10.057  0.1035 -0.4214  0.3928
  759MPD2    H511272   4.712   0.496  10.064 -1.8502  1.9097  1.5802
  759MPD2    N111273   0.077   0.503  10.524  0.4839 -0.0356 -0.6903
  759MPD2    H711274   4.731   0.443  10.508  0.6560 -0.1036 -1.2983
  760MPD2     C11275   4.448   2.138  12.311  0.6215  0.6983 -0.1962
  760MPD2    C111276   4.557   2.211  12.265  0.0319 -0.4816  1.2140
  760MPD2    C211277   4.650   2.139  12.194 -0.1488 -0.4162  0.8429
  760MPD2    C311278   4.661   2.000  12.199 -0.0013 -0.4873  0.1113
  760MPD2    C411279   4.551   1.929  12.252  0.4293 -0.6264 -0.2471
  760MPD2    C511280   4.442   2.002  12.300 -0.1676 -0.1242 -0.7672
  760MPD2     H11281   4.726   2.194  12.140 -0.3810  0.6926  1.6601
  760MPD2    H111282   4.544   1.821  12.250  2.6871 -0.7839  0.2364
  760MPD2    H211283   4.373   2.199  12.360  0.0017  0.5658 -0.9758
  760MPD2    H311284   4.359   1.949  12.344 -1.4909  0.1942 -2.8529
  760MPD2     N11285   0.033   1.927  12.145 -0.3082 -0.2955 -0.2855
  760MPD2    H511286   0.049   1.831  12.175 -1.0821 -0.4806 -0.4672
  760MPD2    N111287   4.566   2.352  12.272  0.6203  0.8093 -0.4132
  760MPD2    H711288   4.649   2.393  12.230  2.4458 -2.1728  0.2354
  761MPD2     C11289   1.486   1.266  11.171 -0.5196 -0.2706  0.3365
  761MPD2    C111290   1.526   1.261  11.039  0.1489 -0.6601  0.4855
  761MPD2    C211291   1.585   1.372  10.979 -0.3891 -0.2205 -0.4092
  761MPD2    C311292   1.596   1.491  11.047  1.1968  0.2298  0.3697
  761MPD2    C411293   1.542   1.496  11.176 -0.2348 -0.2103 -0.5243
  761MPD2    C511294   1.496   1.386  11.241 -0.3106 -0.1046  0.6164
  761MPD2     H11295   1.622   1.361  10.878 -0.5499 -0.2293 -0.4672
  761MPD2    H111296   1.550   1.586  11.236 -0.0258 -1.6331  1.5807
  761MPD2    H211297   1.435   1.181  11.215  0.0027 -0.9877 -0.4451
  761MPD2    H311298   1.470   1.404  11.345 -2.5480 -2.1163  0.4189
  761MPD2     N11299   1.659   1.607  10.998  0.3473 -0.0378  0.0687
  761MPD2    H511300   1.688   1.665  11.076  2.7723 -2.7244  1.1383
  761MPD2    N111301   1.518   1.138  10.976  0.1302  0.7324  0.0227
  761MPD2    H711302   1.453   1.067  11.008 -0.2271  1.6145  1.2767
  762MPD2     C11303   1.936   0.959  10.307  0.5297  0.4155 -0.7127
  762MPD2    C111304   1.963   0.887  10.426 -0.2831  0.8878  0.2438
  762MPD2    C211305   2.090   0.842  10.455 -0.5682 -1.0168  0.1342
  762MPD2    C311306   2.193   0.866  10.363 -0.1591 -0.0981  0.3261
  762MPD2    C411307   2.163   0.933  10.244 -1.1077 -0.0259 -0.0269
  762MPD2    C511308   2.037   0.978  10.214  0.2284 -0.0314 -0.1137
  762MPD2     H11309   2.107   0.793  10.550 -0.0340 -2.7094 -0.8401
  762MPD2    H111310   2.238   0.969  10.174  0.1930 -2.0367  0.3473
  762MPD2    H211311   1.830   0.977  10.289 -0.1284 -0.4409  2.2047
  762MPD2    H311312   2.012   1.026  10.121  2.2628  0.6581 -0.3045
  762MPD2     N11313   2.327   0.822  10.389  0.3280  0.2886 -0.6785
  762MPD2    H511314   2.326   0.753  10.463 -0.0137 -1.1677 -2.0429
  762MPD2    N111315   1.856   0.868  10.517 -0.2918  0.2767  0.5238
  762MPD2    H711316   1.767   0.906  10.484 -1.5482 -1.5596  1.8122
  763MPD2     C11317   3.970   1.816  16.092 -0.6299  0.3563 -0.6124
  763MPD2    C111318   3.898   1.897  16.009  0.5716 -0.1854 -0.5824
  763MPD2    C211319   3.912   2.038  16.001  0.3213  1.3199  0.6108
  763MPD2    C311320   3.999   2.102  16.092 -0.5518 -0.2442  0.1503
  763MPD2    C411321   4.060   2.022  16.175  0.1345 -0.5029  0.1232
  763MPD2    C511322   4.056   1.884  16.181  0.4897  0.8537 -0.4015
  763MPD2     H11323   3.838   2.098  15.950  1.6239 -0.2672 -3.1655
  763MPD2    H111324   4.127   2.068  16.246  1.0443 -1.9426  0.1944
  763MPD2    H211325   3.980   1.708  16.098 -1.9258  0.4069  2.4428
  763MPD2    H311326   4.123   1.831  16.247  1.1818 -0.0797 -1.8620
  763MPD2     N11327   4.012   2.243  16.089  0.2088  0.2838  0.1726
  763MPD2    H511328   4.056   2.293  16.166  0.7728 -0.0667  0.0778
  763MPD2    N111329   3.787   1.846  15.938  0.1984 -0.2869  0.1612
  763MPD2    H711330   3.739   1.908  15.874 -0.7031 -1.8200 -0.6392
  764MPD2     C11331   1.323   3.000  17.297  0.0028 -0.1901  0.2808
  764MPD2    C111332   1.321   3.136  17.287 -0.7213 -0.0994 -0.5380
  764MPD2    C211333   1.273   3.200  17.400  0.0903 -0.3768  1.1929
  764MPD2    C311334   1.221   3.131  17.511 -0.0227  0.1957 -1.1829
  764MPD2    C411335   1.227   2.995  17.512 -0.0282 -0.7870  0.4597
  764MPD2    C511336   1.276   2.928  17.407  0.0186  0.2091  0.7595
  764MPD2     H11337   1.282   3.307  17.414 -0.0076 -0.3192  0.8152
  764MPD2    H111338   1.188   2.938  17.596 -0.3582  0.2205  0.9817
  764MPD2    H211339   1.365   2.937  17.218  0.8191  0.9823 -0.2190
  764MPD2    H311340   1.280   2.820  17.417 -1.5305  0.0146 -0.6465
  764MPD2     N11341   1.183   3.211  17.617  0.5360  0.6368 -0.0378
  764MPD2    H511342   1.182   3.310  17.596  2.6485  1.2335  2.6483
  764MPD2    N111343   1.370   3.190  17.168 -0.0110 -0.1008  0.0661
  764MPD2    H711344   1.389   3.125  17.092  0.9581 -0.7534  0.8572
  765MPD2     C11345   1.679   1.305  15.484  0.7677 -0.7107 -0.4588
  765MPD2    C111346   1.666   1.284  15.617  0.3887  0.1916 -1.0155
  765MPD2    C211347   1.752   1.214  15.693  0.0093 -1.2676 -0.5028
  765MPD2    C311348   1.874   1.174  15.634  0.4913  0.2256  0.6676
  765MPD2    C411349   1.895   1.192  15.501  0.2138 -0.1961  0.1028
  765MPD2    C511350   1.795   1.255  15.426  0.9972  0.3187 -0.3370
  765MPD2     H11351   1.731   1.191  15.797 -0.2011 -1.0190 -0.4907
  765MPD2    H111352   1.989   1.166  15.455  0.3541 -0.4436  0.5300
  765MPD2    H211353   1.602   1.359  15.430  0.3396 -1.7275 -0.8746
  765MPD2    H311354   1.811   1.261  15.319 -0.6172  1.6749 -0.5043
  765MPD2     N11355   1.968   1.109  15.714 -0.2315  0.2043 -0.6085
  765MPD2    H511356   1.930   1.073  15.801  2.1454  0.4053  0.5093
  765MPD2    N111357   1.549   1.327  15.669 -1.0647  0.1118  0.6388
  765MPD2    H711358   1.489   1.392  15.618  2.0626  1.1161 -1.7512
  766MPD2     C11359   1.170   1.215  15.271 -0.3348 -0.7256  0.0184
  766MPD2    C111360   1.258   1.318  15.295  0.6751 -0.2523 -0.1684
  766MPD2    C211361   1.360   1.351  15.207 -0.4847 -0.0580  1.0180
  766MPD2    C311362   1.374   1.270  15.093  0.5510  0.8246 -0.0902
  766MPD2    C411363   1.284   1.169  15.067  0.1154  0.0789 -0.3318
  766MPD2    C511364   1.189   1.139  15.161 -0.0908  0.3331 -0.6436
  766MPD2     H11365   1.422   1.439  15.221  0.1459 -0.7167  2.3658
  766MPD2    H111366   1.295   1.105  14.980 -1.1521  1.1242 -1.2557
  766MPD2    H211367   1.098   1.181  15.344  0.8405 -0.3246  1.3753
  766MPD2    H311368   1.119   1.056  15.151 -1.5041  1.2024  1.9738
  766MPD2     N11369   1.465   1.296  14.988  0.1061  0.1572  0.0128
  766MPD2    H511370   1.460   1.237  14.905  1.6827  1.3209 -0.9205
  766MPD2    N111371   1.252   1.400  15.414  0.1021 -0.1976 -0.9116
  766MPD2    H711372   1.311   1.482  15.427 -0.3114  0.1327 -1.1165
  767MPD2     C11373   0.998   1.395  14.947  0.1104  0.8784  0.1495
  767MPD2    C111374   1.091   1.495  14.911 -0.2632 -0.4262  0.3277
  767MPD2    C211375   1.155   1.477  14.788 -0.3379 -0.0690 -0.4439
  767MPD2    C311376   1.105   1.384  14.697 -0.1126 -0.2830 -0.0449
  767MPD2    C411377   1.005   1.295  14.731 -0.5283 -0.2768 -0.4312
  767MPD2    C511378   0.966   1.295  14.862  0.2605 -0.0965  0.1719
  767MPD2     H11379   1.238   1.546  14.776 -0.1181 -0.3135 -0.3285
  767MPD2    H111380   0.978   1.209  14.671  0.5274 -1.0569  0.2067
  767MPD2    H211381   0.971   1.370  15.049  1.2774 -1.6690 -0.1507
  767MPD2    H311382   0.910   1.210  14.901 -1.7692 -0.2087 -2.9901
  767MPD2     N11383   1.174   1.367  14.578  0.2536 -0.0370  0.0389
  767MPD2    H511384   1.257   1.423  14.563 -1.1961  1.4718 -2.2793
  767MPD2    N111385   1.123   1.588  15.011 -0.0137  0.5039 -0.6149
  767MPD2    H711386   1.088   1.566  15.104  0.3238  2.1489 -0.0929
  768MPD2     C11387   1.405   4.650  10.355  0.0126 -1.0479  0.1366
  768MPD2    C111388   1.344   4.592  10.463  0.0959 -0.4054 -0.6641
  768MPD2    C211389   1.425   4.531  10.556  0.1748 -0.1117 -0.6365
  768MPD2    C311390   1.563   4.524  10.553 -0.3034  0.2887 -0.9309
  768MPD2    C411391   1.620   4.587  10.443  0.2036  0.0591  0.1406
  768MPD2    C511392   1.540   4.640  10.349 -0.0995 -0.6486 -0.0811
  768MPD2     H11393   1.384   4.480  10.642 -1.8038  2.2104 -0.1941
  768MPD2    H111394   1.727   4.580  10.426  0.8105  1.4875  3.3320
  768MPD2    H211395   1.354   4.702  10.275 -1.3058  0.8485  2.2045
  768MPD2    H311396   1.587   4.671  10.256 -3.7762  0.1699 -1.6740
  768MPD2     N11397   1.651   4.469  10.656  0.5728 -0.2377 -0.0607
  768MPD2    H511398   1.751   4.469  10.642  0.5612  2.4396 -0.1219
  768MPD2    N111399   1.206   4.595  10.485 -0.1095  0.0725  0.1930
  768MPD2    H711400   1.176   4.523  10.549  0.6991  0.2083  0.7249
  769MPD2     C11401   2.592   3.195  14.809  0.1972 -0.8342  0.0976
  769MPD2    C111402   2.526   3.161  14.924 -0.1408 -0.8158  0.8394
  769MPD2    C211403   2.590   3.089  15.022 -0.1000 -0.7248  0.3402
  769MPD2    C311404   2.724   3.058  15.010 -0.3427 -0.4438  0.3862
  769MPD2    C411405   2.788   3.076  14.891 -0.7858 -0.5299 -0.6038
  769MPD2    C511406   2.718   3.134  14.797 -0.4883 -0.0373  0.9768
  769MPD2     H11407   2.535   3.058  15.111 -2.0984 -0.2970 -0.7274
  769MPD2    H111408   2.890   3.045  14.872 -0.3354  0.4001  0.2928
  769MPD2    H211409   2.549   3.237  14.719 -2.4688 -0.7233  1.4247
  769MPD2    H311410   2.761   3.129  14.697 -0.7412  0.2619  0.8503
  769MPD2     N11411   2.777   2.984  15.118 -0.2594  0.0175  0.2403
  769MPD2    H511412   2.717   2.986  15.199 -1.1698  1.6708 -0.4706
  769MPD2    N111413   2.392   3.204  14.932 -0.4732  0.2347  0.1111
  769MPD2    H711414   2.348   3.224  14.842  1.1564  1.6793 -0.3827
  770MPD2     C11415   1.978   2.457  15.377 -0.4415 -0.3148 -0.2308
  770MPD2    C111416   2.079   2.456  15.285  0.7276 -0.1854  0.2277
  770MPD2    C211417   2.087   2.565  15.199  0.5337 -0.4012 -0.4458
  770MPD2    C311418   2.013   2.681  15.219  0.3396 -0.1980  0.1175
  770MPD2    C411419   1.920   2.684  15.321  0.0808  0.0826  0.2509
  770MPD2    C511420   1.896   2.566  15.397  0.4057 -0.2218  0.1328
  770MPD2     H11421   2.144   2.566  15.106 -1.7166  0.1159 -1.8188
  770MPD2    H111422   1.850   2.767  15.330  0.2983  0.3044 -0.1201
  770MPD2    H211423   1.960   2.370  15.439 -0.5484 -0.2335 -0.1456
  770MPD2    H311424   1.814   2.554  15.467  1.2380  2.0980  1.4736
  770MPD2     N11425   2.036   2.789  15.131  0.3478  0.2211  0.1643
  770MPD2    H511426   2.101   2.780  15.053 -2.0881  1.2405 -2.0032
  770MPD2    N111427   2.149   2.336  15.270  0.5059 -0.5505 -0.7419
  770MPD2    H711428   2.132   2.262  15.337 -0.8425  1.0525  0.6938
  771MPD2     C11429   3.435   0.061  13.387 -0.6111 -0.4620 -0.4424
  771MPD2    C111430   3.358   0.173  13.347 -0.0656  0.0215  0.3154
  771MPD2    C211431   3.269   0.157  13.236  0.2722  0.1197  0.6282
  771MPD2    C311432   3.255   0.034  13.170 -0.1078  0.4176  0.2784
  771MPD2    C411433   3.344   4.668  13.205 -0.1088 -0.0047 -0.3789
  771MPD2    C511434   3.427   4.679  13.315 -0.6115  0.5844  0.0849
  771MPD2     H11435   3.194   0.231  13.210 -0.2857 -0.5645  0.2821
  771MPD2    H111436   3.342   4.570  13.160  0.8795 -0.6545  0.9934
  771MPD2    H211437   3.512   0.064  13.464  0.0535  2.8805 -1.2449
  771MPD2    H311438   3.492   4.598  13.344 -0.9357  0.2107 -0.2139
  771MPD2     N11439   3.167   0.028  13.061  0.0911  0.0650 -0.0260
  771MPD2    H511440   3.110   0.110  13.043 -0.4038 -0.1641  0.4867
  771MPD2    N111441   3.378   0.298  13.399  0.3398 -0.0946 -0.2719
  771MPD2    H711442   3.329   0.368  13.345  0.1616  0.8153  1.0635
  772MPD2     C11443   2.938   0.831  13.579  0.6135  1.0775  0.1367
  772MPD2    C111444   2.981   0.710  13.631 -0.3452  0.4500 -0.2012
  772MPD2    C211445   2.904   0.642  13.716  0.1339 -0.1203  0.1577
  772MPD2    C311446   2.771   0.684  13.731  0.2319  0.1879  1.2966
  772MPD2    C411447   2.740   0.810  13.685  0.5550 -0.2144  0.5349
  772MPD2    C511448   2.822   0.891  13.618  0.0738 -0.2519  0.0534
  772MPD2     H11449   2.940   0.548  13.756  0.2820 -0.3537 -0.5338
  772MPD2    H111450   2.641   0.848  13.709  0.7862  0.8517 -0.2303
  772MPD2    H211451   3.002   0.884  13.509 -0.7531 -0.5881 -2.3934
  772MPD2    H311452   2.794   0.985  13.572 -1.1707 -0.9667 -0.6420
  772MPD2     N11453   2.671   0.611  13.800 -0.1008  0.8149 -0.9485
  772MPD2    H511454   2.577   0.649  13.812  0.2816  1.7241 -0.8313
  772MPD2    N111455   3.111   0.664  13.604 -0.3660 -0.0208  0.4799
  772MPD2    H711456   3.131   0.567  13.626  0.2000  0.4262  1.9725
  773MPD2     C11457   2.162   2.529   0.018  0.5031  0.0451 -0.0673
  773MPD2    C111458   2.148   2.389  17.734 -0.2543 -0.0356  0.3711
  773MPD2    C211459   2.203   2.302   0.085 -0.0426  0.2141  0.1748
  773MPD2    C311460   2.262   2.354   0.200  1.4258 -0.1423  0.6695
  773MPD2    C411461   2.274   2.489   0.223  0.6812  0.0265 -0.0993
  773MPD2    C511462   2.229   2.573   0.127  0.0574  0.2027  0.1766
  773MPD2     H11463   2.216   2.195   0.069 -0.3180 -0.0044  1.3557
  773MPD2    H111464   2.309   2.527   0.318  0.4647 -3.3085  1.3196
  773MPD2    H211465   2.131   2.599  17.679 -0.3538  0.0274  0.2700
  773MPD2    H311466   2.238   2.680   0.143 -0.7884  0.1441  1.0699
  773MPD2     N11467   2.317   2.254   0.289 -0.4652 -0.1458 -0.7519
  773MPD2    H511468   2.291   2.157   0.270  0.4587 -0.4378 -0.5245
  773MPD2    N111469   2.104   2.338  17.612  0.0009 -0.3787  0.3547
  773MPD2    H711470   2.082   2.239  17.608 -3.3048  0.4334 -1.4904
  774MPD2     C11471   2.224   1.471  13.868 -0.8128 -0.0294  0.3194
  774MPD2    C111472   2.143   1.500  13.762  0.6025  0.1433  0.5211
  774MPD2    C211473   2.142   1.623  13.709  0.5059  0.8523  0.1959
  774MPD2    C311474   2.230   1.718  13.754  0.8412  0.0822 -0.1702
  774MPD2    C411475   2.302   1.689  13.865  0.3485  0.5895  0.6212
  774MPD2    C511476   2.306   1.563  13.919 -0.2059 -0.3402  0.0006
  774MPD2     H11477   2.081   1.653  13.625 -0.6543  2.0852  1.4790
  774MPD2    H111478   2.367   1.767  13.902  1.1146  1.2311 -2.1011
  774MPD2    H211479   2.237   1.371  13.909  1.3840 -0.3686 -1.2040
  774MPD2    H311480   2.361   1.555  14.012 -0.6714  0.3991  0.3463
  774MPD2     N11481   2.224   1.851  13.696  0.0699  0.8561  0.1525
  774MPD2    H511482   2.157   1.860  13.620  0.7093 -0.0814 -0.5240
  774MPD2    N111483   2.071   1.396  13.704  0.6341 -1.0119 -0.5941
  774MPD2    H711484   2.099   1.302  13.729 -0.3420 -0.7299  1.6389
  775MPD2     C11485   3.098   2.607  15.590  0.2369  0.1120  0.3285
  775MPD2    C111486   3.081   2.719  15.674  0.1071  0.3854  0.5320
  775MPD2    C211487   3.164   2.824  15.658 -0.7429  0.3093  0.1094
  775MPD2    C311488   3.266   2.836  15.568  0.7083 -0.4758 -0.0351
  775MPD2    C411489   3.274   2.729  15.480 -0.0033 -0.2832 -0.1669
  775MPD2    C511490   3.193   2.613  15.493 -0.5090 -0.5316  0.3392
  775MPD2     H11491   3.158   2.905  15.730 -1.2610  0.8490 -0.5343
  775MPD2    H111492   3.349   2.729  15.402  0.2725 -0.1614  0.1007
  775MPD2    H211493   3.040   2.516  15.597  0.8517 -0.1990  1.4604
  775MPD2    H311494   3.216   2.526  15.433  0.6593  1.8169 -2.6918
  775MPD2     N11495   3.361   2.937  15.555  0.0171 -0.1537 -0.1985
  775MPD2    H511496   3.425   2.939  15.476  1.6023 -0.3542  1.0924
  775MPD2    N111497   2.977   2.720  15.772  0.2222  0.8045 -0.0768
  775MPD2    H711498   2.912   2.641  15.774 -1.5202  2.2625  0.9348
  776MPD2     C11499   2.186   2.760  11.647  0.1076 -0.1412 -0.0847
  776MPD2    C111500   2.066   2.786  11.594  0.9029  1.0207  0.3379
  776MPD2    C211501   2.035   2.914  11.537 -0.1203  0.6349  0.4975
  776MPD2    C311502   2.126   3.012  11.554  0.0932  0.8961  0.3444
  776MPD2    C411503   2.247   2.984  11.618  0.6507 -0.7857 -0.0690
  776MPD2    C511504   2.274   2.860  11.662  0.4025 -0.1213  0.2905
  776MPD2     H11505   1.939   2.929  11.489 -0.2438 -2.5019 -0.2651
  776MPD2    H111506   2.318   3.064  11.638 -1.0573  0.7913 -0.3515
  776MPD2    H211507   2.216   2.663  11.682  0.4764 -0.0415 -0.1286
  776MPD2    H311508   2.361   2.850  11.726  1.2722 -1.8300 -1.1440
  776MPD2     N11509   2.113   3.149  11.523 -0.1234  0.1811  0.3976
  776MPD2    H511510   2.182   3.219  11.549  1.1645 -0.4101 -1.4305
  776MPD2    N111511   1.971   2.675  11.590  0.6029  0.7889  0.4043
  776MPD2    H711512   2.003   2.588  11.631 -0.0227  0.9059  1.1462
  777MPD2     C11513   2.194   0.697   0.258 -0.1815  0.1319 -0.7288
  777MPD2    C111514   2.180   0.604   0.361 -0.5309  0.1154 -0.5209
  777MPD2    C211515   2.121   0.487   0.341 -0.0949  0.3878  0.3168
  777MPD2    C311516   2.048   0.467   0.224  0.5381 -1.4419 -0.1628
  777MPD2    C411517   2.057   0.556   0.121  0.0247 -0.9490 -0.4652
  777MPD2    C511518   2.135   0.669   0.136  0.2152 -0.2759  0.0845
  777MPD2     H11519   2.104   0.421   0.426  1.0367  1.8343  1.6655
  777MPD2    H111520   2.000   0.537   0.031 -1.6710 -0.6901  0.5445
  777MPD2    H211521   2.239   0.794   0.276  0.4948 -0.1005 -1.1943
  777MPD2    H311522   2.140   0.746   0.060  1.3879 -0.1157  0.3371
  777MPD2     N11523   1.983   0.340   0.213  0.2937  0.0714 -0.0997
  777MPD2    H511524   1.992   0.275   0.290 -0.5597 -0.6783 -0.6333
  777MPD2    N111525   2.252   0.638   0.480  0.5098 -0.0710 -0.1274
  777MPD2    H711526   2.273   0.735   0.496  1.6576 -0.2637 -0.4990
  778MPD2     C11527   3.540   0.530  15.413  0.6525 -0.5157 -0.4562
  778MPD2    C111528   3.502   0.482  15.290 -0.9045 -0.5233 -0.5955
  778MPD2    C211529   3.551   0.546  15.172  0.3214  0.1674 -0.4926
  778MPD2    C311530   3.638   0.655  15.177  0.2129  0.3110  0.0680
  778MPD2    C411531   3.672   0.695  15.304 -0.7464 -0.0622  0.4334
  778MPD2    C511532   3.627   0.634  15.415  0.0373  0.3376 -0.3039
  778MPD2     H11533   3.520   0.518  15.072 -1.3703  0.5213 -0.0567
  778MPD2    H111534   3.751   0.768  15.312  1.9207 -3.0369  1.2946
  778MPD2    H211535   3.510   0.488  15.508  1.8377  0.1462  0.2151
  778MPD2    H311536   3.654   0.672  15.513  0.0486  1.0497 -0.5842
  778MPD2     N11537   3.687   0.706  15.056  0.4132 -0.1945 -0.1146
  778MPD2    H511538   3.659   0.649  14.976  0.4816 -3.0132  1.8762
  778MPD2    N111539   3.406   0.381  15.269  0.6003 -0.3742 -0.4383
  778MPD2    H711540   3.392   0.352  15.172  1.8961 -1.6134 -0.2624
  779MPD2     C11541   3.008   4.060  14.658 -0.2190  0.6199 -0.8264
  779MPD2    C111542   3.142   4.069  14.641  0.5511  0.0439  0.4136
  779MPD2    C211543   3.204   4.191  14.637 -0.3516 -0.0478 -0.6128
  779MPD2    C311544   3.125   4.308  14.645 -0.4630  0.2624  0.3450
  779MPD2    C411545   2.988   4.298  14.649  0.7633 -0.3179 -0.1995
  779MPD2    C511546   2.931   4.179  14.667  0.7464 -0.3091  0.0038
  779MPD2     H11547   3.310   4.189  14.617  0.1225  1.7055  1.7597
  779MPD2    H111548   2.926   4.386  14.661 -0.6912 -1.1953 -1.2571
  779MPD2    H211549   2.951   3.968  14.668  0.5604  0.5739  3.0278
  779MPD2    H311550   2.824   4.167  14.672  0.8073 -0.2977  1.3216
  779MPD2     N11551   3.184   4.437  14.634  0.4548  0.1832 -0.1817
  779MPD2    H511552   3.125   4.520  14.637 -0.5734 -0.5499 -0.2234
  779MPD2    N111553   3.223   3.956  14.630 -0.4083 -0.4108  0.1618
  779MPD2    H711554   3.323   3.975  14.641 -0.4893  0.4986 -0.7415
  780MPD2     C11555   1.948   4.291   0.515  0.1244 -0.4370  0.1581
  780MPD2    C111556   2.066   4.306   0.586  0.0683  0.7435  0.4510
  780MPD2    C211557   2.180   4.305   0.519 -0.3421  0.0838 -0.0904
  780MPD2    C311558   2.193   4.294   0.385  0.0524 -0.7738 -0.2826
  780MPD2    C411559   2.074   4.290   0.309  0.4930 -0.1852  0.1360
  780MPD2    C511560   1.956   4.294   0.377  0.7375  0.5241  0.3942
  780MPD2     H11561   2.273   4.290   0.574 -1.5767  3.5788  2.9388
  780MPD2    H111562   2.069   4.282   0.201 -0.4792  0.1342  0.1623
  780MPD2    H211563   1.845   4.288   0.551 -0.3759  1.3050 -1.1179
  780MPD2    H311564   1.870   4.291   0.312 -1.7682  0.7971  3.7136
  780MPD2     N11565   2.323   4.289   0.330 -0.0831  0.4558 -0.4387
  780MPD2    H511566   2.391   4.336   0.389 -1.0150  1.1324  0.0994
  780MPD2    N111567   2.050   4.296   0.719 -0.1626  0.1195 -0.0947
  780MPD2    H711568   1.958   4.303   0.761  0.7177  0.7115  1.7117
  781MPD2     C11569   4.273   0.869  11.956  0.2992  0.7245 -0.1624
  781MPD2    C111570   4.378   0.897  12.037 -0.3199 -0.2923  0.9965
  781MPD2    C211571   4.506   0.907  11.976 -0.0399  0.6044 -0.0523
  781MPD2    C311572   4.521   0.888  11.848  0.5675  0.1698 -0.6950
  781MPD2    C411573   4.418   0.850  11.772  0.4088  0.5909 -0.2007
  781MPD2    C511574   4.293   0.844  11.826 -0.3561 -0.2413  0.3968
  781MPD2     H11575   4.592   0.933  12.037 -0.7629  0.8943  0.8353
  781MPD2    H111576   4.424   0.819  11.669  1.0843  4.3614 -1.2851
  781MPD2    H211577   4.167   0.859  11.979  0.1630 -0.2890 -1.1882
  781MPD2    H311578   4.210   0.794  11.778  1.7743 -1.4059 -2.0286
  781MPD2     N11579   4.648   0.886  11.780  0.8671 -0.0369 -0.5524
  781MPD2    H511580   4.658   0.854  11.684 -1.6649 -1.6775 -0.2738
  781MPD2    N111581   4.373   0.918  12.182 -0.2257  0.0973 -0.4060
  781MPD2    H711582   4.464   0.926  12.226  0.3109 -0.1007 -1.4748
  782MPD2     C11583   2.445   1.719  10.093  0.1401 -0.0939  0.0916
  782MPD2    C111584   2.541   1.711  10.192 -0.0258 -0.9149  0.2752
  782MPD2    C211585   2.541   1.809  10.295 -1.0052  0.2542 -0.6723
  782MPD2    C311586   2.449   1.911  10.299  0.6507 -0.0570 -0.3421
  782MPD2    C411587   2.351   1.916  10.197  0.1138  0.1337  0.0717
  782MPD2    C511588   2.354   1.825  10.091 -0.1521 -0.1687 -0.3628
  782MPD2     H11589   2.604   1.797  10.383  0.5696  2.2805 -1.5248
  782MPD2    H111590   2.269   1.986  10.193  0.4133  0.4175 -1.1317
  782MPD2    H211591   2.449   1.646  10.012  1.4697 -1.1663  1.1389
  782MPD2    H311592   2.291   1.838  10.004  3.2432  0.4746 -2.7144
  782MPD2     N11593   2.452   1.990  10.412  0.7823  0.1048  0.4553
  782MPD2    H511594   2.528   1.964  10.473  1.3188 -1.8099 -1.0334
  782MPD2    N111595   2.636   1.603  10.186 -0.0640  0.8846 -0.2933
  782MPD2    H711596   2.614   1.534  10.115 -0.4844  1.7638 -1.0183
  783MPD2     C11597   2.146   1.171  10.732 -0.1237  0.8075 -0.1802
  783MPD2    C111598   2.189   1.302  10.725  0.2417  0.2756 -0.3519
  783MPD2    C211599   2.310   1.333  10.659  0.4434  0.1642 -0.0115
  783MPD2    C311600   2.373   1.236  10.594  0.2843  0.7338  0.1386
  783MPD2    C411601   2.326   1.108  10.598 -0.5715 -0.4846  0.3924
  783MPD2    C511602   2.211   1.073  10.664 -0.6158  0.4124 -0.2654
  783MPD2     H11603   2.337   1.438  10.655 -0.4987  0.4284  0.3282
  783MPD2    H111604   2.375   1.026  10.546 -2.0774 -0.7481 -0.6401
  783MPD2    H211605   2.054   1.144  10.783  0.1757  2.7413  1.3800
  783MPD2    H311606   2.171   0.973  10.666  1.9231 -0.5791  0.4905
  783MPD2     N11607   2.485   1.266  10.519 -0.1207 -0.5166  0.3712
  783MPD2    H511608   2.500   1.367  10.514 -1.3249 -0.3856 -0.4064
  783MPD2    N111609   2.118   1.404  10.795  0.5235  0.1774  0.3900
  783MPD2    H711610   2.029   1.377  10.836  0.9865 -0.2806  1.1091
  784MPD2     C11611   0.138   2.075   0.451  0.6604  0.0123  0.5925
  784MPD2    C111612   0.101   2.155   0.554  0.2552 -0.4185  0.1820
  784MPD2    C211613   4.718   2.228   0.545 -0.0420  0.0182  0.2421
  784MPD2    C311614   4.647   2.224   0.431 -0.1295 -0.1601 -0.0336
  784MPD2    C411615   4.689   2.147   0.323 -0.0969 -0.6201  0.3168
  784MPD2    C511616   0.067   2.071   0.334  0.5121 -0.1039  0.1723
  784MPD2     H11617   4.679   2.275   0.635  1.2533 -0.4706  1.0688
  784MPD2    H111618   4.635   2.151   0.229 -2.1795 -2.7002  1.4232
  784MPD2    H211619   0.223   2.008   0.443  0.0241 -0.9143  1.6668
  784MPD2    H311620   0.102   2.009   0.253 -2.4203 -0.9585 -0.4361
  784MPD2     N11621   4.531   2.308   0.424 -0.2213  0.4710 -0.0779
  784MPD2    H511622   4.514   2.366   0.506  1.8335  0.0805  0.6208
  784MPD2    N111623   0.170   2.159   0.673  0.1191 -1.0241 -0.3559
  784MPD2    H711624   0.129   2.215   0.746  1.9007  0.3275 -0.3885
  785MPD2     C11625   0.447   0.460  11.261 -0.5553  1.0372 -0.1886
  785MPD2    C111626   0.362   0.549  11.314 -0.5417  0.4054 -0.1410
  785MPD2    C211627   0.239   0.506  11.366  0.2897 -0.4328  0.7534
  785MPD2    C311628   0.193   0.378  11.328 -0.3158 -0.3531 -0.1019
  785MPD2    C411629   0.278   0.289  11.265 -0.1992  0.1562 -0.2617
  785MPD2    C511630   0.407   0.325  11.253 -0.1098 -0.0638 -1.0986
  785MPD2     H11631   0.169   0.581  11.401  0.7669  0.8125 -0.9170
  785MPD2    H111632   0.258   0.185  11.240  1.8723  0.0002 -1.2791
  785MPD2    H211633   0.551   0.476  11.236 -0.6371  1.2395 -0.4025
  785MPD2    H311634   0.474   0.247  11.221  1.7414  1.0347  0.1251
  785MPD2     N11635   0.055   0.357  11.348 -0.1121 -0.5347  1.1128
  785MPD2    H511636   4.733   0.428  11.394  0.1548  0.3018  0.1710
  785MPD2    N111637   0.390   0.690  11.317  0.2938  0.0086 -0.4295
  785MPD2    H711638   0.324   0.748  11.367 -1.2122 -1.2506 -0.9468
  786MPD2     C11639   3.711   3.081  14.770 -0.0426 -0.1873  0.2766
  786MPD2    C111640   3.787   3.151  14.679 -0.3708 -0.8313 -0.2105
  786MPD2    C211641   3.842   3.281  14.704 -0.1337  0.3448  0.3973
  786MPD2    C311642   3.825   3.331  14.832 -0.0073 -0.1502  0.0197
  786MPD2    C411643   3.739   3.263  14.917  0.8405  0.4116 -0.1095
  786MPD2    C511644   3.681   3.144  14.890 -0.0555  0.2190 -0.3965
  786MPD2     H11645   3.902   3.333  14.631 -0.4464 -0.9615 -0.7783
  786MPD2    H111646   3.714   3.302  15.015 -0.7694 -1.6272  0.2990
  786MPD2    H211647   3.671   2.982  14.754 -0.5992  0.0725  0.0423
  786MPD2    H311648   3.627   3.097  14.971  2.5991 -0.1124  1.1704
  786MPD2     N11649   3.886   3.449  14.879  0.1183  0.2911 -0.0175
  786MPD2    H511650   3.855   3.481  14.970  0.5259  0.0332  0.2094
  786MPD2    N111651   3.807   3.096  14.544  0.9404  0.2908 -1.1482
  786MPD2    H711652   3.837   3.156  14.468  0.6142  0.6043 -1.0271
  787MPD2     C11653   4.191   2.418  14.412  0.3498 -0.1700  0.1867
  787MPD2    C111654   4.164   2.488  14.299 -0.4738 -0.4131 -0.0471
  787MPD2    C211655   4.240   2.468  14.190  0.0650  0.2360 -0.1275
  787MPD2    C311656   4.339   2.372  14.179 -0.8201  0.0651 -0.0589
  787MPD2    C411657   4.360   2.296  14.290  0.3821 -0.0690  0.1621
  787MPD2    C511658   4.278   2.314  14.400 -0.5689 -0.1550 -0.8368
  787MPD2     H11659   4.222   2.532  14.104 -1.7852  0.0490  0.1232
  787MPD2    H111660   4.439   2.222  14.296  1.2698  0.8958  0.4916
  787MPD2    H211661   4.127   2.431  14.499 -1.1356 -0.5364 -0.8522
  787MPD2    H311662   4.288   2.249  14.486  0.2804  0.7164 -0.2665
  787MPD2     N11663   4.429   2.378  14.071  0.1574  0.7028 -0.1816
  787MPD2    H511664   4.405   2.449  14.003 -0.1801  2.4496  1.7649
  787MPD2    N111665   4.051   2.579  14.313 -0.2833 -0.4005  0.0080
  787MPD2    H711666   4.019   2.596  14.408 -1.2939 -0.9227 -0.2272
  788MPD2     C11667   0.984   2.265   1.009  0.7638 -0.4094  0.3981
  788MPD2    C111668   0.977   2.220   0.878 -0.4794  0.5959  0.1762
  788MPD2    C211669   0.884   2.274   0.792  0.4304  0.9930 -0.2968
  788MPD2    C311670   0.803   2.376   0.827  0.1814  0.4436 -0.9135
  788MPD2    C411671   0.815   2.429   0.958  0.3102 -0.4954  0.0251
  788MPD2    C511672   0.899   2.372   1.048  0.0184  0.0232 -0.1952
  788MPD2     H11673   0.867   2.225   0.696  0.0509  0.3530  0.0957
  788MPD2    H111674   0.753   2.512   0.989  2.1503  0.5123  1.0040
  788MPD2    H211675   1.065   2.231   1.072  0.7741  0.3851  0.8161
  788MPD2    H311676   0.905   2.409   1.150 -0.6857 -0.2703 -0.0473
  788MPD2     N11677   0.700   2.424   0.747 -0.1235  0.1029 -0.6621
  788MPD2    H511678   0.660   2.511   0.779  1.8368  0.9742 -0.5705
  788MPD2    N111679   1.062   2.107   0.840 -0.1830 -0.0722 -0.9562
  788MPD2    H711680   1.066   2.096   0.739  2.6893  0.7428 -0.9412
  789MPD2     C11681   1.686   1.303  16.660 -0.0785  0.0573 -0.4349
  789MPD2    C111682   1.590   1.294  16.759 -0.6301 -0.3916 -0.4162
  789MPD2    C211683   1.517   1.410  16.788 -0.1059  0.4443  0.2553
  789MPD2    C311684   1.534   1.529  16.720  0.5284  0.6792  0.1974
  789MPD2    C411685   1.632   1.533  16.630 -0.8088 -0.2728  0.0875
  789MPD2    C511686   1.709   1.425  16.600 -0.0180  0.0184  0.7621
  789MPD2     H11687   1.434   1.404  16.857 -0.9671  1.3797 -0.6974
  789MPD2    H111688   1.671   1.627  16.594 -3.9388  1.0755  0.2188
  789MPD2    H211689   1.738   1.212  16.632  0.1182 -0.1740  0.6743
  789MPD2    H311690   1.787   1.429  16.524 -1.9427 -0.6566 -1.2608
  789MPD2     N11691   1.446   1.636  16.749 -0.0712  0.2846  0.1015
  789MPD2    H511692   1.386   1.631  16.831 -1.4070 -0.8766 -0.9449
  789MPD2    N111693   1.574   1.179  16.838 -0.3527  0.3231  0.1706
  789MPD2    H711694   1.515   1.189  16.920  1.1577 -0.4924  1.3562
  790MPD2     C11695   2.421   3.487  13.232 -0.2060 -0.8470  0.6481
  790MPD2    C111696   2.465   3.382  13.300  0.0789  0.3610  0.9048
  790MPD2    C211697   2.413   3.259  13.274  0.2648  0.2248  0.1888
  790MPD2    C311698   2.329   3.240  13.162 -0.5007  0.6200 -0.2180
  790MPD2    C411699   2.288   3.352  13.093  0.0663 -0.2893  0.3265
  790MPD2    C511700   2.338   3.472  13.126  0.0731  0.0825  0.7108
  790MPD2     H11701   2.446   3.181  13.343  0.5317 -0.3083 -0.5389
  790MPD2    H111702   2.217   3.345  13.012 -0.5887  0.2769  0.8494
  790MPD2    H211703   2.458   3.583  13.265 -0.2244 -0.8969  0.8177
  790MPD2    H311704   2.302   3.561  13.076  0.8513 -0.8742 -1.5240
  790MPD2     N11705   2.280   3.108  13.136  0.2603  0.0133 -0.3759
  790MPD2    H511706   2.317   3.034  13.195  1.5971 -0.6531 -2.0444
  790MPD2    N111707   2.560   3.408  13.396  0.5245  0.3123  0.4200
  790MPD2    H711708   2.576   3.506  13.418 -0.6056  0.6220 -0.1584
  791MPD2     C11709   1.678   2.784  12.727 -0.6375  0.2142 -0.2277
  791MPD2    C111710   1.705   2.714  12.844  0.0339 -0.3956 -0.5855
  791MPD2    C211711   1.614   2.625  12.895  0.8102 -0.1205 -0.4711
  791MPD2    C311712   1.504   2.592  12.826  0.5970  0.5291  0.1711
  791MPD2    C411713   1.481   2.653  12.703 -0.0391  0.0492 -0.2694
  791MPD2    C511714   1.569   2.748  12.658  0.3108 -0.3193 -0.2567
  791MPD2     H11715   1.629   2.579  12.992  1.5816 -0.4888 -0.7661
  791MPD2    H111716   1.407   2.612  12.636  0.4464 -1.6359  0.2367
  791MPD2    H211717   1.736   2.869  12.691 -0.2373 -0.0686 -0.2457
  791MPD2    H311718   1.539   2.787  12.561  2.5631  0.8734 -0.4597
  791MPD2     N11719   1.400   2.509  12.885  0.2218 -0.4154 -0.1956
  791MPD2    H511720   1.425   2.449  12.963 -0.0983  0.6099  0.6932
  791MPD2    N111721   1.825   2.761  12.912  0.4778 -0.5609 -0.5625
  791MPD2    H711722   1.885   2.827  12.866  0.6555  0.5001  1.1814
  792MPD2     C11723   2.500   2.583  11.166  0.1012  0.2223  0.0932
  792MPD2    C111724   2.378   2.624  11.143  0.3622 -0.8434 -0.1248
  792MPD2    C211725   2.289   2.531  11.093 -0.2220  0.2836  0.3493
  792MPD2    C311726   2.328   2.406  11.052 -0.3416 -0.3024  0.5887
  792MPD2    C411727   2.459   2.367  11.068 -0.3705  0.3427  0.2497
  792MPD2    C511728   2.542   2.457  11.126  0.3984 -0.8552  0.4199
  792MPD2     H11729   2.188   2.568  11.077 -0.9902 -1.8140  0.3269
  792MPD2    H111730   2.499   2.268  11.050 -1.4379 -0.6532  3.3829
  792MPD2    H211731   2.555   2.654  11.226 -0.1904  2.7907 -2.6561
  792MPD2    H311732   2.645   2.423  11.130  1.3927  1.8781 -2.0542
  792MPD2     N11733   2.240   2.305  11.002 -0.0646 -0.0426 -0.0221
  792MPD2    H511734   2.282   2.213  10.990  0.5139 -0.0503  2.2425
  792MPD2    N111735   2.346   2.757  11.182 -0.0263  0.0500  0.1929
  792MPD2    H711736   2.431   2.807  11.206 -0.0279 -0.8033  1.9803
  793MPD2     C11737   1.539   2.661  10.527  0.6688 -0.0049  0.1400
  793MPD2    C111738   1.665   2.704  10.574 -0.2447  0.0470 -0.3330
  793MPD2    C211739   1.746   2.611  10.633 -0.5316 -0.5509 -0.0279
  793MPD2    C311740   1.708   2.474  10.636 -0.3457 -0.2910  0.2205
  793MPD2    C411741   1.592   2.442  10.576  0.9526 -0.1055 -0.5264
  793MPD2    C511742   1.507   2.534  10.523  0.0446 -0.6231 -0.5919
  793MPD2     H11743   1.845   2.639  10.668 -0.6689  0.2661 -0.2884
  793MPD2    H111744   1.553   2.340  10.572  0.4791  0.0027  1.1631
  793MPD2    H211745   1.473   2.731  10.478  0.1165 -2.0055 -1.9591
  793MPD2    H311746   1.417   2.509  10.469  0.3026 -0.5692 -1.0467
  793MPD2     N11747   1.801   2.379  10.682 -0.1027  0.8186 -0.7070
  793MPD2    H511748   1.888   2.415  10.721  1.7901 -0.9686 -3.2702
  793MPD2    N111749   1.705   2.838  10.563  0.5783  0.2913  0.5205
  793MPD2    H711750   1.802   2.862  10.583  1.6690 -1.2233 -3.0708
  794MPD2     C11751   2.120   2.315  16.728  0.4788  0.2812 -0.4004
  794MPD2    C111752   1.997   2.320  16.781  0.7216  1.0400 -0.0031
  794MPD2    C211753   1.892   2.329  16.699 -0.3843  0.4444  0.1551
  794MPD2    C311754   1.909   2.350  16.561 -0.0667 -0.1201  0.1500
  794MPD2    C411755   2.036   2.347  16.510 -0.7749  0.6275 -0.4796
  794MPD2    C511756   2.143   2.330  16.592 -0.8977 -0.1374 -0.1105
  794MPD2     H11757   1.801   2.353  16.753 -1.5024 -0.0703 -1.4901
  794MPD2    H111758   2.061   2.378  16.409  1.3391  0.5443  0.0076
  794MPD2    H211759   2.208   2.299  16.788 -0.4194  3.6493  1.8051
  794MPD2    H311760   2.242   2.328  16.547 -0.9633  0.5530 -0.2821
  794MPD2     N11761   1.804   2.398  16.474  0.0379  0.0961 -0.5862
  794MPD2    H511762   1.812   2.394  16.373  3.4160 -1.3462 -0.2705
  794MPD2    N111763   1.978   2.304  16.922 -0.6432 -0.1908  0.4267
  794MPD2    H711764   1.889   2.276  16.961 -0.5091 -0.7838  0.3123
  795MPD2     C11765   4.549   4.723  13.506 -0.0096 -0.1659 -0.2211
  795MPD2    C111766   4.456   4.642  13.578 -0.1134  0.4402 -0.5877
  795MPD2    C211767   4.508   4.530  13.642  0.2184  0.0389  0.0868
  795MPD2    C311768   4.642   4.516  13.652  0.3656 -0.0189  0.0974
  795MPD2    C411769   4.727   4.600  13.586  0.2136  0.2866 -0.2288
  795MPD2    C511770   4.683   4.699  13.508  0.5816 -0.2474 -0.6048
  795MPD2     H11771   4.445   4.456  13.690  2.2182 -1.3937  0.5545
  795MPD2    H111772   0.099   4.582  13.585 -0.3213 -3.0354  1.3761
  795MPD2    H211773   4.518   0.066  13.437 -1.1040  0.8408  1.4036
  795MPD2    H311774   0.025   0.012  13.448  0.6859 -1.6534 -1.5856
  795MPD2     N11775   4.689   4.408  13.729 -0.1090 -0.3072 -0.0570
  795MPD2    H511776   4.616   4.357  13.775 -1.0236  2.7712  1.9299
  795MPD2    N111777   4.314   4.654  13.563  0.3971  0.1494  0.0395
  795MPD2    H711778   4.263   4.586  13.619 -0.3810  1.2637  0.6912
  796MPD2     C11779   4.064   1.156  15.934 -0.8130  0.4588  0.0914
  796MPD2    C111780   4.168   1.242  15.945  0.0894 -0.2216  0.0907
  796MPD2    C211781   4.162   1.359  15.874  0.6102 -0.6598 -0.1761
  796MPD2    C311782   4.055   1.382  15.784  0.1139 -0.3435 -0.5842
  796MPD2    C411783   3.953   1.289  15.775  0.3367  0.5981  0.5482
  796MPD2    C511784   3.958   1.175  15.848 -0.2129 -1.0576 -0.1002
  796MPD2     H11785   4.250   1.421  15.863  0.2363 -0.1440 -0.2635
  796MPD2    H111786   3.870   1.303  15.707  0.2381  0.1969  0.5844
  796MPD2    H211787   4.050   1.061  15.985  1.5775  0.7282  1.2883
  796MPD2    H311788   3.877   1.104  15.855 -1.7923  0.6004 -1.6390
  796MPD2     N11789   4.053   1.499  15.698 -0.1938  0.1043  0.5913
  796MPD2    H511790   4.137   1.556  15.697 -0.5272  0.5716 -4.1761
  796MPD2    N111791   4.280   1.199  16.013  0.2831 -0.2653  0.0626
  796MPD2    H711792   4.276   1.100  16.037 -3.6363 -0.0721  0.1858
  797MPD2     C11793   0.513   0.636  17.238 -0.1330 -0.3022  0.4123
  797MPD2    C111794   0.615   0.719  17.264  0.3611 -0.6525  0.9013
  797MPD2    C211795   0.668   0.786  17.155 -0.1211  1.1101  0.1682
  797MPD2    C311796   0.621   0.784  17.026 -0.4425  0.5778  0.3128
  797MPD2    C411797   0.508   0.702  17.006  0.1439 -0.6006  0.4952
  797MPD2    C511798   0.459   0.631  17.112  0.3285 -0.0091  0.1432
  797MPD2     H11799   0.743   0.863  17.170 -1.3670  2.3950 -0.1824
  797MPD2    H111800   0.453   0.703  16.913  2.4022  1.5377 -0.8278
  797MPD2    H211801   0.471   0.574  17.316  1.7652  0.2426  1.8729
  797MPD2    H311802   0.366   0.577  17.097 -0.7641  1.8826  0.1867
  797MPD2     N11803   0.673   0.882  16.938  0.4030  0.1902 -0.4644
  797MPD2    H511804   0.736   0.944  16.988 -0.7834 -0.5813  1.9816
  797MPD2    N111805   0.663   0.751  17.393  0.0639  0.2579 -0.0307
  797MPD2    H711806   0.742   0.814  17.386 -0.6621  1.1979  0.1803
  798MPD2     C11807   0.898   1.474  17.269 -0.6678  0.0389 -0.3336
  798MPD2    C111808   0.850   1.353  17.209 -0.2485  0.4644 -0.2519
  798MPD2    C211809   0.814   1.254  17.293 -0.0436  0.3360  0.3789
  798MPD2    C311810   0.839   1.259  17.430 -0.1709  0.4171 -0.3515
  798MPD2    C411811   0.890   1.379  17.491 -0.5472  0.2752  0.1829
  798MPD2    C511812   0.913   1.484  17.409  0.5714  0.1463  0.1134
  798MPD2     H11813   0.767   1.161  17.264 -0.5711  0.3675  1.1339
  798MPD2    H111814   0.913   1.394  17.596 -0.3473  2.9218 -0.2501
  798MPD2    H211815   0.911   1.559  17.203 -1.5918  0.1017 -0.4400
  798MPD2    H311816   0.960   1.574  17.448  3.9606 -0.5509 -2.3920
  798MPD2     N11817   0.807   1.146  17.501  0.1141 -0.3967  0.3465
  798MPD2    H511818   0.786   1.066  17.443  1.3586  0.3403 -1.1225
  798MPD2    N111819   0.844   1.341  17.071  0.1966  0.4408  0.4287
  798MPD2    H711820   0.853   1.427  17.018 -0.0905 -0.5193 -1.1993
  799MPD2     C11821   3.730   2.455  14.063 -0.4633 -0.8863 -0.1655
  799MPD2    C111822   3.787   2.348  13.992  0.1395  0.0432  0.6590
  799MPD2    C211823   3.810   2.367  13.856 -0.1544  0.6099 -0.6231
  799MPD2    C311824   3.780   2.483  13.799  0.1039  0.3896 -0.1636
  799MPD2    C411825   3.718   2.582  13.866 -0.0616 -0.1855 -0.3229
  799MPD2    C511826   3.690   2.568  13.999  0.1161 -0.0511 -0.4315
  799MPD2     H11827   3.868   2.297  13.798  0.7906  2.1191 -1.4909
  799MPD2    H111828   3.690   2.677  13.822 -0.9865  0.7445  2.2473
  799MPD2    H211829   3.706   2.451  14.168  2.3587 -0.5466  0.5079
  799MPD2    H311830   3.625   2.642  14.044 -0.8620 -1.4298  0.4237
  799MPD2     N11831   3.800   2.513  13.665  0.3706 -0.4782  0.7007
  799MPD2    H511832   3.775   2.608  13.638 -1.7448 -1.2365  0.0167
  799MPD2    N111833   3.839   2.228  14.051  0.9702  0.0640 -0.4297
  799MPD2    H711834   3.886   2.169  13.983  0.9281 -3.3436  2.5380
  800MPD2     C11835   3.883   3.603  14.156 -0.0217 -0.1725 -0.0023
  800MPD2    C111836   4.021   3.578  14.139  0.6111  0.5780 -0.0367
  800MPD2    C211837   4.063   3.518  14.018 -0.4766  0.3698 -0.7374
  800MPD2    C311838   3.972   3.501  13.916  0.3942  0.2321  0.0117
  800MPD2    C411839   3.834   3.511  13.942 -0.1182 -0.2985  0.7629
  800MPD2    C511840   3.792   3.571  14.058 -0.4528 -0.0054  0.3535
  800MPD2     H11841   4.167   3.496  13.997 -0.6810  0.3037 -1.6896
  800MPD2    H111842   3.759   3.497  13.865  0.6569  0.2641 -0.0950
  800MPD2    H211843   3.850   3.647  14.250 -0.7878 -0.0603 -0.3263
  800MPD2    H311844   3.692   3.609  14.073 -0.5302  0.2182 -0.6871
  800MPD2     N11845   4.020   3.461  13.783  0.2175 -0.0899 -0.0251
  800MPD2    H511846   4.115   3.427  13.770 -0.5677 -2.6326  0.9583
  800MPD2    N111847   4.107   3.621  14.235 -0.9253 -0.2764 -0.2629
  800MPD2    H711848   4.071   3.662  14.321 -2.3599 -2.5958  0.2393
  801MPD2     C11849   4.231   4.236  14.240 -0.4465  0.6072  0.8768
  801MPD2    C111850   4.312   4.192  14.346 -0.7947  0.0523 -0.3437
  801MPD2    C211851   4.393   4.290  14.406 -0.2222  0.5350  0.1610
  801MPD2    C311852   4.379   4.426  14.370 -0.7689 -0.4063  0.2842
  801MPD2    C411853   4.300   4.468  14.272 -0.4648 -0.5092 -0.0307
  801MPD2    C511854   4.222   4.371  14.209  0.0589  0.5646 -0.2001
  801MPD2     H11855   4.456   4.255  14.487  0.9070  1.1556 -0.4527
  801MPD2    H111856   4.295   4.573  14.248  1.9594 -0.1194  1.1767
  801MPD2    H211857   4.170   4.167  14.183  1.7622 -3.2050  3.1695
  801MPD2    H311858   4.160   4.402  14.126 -1.2830 -2.9233 -0.4982
  801MPD2     N11859   4.435   4.538  14.443 -0.3140  0.4463  0.0717
  801MPD2    H511860   4.405   4.634  14.428  1.2874  0.9448 -0.0154
  801MPD2    N111861   4.303   4.056  14.379 -0.0501 -0.5149 -0.2212
  801MPD2    H711862   4.282   3.987  14.307 -1.5330 -1.3782  1.0256
  802MPD2     C11863   3.827   0.371   0.426 -0.7540 -0.3496  0.8813
  802MPD2    C111864   3.743   0.304   0.344 -0.4841  1.2278  0.4566
  802MPD2    C211865   3.794   0.201   0.261  0.1419 -0.2953 -0.4763
  802MPD2    C311866   3.923   0.157   0.281 -0.4571 -0.1876  0.3420
  802MPD2    C411867   3.998   0.223   0.374  0.2878 -0.2187  0.0254
  802MPD2    C511868   3.951   0.326   0.448  0.5333  0.1081  0.0772
  802MPD2     H11869   3.732   0.143   0.193  0.8059 -0.8316 -0.6344
  802MPD2    H111870   4.089   0.179   0.414  1.9513  0.7911 -2.6775
  802MPD2    H211871   3.808   0.444   0.504  0.5077  1.8858 -0.9053
  802MPD2    H311872   4.015   0.364   0.527 -1.2690  0.9699  1.1431
  802MPD2     N11873   3.974   0.057   0.197  0.2189  0.4051  0.4683
  802MPD2    H511874   3.906   0.023   0.130  1.1626 -1.7156  0.5985
  802MPD2    N111875   3.606   0.354   0.329  0.5437  0.6043  0.2683
  802MPD2    H711876   3.549   0.309   0.258  0.9979 -0.8578  0.8381
  803MPD2     C11877   4.174   2.798  12.477  0.3685 -0.8507 -0.2414
  803MPD2    C111878   4.275   2.848  12.409 -0.5270  0.0205  0.0184
  803MPD2    C211879   4.401   2.847  12.463  0.2767 -0.1691  0.5137
  803MPD2    C311880   4.419   2.770  12.581  0.3557 -0.6889 -0.3700
  803MPD2    C411881   4.314   2.701  12.640  0.0697 -0.0340  0.3870
  803MPD2    C511882   4.190   2.713  12.581  1.0852  0.0314  0.1723
  803MPD2     H11883   4.477   2.908  12.417  0.6191 -0.7857  0.2731
  803MPD2    H111884   4.319   2.645  12.733 -2.0967 -2.0568 -0.7278
  803MPD2    H211885   4.072   2.787  12.440 -0.4639 -1.2067  2.1738
  803MPD2    H311886   4.098   2.673  12.623 -0.6252  2.9993 -0.7896
  803MPD2     N11887   4.540   2.754  12.649 -0.1653  0.2974 -0.1646
  803MPD2    H511888   4.549   2.684  12.722  1.5849 -0.8812 -1.5269
  803MPD2    N111889   4.250   2.928  12.294  0.7465 -0.1697 -0.4022
  803MPD2    H711890   4.329   2.984  12.264  1.8934 -0.6997  1.5973
  804MPD2     C11891   0.152   4.427  17.188 -0.7992 -0.5855 -0.0800
  804MPD2    C111892   0.092   4.377  17.308  0.8669 -0.5090  0.5853
  804MPD2    C211893   0.137   4.439  17.424  0.0573 -0.3555  0.8439
  804MPD2    C311894   0.231   4.540  17.425  0.6209 -0.1017  0.1220
  804MPD2    C411895   0.263   4.597  17.307 -0.2216 -0.2857  0.1979
  804MPD2    C511896   0.218   4.546  17.191  0.0108  0.2071  0.1599
  804MPD2     H11897   0.117   4.389  17.518 -1.0179 -2.1746 -0.3449
  804MPD2    H111898   0.321   4.689  17.311 -0.8270  0.1177 -0.1956
  804MPD2    H211899   0.119   4.393  17.090  0.7245 -1.3366 -0.3240
  804MPD2    H311900   0.232   4.595  17.095  1.9864  0.1944  0.4335
  804MPD2     N11901   0.292   4.603  17.536 -0.7067  0.4643  0.3979
  804MPD2    H511902   0.359   4.677  17.524  2.0165 -1.8677  1.1887
  804MPD2    N111903   0.000   4.274  17.317  0.0156 -0.2213  0.2315
  804MPD2    H711904   4.686   4.263  17.405 -1.3079 -1.3730 -0.6482
  805MPD2     C11905   3.661   2.862  15.536 -1.1773  0.8853  0.0696
  805MPD2    C111906   3.738   2.937  15.459  0.8109 -0.4915  0.2634
  805MPD2    C211907   3.814   3.039  15.519 -0.8630 -0.2052  0.6560
  805MPD2    C311908   3.822   3.043  15.661 -0.1003 -0.2367 -0.0501
  805MPD2    C411909   3.733   2.976  15.739 -0.5436 -0.5912  0.6676
  805MPD2    C511910   3.650   2.887  15.668  0.1358 -0.4842 -0.1961
  805MPD2     H11911   3.890   3.100  15.470 -0.4369  1.3048  3.2171
  805MPD2    H111912   3.714   3.007  15.841  0.9925 -1.8831  1.3391
  805MPD2    H211913   3.597   2.782  15.502 -0.0695  1.2740 -2.9498
  805MPD2    H311914   3.570   2.831  15.715 -0.1745 -0.0209 -0.1817
  805MPD2     N11915   3.908   3.142  15.718  0.3622  0.0733  0.0278
  805MPD2    H511916   3.956   3.204  15.653  2.4014  0.6758  2.0738
  805MPD2    N111917   3.757   2.909  15.323 -0.5205 -0.0322  0.6282
  805MPD2    H711918   3.828   2.961  15.272  0.3225 -0.1952  1.6275
  806MPD2     C11919   4.089   2.113  17.566 -0.0408 -0.1552  0.2630
  806MPD2    C111920   4.082   2.188  17.676  0.1351  0.1726 -0.5856
  806MPD2    C211921   4.128   2.325  17.669  0.1018  0.2986  0.4410
  806MPD2    C311922   4.202   2.358  17.557 -0.0305 -0.2722 -0.9266
  806MPD2    C411923   4.219   2.276  17.451 -0.4645 -0.1453  0.0254
  806MPD2    C511924   4.162   2.151  17.456  0.2321 -0.2500 -0.7446
  806MPD2     H11925   4.110   2.393   0.013 -0.2870  1.3694 -0.5351
  806MPD2    H111926   4.285   2.296  17.368 -0.5956 -3.1920 -0.8322
  806MPD2    H211927   4.049   2.012  17.570  0.1987 -0.2643 -0.1135
  806MPD2    H311928   4.184   2.090  17.369 -0.6620  0.3285 -1.3878
  806MPD2     N11929   4.287   2.469  17.566 -0.5435 -0.0127  0.7510
  806MPD2    H511930   4.269   2.527  17.647  0.9437  0.2396  0.8896
  806MPD2    N111931   4.013   2.132   0.053 -1.2793 -0.7625 -0.3713
  806MPD2    H711932   3.983   2.036   0.038 -0.4188 -1.3077  1.4613
  807MPD2     C11933   3.982   1.444   0.394  0.7851  0.3805 -0.3568
  807MPD2    C111934   3.901   1.527   0.472 -0.1642 -0.3258 -0.2927
  807MPD2    C211935   3.812   1.463   0.567  0.1284  0.0845 -0.7853
  807MPD2    C311936   3.804   1.323   0.573  0.7211 -0.2113 -0.4542
  807MPD2    C411937   3.884   1.253   0.490  0.5551 -0.0670  0.1722
  807MPD2    C511938   3.976   1.310   0.409 -0.7854 -0.1373 -0.4097
  807MPD2     H11939   3.750   1.532   0.622 -0.4001  1.2137 -2.7681
  807MPD2    H111940   3.874   1.145   0.478 -0.3252  0.1301 -0.8744
  807MPD2    H211941   4.054   1.469   0.317  2.2855 -1.2337  0.5411
  807MPD2    H311942   4.032   1.238   0.350  0.1119 -0.8333  1.3126
  807MPD2     N11943   3.709   1.255   0.650 -0.5491  0.2290 -0.1175
  807MPD2    H511944   3.704   1.157   0.626  1.3423 -0.2036  1.2101
  807MPD2    N111945   3.906   1.672   0.461  0.3592 -0.1495 -0.2610
  807MPD2    H711946   3.881   1.727   0.542  0.2615  0.1332 -0.4854
  808MPD2     C11947   4.408   3.436  10.048 -0.3322 -1.0689  1.1468
  808MPD2    C111948   4.297   3.517  10.028 -0.9850 -1.2066  0.7330
  808MPD2    C211949   4.314   3.654  10.047  0.1157 -0.4448  0.2873
  808MPD2    C311950   4.426   3.708  10.096 -0.1060  0.9511 -0.3966
  808MPD2    C411951   4.534   3.621  10.107 -0.6201 -0.1466  0.8894
  808MPD2    C511952   4.527   3.487  10.094  0.1903  0.2175 -0.5341
  808MPD2     H11953   4.234   3.722  10.018 -0.5610 -0.8504  1.1949
  808MPD2    H111954   4.624   3.667  10.146 -0.4283  0.0877  0.1654
  808MPD2    H211955   4.395   3.328  10.046 -0.4965 -1.0291 -0.3477
  808MPD2    H311956   4.617   3.429  10.112  0.3891  1.7447  3.2484
  808MPD2     N11957   4.445   3.845  10.129 -0.2851  0.2307  0.3353
  808MPD2    H511958   4.539   3.880  10.117 -1.8250  4.0523 -0.5669
  808MPD2    N111959   4.172   3.478   9.968  0.5279 -0.7739 -0.2006
  808MPD2    H711960   4.095   3.543   9.959 -0.0194 -1.0029  2.8692
  809MPD2     C11961   0.096   4.669   9.802 -0.0753 -0.2476  0.4640
  809MPD2    C111962   0.130   4.536   9.811 -0.4495  0.5257 -0.0019
  809MPD2    C211963   0.066   4.464   9.909  0.0248 -0.1613  0.0707
  809MPD2    C311964   4.697   4.512   9.989  0.3877  0.5455 -0.9257
  809MPD2    C411965   4.672   4.647   9.981  0.4618  0.0862 -0.4935
  809MPD2    C511966   0.004   4.724   9.890  0.2221 -0.3366  0.6238
  809MPD2     H11967   0.090   4.359   9.917  0.2658 -0.1521 -0.5143
  809MPD2    H111968   4.603   4.701  10.044 -0.7293 -0.3266 -1.4480
  809MPD2    H211969   0.129   4.734   9.722 -1.6293  0.1091  0.1132
  809MPD2    H311970   4.718   0.094   9.874 -1.4505 -0.7859 -0.2241
  809MPD2     N11971   4.620   4.434  10.081  0.5810 -0.8769 -0.4132
  809MPD2    H511972   4.544   4.477  10.132 -0.5968 -1.1350 -1.9446
  809MPD2    N111973   0.233   4.478   9.733  0.1102  0.1315  0.3683
  809MPD2    H711974   0.301   4.545   9.699 -2.2809  1.7570 -1.1876
  810MPD2     C11975   4.140   2.915  10.317  0.3788 -0.5747  0.3224
  810MPD2    C111976   4.036   2.877  10.395 -0.4377 -0.7618  0.3769
  810MPD2    C211977   3.947   2.972  10.445 -0.5576  0.3744  0.0662
  810MPD2    C311978   3.982   3.109  10.437  0.1661  0.1704  0.1016
  810MPD2    C411979   4.103   3.141  10.375  0.4140  0.0293  0.1025
  810MPD2    C511980   4.184   3.046  10.317  0.1710  0.1086  0.0072
  810MPD2     H11981   3.854   2.945  10.495  0.2464 -0.3819  1.1505
  810MPD2    H111982   4.135   3.244  10.382  0.1293  0.2300 -1.4663
  810MPD2    H211983   4.202   2.837  10.274 -0.8079 -1.2567 -0.1523
  810MPD2    H311984   4.285   3.070  10.286  0.5216  1.5329  2.2326
  810MPD2     N11985   3.906   3.212  10.499 -0.3017  0.2013  0.2196
  810MPD2    H511986   3.948   3.304  10.495  0.6583 -0.3740 -3.2531
  810MPD2    N111987   4.032   2.742  10.415 -0.2123  0.2825  0.2458
  810MPD2    H711988   4.104   2.695  10.361 -0.7113 -1.0940  0.7777
  811MPD2     C11989   3.642   2.142  10.116  0.4907  0.4679 -0.2965
  811MPD2    C111990   3.738   2.239  10.123  0.3932 -0.1033 -0.3022
  811MPD2    C211991   3.715   2.357  10.055  0.9480 -0.1316  0.4451
  811MPD2    C311992   3.601   2.385   9.985  0.1082 -0.3009  0.6402
  811MPD2    C411993   3.508   2.283   9.973  0.1073  0.5352  0.5547
  811MPD2    C511994   3.530   2.168  10.044 -0.5152 -0.0705 -0.5090
  811MPD2     H11995   3.794   2.431  10.048  0.3967  0.2248 -1.9653
  811MPD2    H111996   3.412   2.297   9.924 -0.1663 -1.7784  0.4105
  811MPD2    H211997   3.651   2.051  10.175  1.7873 -0.2120 -1.5426
  811MPD2    H311998   3.455   2.090  10.045 -0.3162 -0.2613 -0.7877
  811MPD2     N11999   3.582   2.519   9.943  0.4022 -0.5112 -0.1136
  811MPD2    H512000   3.661   2.581   9.959 -1.3849  1.7223  0.0452
  811MPD2    N112001   3.856   2.214  10.196 -0.5407 -0.5078  0.1502
  811MPD2    H712002   3.852   2.141  10.267 -0.3592  0.8365  1.5508
  812MPD2     C12003   3.147   2.866  12.026  0.0691 -1.0920 -0.0639
  812MPD2    C112004   3.034   2.903  12.097  0.3264  0.3744  0.2424
  812MPD2    C212005   2.999   2.825  12.204 -0.3741 -0.3705 -0.1132
  812MPD2    C312006   3.059   2.700  12.227  1.0929  0.0155  0.9475
  812MPD2    C412007   3.159   2.659  12.142  0.3701  0.1640  1.0732
  812MPD2    C512008   3.215   2.750  12.054 -0.5456 -0.2313  0.5364
  812MPD2     H12009   2.913   2.859  12.261  0.4015  0.7067  0.3975
  812MPD2    H112010   3.197   2.558  12.154 -0.6523 -0.5513 -1.7241
  812MPD2    H212011   3.188   2.935  11.954  0.3841 -0.9846  0.2204
  812MPD2    H312012   3.307   2.733  12.000 -0.2231 -1.6280  1.5386
  812MPD2     N12013   3.011   2.621  12.332 -0.1215 -0.5963 -0.0781
  812MPD2    H512014   2.936   2.654  12.392  0.2406 -1.6818  0.9811
  812MPD2    N112015   2.971   3.024  12.060 -0.6839  0.0782  0.0276
  812MPD2    H712016   3.023   3.086  11.998 -1.6974  0.6439 -0.2629
  813MPD2     C12017   1.769   4.379  13.039  0.0315  0.2075  0.7990
  813MPD2    C112018   1.759   4.519  13.029 -0.4051  0.2910 -0.0388
  813MPD2    C212019   1.629   4.573  13.048 -0.2108  0.6918 -0.2507
  813MPD2    C312020   1.520   4.490  13.068 -0.9902  0.0483  0.1461
  813MPD2    C412021   1.539   4.354  13.048  0.2162  0.1216 -0.0221
  813MPD2    C512022   1.660   4.299  13.037 -0.0580 -0.0073  1.0483
  813MPD2     H12023   1.606   4.677  13.067 -0.4372  0.5812  0.0863
  813MPD2    H112024   1.459   4.282  13.063 -0.2699  0.2916 -1.8700
  813MPD2    H212025   1.868   4.335  13.032 -0.9733 -1.8559 -0.3867
  813MPD2    H312026   1.666   4.191  13.044  1.6632 -0.0554 -1.0036
  813MPD2     N12027   1.398   4.550  13.113  0.3751  0.7953 -0.2619
  813MPD2    H512028   1.405   4.649  13.137 -1.6723  0.6435  0.9912
  813MPD2    N112029   1.878   4.599  13.035 -0.6237  0.4943  0.4417
  813MPD2    H712030   1.966   4.555  13.059 -0.3863  1.2926  1.0378
  814MPD2     C12031   2.322   1.039  12.402  0.6598  0.1955 -0.5756
  814MPD2    C112032   2.324   1.129  12.295  1.0539 -0.3578  0.0012
  814MPD2    C212033   2.379   1.258  12.315 -0.1586  0.3931 -0.1609
  814MPD2    C312034   2.452   1.294  12.421  0.2200 -1.3252 -0.1718
  814MPD2    C412035   2.450   1.206  12.523 -0.3242 -0.1917  0.1485
  814MPD2    C512036   2.393   1.078  12.511 -0.7272 -0.4850 -0.1009
  814MPD2     H12037   2.354   1.332  12.240 -0.1087 -0.8205 -1.3780
  814MPD2    H112038   2.499   1.223  12.618 -2.1182 -2.1253  1.4192
  814MPD2    H212039   2.269   0.944  12.410 -0.8911  1.1693  0.7751
  814MPD2    H312040   2.392   1.006  12.593 -0.5188 -1.4384 -0.9361
  814MPD2     N12041   2.511   1.421  12.440 -0.3380  0.0098  0.1559
  814MPD2    H512042   2.548   1.443  12.532  2.2344  4.7980 -2.0784
  814MPD2    N112043   2.282   1.089  12.161  0.9887 -1.0696 -0.0690
  814MPD2    H712044   2.303   1.155  12.087  1.6080 -0.4515  0.6448
  815MPD2     C12045   2.560   4.607  11.670  0.2146  0.2095  0.0832
  815MPD2    C112046   2.577   4.474  11.697 -0.4712  0.0567 -0.0131
  815MPD2    C212047   2.468   4.406  11.751 -0.5076 -0.1097 -0.6778
  815MPD2    C312048   2.353   4.478  11.789  0.5019 -0.2827 -0.1007
  815MPD2    C412049   2.339   4.611  11.761 -0.2800  0.4562 -0.0424
  815MPD2    C512050   2.441   4.674  11.696 -0.2993 -0.1730  0.4966
  815MPD2     H12051   2.468   4.299  11.764  0.9227 -0.1184 -0.8037
  815MPD2    H112052   2.249   4.665  11.785  0.0663  1.8182 -1.7610
  815MPD2    H212053   2.643   4.664  11.631 -1.4378  1.8050 -1.1007
  815MPD2    H312054   2.432   0.046  11.680  3.4140 -0.0213 -0.6175
  815MPD2     N12055   2.238   4.421  11.847 -0.0616  0.0243 -0.3383
  815MPD2    H512056   2.157   4.480  11.860 -1.7003 -1.8531 -2.1566
  815MPD2    N112057   2.698   4.410  11.663  0.3786  0.6492  0.5229
  815MPD2    H712058   2.766   4.470  11.618 -0.5621  1.7936  0.6488
  816MPD2     C12059   3.271   3.430  16.913 -0.1833  0.7571  0.9681
  816MPD2    C112060   3.296   3.536  16.826 -0.3089 -0.4177  0.1520
  816MPD2    C212061   3.392   3.520  16.730 -0.3220  0.1027  0.5842
  816MPD2    C312062   3.465   3.406  16.727 -0.4454 -0.5168  0.7059
  816MPD2    C412063   3.453   3.307  16.819  0.0345  0.1427  0.2394
  816MPD2    C512064   3.353   3.317  16.913  0.4033  0.3921  0.0658
  816MPD2     H12065   3.407   3.599  16.657 -1.1522 -0.6762 -0.4253
  816MPD2    H112066   3.524   3.225  16.826 -1.3556 -0.9748  1.2947
  816MPD2    H212067   3.180   3.425  16.972 -0.8166 -0.1502 -0.0857
  816MPD2    H312068   3.325   3.242  16.986  0.8419  0.1580 -0.0049
  816MPD2     N12069   3.559   3.402  16.623 -0.4882  0.5160  0.3458
  816MPD2    H512070   3.553   3.487  16.567 -1.1621  0.5354  0.4446
  816MPD2    N112071   3.214   3.647  16.829  0.3202 -0.3726  0.0330
  816MPD2    H712072   3.135   3.639  16.892  2.5782  1.4800  3.1627
  817MPD2     C12073   1.649   0.169   9.291 -0.0046 -0.4214 -0.1024
  817MPD2    C112074   1.656   0.061   9.210 -0.2187 -0.4434  0.8122
  817MPD2    C212075   1.590   0.062   9.091 -0.5295  0.3479  0.4522
  817MPD2    C312076   1.512   0.167   9.057  0.5474 -0.2045  0.2238
  817MPD2    C412077   1.496   0.277   9.138 -0.6804 -0.6204 -0.2337
  817MPD2    C512078   1.570   0.277   9.256  0.4530  1.0734 -0.3836
  817MPD2     H12079   1.594   4.707   9.031  2.3477  1.2134 -0.6386
  817MPD2    H112080   1.433   0.361   9.113 -1.5729 -0.8960  1.0955
  817MPD2    H212081   1.701   0.164   9.386  0.6756  0.5580 -0.4251
  817MPD2    H312082   1.575   0.362   9.324  0.3831  0.7471  0.0309
  817MPD2     N12083   1.425   0.145   8.950 -0.1136 -0.6150 -0.2958
  817MPD2    H512084   1.427   0.055   8.902 -1.5943 -0.3616 -0.8507
  817MPD2    N112085   1.709   4.670   9.246 -0.2368 -0.3832 -0.7905
  817MPD2    H712086   1.704   4.597   9.176 -0.2469 -0.4742 -0.6943
  818MPD2     C12087   1.351   0.802  10.008 -0.2217  0.4739  0.5430
  818MPD2    C112088   1.225   0.773  10.061  0.5539  0.4228  0.0759
  818MPD2    C212089   1.161   0.652  10.030  0.7208  0.1467  0.2173
  818MPD2    C312090   1.224   0.551   9.952  1.0737  0.0075 -0.4670
  818MPD2    C412091   1.352   0.585   9.904 -0.1351 -0.1348 -0.3187
  818MPD2    C512092   1.413   0.704   9.929 -0.0806 -1.0304  1.0758
  818MPD2     H12093   1.060   0.632  10.064  0.8316  0.8018  0.9475
  818MPD2    H112094   1.408   0.510   9.848 -1.6858 -2.3379  1.0764
  818MPD2    H212095   1.400   0.897  10.022  0.7392  0.1377 -0.5696
  818MPD2    H312096   1.513   0.720   9.891  0.2448 -2.4040  1.3523
  818MPD2     N12097   1.167   0.434   9.901 -0.5678  0.2833  0.5997
  818MPD2    H512098   1.222   0.383   9.833  1.9509  2.6390  0.8737
  818MPD2    N112099   1.158   0.857  10.156  0.0938  0.0641 -0.5625
  818MPD2    H712100   1.066   0.824  10.186  0.7496 -0.0661  1.2812
  819MPD2     C12101   0.123   3.014  16.095 -0.1344  0.2690  0.1975
  819MPD2    C112102   0.111   2.951  15.974 -0.0915  0.3785 -0.0484
  819MPD2    C212103   0.180   2.834  15.951 -0.0685 -0.6123 -0.3681
  819MPD2    C312104   0.253   2.773  16.053  0.1729 -0.1139 -0.5258
  819MPD2    C412105   0.270   2.847  16.169 -0.8633 -0.4459  0.3803
  819MPD2    C512106   0.208   2.969  16.192 -0.2080 -0.1954 -0.1679
  819MPD2     H12107   0.164   2.775  15.862 -0.9566 -0.4746 -0.2972
  819MPD2    H112108   0.337   2.818  16.249 -1.1975 -0.2800  0.7238
  819MPD2    H212109   0.058   3.100  16.108 -0.8871 -0.0595 -1.2917
  819MPD2    H312110   0.220   3.025  16.284  1.6003 -0.6814 -0.1226
  819MPD2     N12111   0.301   2.647  16.036 -0.4647 -1.2517 -0.1762
  819MPD2    H512112   0.309   2.610  15.942  1.2035  0.3430 -0.6626
  819MPD2    N112113   0.017   2.998  15.877 -0.4002 -0.1342  0.0386
  819MPD2    H712114   4.684   3.068  15.905  1.7099  1.7012  0.4590
  820MPD2     C12115   4.353   2.643  15.051  0.1774 -0.1820  0.2208
  820MPD2    C112116   4.278   2.760  15.075 -0.8486  0.0772  0.4828
  820MPD2    C212117   4.336   2.859  15.154 -0.5817  0.5027 -0.7881
  820MPD2    C312118   4.456   2.838  15.222  0.7706  0.0099 -0.0408
  820MPD2    C412119   4.522   2.721  15.197  0.7474 -0.4045 -0.0414
  820MPD2    C512120   4.475   2.627  15.110 -0.4349  0.2349  0.5164
  820MPD2     H12121   4.274   2.944  15.181  0.3519  1.3945 -1.4657
  820MPD2    H112122   4.613   2.699  15.253  0.7520 -3.5324 -1.2686
  820MPD2    H212123   4.307   2.577  14.979  0.0576  1.0126 -0.7959
  820MPD2    H312124   4.532   2.535  15.094 -0.3857  0.7901 -2.5149
  820MPD2     N12125   4.510   2.919  15.326  0.0697 -0.9192  0.2272
  820MPD2    H512126   4.587   2.870  15.371  2.3966  1.9437 -0.5845
  820MPD2    N112127   4.142   2.780  15.036 -0.1626  0.6025  0.0319
  820MPD2    H712128   4.099   2.871  15.051  2.8845  1.7293  1.8242
  821MPD2     C12129   4.197   3.957  13.195  0.5050 -0.8267 -0.3420
  821MPD2    C112130   4.290   3.855  13.231  0.2306 -0.0095  0.2311
  821MPD2    C212131   4.418   3.873  13.203 -0.0891 -0.2789  0.3921
  821MPD2    C312132   4.466   3.988  13.148  0.2446  0.0344  0.2183
  821MPD2    C412133   4.377   4.084  13.108 -0.0612  0.6433  0.1187
  821MPD2    C512134   4.245   4.067  13.125  0.0914  0.2214 -0.2733
  821MPD2     H12135   4.485   3.792  13.229  1.1758  0.9315  0.8815
  821MPD2    H112136   4.412   4.173  13.057  0.9406 -1.8217 -3.4716
  821MPD2    H212137   4.091   3.957  13.217  0.6077 -1.0389  0.1414
  821MPD2    H312138   4.175   4.146  13.100  0.2570  0.8657  1.2944
  821MPD2     N12139   4.598   4.004  13.105  0.5893 -0.1639  0.7843
  821MPD2    H512140   4.623   4.090  13.059  0.1434 -0.0570  0.7504
  821MPD2    N112141   4.257   3.732  13.290  0.3095  0.1540 -0.2057
  821MPD2    H712142   4.336   3.669  13.299  1.5113  1.7522  0.4230
  822MPD2     C12143   0.735   3.816  15.773  0.6263 -0.0927  0.3493
  822MPD2    C112144   0.694   3.788  15.903  0.5134 -0.2420  0.3311
  822MPD2    C212145   0.655   3.895  15.980 -0.1089 -0.4489 -0.4168
  822MPD2    C312146   0.655   4.023  15.940  0.5064  0.1267 -0.4012
  822MPD2    C412147   0.690   4.050  15.812  0.0900 -0.2601 -0.1776
  822MPD2    C512148   0.724   3.941  15.726  0.1052  0.0122 -0.9624
  822MPD2     H12149   0.627   3.872  16.082  0.2306  1.2474  0.0601
  822MPD2    H112150   0.675   4.148  15.768 -3.5301 -0.0295  1.5974
  822MPD2    H212151   0.770   3.741  15.703 -1.5591  0.4232 -1.3026
  822MPD2    H312152   0.740   3.953  15.620 -0.0020  2.7266 -0.6684
  822MPD2     N12153   0.617   4.123  16.029 -0.5089 -0.3127  0.4866
  822MPD2    H512154   0.581   4.084  16.116  0.7319 -2.2508  0.1368
  822MPD2    N112155   0.705   3.660  15.961 -0.2952  0.4351 -0.4640
  822MPD2    H712156   0.694   3.658  16.062  1.9431  1.7175 -0.2064
  823MPD2     C12157   0.339   4.290  16.805  0.8489 -0.4065  0.0134
  823MPD2    C112158   0.351   4.216  16.686 -0.3985  0.7340  0.0379
  823MPD2    C212159   0.336   4.083  16.690  0.5250 -0.7361 -0.3007
  823MPD2    C312160   0.297   4.022  16.809  0.0500 -0.2861 -0.4035
  823MPD2    C412161   0.280   4.100  16.920  0.3253  0.4059  0.0964
  823MPD2    C512162   0.304   4.236  16.924  0.6468 -0.7778 -0.1157
  823MPD2     H12163   0.351   4.018  16.604 -0.4791  1.1209 -1.8656
  823MPD2    H112164   0.236   4.051  17.006  0.1941 -2.4761 -1.6023
  823MPD2    H212165   0.353   4.397  16.802 -1.4941 -0.1053 -0.2812
  823MPD2    H312166   0.291   4.292  17.015  0.8793 -2.1574  0.7623
  823MPD2     N12167   0.277   3.886  16.825  0.3303 -1.0518  0.2330
  823MPD2    H512168   0.233   3.844  16.907 -0.1479  0.9172  0.9937
  823MPD2    N112169   0.406   4.283  16.577 -0.6734  0.1826  0.2690
  823MPD2    H712170   0.409   4.384  16.582  0.8305  0.0745  1.9169
  824MPD2     C12171   0.921   2.790  16.121 -0.2745  0.1861 -0.1046
  824MPD2    C112172   0.969   2.884  16.034  0.7779  0.2511  0.3304
  824MPD2    C212173   1.058   2.839  15.937 -0.7452  0.4947 -0.4186
  824MPD2    C312174   1.097   2.705  15.936  0.2634 -0.2101 -0.3915
  824MPD2    C412175   1.050   2.614  16.028  0.1846  0.3449  0.5074
  824MPD2    C512176   0.957   2.660  16.121 -0.3812 -0.2000 -0.0019
  824MPD2     H12177   1.099   2.915  15.871  2.1592  0.2743  1.1343
  824MPD2    H112178   1.069   2.507  16.031 -1.3675  0.0984  1.4531
  824MPD2    H212179   0.862   2.822  16.205 -1.1769 -2.4705  0.2747
  824MPD2    H312180   0.919   2.597  16.201 -0.1671  0.8246  0.9070
  824MPD2     N12181   1.177   2.670  15.827 -0.4871 -0.1767 -0.1962
  824MPD2    H512182   1.190   2.743  15.757 -0.3028  0.4226  0.4680
  824MPD2    N112183   0.933   3.020  16.049  0.0576 -0.2429 -0.1111
  824MPD2    H712184   0.879   3.034  16.134 -0.9687  0.1465 -0.8187
  825MPD2     C12185   1.617   2.756  15.096  0.3162  0.2107 -0.0016
  825MPD2    C112186   1.574   2.807  15.216 -0.1836 -0.2743  0.2471
  825MPD2    C212187   1.569   2.947  15.234 -0.5997  0.0639  0.0220
  825MPD2    C312188   1.599   3.031  15.130  0.2190  0.2510  0.3762
  825MPD2    C412189   1.648   2.972  15.012 -0.5404 -0.6837  0.2159
  825MPD2    C512190   1.648   2.838  14.993 -0.3017 -0.7470 -0.1867
  825MPD2     H12191   1.554   2.995  15.330 -1.5345  3.3137 -1.7582
  825MPD2    H112192   1.678   3.040  14.933 -0.1865 -1.5948 -0.4269
  825MPD2    H212193   1.621   2.648  15.088  0.1857  0.2723 -0.9339
  825MPD2    H312194   1.676   2.794  14.897  0.8807 -2.5201  0.9590
  825MPD2     N12195   1.599   3.177  15.140  0.1912 -0.1953 -0.2882
  825MPD2    H512196   1.639   3.233  15.066  1.9351 -0.4218  0.4822
  825MPD2    N112197   1.526   2.710  15.309 -0.1166 -0.2249 -0.0021
  825MPD2    H712198   1.528   2.611  15.286  1.7601  0.4118 -2.5769
  826MPD2     C12199   1.051   2.770  13.850 -0.2442 -0.2859  0.5824
  826MPD2    C112200   1.007   2.756  13.723 -0.9401  0.1043  0.7711
  826MPD2    C212201   0.935   2.863  13.672 -0.5432 -0.1344 -0.1001
  826MPD2    C312202   0.904   2.973  13.750  0.0908 -1.0148 -0.1281
  826MPD2    C412203   0.944   2.986  13.881  0.5614 -0.6979 -0.2435
  826MPD2    C512204   1.017   2.876  13.925 -0.3810 -0.1783 -0.0580
  826MPD2     H12205   0.909   2.865  13.567 -1.9357 -1.2622  0.2285
  826MPD2    H112206   0.918   3.064  13.951 -1.1920 -1.3675 -0.1566
  826MPD2    H212207   1.117   2.691  13.883  0.0668 -1.4653 -2.8548
  826MPD2    H312208   1.051   2.881  14.028 -1.2180  1.4806  0.1289
  826MPD2     N12209   0.842   3.089  13.700  0.3430  0.0749 -0.0121
  826MPD2    H512210   0.826   3.168  13.762 -1.2741  0.1579 -0.5213
  826MPD2    N112211   1.055   2.643  13.652 -0.0789  0.8496  0.4127
  826MPD2    H712212   1.108   2.574  13.704 -1.8679 -0.1538  0.9171
  827MPD2     C12213   1.750   3.988  10.198 -0.4389  0.0043  0.5471
  827MPD2    C112214   1.662   3.901  10.249  0.2747  0.0150 -0.5165
  827MPD2    C212215   1.534   3.896  10.185  0.0560 -0.5407  0.8236
  827MPD2    C312216   1.491   3.986  10.094 -0.1102 -0.3103  0.1503
  827MPD2    C412217   1.580   4.083  10.057  0.8088 -0.5207 -0.0155
  827MPD2    C512218   1.709   4.074  10.101  0.0728 -0.0847 -0.6400
  827MPD2     H12219   1.465   3.820  10.218  0.4884 -0.7577  1.2402
  827MPD2    H112220   1.551   4.166   9.995  1.3927 -0.6012 -0.3934
  827MPD2    H212221   1.850   3.983  10.240 -0.7595 -2.4501  0.9986
  827MPD2    H312222   1.774   4.156  10.074  1.4721  0.1295  3.3415
  827MPD2     N12223   1.357   3.976  10.048  0.9197  0.3104  0.3974
  827MPD2    H512224   1.301   3.897  10.079 -1.4376  1.4413 -1.0094
  827MPD2    N112225   1.698   3.823  10.356  0.8356 -0.4667  0.0140
  827MPD2    H712226   1.792   3.815  10.394  0.7114 -0.0777  0.4076
  828MPD2     C12227   0.410   3.713  11.947 -0.2884 -0.0089  0.6381
  828MPD2    C112228   0.313   3.799  11.909 -0.3553  0.7436 -0.1549
  828MPD2    C212229   0.268   3.799  11.773  0.6414  0.3294  0.2642
  828MPD2    C312230   0.325   3.707  11.686 -0.0840  0.1310 -0.4323
  828MPD2    C412231   0.419   3.623  11.728  0.4573  0.1322 -0.0307
  828MPD2    C512232   0.465   3.625  11.860  0.1041 -0.1388  0.8770
  828MPD2     H12233   0.186   3.861  11.740  0.7294 -0.9406 -2.3314
  828MPD2    H112234   0.450   3.542  11.663  1.4460  0.7903 -0.3683
  828MPD2    H212235   0.437   3.692  12.050  1.6046 -1.6816 -0.1982
  828MPD2    H312236   0.540   3.555  11.896 -0.0969 -0.4019  0.7793
  828MPD2     N12237   0.265   3.691  11.558  0.6669 -0.1980  0.0299
  828MPD2    H512238   0.298   3.613  11.501  1.0213 -0.1032  0.1072
  828MPD2    N112239   0.252   3.889  11.999 -0.2083 -0.4086 -0.3262
  828MPD2    H712240   0.163   3.925  11.965 -0.0428  0.7903  0.4815
  829MPD2     C12241   4.386   4.403  11.783 -0.4754  0.1735 -0.0046
  829MPD2    C112242   4.350   4.351  11.905  0.4012 -0.4683  0.1043
  829MPD2    C212243   4.448   4.313  11.988  0.1842 -0.9291  0.0374
  829MPD2    C312244   4.579   4.323  11.950 -0.8239  0.4405  0.2866
  829MPD2    C412245   4.612   4.375  11.824  0.4772  0.0629  0.0930
  829MPD2    C512246   4.515   4.419  11.739  0.1577  0.1432  0.3152
  829MPD2     H12247   4.432   4.259  12.081 -2.2328 -1.3114 -0.5949
  829MPD2    H112248   4.716   4.368  11.796  0.7706 -1.0630  1.4661
  829MPD2    H212249   4.309   4.427  11.710 -0.7630  0.6336  0.4544
  829MPD2    H312250   4.538   4.459  11.641 -4.9135 -1.6277 -1.6358
  829MPD2     N12251   4.689   4.269  12.028 -0.4916  0.1182 -0.5881
  829MPD2    H512252   0.045   4.273  11.985 -1.3863  2.0504 -2.2662
  829MPD2    N112253   4.212   4.346  11.935 -0.2287 -0.7921 -0.4004
  829MPD2    H712254   4.152   4.372  11.857 -0.4189  1.9416  0.6766
  830MPD2     C12255   0.442   1.959  15.605  0.0940 -0.2561  0.6450
  830MPD2    C112256   0.487   2.091  15.616  0.0214  0.7143 -0.3398
  830MPD2    C212257   0.532   2.160  15.506 -0.8161 -0.4814 -0.1929
  830MPD2    C312258   0.533   2.095  15.380 -0.1197 -0.1001 -0.0981
  830MPD2    C412259   0.478   1.965  15.371  0.2973 -0.7604  0.1633
  830MPD2    C512260   0.428   1.901  15.480 -0.0527 -0.2927 -0.2795
  830MPD2     H12261   0.569   2.262  15.510 -0.6327 -0.4070 -3.3517
  830MPD2    H112262   0.476   1.911  15.277  2.2808 -0.2526 -0.1636
  830MPD2    H212263   0.400   1.908  15.690  0.5414 -1.4260  0.1615
  830MPD2    H312264   0.389   1.801  15.474 -1.0653  0.0044  1.5550
  830MPD2     N12265   0.598   2.146  15.262  0.6623 -0.0676 -0.4312
  830MPD2    H512266   0.589   2.095  15.175  0.0808  2.5966 -1.9401
  830MPD2    N112267   0.491   2.148  15.745 -0.0334 -0.2508 -0.4191
  830MPD2    H712268   0.465   2.098  15.829 -2.4525  1.4356 -0.1543
  831MPD2     C12269   0.931   4.099  16.254 -0.4553  0.0970 -0.0551
  831MPD2    C112270   0.920   3.970  16.215  0.0149 -0.4040  0.0477
  831MPD2    C212271   0.812   3.896  16.257 -0.1230  0.1343 -0.2576
  831MPD2    C312272   0.715   3.957  16.335  0.0697 -0.4114 -0.1019
  831MPD2    C412273   0.731   4.078  16.386  0.9857 -0.3173 -0.3026
  831MPD2    C512274   0.842   4.146  16.343 -0.1335  0.5110 -0.7122
  831MPD2     H12275   0.795   3.797  16.216  0.7307  0.5255 -1.5545
  831MPD2    H112276   0.657   4.129  16.446  1.6310  0.2566  0.0100
  831MPD2    H212277   1.012   4.164  16.221 -0.8163  0.2017 -0.7207
  831MPD2    H312278   0.865   4.246  16.379  0.3410  0.7875 -1.7821
  831MPD2     N12279   0.583   3.909  16.351 -0.9101 -0.2356 -0.5354
  831MPD2    H512280   0.519   3.973  16.397  0.3642  0.5449  0.1729
  831MPD2    N112281   1.001   3.924  16.112  0.4025  0.8587 -0.7221
  831MPD2    H712282   1.067   3.995  16.079  0.0565  1.1794 -0.7198
  832MPD2     C12283   3.895   0.093  17.395  1.3273  0.2515  0.4392
  832MPD2    C112284   3.880   0.226  17.356 -0.4764 -0.4304 -0.4014
  832MPD2    C212285   3.774   0.267  17.282 -0.2817 -1.0865  1.3704
  832MPD2    C312286   3.670   0.174  17.248 -0.2351  0.3283 -0.1372
  832MPD2    C412287   3.683   0.049  17.296 -0.2025 -0.0381  0.4894
  832MPD2    C512288   3.790   0.006  17.366 -0.8509  0.2008  0.0001
  832MPD2     H12289   3.769   0.367  17.239 -0.7399 -0.8963  1.8618
  832MPD2    H112290   3.601   4.717  17.272  0.2369 -0.0378 -1.0142
  832MPD2    H212291   3.982   0.058  17.449 -0.3829 -2.9002  1.1071
  832MPD2    H312292   3.794   4.638  17.401  1.4207 -0.1412 -1.2786
  832MPD2     N12293   3.556   0.197  17.164 -0.4240 -0.0243 -0.4684
  832MPD2    H512294   3.500   0.115  17.142 -0.1902 -0.3162  0.0310
  832MPD2    N112295   3.977   0.317  17.392 -0.1202 -0.0156  0.2415
  832MPD2    H712296   4.037   0.283  17.466  1.2920  1.2215 -0.3324
  833MPD2     C12297   0.976   2.348  12.430  0.2025  0.4978 -0.3457
  833MPD2    C112298   0.906   2.360  12.311  0.4176 -0.0720  0.7613
  833MPD2    C212299   0.970   2.386  12.191  0.7235  0.0863  0.0793
  833MPD2    C312300   1.108   2.400  12.189  0.4891  0.6937  0.3642
  833MPD2    C412301   1.173   2.397  12.312  0.2914  0.6636 -0.4289
  833MPD2    C512302   1.102   2.371  12.429  0.8695  0.8478 -0.3783
  833MPD2     H12303   0.911   2.378  12.100  0.0651 -2.4987  0.7344
  833MPD2    H112304   1.282   2.402  12.307  0.1088  3.6493 -0.8132
  833MPD2    H212305   0.926   2.332  12.525 -0.1813  4.6955  0.1792
  833MPD2    H312306   1.149   2.377  12.526  1.6341  2.7395 -0.8611
  833MPD2     N12307   1.182   2.440  12.069 -0.4258 -0.2461  0.1843
  833MPD2    H512308   1.278   2.472  12.074 -0.5404  0.2798 -1.1254
  833MPD2    N112309   0.766   2.337  12.314  0.7559  0.0347 -0.2898
  833MPD2    H712310   0.723   2.289  12.392  1.0653 -1.4559 -1.0507
  834MPD2     C12311   1.048   1.460  11.880 -0.4565 -0.0821 -0.3491
  834MPD2    C112312   0.957   1.516  11.791 -0.2715  0.5374  0.0793
  834MPD2    C212313   0.925   1.652  11.802  0.5359  0.3123  0.0970
  834MPD2    C312314   0.980   1.732  11.900  0.1812 -0.4181  0.0361
  834MPD2    C412315   1.065   1.674  11.992  0.6184  0.3396  0.6886
  834MPD2    C512316   1.085   1.539  11.987 -0.1475 -0.3927 -0.0640
  834MPD2     H12317   0.857   1.697  11.730  2.2160 -1.2740 -2.4899
  834MPD2    H112318   1.103   1.731  12.076  2.2438 -2.0008  1.5138
  834MPD2    H212319   1.082   1.358  11.884 -1.2218 -0.3461 -0.6535
  834MPD2    H312320   1.159   1.500  12.056 -1.5020 -1.1364  0.9574
  834MPD2     N12321   0.960   1.873  11.911 -0.7310  0.6552 -0.0573
  834MPD2    H512322   0.887   1.920  11.858  0.1117  0.8502 -1.0385
  834MPD2    N112323   0.909   1.429  11.694  0.2555 -0.1427 -0.4382
  834MPD2    H712324   0.939   1.333  11.703 -0.7124 -0.5987 -2.2135
  835MPD2     C12325   0.842   3.360  10.896  0.0742  0.0048 -0.2366
  835MPD2    C112326   0.764   3.467  10.932  0.4039  0.8905  0.6197
  835MPD2    C212327   0.805   3.552  11.032 -0.4249  0.1566  0.0126
  835MPD2    C312328   0.922   3.531  11.095  0.5619 -0.3673  0.2005
  835MPD2    C412329   0.989   3.414  11.072  0.7108  0.3309 -0.7611
  835MPD2    C512330   0.950   3.338  10.965  0.0287 -0.5314 -0.6845
  835MPD2     H12331   0.751   3.646  11.036  0.6843  0.8287 -0.8778
  835MPD2    H112332   1.073   3.381  11.132  0.2573 -1.0023 -0.8683
  835MPD2    H212333   0.815   3.296  10.812 -1.7468 -0.1467  0.4612
  835MPD2    H312334   1.013   3.256  10.933  0.9857 -1.4761  3.6115
  835MPD2     N12335   0.976   3.628  11.184 -1.0054  0.4659  0.4545
  835MPD2    H512336   1.071   3.621  11.218 -1.2792 -1.5866  0.8164
  835MPD2    N112337   0.650   3.516  10.869 -0.0946 -0.5630 -0.4680
  835MPD2    H712338   0.607   3.596  10.914 -1.4119 -0.8260 -1.2733
  836MPD2     C12339   0.680   4.351  11.419 -0.5011 -0.3729  0.5167
  836MPD2    C112340   0.741   4.285  11.524  0.1072 -0.5166  0.2278
  836MPD2    C212341   0.697   4.312  11.654  0.1081 -0.5629  0.6597
  836MPD2    C312342   0.590   4.393  11.685 -0.5792 -0.7029  0.2122
  836MPD2    C412343   0.535   4.462  11.579  1.0961 -0.3027  0.4198
  836MPD2    C512344   0.576   4.441  11.446  0.9631  0.1211  0.2950
  836MPD2     H12345   0.752   4.262  11.733  0.6850 -1.2431 -0.1753
  836MPD2    H112346   0.450   4.529  11.580  1.3403  0.0496 -1.4359
  836MPD2    H212347   0.691   4.325  11.314 -2.3727 -0.1526  0.2564
  836MPD2    H312348   0.514   4.497  11.377  1.4667  1.5576  1.0064
  836MPD2     N12349   0.543   4.420  11.813 -0.2864  0.7634 -0.3714
  836MPD2    H512350   0.472   4.492  11.824 -0.6706 -0.0279  2.3399
  836MPD2    N112351   0.831   4.178  11.475  0.0778  0.0077 -0.2803
  836MPD2    H712352   0.847   4.158  11.377  0.2848  1.1580 -0.4924
  837MPD2     C12353   3.790   3.224  10.129 -0.9516 -0.1551  0.4024
  837MPD2    C112354   3.657   3.231  10.084 -0.2523  1.1810  1.1036
  837MPD2    C212355   3.589   3.352  10.074  0.5182  0.3880  0.1293
  837MPD2    C312356   3.646   3.468  10.111 -0.7900  0.3459  0.2479
  837MPD2    C412357   3.768   3.457  10.174 -0.1554  0.4388  0.3846
  837MPD2    C512358   3.838   3.336  10.180  0.1038 -0.6083 -0.8408
  837MPD2     H12359   3.496   3.350  10.018  0.4341  1.1570  0.2402
  837MPD2    H112360   3.823   3.542  10.213  1.3238 -0.0359 -0.6264
  837MPD2    H212361   3.850   3.134  10.124 -0.9393 -0.0095 -2.3237
  837MPD2    H312362   3.937   3.339  10.226 -0.5789  0.5685  0.5673
  837MPD2     N12363   3.573   3.582  10.084 -0.1418 -0.1309  0.1289
  837MPD2    H512364   3.488   3.568  10.030  0.0874  1.9444 -0.7501
  837MPD2    N112365   3.587   3.123  10.025 -0.2420  0.8531 -0.3652
  837MPD2    H712366   3.491   3.148  10.006 -1.2753 -1.1646  2.1365
  838MPD2     C12367   2.144   1.815  11.504 -0.6541 -0.3676  0.2413
  838MPD2    C112368   2.114   1.825  11.641 -0.0028 -0.4523  1.0078
  838MPD2    C212369   2.005   1.757  11.690  0.4172 -0.3734  0.1947
  838MPD2    C312370   1.929   1.680  11.598  0.2848 -0.2759  0.0579
  838MPD2    C412371   1.956   1.675  11.466 -0.0230 -0.5366 -0.1788
  838MPD2    C512372   2.064   1.742  11.422  0.0162 -0.5176 -0.1549
  838MPD2     H12373   1.980   1.762  11.796 -1.8360 -0.0298 -0.3519
  838MPD2    H112374   1.904   1.639  11.378 -1.8691 -1.5176  1.3015
  838MPD2    H212375   2.226   1.874  11.466 -0.6596  1.2884  2.8014
  838MPD2    H312376   2.091   1.732  11.318  2.7272 -0.9808  0.6046
  838MPD2     N12377   1.813   1.620  11.658  0.5342  0.6911  0.4126
  838MPD2    H512378   1.796   1.643  11.755  1.4504  1.2345  0.4370
  838MPD2    N112379   2.191   1.911  11.737  0.4431 -0.2638  0.8904
  838MPD2    H712380   2.140   1.937  11.821 -1.1486 -1.9090  0.4376
  839MPD2     C12381   1.958   1.286  11.846 -0.1362  0.0044  0.2332
  839MPD2    C112382   1.995   1.293  11.716 -0.0792  0.1595  0.4748
  839MPD2    C212383   2.107   1.355  11.677  0.0224  0.0422  0.0461
  839MPD2    C312384   2.181   1.427  11.773 -0.6145 -0.1346  0.4023
  839MPD2    C412385   2.151   1.410  11.913 -0.5792  0.2637  0.1998
  839MPD2    C512386   2.037   1.338  11.942  1.1761  0.1654 -0.1643
  839MPD2     H12387   2.126   1.364  11.571  0.4010 -1.5230 -0.0184
  839MPD2    H112388   2.205   1.456  11.995 -0.8208  0.6559  0.1372
  839MPD2    H212389   1.878   1.219  11.876 -1.0537  2.0314  2.3470
  839MPD2    H312390   2.010   1.322  12.046 -0.5612  0.1353 -0.6266
  839MPD2     N12391   2.280   1.530  11.739 -0.0413 -0.2103 -0.1879
  839MPD2    H512392   2.316   1.587  11.815 -1.5094  2.3355 -1.4046
  839MPD2    N112393   1.912   1.232  11.614 -0.3209  0.2943  0.0378
  839MPD2    H712394   1.942   1.239  11.517  3.1931 -0.3366  1.0954
  840MPD2     C12395   2.285   3.788  10.409 -0.0941  0.3621 -0.3702
  840MPD2    C112396   2.230   3.799  10.535 -0.4725  0.3294  0.4977
  840MPD2    C212397   2.293   3.889  10.627  0.3406 -0.6428 -0.2063
  840MPD2    C312398   2.410   3.960  10.592 -0.6606  0.5698 -0.7971
  840MPD2    C412399   2.459   3.943  10.465 -0.4623  0.9046 -0.4491
  840MPD2    C512400   2.397   3.859  10.377 -0.0767  0.5404  0.2638
  840MPD2     H12401   2.239   3.899  10.721  1.1371 -0.1131  0.1860
  840MPD2    H112402   2.554   3.986  10.436  0.2329 -0.7592 -0.5982
  840MPD2    H212403   2.237   3.738  10.326  0.2293 -1.9940  0.8472
  840MPD2    H312404   2.430   3.832  10.277  2.2841  1.6551  0.7434
  840MPD2     N12405   2.477   4.049  10.679 -0.5103  0.6666  1.0365
  840MPD2    H512406   2.559   4.100  10.646  0.5598 -1.8768 -0.2571
  840MPD2    N112407   2.101   3.745  10.560  0.0696 -0.5033  0.0113
  840MPD2    H712408   2.058   3.687  10.489  1.4180  1.5011 -2.4352
  841MPD2     C12409   1.846   4.427  14.101  0.1236 -0.1681 -0.1244
  841MPD2    C112410   1.844   4.350  14.215  0.0795  0.4138 -0.2626
  841MPD2    C212411   1.898   4.388  14.334  0.3769  0.3843  0.6827
  841MPD2    C312412   1.939   4.520  14.344  0.4496 -0.3792 -0.0560
  841MPD2    C412413   1.920   4.601  14.237  0.4730  0.0463  0.6883
  841MPD2    C512414   1.882   4.556  14.114  0.0374  0.0682 -0.2673
  841MPD2     H12415   1.921   4.320  14.416  2.4525 -2.0394 -1.8897
  841MPD2    H112416   1.931   4.709  14.241 -1.2639  0.2067  1.3106
  841MPD2    H212417   1.812   4.391  14.005  0.3647  2.2999 -1.1317
  841MPD2    H312418   1.883   4.632  14.036  1.1054  2.3944  2.0409
  841MPD2     N12419   1.989   4.570  14.466  0.6290 -0.5265  0.0586
  841MPD2    H512420   1.962   4.522  14.551  1.3283 -0.3901  0.3609
  841MPD2    N112421   1.792   4.214  14.213 -0.4434  0.0222  0.2420
  841MPD2    H712422   1.813   4.156  14.293  3.1693  0.4795 -0.3705
  842MPD2     C12423   2.875   0.292  16.755 -0.4641  0.3111 -0.1424
  842MPD2    C112424   2.869   0.168  16.818  0.1081  0.5149 -0.6545
  842MPD2    C212425   2.949   0.151  16.927  0.6204  1.2835 -0.2406
  842MPD2    C312426   3.018   0.258  16.986 -0.4583 -0.1829  0.2125
  842MPD2    C412427   3.013   0.376  16.918 -0.0978 -0.3973  0.1558
  842MPD2    C512428   2.951   0.392  16.800 -0.8229 -0.2921 -0.1652
  842MPD2     H12429   2.929   0.063  16.987  0.2617  2.5617  1.5268
  842MPD2    H112430   3.062   0.462  16.962 -1.7933  0.5769  0.1429
  842MPD2    H212431   2.810   0.314  16.671 -0.2218  3.8870  0.6233
  842MPD2    H312432   2.946   0.489  16.753 -0.5650 -0.7708 -1.1779
  842MPD2     N12433   3.074   0.255  17.117  0.0304  0.2369 -0.0179
  842MPD2    H512434   3.100   0.348  17.150  3.0443  0.3446 -2.7163
  842MPD2    N112435   2.782   0.069  16.761  0.0737  0.6589  0.1924
  842MPD2    H712436   2.728   0.100  16.681  2.0490 -0.7223 -1.6872
  843MPD2     C12437   0.367   1.144  17.101  0.3892 -1.0690 -0.0299
  843MPD2    C112438   0.353   1.085  17.219 -0.1151  0.2990 -1.2063
  843MPD2    C212439   0.407   1.137  17.329  0.1510 -0.1607  0.4626
  843MPD2    C312440   0.461   1.266  17.318 -0.4022 -0.3686  0.3840
  843MPD2    C412441   0.481   1.319  17.198 -0.7239  0.2766 -0.6399
  843MPD2    C512442   0.435   1.259  17.085 -0.3022  0.0034  0.5011
  843MPD2     H12443   0.403   1.095  17.429  0.1775  0.9844  0.9521
  843MPD2    H112444   0.527   1.416  17.176 -1.8168  1.1289  0.8571
  843MPD2    H212445   0.320   1.110  17.009  0.7094  0.4883 -0.7719
  843MPD2    H312446   0.455   1.300  16.987 -0.5499 -0.3165  0.3179
  843MPD2     N12447   0.512   1.347  17.420  0.3386  0.5610  0.3987
  843MPD2    H512448   0.543   1.440  17.394  1.2978  0.3243  0.7044
  843MPD2    N112449   0.272   0.971  17.231 -0.4173  0.3058 -0.2451
  843MPD2    H712450   0.231   0.933  17.146  1.5659 -2.0379 -0.1536
  844MPD2     C12451   3.555   4.411  16.863  0.5270  0.8068 -0.2912
  844MPD2    C112452   3.516   4.514  16.779 -0.4587 -0.4708  0.3184
  844MPD2    C212453   3.566   4.640  16.801  0.7581  0.7290  0.6462
  844MPD2    C312454   3.655   4.660  16.903 -0.4360  0.1212  0.0468
  844MPD2    C412455   3.698   4.560  16.983  0.6786  0.3589 -0.2598
  844MPD2    C512456   3.642   4.433  16.970 -0.1173 -0.1278 -0.1774
  844MPD2     H12457   3.544   4.717  16.728 -1.0437  0.6608  1.1388
  844MPD2    H112458   3.794   4.556  17.034  0.5459  0.2151 -0.0208
  844MPD2    H212459   3.533   4.307  16.845  1.4166  0.7538 -1.1115
  844MPD2    H312460   3.685   4.353  17.030 -0.7353 -1.9082 -2.1000
  844MPD2     N12461   3.729   0.041  16.920 -0.1061 -0.0613 -0.0966
  844MPD2    H512462   3.807   0.030  16.984  1.2919  0.4373 -1.7381
  844MPD2    N112463   3.439   4.496  16.663 -0.0070  0.1520 -0.1890
  844MPD2    H712464   3.438   4.578  16.603  2.0559 -0.0939 -0.5702
  845MPD2     C12465   3.542   1.001  17.064 -1.0658  0.4359  0.4241
  845MPD2    C112466   3.501   0.895  17.137  0.6097  0.3646 -0.5963
  845MPD2    C212467   3.552   0.768  17.116 -0.0152 -0.2195  0.1989
  845MPD2    C312468   3.668   0.757  17.037  0.4003  0.2085  0.1976
  845MPD2    C412469   3.724   0.869  16.987 -0.3490 -0.2170 -0.6697
  845MPD2    C512470   3.665   0.992  17.006  0.4050 -0.3492  0.3831
  845MPD2     H12471   3.513   0.676  17.158  0.2923 -0.0138  0.9324
  845MPD2    H112472   3.810   0.872  16.920  1.2269  3.7865  1.5364
  845MPD2    H212473   3.505   1.102  17.076 -0.6640  0.6657 -0.2520
  845MPD2    H312474   3.696   1.081  16.954 -1.9005  0.4708  0.4295
  845MPD2     N12475   3.723   0.629  17.013 -0.4782  0.3497 -0.5337
  845MPD2    H512476   3.671   0.549  17.048  0.3484 -0.9174 -2.2030
  845MPD2    N112477   3.386   0.920  17.216  0.2169 -0.1893  0.1880
  845MPD2    H712478   3.344   1.013  17.217 -2.3420 -1.3431 -0.2564
  846MPD2     C12479   4.713   1.624  13.560 -0.1916 -0.3947 -0.6243
  846MPD2    C112480   0.065   1.520  13.596  0.1398 -0.0234  0.0565
  846MPD2    C212481   0.086   1.487  13.730  0.1371 -0.9587 -0.5296
  846MPD2    C312482   0.007   1.536  13.834  0.4485 -0.3688 -1.1592
  846MPD2    C412483   4.649   1.631  13.795 -0.7758  0.3155  0.5891
  846MPD2    C512484   4.638   1.674  13.664 -0.3974 -0.0395 -0.4868
  846MPD2     H12485   0.155   1.408  13.758  0.6023  0.6446  2.8303
  846MPD2    H112486   4.589   1.684  13.867 -1.0321  1.5608 -0.5539
  846MPD2    H212487   4.691   1.670  13.464  0.9279  1.1851 -0.1248
  846MPD2    H312488   4.558   1.741  13.636 -0.0741  1.3220  1.8397
  846MPD2     N12489   0.009   1.502  13.972  0.1777 -0.1245  0.0139
  846MPD2    H512490   4.666   1.536  14.027 -0.1685 -0.2457 -0.4003
  846MPD2    N112491   0.147   1.456  13.494  0.0978 -0.2430 -0.4750
  846MPD2    H712492   0.210   1.381  13.522 -0.1516  0.4490  1.9145
  847MPD2     C12493   0.138   1.931  14.484  0.4606 -0.8304 -0.4168
  847MPD2    C112494   0.221   2.028  14.434 -0.6549 -0.4006  0.3114
  847MPD2    C212495   0.352   2.000  14.426  0.1565  0.0077 -0.2069
  847MPD2    C312496   0.408   1.886  14.482 -0.0592  0.9073 -0.1035
  847MPD2    C412497   0.324   1.798  14.534 -0.2529  0.9027  0.2348
  847MPD2    C512498   0.191   1.816  14.522  0.8318  0.1542 -0.0967
  847MPD2     H12499   0.423   2.076  14.396  0.2080 -0.2290 -0.6884
  847MPD2    H112500   0.353   1.705  14.583  1.3779  2.0682  1.4726
  847MPD2    H212501   0.034   1.955  14.500  1.1537  0.2353  2.5998
  847MPD2    H312502   0.120   1.744  14.561  2.5453 -0.2072  2.3909
  847MPD2     N12503   0.554   1.878  14.486 -0.3998  1.1501  1.4570
  847MPD2    H512504   0.599   1.957  14.441  0.3612 -0.5159 -0.6869
  847MPD2    N112505   0.184   2.151  14.386 -0.0050 -0.0861  0.1787
  847MPD2    H712506   0.256   2.212  14.349 -0.6275 -0.9090 -2.3523
  848MPD2     C12507   3.362   0.711  16.504 -0.0201  0.1297  0.2550
  848MPD2    C112508   3.259   0.626  16.530  0.6421 -0.1709 -0.3443
  848MPD2    C212509   3.140   0.650  16.465 -0.7254  0.5933 -0.1289
  848MPD2    C312510   3.115   0.760  16.386 -0.1104  0.0119  0.3190
  848MPD2    C412511   3.221   0.848  16.366  0.3277  0.2383  0.2284
  848MPD2    C512512   3.340   0.815  16.417  0.9751 -0.3697  0.6043
  848MPD2     H12513   3.058   0.581  16.477  0.3352 -0.5759  0.3976
  848MPD2    H112514   3.214   0.944  16.315  1.0148 -0.1436 -0.5741
  848MPD2    H212515   3.461   0.696  16.546 -0.6417 -1.8110  1.0170
  848MPD2    H312516   3.426   0.877  16.398  1.8669 -1.5067  0.9269
  848MPD2     N12517   2.983   0.804  16.341  0.1667 -0.1220 -0.3596
  848MPD2    H512518   2.988   0.894  16.295 -2.0973  1.5878  2.8152
  848MPD2    N112519   3.288   0.509  16.610 -0.0320 -0.1645 -0.0665
  848MPD2    H712520   3.213   0.440  16.617  0.6537 -0.8547  0.5472
  849MPD2     C12521   2.175   0.359  14.753 -0.1649  0.1799 -0.2477
  849MPD2    C112522   2.225   0.374  14.626  0.6120  0.2105  0.7754
  849MPD2    C212523   2.353   0.427  14.611  0.3485 -0.1465 -0.3632
  849MPD2    C312524   2.430   0.465  14.720 -0.1543  0.1279 -0.1334
  849MPD2    C412525   2.380   0.455  14.852  0.3719 -0.2369 -0.0809
  849MPD2    C512526   2.252   0.398  14.866 -0.7569  0.3096  0.1655
  849MPD2     H12527   2.392   0.437  14.510  2.2923  0.5997  0.4656
  849MPD2    H112528   2.440   0.478  14.939  2.2364 -1.0547 -1.1625
  849MPD2    H212529   2.081   0.310  14.775 -0.4823  1.6035  1.6271
  849MPD2    H312530   2.222   0.371  14.966 -2.1733  0.5315 -0.2035
  849MPD2     N12531   2.561   0.505  14.689 -0.0055 -0.0372  0.1727
  849MPD2    H512532   2.567   0.519  14.589 -2.9605  0.7506  0.0890
  849MPD2    N112533   2.162   0.362  14.500  0.4945 -0.2217  0.1755
  849MPD2    H712534   2.225   0.369  14.420  0.1230 -1.8140 -0.2514
  850MPD2     C12535   0.358   3.028  14.385  0.1707 -0.1918  0.1527
  850MPD2    C112536   0.316   3.111  14.488 -0.1566  0.1435  0.1338
  850MPD2    C212537   0.410   3.193  14.549 -0.6004 -0.2010  0.4782
  850MPD2    C312538   0.543   3.178  14.507 -0.8745 -0.4496  0.0256
  850MPD2    C412539   0.579   3.096  14.404  0.5432  0.6222 -0.6461
  850MPD2    C512540   0.484   3.028  14.336 -0.1402 -0.3434 -0.0153
  850MPD2     H12541   0.378   3.277  14.610 -1.4095 -1.3141  1.5760
  850MPD2    H112542   0.677   3.092  14.359  0.3994  1.6525 -1.0714
  850MPD2    H212543   0.288   2.969  14.326  0.0888  0.9045 -0.8371
  850MPD2    H312544   0.523   2.964  14.257 -1.3672 -1.4390  0.2627
  850MPD2     N12545   0.647   3.256  14.564 -0.3199 -0.0452  0.2658
  850MPD2    H512546   0.738   3.241  14.521 -0.2601 -3.3394  1.5372
  850MPD2    N112547   0.188   3.110  14.523 -0.0129 -0.0059 -0.2295
  850MPD2    H712548   0.127   3.056  14.462  1.9257 -2.0801 -0.2963
  851MPD2     C12549   0.713   3.090  15.200  0.4926 -0.0087 -0.4894
  851MPD2    C112550   0.641   3.040  15.096 -0.2111 -1.0909  0.5700
  851MPD2    C212551   0.675   2.910  15.057  0.3067 -0.3424  0.0583
  851MPD2    C312552   0.773   2.832  15.117 -0.1965  0.2062  0.3530
  851MPD2    C412553   0.841   2.881  15.225  0.2744 -0.3860  0.4065
  851MPD2    C512554   0.808   3.009  15.261 -0.0203  0.1041 -0.1021
  851MPD2     H12555   0.619   2.859  14.979  0.3842 -0.4628  0.0805
  851MPD2    H112556   0.914   2.823  15.279  1.0855 -1.9036 -2.3409
  851MPD2    H212557   0.688   3.193  15.223  1.2551 -0.2130  1.2646
  851MPD2    H312558   0.861   3.045  15.348 -2.0983 -1.7034  1.9132
  851MPD2     N12559   0.784   2.697  15.073 -0.0315  0.0541  1.2546
  851MPD2    H512560   0.727   2.661  14.998 -1.1143  1.8314  1.2334
  851MPD2    N112561   0.537   3.113  15.038  0.1194  0.3134 -0.6094
  851MPD2    H712562   0.536   3.209  15.072  0.8655  0.4071 -0.8411
  852MPD2     C12563   4.312   0.433  10.751 -0.4693  0.5080  0.8405
  852MPD2    C112564   4.392   0.516  10.828 -0.5036 -0.2734 -0.2739
  852MPD2    C212565   4.471   0.607  10.763 -0.8865  0.5661  0.7279
  852MPD2    C312566   4.447   0.638  10.633  0.7481 -0.6425 -0.7463
  852MPD2    C412567   4.352   0.563  10.565  0.2761  0.1834  0.3213
  852MPD2    C512568   4.288   0.459  10.624  0.4394 -0.3399 -0.3155
  852MPD2     H12569   4.539   0.665  10.825 -0.7485  1.8207 -0.6162
  852MPD2    H112570   4.320   0.588  10.464  1.8896 -2.7276 -0.9302
  852MPD2    H212571   4.250   0.357  10.797 -0.5698  0.2108  0.2077
  852MPD2    H312572   4.215   0.392  10.579  0.5405 -0.1353 -0.7814
  852MPD2     N12573   4.519   0.747  10.576  0.5000  0.5795  0.4827
  852MPD2    H512574   4.585   0.795  10.637  0.7685  0.7199  0.0774
  852MPD2    N112575   4.401   0.498  10.965 -0.3504 -0.2652  0.3516
  852MPD2    H712576   4.455   0.567  11.016 -1.1985  0.2774  0.5281
  853MPD2     C12577   1.731   0.115  12.363  0.3855  0.0564  0.3916
  853MPD2    C112578   1.745   0.244  12.330 -0.2770  0.5884 -0.7473
  853MPD2    C212579   1.781   0.277  12.198  0.0842  0.2982 -0.4710
  853MPD2    C312580   1.812   0.177  12.112 -0.2309 -0.8323  0.4589
  853MPD2    C412581   1.802   0.051  12.145 -0.2024  0.3382 -0.1941
  853MPD2    C512582   1.761   0.019  12.276 -0.7582  0.4933  0.1229
  853MPD2     H12583   1.796   0.382  12.175 -1.4190  0.2544 -1.6954
  853MPD2    H112584   1.825   4.708  12.073 -1.2442 -1.5261  1.4590
  853MPD2    H212585   1.706   0.073  12.460 -2.0275 -0.7036 -0.5726
  853MPD2    H312586   1.769   4.651  12.309 -1.6595  0.6384  0.7954
  853MPD2     N12587   1.863   0.203  11.979  0.2815  0.1039 -0.1942
  853MPD2    H512588   1.893   0.123  11.925 -0.0617  0.7535 -1.3436
  853MPD2    N112589   1.718   0.342  12.431  0.0721  1.0950 -0.3817
  853MPD2    H712590   1.681   0.305  12.518 -0.0565  0.6578 -0.6228
  854MPD2     C12591   3.565   0.991  12.999 -0.8302 -1.0321 -0.5717
  854MPD2    C112592   3.556   0.863  12.946 -0.5872 -0.1209  0.1043
  854MPD2    C212593   3.658   0.770  12.965  0.2956  0.2454  0.3391
  854MPD2    C312594   3.771   0.811  13.041 -0.1942 -0.0277  0.6437
  854MPD2    C412595   3.775   0.940  13.091  0.0100  0.7338  0.4074
  854MPD2    C512596   3.672   1.028  13.075  0.4832 -0.5979 -0.1963
  854MPD2     H12597   3.659   0.672  12.919  0.4441  1.0770 -1.4120
  854MPD2    H112598   3.852   0.955  13.167  1.1488  1.6960 -0.9326
  854MPD2    H212599   3.484   1.060  12.974  0.3822  0.8183  0.5777
  854MPD2    H312600   3.675   1.126  13.123 -0.3234 -0.8200  0.2959
  854MPD2     N12601   3.873   0.728  13.073 -0.1659  0.5747  0.1035
  854MPD2    H512602   3.962   0.764  13.106  1.4884 -2.4327 -1.0348
  854MPD2    N112603   3.441   0.828  12.869 -0.9985  0.0499 -0.1700
  854MPD2    H712604   3.374   0.905  12.869 -0.5265  0.4587 -0.6161
  855MPD2     C12605   4.318   0.788  13.762  0.0906 -0.1502  0.0337
  855MPD2    C112606   4.260   0.667  13.753 -0.9147 -0.4092 -0.7752
  855MPD2    C212607   4.244   0.611  13.623  1.0393 -0.3601 -0.5770
  855MPD2    C312608   4.275   0.686  13.512  1.0084 -0.8686 -0.7375
  855MPD2    C412609   4.331   0.807  13.521 -0.5032  0.1393 -0.2440
  855MPD2    C512610   4.357   0.852  13.648 -0.4461 -0.2651 -0.3651
  855MPD2     H12611   4.173   0.530  13.612  0.0462  0.7179 -2.0964
  855MPD2    H112612   4.365   0.870  13.439 -0.5402 -1.4136 -1.4658
  855MPD2    H212613   4.331   0.837  13.858 -0.7626  0.3809 -0.1174
  855MPD2    H312614   4.408   0.947  13.658  1.2193 -1.3943  1.8320
  855MPD2     N12615   4.258   0.630  13.385 -0.1114  0.3030 -0.7290
  855MPD2    H512616   4.286   0.684  13.303  2.1535  0.5807  0.2321
  855MPD2    N112617   4.219   0.598  13.868 -0.2709  0.2153 -0.3459
  855MPD2    H712618   4.242   0.647  13.954  0.6557  0.2434 -0.6101
  856MPD2     C12619   1.814   1.542  14.037  0.0924 -0.4498 -0.3634
  856MPD2    C112620   1.734   1.649  14.080 -0.4265  0.3848  0.0320
  856MPD2    C212621   1.618   1.674  14.006 -1.0979 -0.1883  0.0119
  856MPD2    C312622   1.574   1.590  13.907 -0.3500 -0.2071  0.5371
  856MPD2    C412623   1.651   1.478  13.872  0.1913 -0.6279  0.6523
  856MPD2    C512624   1.766   1.458  13.942  0.0341 -0.5647 -0.8324
  856MPD2     H12625   1.555   1.758  14.033  1.3228  2.3572 -2.3555
  856MPD2    H112626   1.628   1.413  13.788  2.3742  0.6796 -0.9474
  856MPD2    H212627   1.902   1.512  14.093 -0.3096 -1.2405 -0.1392
  856MPD2    H312628   1.828   1.376  13.908 -1.5312 -2.0079 -0.2299
  856MPD2     N12629   1.462   1.630  13.829 -0.8173 -0.7676 -0.5803
  856MPD2    H512630   1.432   1.725  13.848 -0.3058 -0.2316 -2.4420
  856MPD2    N112631   1.773   1.741  14.179  0.6202  0.3767 -0.8254
  856MPD2    H712632   1.714   1.821  14.199 -0.8912 -0.6487 -1.2510
  857MPD2     C12633   3.310   3.092  13.172 -0.3729 -0.2227 -0.2415
  857MPD2    C112634   3.257   3.175  13.071  0.0627 -0.3322  0.0793
  857MPD2    C212635   3.240   3.312  13.090 -0.7996  0.1582 -0.4169
  857MPD2    C312636   3.295   3.370  13.207  0.1026  0.7477  0.1411
  857MPD2    C412637   3.340   3.280  13.311 -0.2809  0.8296 -0.6054
  857MPD2    C512638   3.347   3.144  13.292  0.6218 -0.1008 -0.3330
  857MPD2     H12639   3.204   3.379  13.013 -2.5198  0.3290  0.5415
  857MPD2    H112640   3.374   3.316  13.408  0.0227 -0.6443 -0.1583
  857MPD2    H212641   3.300   2.984  13.159  3.3015 -0.3205 -2.3604
  857MPD2    H312642   3.384   3.074  13.366 -0.9510  0.2844  0.8296
  857MPD2     N12643   3.295   3.508  13.218  0.1515  0.7388  0.1395
  857MPD2    H512644   3.241   3.563  13.152  0.2836  0.3468 -0.2929
  857MPD2    N112645   3.209   3.103  12.957  0.0545  0.7055 -0.3163
  857MPD2    H712646   3.231   3.005  12.947 -3.2606 -0.1739  0.9376
  858MPD2     C12647   4.347   2.527  16.542  0.6423 -0.2134 -0.0991
  858MPD2    C112648   4.237   2.598  16.488  0.8619 -0.3226  0.4569
  858MPD2    C212649   4.146   2.661  16.580  0.4039  0.4216 -0.3737
  858MPD2    C312650   4.168   2.655  16.717  0.0892 -0.2029  1.0815
  858MPD2    C412651   4.273   2.583  16.760  0.9546 -0.2081 -0.2154
  858MPD2    C512652   4.359   2.513  16.683  0.6882  0.0229 -0.4571
  858MPD2     H12653   4.067   2.720  16.536  1.0354  1.4550 -0.1271
  858MPD2    H112654   4.272   2.558  16.865  0.8345 -1.6887 -0.5603
  858MPD2    H212655   4.421   2.473  16.484  3.5291  1.3072  2.1395
  858MPD2    H312656   4.441   2.458  16.726 -0.3390  0.1832  1.6986
  858MPD2     N12657   4.082   2.709  16.813  0.0361  0.2051 -0.5991
  858MPD2    H512658   4.102   2.691  16.911  0.4878  0.4015 -0.6549
  858MPD2    N112659   4.211   2.606  16.348  0.1581 -0.2442 -0.5472
  858MPD2    H712660   4.126   2.653  16.319 -0.5803 -1.1913  0.0834
  859MPD2     C12661   2.239   0.362  16.064 -0.3918  0.3571 -0.3367
  859MPD2    C112662   2.278   0.306  15.943 -0.2773  0.2347 -0.0808
  859MPD2    C212663   2.226   0.194  15.890  0.4707 -0.8224  0.1084
  859MPD2    C312664   2.125   0.130  15.964 -0.2770  0.3869 -0.2623
  859MPD2    C412665   2.077   0.181  16.080 -0.5888  0.3846 -0.2152
  859MPD2    C512666   2.140   0.300  16.131  0.5138  0.1253  0.2556
  859MPD2     H12667   2.262   0.163  15.793  2.3896 -1.6524  1.0757
  859MPD2    H112668   1.999   0.133  16.139 -0.0438  2.0061  1.8358
  859MPD2    H212669   2.282   0.446  16.117 -1.7412  0.4578  0.5852
  859MPD2    H312670   2.102   0.347  16.221  0.1100  1.1664 -0.4563
  859MPD2     N12671   2.053   0.021  15.923  0.8376 -0.5364  0.0318
  859MPD2    H512672   1.993   4.718  15.996 -1.7128  1.0941 -1.2092
  859MPD2    N112673   2.382   0.388  15.878  0.1932 -0.1611 -0.0696
  859MPD2    H712674   2.421   0.458  15.941 -3.1672  0.0599  1.7298
  860MPD2     C12675   4.138   4.660  11.752  0.1549 -0.0148 -0.6741
  860MPD2    C112676   4.193   4.692  11.868  0.4001 -0.7123  0.3956
  860MPD2    C212677   4.109   4.686  11.981  0.0155 -0.6512 -0.3527
  860MPD2    C312678   3.975   4.661  11.971 -0.1382  0.4652 -0.4484
  860MPD2    C412679   3.917   4.637  11.850  0.6053  0.0661  0.6376
  860MPD2    C512680   4.005   4.636  11.740  0.4636  0.0294 -0.5708
  860MPD2     H12681   4.158   4.706  12.076 -0.6594  1.3979 -0.4221
  860MPD2    H112682   3.820   4.591  11.832  1.4280 -1.7063  0.6732
  860MPD2    H212683   4.190   4.677  11.658  0.2817 -0.8714 -0.7570
  860MPD2    H312684   3.967   4.606  11.643 -0.3272 -0.4367 -0.1247
  860MPD2     N12685   3.900   4.661  12.087  0.2425  0.2335 -0.3113
  860MPD2    H512686   3.947   4.695  12.171 -0.8015 -0.1677  0.4341
  860MPD2    N112687   4.328   4.731  11.889 -0.2469  0.1823  0.3125
  860MPD2    H712688   4.364   4.730  11.984 -0.2400  2.5135  0.3343
  861MPD2     C12689   3.331   3.312  10.981 -0.4823 -0.6726 -0.2742
  861MPD2    C112690   3.211   3.296  11.048  0.0447 -1.1442  0.1223
  861MPD2    C212691   3.089   3.314  10.989 -0.4184  0.5955 -0.1483
  861MPD2    C312692   3.090   3.347  10.852 -0.1400 -0.3626  0.9722
  861MPD2    C412693   3.213   3.376  10.794 -0.6540  0.2324  0.1418
  861MPD2    C512694   3.332   3.359  10.851 -0.3147 -0.1858 -0.0025
  861MPD2     H12695   2.995   3.304  11.042 -0.0735 -2.7264 -0.1279
  861MPD2    H112696   3.211   3.400  10.688  2.0437  0.8923  0.2334
  861MPD2    H212697   3.429   3.293  11.024 -0.5721  0.6614  0.5303
  861MPD2    H312698   3.419   3.374  10.789  0.0131  0.3877  0.5985
  861MPD2     N12699   2.971   3.378  10.778  0.3763 -0.4412 -0.4855
  861MPD2    H512700   2.989   3.409  10.683  0.0296 -2.0562 -1.0850
  861MPD2    N112701   3.214   3.259  11.183 -0.4756 -0.1212  0.1972
  861MPD2    H712702   3.128   3.239  11.233 -1.4745 -1.2728 -2.0121
  862MPD2     C12703   2.665   3.459  10.185 -0.0916 -0.0743  0.3910
  862MPD2    C112704   2.773   3.422  10.265  0.0082  0.7691 -0.7589
  862MPD2    C212705   2.823   3.295  10.259 -0.2619 -0.1700 -0.6727
  862MPD2    C312706   2.746   3.192  10.202 -0.1374 -0.2302  0.9669
  862MPD2    C412707   2.635   3.236  10.135 -0.1910  0.9333  0.3301
  862MPD2    C512708   2.595   3.365  10.124 -0.1246  1.1552 -0.2175
  862MPD2     H12709   2.914   3.289  10.318  0.2407 -0.8849 -1.5358
  862MPD2    H112710   2.569   3.159  10.095  0.3130  1.3225 -1.2149
  862MPD2    H212711   2.618   3.557  10.190  0.4492  0.1169  1.7641
  862MPD2    H312712   2.503   3.391  10.072  0.7115  0.2295 -2.1338
  862MPD2     N12713   2.775   3.057  10.227 -0.3126  0.0798  0.2407
  862MPD2    H512714   2.698   2.993  10.211 -1.0985  0.5192  2.2501
  862MPD2    N112715   2.837   3.509  10.353 -0.1755  0.6595 -0.2723
  862MPD2    H712716   2.911   3.456  10.399 -0.4924 -0.4019 -0.9933
  863MPD2     C12717   2.267   1.893  16.436 -0.3254  0.2375  0.1251
  863MPD2    C112718   2.199   1.910  16.554  0.6843 -0.2798 -0.6550
  863MPD2    C212719   2.253   1.883  16.679  0.6577 -0.1095 -0.1136
  863MPD2    C312720   2.385   1.838  16.686  0.1520  0.0812 -0.0941
  863MPD2    C412721   2.457   1.816  16.565 -0.6356  0.3316  0.2523
  863MPD2    C512722   2.400   1.842  16.443 -0.9375  0.4586 -1.1167
  863MPD2     H12723   2.191   1.904  16.765  2.7431  2.3775  0.7749
  863MPD2    H112724   2.557   1.773  16.565 -1.2155 -1.0433 -3.3357
  863MPD2    H212725   2.227   1.932  16.343  1.6239  1.5563 -0.1509
  863MPD2    H312726   2.447   1.820  16.348 -0.9674  2.0422 -1.4900
  863MPD2     N12727   2.447   1.807  16.809 -0.4295  0.0536 -0.1225
  863MPD2    H512728   2.549   1.802  16.814 -0.4637  0.2897  0.8920
  863MPD2    N112729   2.067   1.959  16.527  0.1013 -0.6056 -0.1103
  863MPD2    H712730   2.057   1.996  16.433 -0.8681 -0.3060  0.1096
  864MPD2     C12731   2.572   2.866  17.270  0.4043 -0.2594 -0.7010
  864MPD2    C112732   2.651   2.787  17.187 -0.3305  0.9412 -0.0081
  864MPD2    C212733   2.753   2.851  17.118  0.2880  0.1331 -0.3270
  864MPD2    C312734   2.777   2.987  17.133 -0.6229  0.1158  0.1585
  864MPD2    C412735   2.702   3.064  17.222 -0.4972 -0.5610 -0.1754
  864MPD2    C512736   2.597   3.002  17.288 -0.1703 -0.4765  0.0883
  864MPD2     H12737   2.820   2.789  17.059  1.8194  1.3051  0.2005
  864MPD2    H112738   2.713   3.171  17.236  0.5821 -0.7072  0.1226
  864MPD2    H212739   2.491   2.815  17.322 -2.7001  2.8594 -2.4441
  864MPD2    H312740   2.537   3.059  17.359 -1.7807 -2.4825  0.3311
  864MPD2     N12741   2.874   3.052  17.049  0.3294 -0.6635 -0.2212
  864MPD2    H512742   2.891   3.150  17.065  0.8359 -0.7348 -0.3179
  864MPD2    N112743   2.597   2.656  17.169 -0.4541 -0.8728  0.0392
  864MPD2    H712744   2.532   2.621  17.238  1.6280 -3.0657  0.9018
  865MPD2     C12745   2.577   3.300  16.239  0.0797 -0.3576 -0.0909
  865MPD2    C112746   2.662   3.194  16.256  0.0258  0.0614 -0.0393
  865MPD2    C212747   2.741   3.192  16.368 -0.0287 -0.6995  0.7744
  865MPD2    C312748   2.740   3.287  16.466 -0.3735  0.5171  0.3780
  865MPD2    C412749   2.652   3.394  16.449  0.0348 -0.4608 -0.0171
  865MPD2    C512750   2.575   3.398  16.335  0.0703  0.4837 -0.1247
  865MPD2     H12751   2.808   3.108  16.382  0.3545 -0.3966  0.7653
  865MPD2    H112752   2.654   3.482  16.512 -0.2281 -0.0845 -0.5412
  865MPD2    H212753   2.507   3.316  16.157 -1.2425 -1.9668  0.7300
  865MPD2    H312754   2.511   3.485  16.326 -0.3947 -0.0677 -2.2631
  865MPD2     N12755   2.839   3.276  16.567  0.5559 -0.3020 -0.1303
  865MPD2    H512756   2.886   3.186  16.576 -0.0875 -0.6138  0.1105
  865MPD2    N112757   2.650   3.076  16.173 -0.1688 -0.4551  0.6328
  865MPD2    H712758   2.588   3.085  16.093  3.3190 -0.3731 -2.1130
  866MPD2     C12759   3.937   3.616  11.238  0.4818  0.8652 -0.0068
  866MPD2    C112760   3.895   3.552  11.128 -0.1392 -0.2396 -0.2458
  866MPD2    C212761   3.768   3.574  11.077  0.4797 -0.2639 -0.2946
  866MPD2    C312762   3.684   3.668  11.133  0.0032 -1.1117  0.2266
  866MPD2    C412763   3.727   3.725  11.246  0.4671 -0.0168 -1.2929
  866MPD2    C512764   3.842   3.693  11.306 -0.5123  0.0956 -0.3514
  866MPD2     H12765   3.737   3.528  10.984  0.8966 -2.4839  0.6607
  866MPD2    H112766   3.659   3.784  11.306  1.3051  2.0391 -2.3951
  866MPD2    H212767   4.023   3.578  11.291 -2.1460 -1.6297  2.4364
  866MPD2    H312768   3.865   3.738  11.402 -0.1609  1.3151 -0.9946
  866MPD2     N12769   3.547   3.688  11.097 -0.1460  0.0933 -0.0489
  866MPD2    H512770   3.490   3.737  11.166 -1.2078 -1.3989  0.1398
  866MPD2    N112771   3.984   3.458  11.072 -0.0165 -0.6709  0.6960
  866MPD2    H712772   4.074   3.444  11.116  0.4004  1.4981  0.5377
  867MPD2     C12773   1.243   2.995  16.208  0.5435 -0.5083  0.6228
  867MPD2    C112774   1.279   2.927  16.322  0.3899  0.2244 -0.3979
  867MPD2    C212775   1.304   3.001  16.442 -0.0254 -0.4465 -0.0669
  867MPD2    C312776   1.278   3.137  16.451  0.2328  0.5524  0.2221
  867MPD2    C412777   1.223   3.196  16.335 -0.2446 -0.1859  0.0553
  867MPD2    C512778   1.210   3.126  16.219 -0.2138 -0.0538 -0.3624
  867MPD2     H12779   1.339   2.951  16.531  0.2690 -0.2801 -0.0899
  867MPD2    H112780   1.196   3.301  16.333 -1.3079 -0.4199  2.2991
  867MPD2    H212781   1.228   2.937  16.117  0.5351  0.6190 -0.0886
  867MPD2    H312782   1.188   3.176  16.125 -0.9142 -0.2977 -0.3271
  867MPD2     N12783   1.304   3.224  16.564  0.3994  0.3893 -0.2279
  867MPD2    H512784   1.271   3.319  16.552 -1.2921 -0.0303  1.0934
  867MPD2    N112785   1.319   2.794  16.307 -0.0567  0.1379  0.4550
  867MPD2    H712786   1.311   2.762  16.211 -0.6222  0.6935  0.3129
  868MPD2     C12787   3.029   1.785  13.232 -0.1238 -0.1952 -0.9517
  868MPD2    C112788   3.146   1.819  13.299  0.1190 -0.1626 -0.2327
  868MPD2    C212789   3.148   1.923  13.385 -0.0698 -0.5828 -0.1807
  868MPD2    C312790   3.032   1.993  13.405 -1.2386  0.2424 -0.4510
  868MPD2    C412791   2.919   1.975  13.327  0.7165  0.3379  0.4805
  868MPD2    C512792   2.922   1.864  13.245  0.1946  0.1390 -0.0640
  868MPD2     H12793   3.232   1.944  13.450  0.1657  0.2436 -0.7521
  868MPD2    H112794   2.822   2.018  13.348  1.0295  1.8580 -1.1361
  868MPD2    H212795   3.025   1.694  13.174  1.3970  0.5437 -2.1950
  868MPD2    H312796   2.829   1.832  13.198  0.8877  1.6937 -2.5198
  868MPD2     N12797   3.046   2.091  13.508  0.1014 -0.6760  0.2551
  868MPD2    H512798   3.128   2.090  13.567  1.3328 -1.7235 -1.4654
  868MPD2    N112799   3.257   1.743  13.275  0.1622 -0.0188  0.4375
  868MPD2    H712800   3.242   1.656  13.226 -0.7777  0.5255 -0.2229
  869MPD2     C12801   4.126   0.054   0.705  0.3174  0.1023  0.1310
  869MPD2    C112802   4.154   4.699   0.606 -0.3128 -0.0735 -0.6346
  869MPD2    C212803   4.286   4.674   0.562  0.8358  0.4499 -0.4782
  869MPD2    C312804   4.390   0.012   0.627 -0.7143 -0.3213  0.4806
  869MPD2    C412805   4.360   0.100   0.731 -1.1134 -0.8462 -1.3242
  869MPD2    C512806   4.228   0.117   0.767  0.4075  0.8519  0.3460
  869MPD2     H12807   4.297   4.634   0.461  2.8231 -2.2292  0.8157
  869MPD2    H112808   4.437   0.164   0.773 -3.0566  1.0172 -0.6081
  869MPD2    H212809   4.026   0.063   0.746  0.3145  0.1871  0.1050
  869MPD2    H312810   4.206   0.198   0.836 -3.0545  0.3912 -0.2504
  869MPD2     N12811   4.521   0.003   0.593  0.5281  0.3188 -0.5021
  869MPD2    H512812   4.582   0.062   0.648  0.3237 -0.9589  1.0849
  869MPD2    N112813   4.040   4.643   0.548  0.0416  0.6660 -0.2475
  869MPD2    H712814   3.952   4.673   0.589 -0.0677  0.1894 -0.1302
  870MPD2     C12815   3.154   3.322   1.657 -1.2246  0.3286 -0.0922
  870MPD2    C112816   3.237   3.289   1.551 -0.3358 -0.2743 -0.2920
  870MPD2    C212817   3.272   3.386   1.462  0.1442  0.1024  0.6223
  870MPD2    C312818   3.199   3.506   1.466  0.4991 -0.3946  0.2445
  870MPD2    C412819   3.110   3.535   1.567  0.0299 -0.3730  1.3319
  870MPD2    C512820   3.082   3.442   1.657 -0.0299  0.5285  0.4898
  870MPD2     H12821   3.350   3.370   1.388  0.0517 -2.3736  1.0532
  870MPD2    H112822   3.052   3.627   1.573 -0.3069 -0.5913  1.4255
  870MPD2    H212823   3.125   3.250   1.732  0.0992 -0.1287 -0.0275
  870MPD2    H312824   3.003   3.454   1.730  0.1141  0.6649  0.6259
  870MPD2     N12825   3.231   3.600   1.375  0.1435  0.2313 -0.0941
  870MPD2    H512826   3.286   3.574   1.294  0.1345  0.0920 -0.0551
  870MPD2    N112827   3.297   3.160   1.552  0.1869 -0.3338  0.1197
  870MPD2    H712828   3.291   3.106   1.637  1.4492 -0.2943  0.2325
  871MPD2     C12829   0.467   3.262  16.336  0.8661 -0.3181  0.3970
  871MPD2    C112830   0.444   3.231  16.465  0.2928  0.6154  0.2010
  871MPD2    C212831   0.481   3.105  16.504  1.2205  0.2592  0.2816
  871MPD2    C312832   0.525   3.000  16.416  0.1926  0.8382 -0.2179
  871MPD2    C412833   0.537   3.038  16.285 -0.2454 -0.1254 -0.3242
  871MPD2    C512834   0.511   3.167  16.244 -0.5229 -0.7179 -0.3514
  871MPD2     H12835   0.472   3.078  16.608 -0.2267  3.6094  1.0114
  871MPD2    H112836   0.555   2.960  16.212  0.7161 -0.9841  0.8283
  871MPD2    H212837   0.446   3.362  16.299  0.4543 -0.5387  0.0326
  871MPD2    H312838   0.516   3.194  16.139  2.7467 -2.8078 -0.7356
  871MPD2     N12839   0.545   2.874  16.475 -0.2511  0.1205  0.0117
  871MPD2    H512840   0.543   2.861  16.576 -2.1242 -1.4283 -0.2221
  871MPD2    N112841   0.392   3.330  16.558  0.4662  0.0809 -0.1928
  871MPD2    H712842   0.370   3.422  16.520  0.1360 -0.8804 -2.3164
  872MPD2     C12843   1.412   1.105  13.334  0.0561  0.1294 -0.0039
  872MPD2    C112844   1.478   1.120  13.453  0.2673  0.9884 -0.1436
  872MPD2    C212845   1.421   1.071  13.568 -0.9421  0.4218  0.2405
  872MPD2    C312846   1.300   1.002  13.562  0.3726  0.1958  0.3905
  872MPD2    C412847   1.234   1.002  13.433 -0.2024  0.1752  0.0300
  872MPD2    C512848   1.290   1.049  13.320  0.1350 -0.1191  0.7796
  872MPD2     H12849   1.473   1.083  13.662  0.2857  3.0779 -0.7735
  872MPD2    H112850   1.137   0.957  13.414 -0.6519  0.4315  1.7810
  872MPD2    H212851   1.449   1.154  13.245 -0.5628  1.6450  0.5718
  872MPD2    H312852   1.245   1.035  13.222 -3.5378  1.1968  2.3102
  872MPD2     N12853   1.239   0.945  13.674 -0.0383 -0.6357  0.0959
  872MPD2    H512854   1.139   0.925  13.672  0.1730 -1.6371 -0.3241
  872MPD2    N112855   1.616   1.160  13.459 -0.0307 -0.8650  0.3738
  872MPD2    H712856   1.658   1.192  13.546 -2.1524 -0.2941  1.1895
  873MPD2     C12857   2.588   0.982   0.664 -1.2356  0.0373  0.3909
  873MPD2    C112858   2.666   0.871   0.657 -0.5634  0.4106 -0.7726
  873MPD2    C212859   2.655   0.796   0.543  0.3200  0.3134  0.2662
  873MPD2    C312860   2.560   0.820   0.439  0.2581  0.7194  0.5672
  873MPD2    C412861   2.497   0.939   0.444  0.1635 -0.0218 -0.0718
  873MPD2    C512862   2.504   1.021   0.555  0.0546  0.3077  0.8164
  873MPD2     H12863   2.718   0.708   0.535  0.9748  0.6763  1.4360
  873MPD2    H112864   2.414   0.961   0.377  0.6795  1.1842 -0.3091
  873MPD2    H212865   2.587   1.052   0.746  0.2439  0.8833 -0.3013
  873MPD2    H312866   2.449   1.115   0.563 -0.0721  0.3573 -0.7198
  873MPD2     N12867   2.533   0.731   0.333 -0.4870  0.0202 -0.6436
  873MPD2    H512868   2.475   0.758   0.254  0.7102 -0.9138 -1.8333
  873MPD2    N112869   2.755   0.840   0.757 -0.6290  0.4496 -0.6622
  873MPD2    H712870   2.752   0.906   0.833  0.0463 -0.0442 -0.2039
  874MPD2     C12871   2.169   0.282  16.480  0.2702  0.0976  0.2160
  874MPD2    C112872   2.306   0.268  16.499 -0.0649 -0.0960  0.8839
  874MPD2    C212873   2.388   0.383  16.491  0.3819 -0.3962 -0.0230
  874MPD2    C312874   2.331   0.509  16.475 -1.1126 -0.3983 -0.2080
  874MPD2    C412875   2.193   0.525  16.496  0.3859 -0.6330 -0.2505
  874MPD2    C512876   2.117   0.410  16.488 -0.5545  0.8359  0.6283
  874MPD2     H12877   2.495   0.370  16.483  0.4217  1.2728 -2.3062
  874MPD2    H112878   2.145   0.622  16.489  0.7703 -0.4829 -0.8297
  874MPD2    H212879   2.099   0.199  16.485  2.6868 -1.9842 -0.5562
  874MPD2    H312880   2.009   0.415  16.498 -0.3966 -0.2154  2.8765
  874MPD2     N12881   2.421   0.620  16.463  0.2492  0.2780  0.0743
  874MPD2    H512882   2.518   0.591  16.462 -0.0737 -0.7971  0.0303
  874MPD2    N112883   2.356   0.135  16.515  0.1190 -0.6412  0.2387
  874MPD2    H712884   2.290   0.060  16.498 -2.0539  1.5481 -1.0686
  875MPD2     C12885   3.841   3.914  14.752 -0.8275 -0.8819  0.7928
  875MPD2    C112886   3.745   3.884  14.843 -0.1703  1.0664  0.0511
  875MPD2    C212887   3.747   3.956  14.964 -0.2239  0.2733 -0.1818
  875MPD2    C312888   3.850   4.047  14.993  0.4487  0.9415 -0.5410
  875MPD2    C412889   3.947   4.067  14.902 -0.2399  0.7701  0.3004
  875MPD2    C512890   3.942   4.000  14.777  0.1886 -0.7700 -0.4726
  875MPD2     H12891   3.672   3.931  15.039  0.0961 -1.9724 -0.5947
  875MPD2    H112892   4.020   4.146  14.916 -1.8789  2.4653 -0.7560
  875MPD2    H212893   3.840   3.848  14.666  0.8227 -0.8064  0.7299
  875MPD2    H312894   4.006   4.039  14.699  0.9174  0.7127  0.8527
  875MPD2     N12895   3.847   4.112  15.118 -0.1136  0.0127 -0.5219
  875MPD2    H512896   3.770   4.097  15.182 -1.4040 -0.0721 -2.0803
  875MPD2    N112897   3.640   3.794  14.825 -0.4500 -0.3647 -0.2678
  875MPD2    H712898   3.567   3.790  14.895  0.2134 -2.5638  0.2864
  876MPD2     C12899   2.639   0.628  16.044  0.1718 -0.2320  0.0014
  876MPD2    C112900   2.757   0.592  15.982 -0.1611  0.2726  0.6914
  876MPD2    C212901   2.786   0.454  15.978  0.0937 -0.2896  0.3535
  876MPD2    C312902   2.707   0.369  16.057 -0.7812  1.0453  0.4288
  876MPD2    C412903   2.607   0.418  16.143  0.0488 -0.1892 -0.1291
  876MPD2    C512904   2.579   0.550  16.134  0.0863  0.8128  0.3175
  876MPD2     H12905   2.866   0.417  15.916 -0.1049  2.4011 -1.5125
  876MPD2    H112906   2.554   0.359  16.216 -0.6314  0.5024 -0.0584
  876MPD2    H212907   2.607   0.731  16.035 -2.3205 -0.9195  1.2109
  876MPD2    H312908   2.492   0.586  16.188 -1.0510  0.3009 -1.1754
  876MPD2     N12909   2.746   0.232  16.042 -0.2504 -0.0463  0.2190
  876MPD2    H512910   2.835   0.220  15.995 -0.6140 -1.1010 -0.2028
  876MPD2    N112911   2.830   0.687  15.902  0.4389 -0.4617  0.3094
  876MPD2    H712912   2.800   0.784  15.896 -1.6908 -1.2020 -0.7805
  877MPD2     C12913   2.768   0.973  15.191  0.1001  0.1070  0.3522
  877MPD2    C112914   2.848   1.058  15.263 -0.8434 -0.7203 -0.3949
  877MPD2    C212915   2.877   1.181  15.203  0.2935 -0.2952  0.6944
  877MPD2    C312916   2.829   1.205  15.077 -0.5380  0.1879  0.7308
  877MPD2    C412917   2.752   1.108  15.011  0.4936 -0.4742  0.9823
  877MPD2    C512918   2.713   0.996  15.068 -0.1518 -0.0761 -0.0238
  877MPD2     H12919   2.925   1.247  15.274  1.0285  0.8648 -0.8840
  877MPD2    H112920   2.712   1.135  14.914  2.8399 -1.3756 -0.2292
  877MPD2    H212921   2.741   0.875  15.229  1.1426 -0.0669  0.6781
  877MPD2    H312922   2.640   0.931  15.022 -0.8223 -0.6514  1.8632
  877MPD2     N12923   2.860   1.328  15.016  0.2512  0.0943 -0.0449
  877MPD2    H512924   2.819   1.348  14.926  2.6362  1.9425 -0.6921
  877MPD2    N112925   2.900   1.027  15.385 -0.3277  0.1774  0.2191
  877MPD2    H712926   2.976   1.082  15.423 -1.0283  0.5715  1.0548
  878MPD2     C12927   1.783   4.695  13.632  0.1421  0.0733 -0.1259
  878MPD2    C112928   1.884   0.043  13.612  0.2359  0.0563  0.3520
  878MPD2    C212929   1.915   0.135  13.715 -0.3022  0.9946  0.0917
  878MPD2    C312930   1.845   0.142  13.832  0.3727 -0.4261  0.1014
  878MPD2    C412931   1.741   0.055  13.846  0.0885 -0.4016  0.0855
  878MPD2    C512932   1.721   4.688  13.753  0.2430 -0.7675 -0.6320
  878MPD2     H12933   2.002   0.200  13.713  0.5722 -0.2397 -3.2945
  878MPD2    H112934   1.696   0.041  13.943  1.4509 -0.3309  0.7194
  878MPD2    H212935   1.740   4.618  13.569  0.4159 -0.4335  0.3122
  878MPD2    H312936   1.643   4.613  13.760  0.8141 -1.3311 -0.3553
  878MPD2     N12937   1.878   0.228  13.938  0.4350  0.2496 -0.4077
  878MPD2    H512938   1.963   0.278  13.916  0.0025  0.5788 -1.3559
  878MPD2    N112939   1.941   0.052  13.485 -0.4667 -0.4217  0.0211
  878MPD2    H712940   1.896   4.728  13.415 -1.2001 -0.9877  0.9714
  879MPD2     C12941   2.752   1.269  17.572 -0.2714  0.5934 -0.2579
  879MPD2    C112942   2.789   1.354  17.464  0.4086 -0.2892  0.0433
  879MPD2    C212943   2.730   1.321  17.340  0.1343  0.3095  0.4009
  879MPD2    C312944   2.654   1.205  17.319 -0.0346  0.4337 -0.0313
  879MPD2    C412945   2.626   1.122  17.429 -0.2214  1.1063 -0.6010
  879MPD2    C512946   2.667   1.161  17.555  0.4414 -0.2121  0.4055
  879MPD2     H12947   2.749   1.381  17.251  1.2112 -1.0851 -0.3044
  879MPD2    H112948   2.577   1.026  17.416  0.0204  0.4789  3.0374
  879MPD2    H212949   2.778   1.302  17.672 -2.5095 -0.0256  0.5009
  879MPD2    H312950   2.655   1.095  17.640 -0.6344 -0.5586 -0.0214
  879MPD2     N12951   2.608   1.159  17.195  0.0242  0.4870 -0.2340
  879MPD2    H512952   2.584   1.060  17.185  0.8263  0.3891 -1.1797
  879MPD2    N112953   2.866   1.473  17.493 -0.1408 -0.2734 -0.1390
  879MPD2    H712954   2.885   1.487  17.591 -1.0582  0.7214 -0.1032
  880MPD2     C12955   4.034   3.117  17.687 -0.1147 -0.1314 -0.0278
  880MPD2    C112956   4.005   3.112   0.085  0.7326 -0.9352  0.0155
  880MPD2    C212957   4.015   2.997   0.160 -0.1398 -0.0664  0.0559
  880MPD2    C312958   4.049   2.880   0.094  0.0861 -0.5501 -0.5905
  880MPD2    C412959   4.061   2.877  17.693 -0.9028 -0.2299  0.1656
  880MPD2    C512960   4.057   3.001  17.621  0.6623  0.3483  0.2210
  880MPD2     H12961   4.016   2.997   0.269  0.8531 -1.9954  0.0435
  880MPD2    H112962   4.067   2.791  17.627  0.6326 -0.3873  0.5164
  880MPD2    H212963   4.040   3.212  17.635 -0.0617 -0.2829 -0.2969
  880MPD2    H312964   4.069   3.003  17.513 -1.6424  0.1997 -0.0305
  880MPD2     N12965   4.066   2.768   0.180  0.5250 -0.0145  0.0921
  880MPD2    H512966   4.031   2.767   0.275 -1.8332  0.7895 -0.7757
  880MPD2    N112967   3.997   3.239   0.146 -0.4386  1.1686  0.1854
  880MPD2    H712968   3.997   3.322   0.087 -3.5016  1.6770  0.8825
  881MPD2     C12969   4.339   4.151   0.022  0.0587  0.3861 -0.3688
  881MPD2    C112970   4.325   4.028  17.691  0.3683 -0.3149  0.2199
  881MPD2    C212971   4.257   3.923   0.013  0.3767  0.2775 -0.1397
  881MPD2    C312972   4.183   3.948   0.121  0.2257 -0.1919 -0.2431
  881MPD2    C412973   4.178   4.077   0.176 -0.0511 -0.0860  0.5532
  881MPD2    C512974   4.251   4.177   0.123 -0.1042  0.1625  0.0768
  881MPD2     H12975   4.266   3.824  17.707  2.4370  0.2020  0.4365
  881MPD2    H112976   4.112   4.102   0.258 -1.8376 -0.2999 -0.8159
  881MPD2    H212977   4.389   4.241  17.725  1.6865 -0.2249  0.3541
  881MPD2    H312978   4.245   4.272   0.175 -1.4616  0.5295 -0.7501
  881MPD2     N12979   4.103   3.848   0.183 -0.6340  0.3525  0.2883
  881MPD2    H512980   4.026   3.882   0.240  0.7064 -1.2050  3.0724
  881MPD2    N112981   4.410   4.014  17.576 -0.1877  0.1873 -0.3320
  881MPD2    H712982   4.451   4.100  17.541 -0.9189  0.3624 -0.7588
  882MPD2     C12983   2.743   1.300  14.350  0.4345 -0.5770 -0.0710
  882MPD2    C112984   2.708   1.297  14.484 -0.2401  0.4100 -0.1783
  882MPD2    C212985   2.640   1.187  14.534  0.6142  0.3472  0.0715
  882MPD2    C312986   2.604   1.076  14.460  0.1591 -0.1887  0.0494
  882MPD2    C412987   2.622   1.090  14.323  0.2953 -0.4976 -0.6992
  882MPD2    C512988   2.696   1.194  14.273 -0.2631  0.5082  0.1198
  882MPD2     H12989   2.629   1.192  14.641  1.0646 -3.1161  0.2688
  882MPD2    H112990   2.602   1.009  14.254 -1.7358 -1.6076  1.1972
  882MPD2    H212991   2.796   1.380  14.300 -1.7367  0.4424 -0.7769
  882MPD2    H312992   2.711   1.210  14.167  0.4099  1.9359  0.4309
  882MPD2     N12993   2.538   0.958  14.504 -0.4376  0.1634  0.5670
  882MPD2    H512994   2.512   0.893  14.430  1.1183  1.3779 -1.0398
  882MPD2    N112995   2.758   1.402  14.554  0.5025  0.2244 -0.1638
  882MPD2    H712996   2.802   1.479  14.505  1.6128  0.6189  1.4553
  883MPD2     C12997   0.147   1.572  15.980 -0.0008 -0.0634 -0.0995
  883MPD2    C112998   0.202   1.446  15.953 -0.1770 -0.4718  0.6860
  883MPD2    C212999   0.335   1.413  15.986  0.2517 -0.4215 -0.3685
  883MPD2    C313000   0.413   1.509  16.045  0.1520  0.2213  0.8024
  883MPD2    C413001   0.351   1.630  16.082 -0.1138 -0.8149  0.2425
  883MPD2    C513002   0.226   1.665  16.044  0.3668  0.1381 -0.3192
  883MPD2     H13003   0.371   1.315  15.959  1.2725 -0.4332  1.0314
  883MPD2    H113004   0.410   1.704  16.135 -1.9130  1.9527 -1.6432
  883MPD2    H213005   0.047   1.605  15.956  0.6260  0.7889 -1.5507
  883MPD2    H313006   0.195   1.766  16.067  0.8226  0.1954  0.0548
  883MPD2     N13007   0.542   1.476  16.086 -0.6720  0.4142  0.1106
  883MPD2    H513008   0.558   1.376  16.081  1.0791  0.7407 -0.9019
  883MPD2    N113009   0.143   1.352  15.866 -0.8164  0.1285  0.1950
  883MPD2    H713010   0.195   1.266  15.856  1.5263  1.3352  1.7562
  884MPD2     C13011   1.955   1.683  15.431  0.3569 -0.3813 -0.0459
  884MPD2    C113012   1.921   1.791  15.354 -0.0841 -0.0095 -0.4542
  884MPD2    C213013   1.794   1.828  15.335 -0.5212 -0.1420  1.2808
  884MPD2    C313014   1.688   1.750  15.379 -0.4198 -0.5032  0.7596
  884MPD2    C413015   1.720   1.636  15.451  0.3081  0.1741  0.2034
  884MPD2    C513016   1.847   1.600  15.467 -0.6550 -0.3408 -0.7654
  884MPD2     H13017   1.753   1.910  15.278  1.5975 -0.7873 -1.1686
  884MPD2    H113018   1.637   1.583  15.497 -1.1944  4.0009  1.9195
  884MPD2    H213019   2.057   1.658  15.457 -0.3564 -2.5003  0.7225
  884MPD2    H313020   1.869   1.521  15.538  0.5434  1.8101  1.2687
  884MPD2     N13021   1.556   1.798  15.351 -0.2738  0.0109 -0.5090
  884MPD2    H513022   1.541   1.884  15.299  0.0125  0.9341  0.9344
  884MPD2    N113023   2.025   1.868  15.287 -0.0277  0.3964  0.2089
  884MPD2    H713024   1.995   1.945  15.228  1.4070  0.5210 -0.3702
  885MPD2     C13025   0.177   1.347  17.672 -0.7634  0.1879 -0.6589
  885MPD2    C113026   0.203   1.478  17.711 -0.0638 -0.7797 -0.2096
  885MPD2    C213027   0.206   1.580  17.621  0.0566  0.2406 -0.4387
  885MPD2    C313028   0.195   1.557  17.485  0.3124  0.7196 -0.2939
  885MPD2    C413029   0.182   1.421  17.441 -0.1520 -0.4721 -0.2065
  885MPD2    C513030   0.165   1.321  17.534  0.2318 -0.1134 -0.7074
  885MPD2     H13031   0.236   1.681  17.644 -3.5195  1.5665 -1.5854
  885MPD2    H113032   0.172   1.391  17.337 -0.7423  1.5805 -0.7261
  885MPD2    H213033   0.161   1.270   0.008  2.4609  0.0180 -0.1458
  885MPD2    H313034   0.166   1.219  17.496 -0.7427 -0.0754 -0.8276
  885MPD2     N13035   0.219   1.667  17.404 -0.4167  0.7414 -0.5135
  885MPD2    H513036   0.217   1.752  17.459  1.8920  0.0076  0.7153
  885MPD2    N113037   0.215   1.504   0.116  0.1865 -0.6802 -0.4543
  885MPD2    H713038   0.205   1.431   0.186  2.0968 -1.6630 -1.1786
  886MPD2     C13039   1.426   0.239  15.289  0.4114 -0.5864 -0.0625
  886MPD2    C113040   1.491   0.307  15.389  0.3537  0.3009  0.3986
  886MPD2    C213041   1.517   0.444  15.376 -0.8225  0.1168  0.1275
  886MPD2    C313042   1.497   0.504  15.249  0.0632 -0.5685  0.2793
  886MPD2    C413043   1.430   0.432  15.152 -0.0812  0.7297 -0.0899
  886MPD2    C513044   1.395   0.304  15.176 -0.8202  0.6788 -0.4098
  886MPD2     H13045   1.573   0.486  15.459  0.9031 -2.3073  0.1667
  886MPD2    H113046   1.411   0.474  15.053 -0.4678 -1.9299 -1.1392
  886MPD2    H213047   1.409   0.132  15.301 -1.3600 -0.0122  2.6988
  886MPD2    H313048   1.333   0.248  15.107  2.4410 -1.1720 -1.8061
  886MPD2     N13049   1.552   0.627  15.214 -0.3979  0.2368  0.3020
  886MPD2    H513050   1.556   0.640  15.113  0.0432 -2.9499 -0.0605
  886MPD2    N113051   1.530   0.250  15.512  0.8259  0.3531 -0.3982
  886MPD2    H713052   1.582   0.314  15.571 -0.0668  1.1565 -0.4985
  887MPD2     C13053   1.816   0.413  16.159 -0.5601  0.0661  0.0968
  887MPD2    C113054   1.796   0.420  16.023 -0.0693 -0.1785  0.0439
  887MPD2    C213055   1.872   0.516  15.951 -0.2215  0.0611 -0.2306
  887MPD2    C313056   1.961   0.603  16.014 -0.0174 -0.2560 -0.3513
  887MPD2    C413057   1.966   0.603  16.152  0.2820 -0.4110  0.6731
  887MPD2    C513058   1.894   0.509  16.218 -0.0396 -0.0750  0.7577
  887MPD2     H13059   1.853   0.528  15.845 -1.4208 -0.1252 -0.0395
  887MPD2    H113060   2.032   0.659  16.217  1.5510  0.9234 -1.7469
  887MPD2    H213061   1.759   0.350  16.226 -0.8717  0.2583  0.0106
  887MPD2    H313062   1.895   0.514  16.327 -1.6260 -0.6589  0.8012
  887MPD2     N13063   2.047   0.687  15.939 -0.1639 -0.9874  0.1422
  887MPD2    H513064   2.028   0.701  15.840 -0.2850  0.4131  0.3650
  887MPD2    N113065   1.713   0.337  15.947  0.3645  0.0618 -0.4640
  887MPD2    H713066   1.723   0.336  15.846 -1.2716 -2.3201 -0.6177
  888MPD2     C13067   3.998   0.332  15.080 -0.8511  0.0649 -0.5059
  888MPD2    C113068   3.926   0.398  15.174 -0.6817 -0.6273 -0.6776
  888MPD2    C213069   3.968   0.523  15.192  0.1843  0.1620 -0.3484
  888MPD2    C313070   4.069   0.591  15.121  0.1840  0.5212 -0.1206
  888MPD2    C413071   4.129   0.521  15.019 -0.3905 -0.0606  0.6202
  888MPD2    C513072   4.097   0.390  15.003 -0.1287  0.5896  0.0123
  888MPD2     H13073   3.927   0.583  15.273 -0.0212 -0.1521 -0.2196
  888MPD2    H113074   4.200   0.563  14.949 -0.7781 -0.6176 -0.1000
  888MPD2    H213075   3.974   0.230  15.051  1.3060 -0.8305  0.8499
  888MPD2    H313076   4.151   0.327  14.933  0.6137  0.9769  0.2338
  888MPD2     N13077   4.100   0.723  15.155 -0.1230  1.4274  0.0845
  888MPD2    H513078   4.039   0.764  15.225 -3.1292  0.2669 -1.8192
  888MPD2    N113079   3.833   0.341  15.262 -0.4650  0.1754  0.2314
  888MPD2    H713080   3.807   0.396  15.343 -3.3582 -1.8422  0.6751
  889MPD2     C13081   3.156   3.911  12.756 -0.0066 -0.9068 -0.1096
  889MPD2    C113082   3.148   3.982  12.872  0.4727  0.0491  0.5417
  889MPD2    C213083   3.125   4.119  12.862 -0.2024 -0.1323  0.0286
  889MPD2    C313084   3.080   4.169  12.742  0.2318  0.4402  0.0109
  889MPD2    C413085   3.069   4.096  12.624  0.6626  0.2244 -0.0928
  889MPD2    C513086   3.099   3.962  12.641 -0.2611 -0.3034 -0.1798
  889MPD2     H13087   3.124   4.179  12.952 -0.0423 -2.3919  1.5209
  889MPD2    H113088   3.030   4.134  12.530  0.1410  0.7586  0.3366
  889MPD2    H213089   3.171   3.804  12.763 -1.4609 -1.2570 -2.4714
  889MPD2    H313090   3.076   3.894  12.561  2.1340  1.5363 -2.4660
  889MPD2     N13091   3.058   4.309  12.751  0.0090  0.2471 -0.1760
  889MPD2    H513092   3.055   4.346  12.845 -0.2644 -0.4972  0.0999
  889MPD2    N113093   3.203   3.927  12.992 -0.0368 -0.2945 -0.1200
  889MPD2    H713094   3.188   3.828  13.008 -1.0607 -0.1087  0.0534
  890MPD2     C13095   2.538   1.954  14.758  0.2358  0.5930  0.0927
  890MPD2    C113096   2.671   1.996  14.769  1.0823  0.6702 -0.1875
  890MPD2    C213097   2.758   1.948  14.867  0.0610  0.6131 -0.3877
  890MPD2    C313098   2.702   1.862  14.955 -0.7999 -0.3118 -0.3209
  890MPD2    C413099   2.574   1.806  14.934 -0.7312  0.5141 -0.3756
  890MPD2    C513100   2.484   1.856  14.841 -0.0154  0.8883 -0.8422
  890MPD2     H13101   2.863   1.972  14.872  0.2064  0.0400 -0.6579
  890MPD2    H113102   2.526   1.733  14.998 -1.3768  1.6685  0.4547
  890MPD2    H213103   2.481   2.006  14.682 -1.4210 -1.1849  0.1233
  890MPD2    H313104   2.381   1.823  14.839  0.6566 -1.2065 -0.3781
  890MPD2     N13105   2.790   1.822  15.058  0.3123 -0.3783  1.0014
  890MPD2    H513106   2.883   1.862  15.063 -0.5597  1.6585  0.9285
  890MPD2    N113107   2.720   2.092  14.679 -0.5104  0.1489  0.2550
  890MPD2    H713108   2.655   2.125  14.609 -0.9991  0.1001  0.6813
  891MPD2     C13109   1.322   0.564  16.611  0.0955  0.0892  0.2996
  891MPD2    C113110   1.229   0.491  16.677 -0.4290  0.0931  0.6819
  891MPD2    C213111   1.256   0.449  16.807  0.3899  0.4308  0.3056
  891MPD2    C313112   1.376   0.494  16.872 -0.3677 -0.0619 -0.3816
  891MPD2    C413113   1.466   0.573  16.805  0.2677 -0.7073 -0.4074
  891MPD2    C513114   1.436   0.608  16.676  0.6380  0.8501 -0.0775
  891MPD2     H13115   1.179   0.413  16.874  0.3695  3.0271  1.6821
  891MPD2    H113116   1.557   0.614  16.848 -0.0656  1.1477 -1.4898
  891MPD2    H213117   1.303   0.603  16.511  0.9825  1.5836  0.7134
  891MPD2    H313118   1.497   0.680  16.622  1.4031  0.5113  0.3290
  891MPD2     N13119   1.391   0.470  17.008  0.5161 -0.5001  0.2767
  891MPD2    H513120   1.321   0.418  17.059  0.4743  1.3730  2.1471
  891MPD2    N113121   1.110   0.458  16.609  0.0323 -0.5046  0.0305
  891MPD2    H713122   1.085   0.508  16.524 -0.9035 -0.8916  0.0828
  892MPD2     C13123   2.248   1.436  14.785  0.4266  0.5951 -0.2203
  892MPD2    C113124   2.143   1.362  14.832 -0.5048 -1.0624 -0.5961
  892MPD2    C213125   2.166   1.231  14.870 -0.5361  0.4842  0.2522
  892MPD2    C313126   2.294   1.180  14.868 -0.2700 -0.1936 -0.4696
  892MPD2    C413127   2.399   1.256  14.839  0.0119 -0.4907 -0.6837
  892MPD2    C513128   2.376   1.383  14.797 -0.3637 -0.8311  0.0114
  892MPD2     H13129   2.081   1.171  14.900  0.1296  0.9381  3.0721
  892MPD2    H113130   2.498   1.214  14.835 -0.2176 -0.8474 -2.3849
  892MPD2    H213131   2.238   1.539  14.753 -0.6755  1.1612  1.9316
  892MPD2    H313132   2.463   1.444  14.779 -0.7606 -0.7132 -1.5341
  892MPD2     N13133   2.314   1.040  14.879 -0.2575  0.2842  0.2902
  892MPD2    H513134   2.406   1.010  14.848 -0.4020  0.3827 -0.2385
  892MPD2    N113135   2.008   1.406  14.823  0.0348 -0.1259  0.3296
  892MPD2    H713136   1.938   1.343  14.861 -0.5539  1.1733  1.4081
  893MPD2     C13137   3.068   0.130   1.784  0.0158  0.5127  0.4566
  893MPD2    C113138   3.033   0.072   1.660 -0.5145  0.4705 -0.6231
  893MPD2    C213139   2.896   0.059   1.624 -0.5359  0.1709 -0.1447
  893MPD2    C313140   2.794   0.092   1.715 -0.1984  0.0436  0.3396
  893MPD2    C413141   2.827   0.139   1.842  0.3920 -0.2446  0.3751
  893MPD2    C513142   2.962   0.162   1.872  0.1958 -0.1952  0.0222
  893MPD2     H13143   2.872   0.016   1.528 -0.5047 -0.9505  0.3510
  893MPD2    H113144   2.751   0.163   1.916  0.0410  0.5235 -0.2353
  893MPD2    H213145   3.169   0.136   1.825  0.5061 -0.9149 -0.5810
  893MPD2    H313146   2.984   0.200   1.971  2.8221 -2.8214  0.4648
  893MPD2     N13147   2.646   0.080   1.686 -0.0933 -0.0846  0.1805
  893MPD2    H513148   2.585   0.116   1.759  1.2795  0.7834  0.9057
  893MPD2    N113149   3.147   0.038   1.570  0.3524 -0.2432 -0.1552
  893MPD2    H713150   3.243   0.026   1.600 -0.1189  0.0602  1.4774
  894MPD2     C13151   1.436   2.046   0.978 -0.1248 -0.6067 -0.7031
  894MPD2    C113152   1.376   2.057   1.097 -0.3623  0.3189 -0.6443
  894MPD2    C213153   1.334   2.183   1.135 -0.5505 -0.4586  0.1737
  894MPD2    C313154   1.332   2.293   1.051 -0.2066  0.2249 -0.2532
  894MPD2    C413155   1.395   2.276   0.927  0.2719 -0.0032 -0.0401
  894MPD2    C513156   1.446   2.157   0.897 -0.0963  0.3247 -0.0886
  894MPD2     H13157   1.297   2.193   1.237  0.2179  1.5514  0.2413
  894MPD2    H113158   1.406   2.358   0.856 -0.4647 -1.3878 -1.7642
  894MPD2    H213159   1.488   1.954   0.953 -0.5471 -0.0465 -3.6428
  894MPD2    H313160   1.491   2.163   0.798  2.3173  0.2596  1.0110
  894MPD2     N13161   1.274   2.414   1.089 -0.2474  0.7054 -0.0603
  894MPD2    H513162   1.237   2.419   1.184  0.8298 -0.2350  0.4128
  894MPD2    N113163   1.363   1.949   1.190 -0.5557  0.6919 -0.3285
  894MPD2    H713164   1.312   1.965   1.276 -1.2478 -0.0037 -0.6106
  895MPD2     C13165   0.947   0.227  13.770  0.8535  0.2738  0.0866
  895MPD2    C113166   0.857   0.147  13.704  0.0913  0.0722 -0.2770
  895MPD2    C213167   0.856   0.009  13.720  0.3534 -0.9396 -0.5572
  895MPD2    C313168   0.953   4.686  13.807  0.4623 -0.8137  0.2097
  895MPD2    C413169   1.042   0.034  13.875  0.0287 -0.3129  0.1241
  895MPD2    C513170   1.038   0.174  13.852  0.0025 -0.1473 -0.9533
  895MPD2     H13171   0.800   4.685  13.649 -0.3898  0.0425 -0.7862
  895MPD2    H113172   1.122   4.724  13.934 -0.2529  0.3998  1.0403
  895MPD2    H213173   0.934   0.334  13.781  1.1797  0.4122 -0.8811
  895MPD2    H313174   1.111   0.233  13.905  0.6785  0.6510 -2.8075
  895MPD2     N13175   0.983   4.547  13.791 -0.5224  0.3311  0.4825
  895MPD2    H513176   0.919   4.508  13.722  1.3494 -0.7777 -0.6271
  895MPD2    N113177   0.748   0.203  13.641  0.0798 -0.1385 -0.4904
  895MPD2    H713178   0.679   0.136  13.610  0.4565 -1.1370  0.8295
  896MPD2     C13179   3.146   3.677   0.908 -0.1598  0.3362  0.3077
  896MPD2    C113180   3.100   3.583   0.823  0.4483  0.0864  0.0937
  896MPD2    C213181   2.982   3.523   0.860 -0.0416  0.3567 -0.4108
  896MPD2    C313182   2.906   3.569   0.962 -0.5423 -0.4247  0.2681
  896MPD2    C413183   2.953   3.667   1.044 -0.3338 -0.3683 -0.0087
  896MPD2    C513184   3.068   3.726   1.008 -0.2435  0.9786 -0.3720
  896MPD2     H13185   2.948   3.437   0.804 -0.2881  0.7997 -0.9366
  896MPD2    H113186   2.905   3.701   1.135  0.8655  1.1237  0.0596
  896MPD2    H213187   3.252   3.693   0.899 -0.5442  3.3121  1.1871
  896MPD2    H313188   3.115   3.801   1.071 -2.2101  3.2735 -1.6577
  896MPD2     N13189   2.791   3.489   0.985  0.2463  0.1120 -0.5157
  896MPD2    H513190   2.776   3.407   0.928  3.1920 -1.8410  1.5106
  896MPD2    N113191   3.183   3.536   0.720 -0.9471  0.0446  0.6407
  896MPD2    H713192   3.279   3.568   0.711  0.1384 -2.9889  1.5802
  897MPD2     C13193   3.680   4.045  10.403 -0.3026 -0.0035  0.8298
  897MPD2    C113194   3.740   4.146  10.477 -0.4305 -0.7984 -0.2254
  897MPD2    C213195   3.686   4.169  10.606  0.1290  0.3640 -0.2508
  897MPD2    C313196   3.596   4.080  10.666  0.4722 -0.0226 -0.0147
  897MPD2    C413197   3.553   3.969  10.600  0.7901  0.4785 -0.4711
  897MPD2    C513198   3.586   3.960  10.464 -0.3820 -0.6802  0.0484
  897MPD2     H13199   3.696   4.267  10.649  0.1796  1.1345 -2.0361
  897MPD2    H113200   3.494   3.898  10.657  0.9851  1.1459  0.5613
  897MPD2    H213201   3.718   4.019  10.305  0.6076 -0.7478  1.3753
  897MPD2    H313202   3.550   3.876  10.407 -1.0238 -0.0938 -0.4235
  897MPD2     N13203   3.540   4.134  10.784  0.7540 -0.2580 -0.1912
  897MPD2    H513204   3.588   4.218  10.815 -0.6548  0.3107  0.4232
  897MPD2    N113205   3.839   4.229  10.423 -0.3000  0.4473  0.2303
  897MPD2    H713206   3.848   4.227  10.322  0.7044  2.8122  0.2677
  898MPD2     C13207   1.010   0.462  17.614 -0.0873 -0.1261  0.2915
  898MPD2    C113208   1.135   0.514  17.643 -0.6169  0.0071 -0.0185
  898MPD2    C213209   1.173   0.634  17.592  0.2267  0.0815 -0.3684
  898MPD2    C313210   1.085   0.698  17.503 -0.1701  0.2027 -0.4188
  898MPD2    C413211   0.967   0.642  17.465 -0.3305  0.5786  0.7899
  898MPD2    C513212   0.936   0.525  17.521 -0.0352  0.0433  0.1751
  898MPD2     H13213   1.268   0.679  17.618 -0.4908  0.2571  1.9787
  898MPD2    H113214   0.893   0.681  17.395 -0.1869  1.3761  1.0902
  898MPD2    H213215   0.972   0.373  17.662  1.2689 -0.7617  0.1822
  898MPD2    H313216   0.839   0.490  17.486  0.4286 -0.9229 -0.1392
  898MPD2     N13217   1.122   0.824  17.458  0.3131 -0.2893 -0.0217
  898MPD2    H513218   1.220   0.850  17.458  0.1781  0.2474  1.4310
  898MPD2    N113219   1.231   0.437  17.721 -0.0534  0.0980  0.3408
  898MPD2    H713220   1.300   0.489   0.036  1.2925 -0.0560 -1.2858
  899MPD2     C13221   2.326   1.253  17.383 -0.3964  0.5420 -0.0557
  899MPD2    C113222   2.343   1.387  17.427 -0.3567  0.9725  0.2971
  899MPD2    C213223   2.292   1.422  17.552 -0.3981  0.1517 -0.9449
  899MPD2    C313224   2.224   1.329  17.632 -0.7327 -0.4172 -0.2590
  899MPD2    C413225   2.218   1.198  17.589 -0.0014  0.5504 -1.0161
  899MPD2    C513226   2.263   1.164  17.464 -0.9062  0.5985 -0.1886
  899MPD2     H13227   2.311   1.524  17.585  2.2267 -0.1335 -1.6059
  899MPD2    H113228   2.162   1.128  17.651  0.0167  0.3917 -1.1766
  899MPD2    H213229   2.376   1.215  17.295  0.1082  0.3837  0.3014
  899MPD2    H313230   2.272   1.061  17.432  0.8786  1.3291 -2.0439
  899MPD2     N13231   2.170   1.358   0.024 -0.6042 -0.3782 -0.4761
  899MPD2    H513232   2.127   1.278   0.071 -0.4606 -0.5023 -0.5578
  899MPD2    N113233   2.405   1.482  17.338 -0.2728 -0.1879 -0.1315
  899MPD2    H713234   2.413   1.445  17.244  0.5750 -0.3247 -0.0050
  900MPD2     C13235   1.637   2.726  12.243  0.3700 -0.6483 -0.6590
  900MPD2    C113236   1.571   2.631  12.310  0.2052 -0.2356 -0.3708
  900MPD2    C213237   1.433   2.634  12.306  0.1875 -0.1880 -0.2005
  900MPD2    C313238   1.363   2.715  12.217 -0.5803  0.1163 -0.0698
  900MPD2    C413239   1.437   2.789  12.131  0.4853 -0.5562  0.8661
  900MPD2    C513240   1.574   2.797  12.154 -0.6418 -0.2595 -0.7394
  900MPD2     H13241   1.375   2.579  12.379 -1.7459  3.3726  0.9373
  900MPD2    H113242   1.402   2.857  12.054 -1.9096 -1.0105  1.5485
  900MPD2    H213243   1.745   2.720  12.235  0.6133  3.1501  0.0634
  900MPD2    H313244   1.631   2.864  12.091 -0.6609 -0.3700 -0.8763
  900MPD2     N13245   1.223   2.730  12.229 -0.4161 -0.6114 -0.2689
  900MPD2    H513246   1.189   2.696  12.318  0.4197  1.0410  0.7027
  900MPD2    N113247   1.646   2.545  12.401 -0.2275  0.6389  0.4155
  900MPD2    H713248   1.743   2.563  12.423  0.2798  1.8179 -2.7762
  901MPD2     C13249   1.436   1.629  12.747 -0.6577  0.4341  0.4941
  901MPD2    C113250   1.576   1.623  12.745  0.0947  0.5717  0.7884
  901MPD2    C213251   1.647   1.738  12.750  0.1590 -0.4000 -0.1840
  901MPD2    C313252   1.586   1.858  12.766 -1.0414 -0.4644 -0.6972
  901MPD2    C413253   1.452   1.866  12.760 -0.3043  1.3818 -0.5042
  901MPD2    C513254   1.377   1.750  12.754 -0.2889 -0.3535  0.9594
  901MPD2     H13255   1.755   1.736  12.745  0.0767 -0.8739 -2.0948
  901MPD2    H113256   1.394   1.957  12.751 -0.1077  1.5276 -0.3025
  901MPD2    H213257   1.376   1.539  12.747  1.4222 -0.9224 -0.0752
  901MPD2    H313258   1.269   1.754  12.767 -0.6648 -0.3864 -2.1850
  901MPD2     N13259   1.668   1.974  12.753  0.3710 -0.1390 -0.5760
  901MPD2    H513260   1.762   1.966  12.717  1.0993  1.1506  1.0399
  901MPD2    N113261   1.648   1.499  12.759  0.3868  0.7400  0.3724
  901MPD2    H713262   1.594   1.420  12.724  3.9730 -0.3207 -2.7037
  902MPD2     C13263   1.271   0.472  12.699  0.1767  0.1166 -0.5870
  902MPD2    C113264   1.197   0.524  12.598  0.4628  0.3385 -0.1360
  902MPD2    C213265   1.134   0.440  12.510 -0.3402 -0.2464  0.2414
  902MPD2    C313266   1.159   0.306  12.516 -0.2157  0.0635  0.0492
  902MPD2    C413267   1.240   0.252  12.618 -0.2376  0.1892 -0.0786
  902MPD2    C513268   1.290   0.342  12.707 -0.5421  0.6700 -0.1993
  902MPD2     H13269   1.065   0.480  12.437  0.9264  0.9455 -0.3014
  902MPD2    H113270   1.260   0.146  12.633 -0.1248  0.4837  1.8234
  902MPD2    H213271   1.318   0.536  12.773 -2.4558  1.6901 -0.2462
  902MPD2    H313272   1.344   0.301  12.792 -3.5921 -0.4406  1.2102
  902MPD2     N13273   1.099   0.217  12.423 -0.3091  0.3875 -0.5253
  902MPD2    H513274   1.143   0.125  12.424  0.6328  0.8127 -2.0752
  902MPD2    N113275   1.183   0.669  12.599 -0.3113 -0.6791 -0.1094
  902MPD2    H713276   1.206   0.722  12.682  1.6267 -0.5432 -0.7323
  903MPD2     C13277   0.644   0.098  11.631  0.3051 -0.3519 -0.4081
  903MPD2    C113278   0.620   0.094  11.767 -0.2157 -0.6408 -0.2752
  903MPD2    C213279   0.493   0.107  11.811 -0.4323 -0.4933  0.5718
  903MPD2    C313280   0.383   0.127  11.719 -0.4263  0.1860  0.1227
  903MPD2    C413281   0.402   0.116  11.580 -0.1132  0.9353  0.2838
  903MPD2    C513282   0.535   0.104  11.543  0.5225  0.5837 -0.3193
  903MPD2     H13283   0.468   0.106  11.917  1.2534 -2.5968  0.9485
  903MPD2    H113284   0.325   0.108  11.504 -1.0764 -0.8764  1.4581
  903MPD2    H213285   0.743   0.102  11.586 -0.6946 -1.2766 -2.7238
  903MPD2    H313286   0.552   0.121  11.437 -0.9853  1.2367 -0.4496
  903MPD2     N13287   0.255   0.132  11.781 -0.1483  0.1246 -0.3006
  903MPD2    H513288   0.249   0.118  11.881 -0.5444  1.8533 -0.0830
  903MPD2    N113289   0.728   0.102  11.856  0.2836  0.1946 -0.5728
  903MPD2    H713290   0.819   0.083  11.815 -0.4517  0.0122 -2.1131
  904MPD2     C13291   0.684   4.227  14.168 -0.0603  0.0909 -0.0184
  904MPD2    C113292   0.743   4.351  14.148  0.2128 -0.1172 -0.2875
  904MPD2    C213293   0.881   4.364  14.165 -0.7114 -0.1689 -0.3359
  904MPD2    C313294   0.960   4.268  14.215 -0.2059  0.1800 -0.1656
  904MPD2    C413295   0.902   4.147  14.233 -0.5211 -0.2270  0.2491
  904MPD2    C513296   0.771   4.130  14.207 -0.0938 -0.0267  0.6122
  904MPD2     H13297   0.924   4.464  14.159 -1.7390  0.2620 -0.5169
  904MPD2    H113298   0.965   4.066  14.267  0.5677  0.8025  0.7054
  904MPD2    H213299   0.578   4.205  14.158 -0.0637  0.5446 -1.0070
  904MPD2    H313300   0.744   4.025  14.213  0.3246 -0.2353 -1.1978
  904MPD2     N13301   1.100   4.292  14.244  0.2749 -0.1699  0.2676
  904MPD2    H513302   1.117   4.390  14.225  1.2639 -0.8161 -2.1965
  904MPD2    N113303   0.667   4.466  14.107  0.0471 -0.2579 -0.1251
  904MPD2    H713304   0.719   4.549  14.079  1.6013 -0.9154  0.8515
  905MPD2     C13305   0.373   4.340  13.525 -0.6158 -0.7052 -0.3847
  905MPD2    C113306   0.462   4.431  13.577  0.3866  0.8033  0.2576
  905MPD2    C213307   0.594   4.402  13.564  0.0018 -1.1663 -0.4962
  905MPD2    C313308   0.637   4.289  13.493  0.9783 -0.9821 -0.5430
  905MPD2    C413309   0.544   4.205  13.440  0.3268 -0.1300  0.4013
  905MPD2    C513310   0.404   4.227  13.452 -0.4503 -0.1916  0.0463
  905MPD2     H13311   0.666   4.467  13.613 -1.1094 -0.1255 -0.2364
  905MPD2    H113312   0.582   4.115  13.393 -1.8726  0.2169 -2.0446
  905MPD2    H213313   0.268   4.365  13.531 -0.3302  0.7764 -1.3919
  905MPD2    H313314   0.322   4.171  13.409 -0.2414  0.2314 -0.8936
  905MPD2     N13315   0.769   4.239  13.504  0.0363 -0.1886  0.2382
  905MPD2    H513316   0.780   4.142  13.476 -0.9605  0.2059 -1.5211
  905MPD2    N113317   0.427   4.530  13.671 -0.1182 -0.4195  0.0531
  905MPD2    H713318   0.342   4.501  13.718 -0.7065  0.2731 -0.5724
  906MPD2     C13319   2.318   4.383  11.330 -0.4328  0.0758  0.1317
  906MPD2    C113320   2.382   4.262  11.351  0.1662  0.5453 -0.5585
  906MPD2    C213321   2.330   4.175  11.444  0.1318  0.3231 -0.1780
  906MPD2    C313322   2.210   4.204  11.509  0.3924  0.6310  0.7416
  906MPD2    C413323   2.142   4.316  11.477  0.1182 -0.0101  0.5015
  906MPD2    C513324   2.200   4.404  11.394 -0.5233 -0.6982 -0.1484
  906MPD2     H13325   2.375   4.077  11.451 -0.3404 -0.0394 -2.1755
  906MPD2    H113326   2.048   4.342  11.525  0.4989  0.8036  0.8234
  906MPD2    H213327   2.350   4.455  11.255  1.1699  1.0629  1.7599
  906MPD2    H313328   2.153   4.499  11.370  1.6549  0.6230  0.8351
  906MPD2     N13329   2.139   4.096  11.580  0.1783 -0.3410 -0.6359
  906MPD2    H513330   2.038   4.100  11.583  0.1978  2.2272 -3.6877
  906MPD2    N113331   2.499   4.223  11.279 -0.3995  0.4746 -0.1421
  906MPD2    H713332   2.530   4.126  11.290  1.6697  1.1694  0.2626
  907MPD2     C13333   1.475   3.785  15.715 -0.3390 -0.3414  0.8000
  907MPD2    C113334   1.548   3.676  15.681  0.5410  0.6523  1.0387
  907MPD2    C213335   1.650   3.635  15.773  0.0548  0.3403 -0.3099
  907MPD2    C313336   1.675   3.712  15.885 -0.4422 -0.4857 -0.1296
  907MPD2    C413337   1.589   3.814  15.921  0.0163  0.3036  1.1821
  907MPD2    C513338   1.487   3.848  15.832 -0.3060 -0.0705  0.1854
  907MPD2     H13339   1.694   3.539  15.751 -0.5626 -0.1821  0.7590
  907MPD2    H113340   1.606   3.872  16.011  0.7655 -1.4053  2.1469
  907MPD2    H213341   1.398   3.830  15.653  1.2722 -1.2450 -1.8649
  907MPD2    H313342   1.441   3.943  15.860 -0.3888 -0.2339  0.6127
  907MPD2     N13343   1.777   3.666  15.974  0.3828 -0.0848  0.3473
  907MPD2    H513344   1.831   3.584  15.948 -1.6979 -1.3673  0.0671
  907MPD2    N113345   1.538   3.609  15.560 -0.4636 -0.4363 -0.4495
  907MPD2    H713346   1.578   3.516  15.548 -1.1366 -0.3290 -3.5388
  908MPD2     C13347   4.426   4.334   9.786  0.5224  0.5284 -0.0128
  908MPD2    C113348   4.344   4.235   9.826  0.4734  0.0465 -0.1937
  908MPD2    C213349   4.238   4.273   9.909 -0.5339 -0.2264  0.7807
  908MPD2    C313350   4.211   4.405   9.947 -0.1536  0.6046 -0.6591
  908MPD2    C413351   4.305   4.504   9.909  0.0349 -0.1080 -0.0165
  908MPD2    C513352   4.412   4.467   9.831  0.7735  0.2715  0.0330
  908MPD2     H13353   4.172   4.197   9.947 -1.7204  0.5503  0.2669
  908MPD2    H113354   4.284   4.605   9.942 -0.7444  0.3775 -2.0040
  908MPD2    H213355   4.513   4.315   9.724 -1.0014 -3.3295 -0.9895
  908MPD2    H313356   4.476   4.550   9.803  0.2698  1.4517  2.3939
  908MPD2     N13357   4.117   4.425  10.049 -0.3715 -0.0180 -0.2723
  908MPD2    H513358   4.056   4.348  10.075  0.8808 -1.6822 -2.2452
  908MPD2    N113359   4.378   4.104   9.782 -0.7422  0.2748 -0.5088
  908MPD2    H713360   4.454   4.088   9.716 -0.7239  3.0542 -1.1884
  909MPD2     C13361   4.605   2.035  11.742  0.8896 -0.5457 -0.2716
  909MPD2    C113362   4.564   2.151  11.671 -0.7408 -0.1960  0.3208
  909MPD2    C213363   4.479   2.233  11.731  0.5543  0.4606  0.7907
  909MPD2    C313364   4.423   2.207  11.850  0.2795 -0.6336 -0.3811
  909MPD2    C413365   4.462   2.099  11.921  0.3476  0.6323  0.3917
  909MPD2    C513366   4.552   2.004  11.866  0.1859 -0.7613 -0.3122
  909MPD2     H13367   4.459   2.327  11.681  0.1088  0.6989  1.4174
  909MPD2    H113368   4.414   2.078  12.016  1.6150 -0.2978  0.8329
  909MPD2    H213369   4.671   1.962  11.697 -2.2642 -1.8092 -2.8577
  909MPD2    H313370   4.580   1.916  11.923  1.3645  0.3724  0.8653
  909MPD2     N13371   4.335   2.304  11.899 -0.2326  0.3034 -0.6071
  909MPD2    H513372   4.329   2.389  11.844  2.1504  1.0125  0.2390
  909MPD2    N113373   4.613   2.195  11.550  0.5576  0.0766  0.1168
  909MPD2    H713374   4.590   2.292  11.529 -1.8996 -0.5526 -0.0173
  910MPD2     C13375   1.399   4.520  16.330  0.4243  0.3652  0.7181
  910MPD2    C113376   1.360   4.414  16.247  0.1838 -0.0901  0.2982
  910MPD2    C213377   1.307   4.436  16.118  0.0840 -0.2241  0.0521
  910MPD2    C313378   1.292   4.564  16.073  0.0039 -0.0636  0.6503
  910MPD2    C413379   1.313   4.664  16.166 -0.4577  0.0074  0.0082
  910MPD2    C513380   1.375   4.645  16.282 -0.5295  0.0120 -0.2783
  910MPD2     H13381   1.287   4.348  16.057  1.2499 -1.2770  1.2034
  910MPD2    H113382   1.283   0.033  16.157 -2.3152 -0.4149  1.3011
  910MPD2    H213383   1.452   4.506  16.423  1.0525 -0.0712  0.2930
  910MPD2    H313384   1.390   4.732  16.345 -1.6121  0.3936 -0.5381
  910MPD2     N13385   1.239   4.606  15.946 -0.1378  0.2997  0.5907
  910MPD2    H513386   1.219   4.705  15.939 -2.6871 -0.2838 -0.4306
  910MPD2    N113387   1.381   4.281  16.291  0.1555  0.3379  0.5110
  910MPD2    H713388   1.354   4.211  16.222  1.0798  0.2219  0.2668
  911MPD2     C13389   4.024   0.029  16.603  0.9276  0.0046  0.2377
  911MPD2    C113390   4.088   0.149  16.632  0.3715 -0.3090  0.6705
  911MPD2    C213391   4.023   0.268  16.609 -0.2551 -0.0682  0.5691
  911MPD2    C313392   3.888   0.266  16.573 -0.0203  0.5794  1.2368
  911MPD2    C413393   3.818   0.150  16.562 -0.4587 -0.2846 -0.1323
  911MPD2    C513394   3.885   0.029  16.570  0.2616 -0.0029 -0.0780
  911MPD2     H13395   4.074   0.363  16.617  0.2266 -0.3405  0.6797
  911MPD2    H113396   3.710   0.148  16.551 -0.5917 -1.0954  1.2839
  911MPD2    H213397   4.070   4.666  16.605 -0.0425 -0.4330  0.9957
  911MPD2    H313398   3.846   4.666  16.547  0.4077 -0.3481  1.1927
  911MPD2     N13399   3.816   0.381  16.541 -0.5405 -0.4991 -0.1263
  911MPD2    H513400   3.720   0.369  16.509 -0.3848  1.3918 -1.2811
  911MPD2    N113401   4.226   0.141  16.668  0.4796  0.2062  0.0180
  911MPD2    H713402   4.281   0.056  16.654  0.4574  0.2681 -0.4429
  912MPD2     C13403   3.239   0.389  16.089 -0.5670  0.2307 -0.1401
  912MPD2    C113404   3.345   0.351  16.167 -0.0401 -0.6926 -0.0357
  912MPD2    C213405   3.352   0.223  16.212  0.5191  0.5719 -0.5494
  912MPD2    C313406   3.258   0.130  16.187 -0.1789 -0.1955 -0.2933
  912MPD2    C413407   3.143   0.167  16.120 -0.1504 -0.7437  0.0558
  912MPD2    C513408   3.137   0.299  16.071 -0.0191  0.1714  0.6263
  912MPD2     H13409   3.445   0.185  16.254  0.8581 -0.0118 -1.8357
  912MPD2    H113410   3.063   0.099  16.092  1.2403 -1.4858 -2.1254
  912MPD2    H213411   3.229   0.489  16.049  1.1729  0.4585 -0.0253
  912MPD2    H313412   3.058   0.320  16.001  0.6407  0.7275  0.0448
  912MPD2     N13413   3.281   0.002  16.237 -0.6118  0.1829 -0.0229
  912MPD2    H513414   3.369   4.713  16.282 -1.2430 -0.8487  0.6553
  912MPD2    N113415   3.443   0.446  16.193 -0.5102 -0.3774  0.4723
  912MPD2    H713416   3.434   0.538  16.150  0.7074 -0.5412 -0.1400
  913MPD2     C13417   3.360   0.536  10.326 -0.6927 -0.1586  0.1365
  913MPD2    C113418   3.449   0.582  10.423 -0.3667 -0.6360 -0.3476
  913MPD2    C213419   3.505   0.708  10.408 -0.0709 -0.4751 -0.0397
  913MPD2    C313420   3.471   0.795  10.301  0.2317  0.3698 -0.0104
  913MPD2    C413421   3.384   0.741  10.209  0.5091  0.6925 -0.0197
  913MPD2    C513422   3.329   0.616  10.220 -0.6641  0.2177  0.3514
  913MPD2     H13423   3.576   0.741  10.483 -1.3336  1.7264  0.1731
  913MPD2    H113424   3.326   0.808  10.147 -1.7679 -1.4654 -0.2376
  913MPD2    H213425   3.310   0.440  10.329 -2.2110  0.5939 -0.7075
  913MPD2    H313426   3.248   0.588  10.154 -0.3235 -0.6877  0.3239
  913MPD2     N13427   3.512   0.928  10.285  0.2633 -0.0539 -0.4451
  913MPD2    H513428   3.481   0.975  10.202  0.3126 -0.5970 -0.7742
  913MPD2    N113429   3.487   0.485  10.522 -0.1109 -0.2092  0.3255
  913MPD2    H713430   3.432   0.400  10.522 -0.2111 -0.1568 -1.3360
  914MPD2     C13431   1.736   1.085  12.044  0.3546 -0.3576  0.1092
  914MPD2    C113432   1.674   1.193  12.103  0.2145  0.2821 -0.2334
  914MPD2    C213433   1.671   1.211  12.238 -0.2425  0.6820 -0.0811
  914MPD2    C313434   1.717   1.120  12.329  0.2186 -0.2000 -0.1676
  914MPD2    C413435   1.786   1.013  12.274 -0.2640  0.2216  0.5397
  914MPD2    C513436   1.787   0.992  12.137  0.1646 -0.5026 -0.5741
  914MPD2     H13437   1.620   1.293  12.287  1.7775  0.9828  1.4619
  914MPD2    H113438   1.837   0.943  12.339 -0.5767 -0.5465 -0.0401
  914MPD2    H213439   1.749   1.067  11.938  0.1401 -0.2335  0.0627
  914MPD2    H313440   1.820   0.893  12.110  3.4998  0.8027 -1.2703
  914MPD2     N13441   1.714   1.138  12.472  0.7703  0.3384  0.3239
  914MPD2    H513442   1.671   1.226  12.499  1.9546  2.0137 -3.1910
  914MPD2    N113443   1.622   1.286  12.003  0.0840 -0.4196  0.4736
  914MPD2    H713444   1.644   1.272  11.905 -1.8086  1.1895 -0.1766
  915MPD2     C13445   0.008   2.138  15.375  0.2841 -0.5587 -0.5737
  915MPD2    C113446   4.637   2.219  15.416 -0.1634  0.0050 -0.2135
  915MPD2    C213447   4.655   2.276  15.538 -0.2806 -0.5426  0.6561
  915MPD2    C313448   0.039   2.260  15.606 -0.5341 -0.0610  0.0256
  915MPD2    C413449   0.144   2.180  15.566  0.2178 -0.5382  0.0063
  915MPD2    C513450   0.125   2.112  15.444 -0.0860  0.1953  0.3600
  915MPD2     H13451   4.581   2.341  15.583 -0.3783  0.2360 -0.6183
  915MPD2    H113452   0.233   2.162  15.626  0.1015 -0.4004  0.2180
  915MPD2    H213453   4.731   2.090  15.278  0.6593 -1.6598 -0.0639
  915MPD2    H313454   0.190   2.033  15.411 -1.6792 -0.6776 -0.6705
  915MPD2     N13455   0.043   2.341  15.719  0.0928 -0.0756 -0.5077
  915MPD2    H513456   4.703   2.410  15.729  0.0514 -0.4575  1.8019
  915MPD2    N113457   4.529   2.253  15.329  0.7530  0.3926  0.5564
  915MPD2    H713458   4.519   2.197  15.244  0.0715  0.1790  0.7818
  916MPD2     C13459   3.157   4.688  15.609 -0.7246 -0.1422  0.3105
  916MPD2    C113460   3.085   4.585  15.670  0.0921  0.6372  0.2819
  916MPD2    C213461   3.079   4.465  15.606 -0.0229  0.6243  0.5689
  916MPD2    C313462   3.153   4.442  15.494  0.1060 -0.5463 -0.0866
  916MPD2    C413463   3.208   4.553  15.429  0.6136 -0.0310 -0.1529
  916MPD2    C513464   3.212   4.675  15.489  0.2410 -0.3869 -0.4287
  916MPD2     H13465   3.008   4.388  15.634  0.9711 -0.6248 -0.3451
  916MPD2    H113466   3.258   4.543  15.334 -1.0152 -2.2562 -0.7724
  916MPD2    H213467   3.156   0.053  15.651 -1.0825 -0.8667  2.0152
  916MPD2    H313468   3.254   0.023  15.433 -1.3925  0.5761 -0.2114
  916MPD2     N13469   3.157   4.309  15.441  0.8884 -0.8215 -0.0697
  916MPD2    H513470   3.124   4.237  15.505 -0.0639 -1.2735 -1.0707
  916MPD2    N113471   2.993   4.614  15.779 -0.4205 -0.2982  0.8446
  916MPD2    H713472   2.972   4.711  15.800 -1.6096  0.0220 -1.7924
  917MPD2     C13473   2.968   1.770  11.207 -0.2762 -0.1407  0.0470
  917MPD2    C113474   3.011   1.847  11.311 -0.2464 -0.6833 -0.3692
  917MPD2    C213475   3.118   1.938  11.285 -0.1677 -0.0764  0.3777
  917MPD2    C313476   3.160   1.961  11.156 -0.3706  0.6160  0.3363
  917MPD2    C413477   3.106   1.886  11.055  0.4579  0.9711  0.7534
  917MPD2    C513478   3.009   1.792  11.080  0.3506  0.3335 -0.6310
  917MPD2     H13479   3.166   1.993  11.365 -1.1186 -0.5732  1.2910
  917MPD2    H113480   3.139   1.909  10.955 -2.0803  0.0143 -0.3072
  917MPD2    H213481   2.906   1.684  11.225 -1.1170  0.2878 -0.7648
  917MPD2    H313482   2.960   1.732  11.003 -0.6934  2.8979 -1.9653
  917MPD2     N13483   3.261   2.053  11.122 -0.4071 -0.8493 -0.3038
  917MPD2    H513484   3.276   2.063  11.022 -1.2040 -0.6420 -0.4012
  917MPD2    N113485   2.974   1.811  11.440 -0.0014 -0.4770 -0.0902
  917MPD2    H713486   2.918   1.726  11.437 -3.0388  1.5502 -1.3507
  918MPD2     C13487   3.242   2.048  12.398 -0.3002  0.1334 -0.1645
  918MPD2    C113488   3.322   2.049  12.282  0.2477  0.4820 -0.6298
  918MPD2    C213489   3.265   2.004  12.162  0.4321  0.4107  0.2744
  918MPD2    C313490   3.131   1.966  12.158  0.0238  0.0172 -0.1926
  918MPD2    C413491   3.046   1.990  12.271  0.4238  1.2191 -0.1671
  918MPD2    C513492   3.108   2.022  12.386 -0.2822  0.4296  0.1777
  918MPD2     H13493   3.326   1.989  12.074  2.6632 -0.1380  1.9181
  918MPD2    H113494   2.939   1.973  12.269  0.6203 -0.0921  0.4712
  918MPD2    H213495   3.284   2.068  12.496 -2.4826 -2.8847  1.3729
  918MPD2    H313496   3.046   2.026  12.475  0.1623  0.8397  0.4671
  918MPD2     N13497   3.079   1.912  12.037  0.3414  0.2093  0.5528
  918MPD2    H513498   3.140   1.922  11.956 -0.0685 -1.1062  0.0856
  918MPD2    N113499   3.460   2.076  12.281  0.2691 -0.3551 -0.2364
  918MPD2    H713500   3.500   2.056  12.190 -0.3737 -0.4406 -0.5012
  919MPD2     C13501   3.469   0.806  12.241  0.0907  0.4154  0.1042
  919MPD2    C113502   3.395   0.742  12.148 -0.0359  0.2412  0.0276
  919MPD2    C213503   3.339   0.816  12.045 -0.6004 -0.1950  0.1348
  919MPD2    C313504   3.342   0.953  12.037 -0.1185 -0.1180 -0.1124
  919MPD2    C413505   3.430   1.008  12.120 -0.5279  0.4025  0.3109
  919MPD2    C513506   3.479   0.943  12.226  1.0160  0.6479 -0.2279
  919MPD2     H13507   3.282   0.768  11.967 -0.2168  1.6885 -1.2965
  919MPD2    H113508   3.468   1.109  12.109  0.5014 -0.1405 -1.0670
  919MPD2    H213509   3.518   0.756  12.323  0.7999  3.9109  1.8244
  919MPD2    H313510   3.549   0.989  12.295 -0.5559  1.2503  0.9733
  919MPD2     N13511   3.305   1.029  11.923  0.3911  0.4915  0.0879
  919MPD2    H513512   3.344   1.122  11.921  2.3810 -0.3062  3.4000
  919MPD2    N113513   3.365   0.603  12.159 -0.2453 -0.4045 -0.3074
  919MPD2    H713514   3.305   0.569  12.085 -1.0458  0.8533 -0.2382
  920MPD2     C13515   3.702   1.432  11.135  0.3527 -0.5345 -0.0624
  920MPD2    C113516   3.606   1.345  11.096  0.5928  0.2638 -0.3162
  920MPD2    C213517   3.528   1.288  11.190  1.1025  0.5164  0.8886
  920MPD2    C313518   3.537   1.323  11.321  0.8966  0.3953  0.6271
  920MPD2    C413519   3.627   1.417  11.360  0.1540  0.5787 -0.7774
  920MPD2    C513520   3.704   1.474  11.269  0.1536  0.0114 -0.7563
  920MPD2     H13521   3.452   1.217  11.160  0.3860  2.2101 -1.3468
  920MPD2    H113522   3.638   1.468  11.455  0.8297 -0.7726 -0.1306
  920MPD2    H213523   3.771   1.481  11.067 -1.1096  0.4078 -0.8766
  920MPD2    H313524   3.784   1.544  11.289  0.3805 -0.3595 -0.3679
  920MPD2     N13525   3.445   1.263  11.403  0.3298  0.5313  0.5265
  920MPD2    H513526   3.388   1.192  11.359 -1.0736  1.4213  0.8895
  920MPD2    N113527   3.591   1.318  10.958 -0.4896  0.0277  0.2180
  920MPD2    H713528   3.519   1.251  10.933 -0.2139 -1.1974  2.7670
  921MPD2     C13529   0.494   0.274  17.057  1.1414  0.4811 -0.4407
  921MPD2    C113530   0.459   0.345  16.945  0.9187 -0.3813 -0.3335
  921MPD2    C213531   0.319   0.362  16.925 -0.2893 -0.0730 -0.4948
  921MPD2    C313532   0.225   0.310  17.013  0.0061  0.2424 -0.2325
  921MPD2    C413533   0.264   0.230  17.115 -0.1639 -0.5723 -0.9898
  921MPD2    C513534   0.397   0.222  17.139 -0.1789 -0.2925 -0.1167
  921MPD2     H13535   0.281   0.422  16.844 -1.0749 -0.3601 -0.3427
  921MPD2    H113536   0.198   0.164  17.170 -0.8331  1.5324  0.7330
  921MPD2    H213537   0.598   0.252  17.080  0.6547  1.0383  2.2802
  921MPD2    H313538   0.437   0.140  17.197 -0.6688 -1.7805 -1.8764
  921MPD2     N13539   0.096   0.322  16.958 -0.1211 -0.2086 -0.5255
  921MPD2    H513540   0.090   0.367  16.867 -2.2982  0.1953 -0.1791
  921MPD2    N113541   0.556   0.388  16.847 -0.1103  0.8280  0.1073
  921MPD2    H713542   0.648   0.349  16.864 -1.0847  0.2800  4.0809
  922MPD2     C13543   1.023   3.679  16.932  0.8965 -0.2321 -0.2459
  922MPD2    C113544   0.986   3.658  17.060  0.0862  0.0786  0.0746
  922MPD2    C213545   0.997   3.526  17.102 -0.7926  0.1451 -0.6204
  922MPD2    C313546   1.021   3.418  17.021  0.0217  0.0015 -0.1141
  922MPD2    C413547   1.057   3.441  16.890 -0.1464 -0.5793  0.1370
  922MPD2    C513548   1.059   3.578  16.851 -0.1301 -0.0107 -0.1221
  922MPD2     H13549   0.969   3.504  17.204 -0.0909 -2.1472 -0.9173
  922MPD2    H113550   1.070   3.371  16.808 -3.2047  0.1370 -0.9441
  922MPD2    H213551   1.040   3.778  16.892  0.0376  0.1780  0.4178
  922MPD2    H313552   1.094   3.597  16.750  0.1387 -0.4330 -0.1123
  922MPD2     N13553   1.012   3.288  17.076  0.7851  0.2356  0.0272
  922MPD2    H513554   0.971   3.285  17.168  1.4946 -3.6293  0.2275
  922MPD2    N113555   0.928   3.759  17.141 -0.4115  0.2780  0.0379
  922MPD2    H713556   0.902   3.741  17.238 -0.2560  1.1927  0.2475
  923MPD2     C13557   0.283   3.766   9.123  0.1242 -0.2790 -0.0053
  923MPD2    C113558   0.317   3.896   9.140  0.2483  0.3206 -0.7535
  923MPD2    C213559   0.423   3.954   9.073 -0.7864  0.1296  0.5778
  923MPD2    C313560   0.492   3.874   8.982 -0.4077  0.3471 -0.1178
  923MPD2    C413561   0.454   3.739   8.965 -0.3893 -0.3399 -0.1524
  923MPD2    C513562   0.343   3.697   9.031 -0.6797  0.8374  0.8471
  923MPD2     H13563   0.458   4.056   9.084  4.3758 -1.5639  0.0303
  923MPD2    H113564   0.507   3.672   8.899  2.8354  1.2548  0.8136
  923MPD2    H213565   0.195   3.728   9.174 -0.4695  0.9948 -0.0706
  923MPD2    H313566   0.294   3.602   9.012  0.0744  0.9000 -1.4728
  923MPD2     N13567   0.591   3.926   8.899 -0.0603 -0.1123 -0.3344
  923MPD2    H513568   0.656   3.859   8.858 -0.0685  0.4576 -1.2870
  923MPD2    N113569   0.226   3.966   9.224  0.1611 -0.0259 -0.4287
  923MPD2    H713570   0.136   3.922   9.242  0.6819 -1.1594 -0.6084
  924MPD2     C13571   2.016   3.028  15.793  0.5426 -0.3800  0.0782
  924MPD2    C113572   2.024   3.036  15.934  0.6101 -0.1409  0.1178
  924MPD2    C213573   2.077   3.152  15.990 -0.4544 -0.0103  0.1577
  924MPD2    C313574   2.132   3.254  15.915 -0.2167  0.5541 -0.3343
  924MPD2    C413575   2.133   3.234  15.774  0.0828 -0.6597  0.9090
  924MPD2    C513576   2.074   3.129  15.718  0.1555 -0.7778  0.0374
  924MPD2     H13577   2.061   3.167  16.096  0.6730 -0.3568  0.3763
  924MPD2    H113578   2.172   3.306  15.703 -0.0653 -1.9222 -0.4486
  924MPD2    H213579   1.979   2.939  15.745 -2.7559  0.5820  0.7867
  924MPD2    H313580   2.072   3.122  15.609  0.1492 -0.9364  0.0475
  924MPD2     N13581   2.162   3.385  15.963 -0.3828 -0.0004 -0.0606
  924MPD2    H513582   2.174   3.462  15.898 -1.0562 -0.5303 -0.8273
  924MPD2    N113583   1.952   2.941  16.004  0.1392 -0.1981  0.5364
  924MPD2    H713584   1.896   2.874  15.951 -0.8048  0.1733  1.0734
  925MPD2     C13585   1.377   0.893  14.552 -0.3222 -0.1574  0.1820
  925MPD2    C113586   1.246   0.932  14.521 -0.1361  0.4150 -0.3694
  925MPD2    C213587   1.152   0.950  14.620 -0.4467  0.6136  0.5819
  925MPD2    C313588   1.174   0.902  14.750 -0.5153  0.2841  0.4762
  925MPD2    C413589   1.299   0.850  14.771 -0.4342 -0.0226  0.6341
  925MPD2    C513590   1.400   0.850  14.684  0.4739  0.1786  0.0391
  925MPD2     H13591   1.052   0.984  14.595 -0.7481 -0.2121  0.6827
  925MPD2    H113592   1.317   0.803  14.867  0.9052 -3.1691 -1.1666
  925MPD2    H213593   1.462   0.898  14.485  0.6851 -1.4593  1.3621
  925MPD2    H313594   1.500   0.814  14.703 -0.3322 -1.8402  0.5431
  925MPD2     N13595   1.079   0.877  14.852 -0.2830 -1.1458 -0.4264
  925MPD2    H513596   1.120   0.843  14.939 -0.5310  1.5062  0.7268
  925MPD2    N113597   1.208   0.958  14.383  0.0239  0.5340  0.1088
  925MPD2    H713598   1.110   0.984  14.378 -0.0155  0.3964  0.1539
  926MPD2     C13599   3.479   3.783  14.148  0.1286 -1.0407 -0.0485
  926MPD2    C113600   3.586   3.868  14.155 -0.2324  0.3922 -0.4153
  926MPD2    C213601   3.682   3.876  14.052  0.2778  0.5178  0.4645
  926MPD2    C313602   3.649   3.825  13.926 -0.6938  0.4384 -0.4200
  926MPD2    C413603   3.535   3.751  13.907 -0.0185 -0.7034  0.3093
  926MPD2    C513604   3.454   3.732  14.016  0.0054 -0.5294  0.3412
  926MPD2     H13605   3.765   3.944  14.067 -0.8312  1.4131  2.6233
  926MPD2    H113606   3.513   3.718  13.806  1.9384  1.1783 -0.7455
  926MPD2    H213607   3.402   3.770  14.223  1.2995 -0.5873  1.2547
  926MPD2    H313608   3.360   3.679  14.015  0.6393 -1.6745  1.7576
  926MPD2     N13609   3.729   3.862  13.813  0.1853  0.1005 -0.8952
  926MPD2    H513610   3.694   3.824  13.725 -0.5888 -1.0044 -0.1089
  926MPD2    N113611   3.601   3.963  14.262  0.2178  0.1825 -0.2128
  926MPD2    H713612   3.670   4.036  14.248  0.8947 -0.8559 -2.2240
  927MPD2     C13613   4.109   1.772  17.697 -0.5944  0.3221  0.0820
  927MPD2    C113614   4.082   1.654  17.638 -0.6861 -0.2598 -0.3305
  927MPD2    C213615   4.167   1.603  17.532 -0.7934  0.6525 -0.5490
  927MPD2    C313616   4.285   1.673  17.501 -1.1050  0.1704 -0.1995
  927MPD2    C413617   4.316   1.785  17.579  0.1895  0.4137 -0.4512
  927MPD2    C513618   4.231   1.830  17.675 -0.1853  0.5717 -0.2604
  927MPD2     H13619   4.135   1.515  17.477 -0.6535 -0.1695  0.6765
  927MPD2    H113620   4.403   1.847  17.562  1.1642 -0.6391  0.7493
  927MPD2    H213621   4.040   1.824   0.025  0.9238  1.0958  1.0470
  927MPD2    H313622   4.259   1.911   0.003  1.0057 -0.0554  0.0052
  927MPD2     N13623   4.367   1.620  17.398 -0.4231  0.5592 -0.0032
  927MPD2    H513624   4.324   1.557  17.331 -1.3269  0.4143  0.7081
  927MPD2    N113625   3.960   1.597  17.688 -0.4948 -0.1705  0.5181
  927MPD2    H713626   3.916   1.634   0.034 -0.0345  0.2767  0.5613
  928MPD2     C13627   1.457   4.265   0.547 -0.2446  0.5860  0.0753
  928MPD2    C113628   1.488   4.396   0.584  0.1764  0.3183 -0.4143
  928MPD2    C213629   1.564   4.480   0.509 -0.2783 -0.8715  0.2981
  928MPD2    C313630   1.609   4.439   0.384 -0.4997 -0.8168 -0.2370
  928MPD2    C413631   1.575   4.308   0.346  0.0739 -0.0718 -0.6316
  928MPD2    C513632   1.500   4.222   0.425  0.5671  0.1052 -0.2009
  928MPD2     H13633   1.573   4.582   0.545 -0.3402 -0.9994  0.6827
  928MPD2    H113634   1.619   4.258   0.261 -3.1897  3.0106 -4.1047
  928MPD2    H213635   1.407   4.195   0.612  0.2640  1.1745  1.0977
  928MPD2    H313636   1.480   4.125   0.380 -0.8800 -0.1052  0.9089
  928MPD2     N13637   1.697   4.513   0.312 -0.0368 -0.6823 -0.2651
  928MPD2    H513638   1.728   4.466   0.227 -0.4814  0.2001 -0.9121
  928MPD2    N113639   1.471   4.436   0.718  0.1596  0.4883 -0.3561
  928MPD2    H713640   1.519   4.522   0.740  2.8332 -1.0133 -0.3264
  929MPD2     C13641   1.615   4.472  10.056  0.6126 -0.0929  0.0195
  929MPD2    C113642   1.484   4.446  10.092  1.2978  0.1692  0.3430
  929MPD2    C213643   1.375   4.518  10.033 -0.3432  0.1028 -0.5424
  929MPD2    C313644   1.403   4.617   9.937 -0.5773 -0.6927  0.0380
  929MPD2    C413645   1.534   4.631   9.904  0.3307  0.0008 -0.4687
  929MPD2    C513646   1.639   4.562   9.956 -0.1165 -0.0708  0.4979
  929MPD2     H13647   1.276   4.508  10.077  0.8205  1.0114  2.3356
  929MPD2    H113648   1.557   4.709   9.832  0.0411  2.7218  2.3706
  929MPD2    H213649   1.695   4.407  10.091 -1.0775 -1.7755  0.7602
  929MPD2    H313650   1.738   4.590   9.920 -0.5225 -1.1429 -1.3928
  929MPD2     N13651   1.305   4.704   9.884  0.3589  0.7199  0.0451
  929MPD2    H513652   1.331   0.055   9.837  1.6075  0.0744 -0.4383
  929MPD2    N113653   1.460   4.362  10.198  0.3739  0.2477  0.0621
  929MPD2    H713654   1.538   4.324  10.250 -0.9407 -1.2935  0.8977
  930MPD2     C13655   4.307   1.610  13.542 -0.7457 -0.5497 -0.0590
  930MPD2    C113656   4.246   1.717  13.477  0.2203 -0.1063  0.2060
  930MPD2    C213657   4.238   1.715  13.333  0.1880  0.4781  0.2371
  930MPD2    C313658   4.305   1.619  13.260  0.3601  0.1482 -0.1122
  930MPD2    C413659   4.385   1.527  13.330 -0.4886  0.1706  0.0850
  930MPD2    C513660   4.379   1.522  13.460 -0.1214 -0.3741  0.3672
  930MPD2     H13661   4.196   1.802  13.285 -1.8901 -0.6337  0.0829
  930MPD2    H113662   4.436   1.449  13.274 -1.3811 -1.2691  1.2626
  930MPD2    H213663   4.315   1.617  13.650 -3.1165  2.9736 -0.0903
  930MPD2    H313664   4.447   1.455  13.510  2.3997  2.1099  0.2700
  930MPD2     N13665   4.331   1.623  13.120 -0.3628  0.4842  0.1708
  930MPD2    H513666   4.407   1.569  13.081  0.5882  2.3028 -0.4778
  930MPD2    N113667   4.213   1.832  13.559 -0.3797 -0.5400  0.1495
  930MPD2    H713668   4.225   1.812  13.658  1.5432 -0.7371 -0.1211
  931MPD2     C13669   4.101   0.937   0.048  0.1899 -0.4969  0.2772
  931MPD2    C113670   3.996   0.966   0.137  0.3451  0.2496  0.8582
  931MPD2    C213671   4.002   0.920   0.264  0.6906  0.1709  0.1578
  931MPD2    C313672   4.112   0.859   0.316  0.6561  0.1647  0.2933
  931MPD2    C413673   4.212   0.824   0.225  0.1228 -0.3637 -0.6188
  931MPD2    C513674   4.205   0.870   0.098 -0.9441 -0.1689  0.0056
  931MPD2     H13675   3.922   0.945   0.333 -0.8671 -1.2062 -1.1523
  931MPD2    H113676   4.297   0.768   0.263 -1.2658 -3.1354 -1.6096
  931MPD2    H213677   4.097   0.961  17.681 -1.4191 -1.2124  0.1854
  931MPD2    H313678   4.290   0.843   0.036 -1.0137 -0.5112  0.0625
  931MPD2     N13679   4.130   0.830   0.456  0.1381  0.3073  0.0436
  931MPD2    H513680   4.221   0.794   0.482 -0.6260 -1.5659  0.1261
  931MPD2    N113681   3.892   1.056   0.093  0.5307 -0.5202 -0.8066
  931MPD2    H713682   3.906   1.095  17.738  1.0402 -0.3349 -0.6537
  932MPD2     C13683   0.692   0.717  11.547 -0.0078  0.3953 -0.4052
  932MPD2    C113684   0.783   0.771  11.462 -0.1247 -0.4855  0.4108
  932MPD2    C213685   0.852   0.693  11.367  0.1081  0.4127 -0.9388
  932MPD2    C313686   0.818   0.561  11.349 -0.0608 -0.2320  0.5195
  932MPD2    C413687   0.734   0.505  11.444  0.2856  0.4856 -0.0118
  932MPD2    C513688   0.672   0.580  11.542  0.6909  0.9046 -0.1623
  932MPD2     H13689   0.927   0.740  11.305 -2.0904  1.1439 -3.0362
  932MPD2    H113690   0.714   0.399  11.446 -1.5104  0.7534 -3.4801
  932MPD2    H213691   0.634   0.773  11.618 -2.3146  0.1935 -2.1286
  932MPD2    H313692   0.593   0.535  11.601 -0.8207  0.5607 -2.4342
  932MPD2     N13693   0.882   0.476  11.247  0.3762 -0.3277  0.3074
  932MPD2    H513694   0.854   0.378  11.249  1.6665 -0.6723  1.5703
  932MPD2    N113695   0.813   0.911  11.468 -0.3489 -0.6313 -0.1313
  932MPD2    H713696   0.889   0.940  11.408  1.3531  0.8734  2.7151
  933MPD2     C13697   0.958   4.361   1.375  0.3149  0.2071  0.3443
  933MPD2    C113698   1.067   4.445   1.369  0.5417  0.6336  0.0559
  933MPD2    C213699   1.058   4.565   1.451  0.5317 -0.2148  0.0993
  933MPD2    C313700   0.940   4.594   1.520 -0.6694  0.5846 -0.5063
  933MPD2    C413701   0.840   4.499   1.523 -0.6929 -0.9006  0.3194
  933MPD2    C513702   0.854   4.384   1.459  0.4998 -0.2582 -0.2224
  933MPD2     H13703   1.137   4.638   1.442 -0.7808  1.0162 -1.2616
  933MPD2    H113704   0.739   4.520   1.557 -0.1935 -0.5968  1.6268
  933MPD2    H213705   0.950   4.288   1.296  0.9390 -0.5677  1.0041
  933MPD2    H313706   0.777   4.307   1.463  1.2369 -0.9193  1.0456
  933MPD2     N13707   0.933   4.719   1.575  0.3394  0.7796  0.4843
  933MPD2    H513708   1.007   0.048   1.545  0.1731  0.6919 -0.1157
  933MPD2    N113709   1.175   4.419   1.285 -0.0786  0.9111  0.3938
  933MPD2    H713710   1.164   4.335   1.229 -1.2549  0.6875  0.9530
  934MPD2     C13711   2.625   3.248   1.458 -0.8060 -0.1526  0.0803
  934MPD2    C113712   2.680   3.136   1.403  0.3960  0.2771 -0.3405
  934MPD2    C213713   2.614   3.019   1.402  0.2292 -0.6717  0.3079
  934MPD2    C313714   2.479   3.010   1.443  0.0097 -0.2640 -0.3917
  934MPD2    C413715   2.420   3.129   1.487  0.3208 -0.3628  0.2454
  934MPD2    C513716   2.489   3.242   1.498  0.3623  0.7539 -0.2391
  934MPD2     H13717   2.658   2.936   1.347 -0.8225 -2.0268  1.4909
  934MPD2    H113718   2.314   3.134   1.507  0.4518  0.4951  0.6995
  934MPD2    H213719   2.675   3.343   1.468  0.7270 -0.8507 -1.0096
  934MPD2    H313720   2.441   3.328   1.544 -1.7148 -1.9020  2.6020
  934MPD2     N13721   2.403   2.890   1.438  0.6816 -0.2149  0.5202
  934MPD2    H513722   2.307   2.896   1.471  0.1758 -0.4615 -0.9033
  934MPD2    N113723   2.814   3.135   1.350  0.3356  0.8672 -0.3113
  934MPD2    H713724   2.841   3.045   1.312 -2.6890 -0.7935  1.4159
  935MPD2     C13725   2.613   1.929   1.568 -0.8524 -0.4376  0.5625
  935MPD2    C113726   2.546   1.944   1.445  0.1264  0.3350  1.1807
  935MPD2    C213727   2.481   2.062   1.418  0.2271 -0.7133  0.2324
  935MPD2    C313728   2.484   2.158   1.517  0.3943 -0.9282 -0.3395
  935MPD2    C413729   2.541   2.140   1.638  0.6404 -0.3345 -0.0762
  935MPD2    C513730   2.608   2.023   1.667 -0.1578  0.0866 -0.4941
  935MPD2     H13731   2.437   2.080   1.321  2.1242 -0.7603 -0.6197
  935MPD2    H113732   2.550   2.225   1.705 -2.0832 -1.7910  2.1057
  935MPD2    H213733   2.676   1.841   1.581  1.7228  0.6607 -4.4363
  935MPD2    H313734   2.675   2.024   1.752 -0.4468  0.4636 -0.2690
  935MPD2     N13735   2.420   2.286   1.499 -0.0235 -0.1688  0.4483
  935MPD2    H513736   2.442   2.361   1.563 -1.7588  2.9454 -2.5909
  935MPD2    N113737   2.552   1.844   1.340 -0.0997  0.1224 -0.1577
  935MPD2    H713738   2.506   1.868   1.252 -0.6511  2.0327  0.6516
  936MPD2     C13739   1.167   3.004  12.644  0.4252  0.5672  0.5135
  936MPD2    C113740   1.103   3.102  12.567 -0.4760 -0.0193  0.2940
  936MPD2    C213741   1.154   3.139  12.446 -0.3052  0.3026  0.7305
  936MPD2    C313742   1.267   3.086  12.391 -0.7087 -0.2734  0.1919
  936MPD2    C413743   1.330   2.992  12.465  0.3929  0.3964  0.2214
  936MPD2    C513744   1.281   2.951  12.586 -0.8364 -0.2081 -1.0978
  936MPD2     H13745   1.106   3.217  12.388  1.4010 -1.6213 -3.2682
  936MPD2    H113746   1.420   2.945  12.428 -0.6141  0.8318 -2.7702
  936MPD2    H213747   1.125   2.972  12.739  1.0327 -1.9174 -0.0584
  936MPD2    H313748   1.339   2.879  12.644 -0.8172  2.0521  1.6924
  936MPD2     N13749   1.309   3.107  12.257 -0.8708 -0.2228  0.1779
  936MPD2    H513750   1.389   3.052  12.227 -1.5295 -2.4056  2.3930
  936MPD2    N113751   0.999   3.193  12.607  0.3702 -0.1920  0.3456
  936MPD2    H713752   0.995   3.275  12.548 -0.1435 -1.8403 -1.9299
  937MPD2     C13753   3.486   4.691  11.796  0.1425  0.0092 -0.2581
  937MPD2    C113754   3.536   0.073  11.833  0.2074 -0.2684 -0.6941
  937MPD2    C213755   3.619   0.141  11.746  0.0046 -0.2471  0.2633
  937MPD2    C313756   3.678   0.079  11.640  0.2756  0.4348  0.0901
  937MPD2    C413757   3.632   4.687  11.604  0.3219  0.1238  0.4589
  937MPD2    C513758   3.532   4.638  11.678  0.7924 -0.1773  0.1182
  937MPD2     H13759   3.636   0.247  11.756  0.1862 -0.1631 -0.9714
  937MPD2    H113760   3.667   4.633  11.516  1.8020  1.9960 -0.1219
  937MPD2    H213761   3.411   4.642  11.857  2.3086 -0.1851  2.2678
  937MPD2    H313762   3.499   4.540  11.646 -0.4804  0.5813 -0.8931
  937MPD2     N13763   3.766   0.149  11.563  0.1259 -0.4040  0.5415
  937MPD2    H513764   3.789   0.240  11.601  0.1621 -0.2143  0.0743
  937MPD2    N113765   3.467   0.142  11.939 -0.4715  0.6534  0.1535
  937MPD2    H713766   3.485   0.242  11.938  0.5297  0.4512 -2.0215
  938MPD2     C13767   1.695   2.183   0.554 -0.3829  0.7715 -0.4399
  938MPD2    C113768   1.742   2.188   0.685  0.4855 -0.3218 -0.5982
  938MPD2    C213769   1.764   2.077   0.759  0.2696  0.1813 -0.6369
  938MPD2    C313770   1.729   1.955   0.698  0.2279  0.3008 -1.0066
  938MPD2    C413771   1.684   1.944   0.564  0.0805  0.3397 -0.3030
  938MPD2    C513772   1.677   2.064   0.491 -0.2872 -1.0872 -0.0401
  938MPD2     H13773   1.806   2.081   0.859  0.3932 -3.1284 -0.5478
  938MPD2    H113774   1.667   1.849   0.514 -0.9872  0.7447 -0.6944
  938MPD2    H213775   1.704   2.268   0.486  0.2675  1.0853  0.0414
  938MPD2    H313776   1.655   2.068   0.385  0.4250 -0.7731 -0.1709
  938MPD2     N13777   1.732   1.827   0.769  0.1168 -0.3486 -0.0932
  938MPD2    H513778   1.713   1.743   0.716  1.8258 -1.7502  1.5149
  938MPD2    N113779   1.748   2.311   0.754 -0.5454 -0.3354 -0.0417
  938MPD2    H713780   1.769   2.296   0.852 -1.1064 -2.5173 -0.2663
  939MPD2     C13781   3.193   3.673   0.148  0.3892  0.3276 -0.1637
  939MPD2    C113782   3.111   3.623   0.246 -0.2878 -0.6506 -0.2855
  939MPD2    C213783   3.095   3.487   0.244  0.2682 -0.5623  0.3527
  939MPD2    C313784   3.150   3.411   0.146  0.1896  0.6345 -0.0019
  939MPD2    C413785   3.224   3.469   0.047 -0.0892  0.5379  0.1701
  939MPD2    C513786   3.250   3.605   0.051 -0.3522 -0.0031 -0.0614
  939MPD2     H13787   3.033   3.434   0.316  0.7155 -1.7471 -0.1300
  939MPD2    H113788   3.265   3.415  17.701 -0.7220  1.0236 -0.4464
  939MPD2    H213789   3.221   3.777   0.146  0.4039  0.3231 -0.1986
  939MPD2    H313790   3.325   3.653  17.727  0.7963 -3.2506 -1.1786
  939MPD2     N13791   3.117   3.276   0.142  0.1435  0.2851  0.1580
  939MPD2    H513792   3.049   3.249   0.212 -0.0014  0.4444  0.0778
  939MPD2    N113793   3.053   3.710   0.347 -0.1280 -0.1935 -0.9030
  939MPD2    H713794   3.083   3.807   0.347 -0.4447 -0.0971 -1.1268
  940MPD2     C13795   1.643   3.612  12.576 -0.4352 -0.7031 -0.1192
  940MPD2    C113796   1.748   3.571  12.661 -0.2696 -0.1904  1.0716
  940MPD2    C213797   1.852   3.493  12.605  0.5509 -0.2171 -0.2487
  940MPD2    C313798   1.848   3.461  12.470  0.7846  0.2868 -0.2891
  940MPD2    C413799   1.750   3.508  12.386 -0.0962  0.3949 -0.1459
  940MPD2    C513800   1.650   3.589  12.435 -0.3237  0.0328 -0.4656
  940MPD2     H13801   1.928   3.457  12.674  0.8579 -0.2365 -0.5961
  940MPD2    H113802   1.730   3.463  12.289  1.8809 -0.4068 -0.1751
  940MPD2    H213803   1.558   3.663  12.619 -0.4522  0.4339 -1.4871
  940MPD2    H313804   1.576   3.622  12.364 -0.3869 -1.6141 -1.1781
  940MPD2     N13805   1.942   3.378  12.403 -0.3530 -0.1765  0.0267
  940MPD2    H513806   1.936   3.379  12.302  2.5668  0.3032 -0.1300
  940MPD2    N113807   1.741   3.594  12.800 -0.0528 -0.4251  0.4543
  940MPD2    H713808   1.808   3.542  12.855 -1.5820 -0.5593  2.1719
  941MPD2     C13809   0.810   3.035  10.226 -1.3736  0.5196 -0.6273
  941MPD2    C113810   0.950   3.003  10.226  0.1659  0.7631  0.1402
  941MPD2    C213811   0.977   2.875  10.264 -0.0129 -1.0485 -0.2623
  941MPD2    C313812   0.884   2.787  10.292  0.1069 -0.1577 -0.5845
  941MPD2    C413813   0.749   2.811  10.282  0.3868  0.1815  0.6667
  941MPD2    C513814   0.713   2.939  10.249 -0.6363  0.2479  0.6399
  941MPD2     H13815   1.082   2.847  10.260  0.3328  0.0971  0.9589
  941MPD2    H113816   0.679   2.730  10.295 -0.7339  1.3077  1.6802
  941MPD2    H213817   0.779   3.131  10.185 -0.7921  1.4831  1.1877
  941MPD2    H313818   0.607   2.965  10.244 -0.2987  1.5610  0.3447
  941MPD2     N13819   0.912   2.653  10.325  0.0998 -0.6705 -0.0304
  941MPD2    H513820   0.825   2.601  10.319 -0.0569 -0.2008 -1.9446
  941MPD2    N113821   1.052   3.096  10.200  0.0984 -0.1176 -0.3804
  941MPD2    H713822   1.144   3.077  10.238 -1.6990 -0.9358  3.6017
  942MPD2     C13823   0.290   0.314  10.062 -0.1809  0.4791  0.4306
  942MPD2    C113824   0.293   0.186  10.016  1.1352 -0.3351  0.3945
  942MPD2    C213825   0.348   0.160   9.893  0.3154  0.5423  0.9688
  942MPD2    C313826   0.384   0.260   9.800  0.6417  0.2825 -0.3231
  942MPD2    C413827   0.388   0.392   9.851  0.1522 -0.4564  0.0207
  942MPD2    C513828   0.340   0.411   9.975  0.2424 -0.1224 -0.4682
  942MPD2     H13829   0.335   0.056   9.865  0.3479  1.1029 -1.1443
  942MPD2    H113830   0.408   0.483   9.796 -1.1564 -1.0549 -1.4311
  942MPD2    H213831   0.259   0.334  10.164 -0.5801 -4.1480  1.2293
  942MPD2    H313832   0.342   0.513  10.011  0.4768 -0.5103  0.6308
  942MPD2     N13833   0.421   0.242   9.663  0.2314  0.0596 -0.0026
  942MPD2    H513834   0.456   0.324   9.615  0.2190 -0.7712 -1.4207
  942MPD2    N113835   0.244   0.068  10.075 -0.8811  0.8190 -0.2574
  942MPD2    H713836   0.267   4.723  10.016 -0.7956  3.5290 -3.8608
  943MPD2     C13837   0.410   1.693  10.341  0.1574 -0.3866 -0.5567
  943MPD2    C113838   0.293   1.754  10.355 -0.8840 -0.0307  0.7334
  943MPD2    C213839   0.288   1.887  10.334  0.2557 -0.4394  0.1500
  943MPD2    C313840   0.401   1.958  10.285 -0.4134 -0.5602 -0.6070
  943MPD2    C413841   0.519   1.898  10.265  0.3221 -1.0671 -0.8289
  943MPD2    C513842   0.518   1.760  10.302 -0.4957 -0.2674  0.1593
  943MPD2     H13843   0.199   1.942  10.360 -0.7839 -2.0673  0.0234
  943MPD2    H113844   0.609   1.957  10.252 -0.2171 -0.1009 -0.1301
  943MPD2    H213845   0.423   1.586  10.351  1.3606 -0.2714 -0.8271
  943MPD2    H313846   0.610   1.702  10.300  1.2032  2.3845  1.3954
  943MPD2     N13847   0.403   2.103  10.262 -0.7076  0.2894 -0.6978
  943MPD2    H513848   0.486   2.157  10.240 -0.6024  0.7552  0.8671
  943MPD2    N113849   0.182   1.681  10.403  0.1030 -0.5138  0.1714
  943MPD2    H713850   0.192   1.592  10.451 -0.5138  1.1112  3.2935
  944MPD2     C13851   4.515   1.792  11.215 -0.0491 -0.0911  0.4053
  944MPD2    C113852   4.443   1.810  11.333 -0.3981  0.9335  0.4234
  944MPD2    C213853   4.382   1.934  11.359  0.1035 -0.0435  0.4343
  944MPD2    C313854   4.369   2.034  11.266  0.6146 -0.3526 -0.3292
  944MPD2    C413855   4.433   2.009  11.146  0.1312 -0.2191 -0.6267
  944MPD2    C513856   4.510   1.895  11.129 -0.5302  0.0542  0.6589
  944MPD2     H13857   4.345   1.962  11.458  2.3549  0.0244  1.2485
  944MPD2    H113858   4.415   2.076  11.063  1.5983  1.8418  0.7094
  944MPD2    H213859   4.575   1.702  11.205  0.1755  0.1513 -0.3883
  944MPD2    H313860   4.555   1.870  11.033 -1.0465  3.0725 -0.3732
  944MPD2     N13861   4.292   2.152  11.291 -0.6777  0.1430 -0.7871
  944MPD2    H513862   4.245   2.161  11.381  0.1411  1.0524 -0.4561
  944MPD2    N113863   4.437   1.696  11.418 -0.0394 -0.3637  0.1355
  944MPD2    H713864   4.501   1.618  11.403  1.6948  0.4836  3.1001
    1TMC1    C113865   2.570   2.631  14.710  0.3744  0.6205  0.1828
    1TMC1    C213866   2.626   2.513  14.747  0.7136  1.2026 -0.4038
    1TMC1    C313867   2.553   2.416  14.819 -0.2863  0.0842  0.5025
    1TMC1    C413868   2.440   2.654  14.739 -0.6731 -0.5865  0.3097
    1TMC1    C513869   2.367   2.554  14.798  0.0528 -0.0801 -0.7802
    1TMC1    C613870   2.420   2.437  14.843 -0.7081 -0.6282 -0.6476
    1TMC1     C13871   2.646   2.735  14.640  0.4241  0.3107 -0.8421
    1TMC1     O13872   2.760   2.698  14.622  0.3060 -0.4705 -0.5346
    1TMC1     H13873   2.732   2.490  14.741  1.0793  2.3387  1.5889
    1TMC1    H113874   2.395   2.753  14.735  1.2857  0.2459 -1.2486
    1TMC1    H213875   2.366   2.367  14.905 -0.5108 -1.1369 -1.0452
    1TMC1    C713876   2.256   2.603  14.871 -0.2536 -0.6395 -0.4560
    1TMC1    C813877   2.637   2.331  14.906  0.2560  0.2481  0.1080
    1TMC1    O113878   2.241   2.722  14.905 -0.3419  0.2463 -0.2978
    1TMC1    O213879   2.757   2.318  14.880 -0.1056 -0.7717  0.3084
    1TMC1    O313880   2.161   2.514  14.826 -0.4781  0.0343 -0.0115
    1TMC1    H313881   2.200   2.426  14.807  0.4453  0.4241  0.0748
    1TMC1    O513882   2.589   2.336  15.034  0.0113  0.7189 -0.3733
    1TMC1    H513883   2.501   2.380  15.033 -1.2346 -1.6795  2.0491
    2MPD2     C13884   2.679   3.180  14.374  0.6288  0.3671 -0.5645
    2MPD2    C113885   2.558   3.172  14.439  0.6564 -1.1887  0.2088
    2MPD2    C213886   2.526   3.058  14.519  0.4122  0.1467  0.9085
    2MPD2    C313887   2.611   2.953  14.526  0.3324 -0.3577  0.2024
    2MPD2    C413888   2.732   2.959  14.460 -0.6390 -0.3569 -0.5812
    2MPD2    C513889   2.766   3.071  14.390 -0.0502 -0.9293 -0.4090
    2MPD2     H13890   2.426   3.049  14.560 -0.0422 -1.2031 -0.4650
    2MPD2    H113891   2.802   2.878  14.473 -0.1305  0.5405  2.5040
    2MPD2    H213892   2.700   3.267  14.312 -1.8860  0.3759 -1.4233
    2MPD2    H313893   2.865   3.071  14.346  0.0220 -1.7157 -0.2483
    2MPD2     N13894   2.567   2.844  14.604  0.8131  0.4000 -0.0895
    2MPD2    H513895   2.470   2.854  14.634  1.5803 -1.7838  3.1402
    2MPD2    N113896   2.472   3.277  14.422  0.2175 -0.1882 -0.1411
    2MPD2    H713897   2.492   3.339  14.345  3.1239 -1.0444 -0.0791
    3TMC2    C113898   2.290   3.417  14.458 -0.0828  0.2700 -1.1345
    3TMC2    C213899   2.188   3.461  14.538 -0.3027 -0.4406 -0.1094
    3TMC2    C313900   2.096   3.544  14.483 -0.5047 -0.7687 -0.5877
    3TMC2    C413901   2.321   3.476  14.338 -0.0715 -0.3243 -0.3568
    3TMC2    C513902   2.234   3.576  14.302  0.5892  0.6869 -0.8463
    3TMC2    C613903   2.117   3.608  14.365  0.2269 -0.0614  0.6905
    3TMC2     C13904   2.367   3.301  14.510 -0.5857  1.1414  0.4561
    3TMC2     O13905   2.323   3.239  14.607  0.6330  0.0642  0.3783
    3TMC2     H13906   2.171   3.405  14.629  0.4418 -0.6375 -0.0964
    3TMC2    H113907   2.392   3.441  14.265 -1.0769 -2.0304 -0.5143
    3TMC2    H213908   2.049   3.684  14.328  1.0225  1.1332  1.7110
    3TMC2    C713909   2.253   3.621  14.172 -0.6204  0.1819  0.2273
    3TMC2    C813910   1.975   3.589  14.555 -0.4833  0.1217  0.1146
    3TMC2    O113911   2.373   3.634  14.138 -0.2464 -0.5758 -0.4944
    3TMC2    O213912   1.908   3.693  14.534 -0.1197  0.4297 -0.6882
    3TMC2    O513913   1.947   3.487  14.649 -0.1740  0.2633  0.2407
    3TMC2    H513914   2.007   3.411  14.636 -1.3053 -0.5527 -0.2221
    4TMC2    C113915   1.589   3.957  13.386 -0.4420  0.0587 -0.0268
    4TMC2    C213916   1.493   3.985  13.478 -0.1934  0.1931 -0.2389
    4TMC2    C313917   1.527   3.992  13.610 -0.4285 -0.4448 -0.2473
    4TMC2    C413918   1.720   3.943  13.416  0.2434 -0.0136  0.2719
    4TMC2    C513919   1.745   3.939  13.559 -0.3971  0.0795  0.3010
    4TMC2    C613920   1.652   3.967  13.655 -0.0347 -0.1330 -0.6734
    4TMC2     C13921   1.556   3.961  13.244 -0.3801  0.0328  0.0070
    4TMC2     O13922   1.650   3.951  13.161  0.0822 -1.0021 -0.2895
    4TMC2     H13923   1.386   3.997  13.464 -0.4921  2.1606  3.8535
    4TMC2    H113924   1.797   3.923  13.343  0.9819 -1.4119  1.4264
    4TMC2    H213925   1.674   3.979  13.760  0.2130 -0.5484 -0.6780
    4TMC2    C713926   1.876   3.898  13.603  0.7907  0.0045 -0.0379
    4TMC2    C813927   1.429   4.031  13.704 -0.0222 -0.4987  0.1500
    4TMC2    O113928   1.968   3.897  13.519 -0.7062 -0.3658 -0.1666
    4TMC2    O213929   1.443   4.020  13.825  0.0034 -0.2992 -0.4656
    4TMC2    O513930   1.370   4.133  13.648  0.3611  0.2383 -0.2813
    4TMC2    H513931   1.369   4.144  13.551 -0.6825  1.5559 -0.1220
    5MPD2     C13932   1.215   4.041  12.868 -0.2200  0.4961  0.1372
    5MPD2    C113933   1.161   4.086  12.987 -0.5655 -0.0577 -0.5058
    5MPD2    C213934   1.232   4.061  13.099  0.2415 -0.0190  0.4778
    5MPD2    C313935   1.361   3.999  13.097  0.4663  0.6632  0.4236
    5MPD2    C413936   1.408   3.942  12.987  0.2605 -0.6471 -0.4325
    5MPD2    C513937   1.335   3.967  12.876  0.1552  0.2578 -0.2113
    5MPD2     H13938   1.193   4.095  13.195 -4.1668 -0.2602 -1.2324
    5MPD2    H113939   1.498   3.882  12.983  0.9365  0.1428  2.4721
    5MPD2    H213940   1.169   4.067  12.773  2.8627 -0.2591 -1.5527
    5MPD2    H313941   1.368   3.914  12.788 -2.6619 -0.0880 -1.0456
    5MPD2     N13942   1.428   4.007  13.217 -0.2616 -0.3508 -0.0466
    5MPD2    H513943   1.371   4.034  13.297 -2.6642  1.1655 -2.2698
    5MPD2    N113944   1.039   4.149  12.991  0.1517  0.7420  0.0315
    5MPD2    H713945   0.989   4.125  12.906  2.2359  0.2240 -1.0647
    6MPD1     C13946   0.560   1.155  12.696  0.0487 -0.2795 -0.0048
    6MPD1    C113947   0.684   1.144  12.748  0.1790 -0.0140 -0.0617
    6MPD1    C213948   0.744   1.019  12.743 -0.4152 -0.7944  0.2679
    6MPD1    C313949   0.685   0.906  12.694  0.4893 -0.2750  0.1841
    6MPD1    C413950   0.555   0.922  12.646  0.0615  0.0839 -0.5842
    6MPD1    C513951   0.500   1.049  12.640  0.1650 -0.3921  0.4228
    6MPD1     H13952   0.848   1.015  12.774 -0.1516  1.2534 -0.3566
    6MPD1    H113953   0.496   0.838  12.611  1.5923 -0.1206 -2.6926
    6MPD1    H213954   0.517   1.253  12.683 -2.0786 -1.3430 -1.0165
    6MPD1    H313955   0.406   1.060  12.587  1.7661 -0.7948 -2.5375
    6MPD1     N13956   0.739   0.780  12.680 -0.2381  0.3706 -0.5202
    6MPD1    H513957   0.681   0.705  12.644 -0.3778 -0.9698  2.5043
    6MPD1    N113958   0.757   1.254  12.792 -0.6265 -0.1024  0.1807
    6MPD1    H613959   0.707   1.335  12.829  0.0246  0.9341 -1.2096
    6MPD1    H713960   0.838   1.241  12.852 -1.8143 -3.3648  1.0905
    7MPD2     C13961   0.936   0.227  13.259  0.5240  0.1227  0.5563
    7MPD2    C113962   0.893   0.180  13.141  0.6400 -0.3054  0.1449
    7MPD2    C213963   0.827   0.059  13.137 -0.1301 -0.4411  0.0457
    7MPD2    C313964   0.826   4.711  13.252  0.0335 -0.0235 -0.6210
    7MPD2    C413965   0.890   0.013  13.366 -0.3459 -0.1810 -0.7400
    7MPD2    C513966   0.946   0.138  13.367  0.2769 -0.9285 -0.0186
    7MPD2     H13967   0.784   0.021  13.045  0.9435  0.6849 -0.9268
    7MPD2    H113968   0.879   4.691  13.457 -1.0399 -2.4010 -2.2090
    7MPD2    H213969   0.982   0.322  13.280 -0.5407  1.3246 -2.5632
    7MPD2    H313970   0.983   0.166  13.465 -1.4473 -0.5883  0.5498
    7MPD2     N13971   0.771   4.583  13.249 -0.0266  0.0430 -0.4259
    7MPD2    H513972   0.794   4.518  13.323  0.2851  1.0294  0.3578
    7MPD2    N113973   0.904   0.244  13.018  0.5092 -0.0780 -0.2248
    7MPD2    H713974   0.850   0.205  12.942  1.2964 -2.2129  0.3060
    8TMC3    C113975   0.675   4.402  13.124  0.7389  0.0950 -0.0928
    8TMC3    C213976   0.785   4.330  13.165 -0.3966  0.0186  0.6601
    8TMC3    C313977   0.858   4.275  13.061 -0.0946 -0.4707  0.2883
    8TMC3    C413978   0.626   4.383  12.992  0.2074  0.0762 -0.1362
    8TMC3    C513979   0.708   4.338  12.895 -0.5678 -0.2331 -0.2177
    8TMC3    C613980   0.821   4.288  12.936 -0.6197  0.1494  0.3568
    8TMC3     C13981   0.678   4.549  13.156 -0.0735  0.2065  0.1689
    8TMC3     O13982   0.604   4.620  13.088  0.4680  0.4050 -0.1364
    8TMC3     H13983   0.818   4.313  13.266  0.5306  1.8539  0.6627
    8TMC3    H113984   0.536   4.442  12.980 -1.4562 -2.4155  0.0945
    8TMC3    H213985   0.884   4.257  12.854 -0.0799 -0.3610  0.9608
    8TMC3    C713986   0.717   4.415  12.772 -0.0104 -0.1664 -0.1243
    8TMC3    C813987   0.985   4.218  13.094 -0.4344  0.0030 -0.3776
    8TMC3    O113988   0.828   4.425  12.724  0.7007 -0.4195  0.1592
    8TMC3    O213989   1.028   4.245  13.203 -0.0314  0.3815 -0.2631
    9TMC3    C113990   0.890   0.605  12.744 -0.1485  0.6908  0.0212
    9TMC3    C213991   0.846   0.522  12.649 -0.7927  0.4811 -0.0995
    9TMC3    C313992   0.858   0.386  12.660  0.6351 -0.5448  0.2741
    9TMC3    C413993   0.952   0.553  12.859 -0.1408  0.0633 -0.0996
    9TMC3    C513994   0.962   0.418  12.869  0.2849 -0.1419 -0.1940
    9TMC3    C613995   0.927   0.330  12.770 -0.6007  0.3697 -0.0844
    9TMC3     C13996   0.863   0.746  12.737 -0.8898 -0.2745  0.2599
    9TMC3     O13997   0.923   0.809  12.823 -0.0294  0.2003  0.3107
    9TMC3     H13998   0.802   0.565  12.559 -0.1065 -0.0348 -0.6876
    9TMC3    H113999   0.966   0.620  12.943 -0.9392  0.2428 -0.1068
    9TMC3    H214000   0.958   0.226  12.779  2.3132  1.3704  1.3569
    9TMC3    C714001   0.982   0.359  13.000  0.3750  0.4253  0.5156
    9TMC3    C814002   0.757   0.307  12.589 -0.7227 -0.2764  0.5259
    9TMC3    O114003   1.031   0.432  13.086  0.2114 -0.3345  0.1614
    9TMC3    O214004   0.679   0.368  12.511 -0.3894 -0.1897  0.1231
   10MPD2     C14005   0.468   4.616  12.611 -0.2409  0.4743  0.4807
   10MPD2    C114006   0.590   4.588  12.660 -0.5658  0.1105 -0.1589
   10MPD2    C214007   0.695   4.675  12.655 -0.1129 -0.9678 -0.1261
   10MPD2    C314008   0.676   0.067  12.597 -0.6111 -0.0168  0.2586
   10MPD2    C414009   0.550   0.093  12.542 -0.0988  0.1791 -0.2330
   10MPD2    C514010   0.450   4.730  12.544 -0.4360  0.2430 -0.7927
   10MPD2     H14011   0.791   4.659  12.702 -1.2102  1.9057  3.0578
   10MPD2    H114012   0.531   0.179  12.479  0.5083 -1.7402 -2.9948
   10MPD2    H214013   0.386   4.545  12.620  1.5107 -1.6619 -0.4072
   10MPD2    H314014   0.348   0.018  12.512 -0.3104  1.9349  0.0163
   10MPD2     N14015   0.771   0.166  12.615  0.1538 -0.2124 -0.6178
   10MPD2    H514016   0.853   0.135  12.666 -0.0156  0.1530 -0.1215
   10MPD2    N114017   0.599   4.473  12.733  0.3156  0.5121  0.0962
   10MPD2    H714018   0.509   4.432  12.756  0.1335  1.4736  1.0793
   11MPD2     C14019   2.238   3.802  13.948 -0.1906  0.4982  0.0675
   11MPD2    C114020   2.127   3.725  13.988 -0.7851  0.0713  0.2378
   11MPD2    C214021   2.015   3.730  13.913 -0.5100  0.6467  0.3705
   11MPD2    C314022   2.004   3.821  13.807  0.5755  0.9868 -0.6666
   11MPD2    C414023   2.110   3.900  13.774  0.1882  0.6321  0.3607
   11MPD2    C514024   2.225   3.887  13.841  0.3344  0.2299  0.2148
   11MPD2     H14025   1.934   3.665  13.945 -1.9220  1.9528 -0.5662
   11MPD2    H114026   2.105   3.983  13.705 -1.5898 -0.1586 -0.4521
   11MPD2    H214027   2.333   3.795  14.002 -0.6142 -0.6712  0.6577
   11MPD2    H314028   2.315   3.944  13.818  1.4717 -1.6908 -0.1275
   11MPD2     N14029   1.878   3.843  13.734  0.5703 -0.5125  0.3885
   11MPD2    H514030   1.790   3.807  13.770  1.2071 -1.8198  0.6300
   11MPD2    N114031   2.133   3.650  14.109 -0.3062 -0.4090  0.0691
   11MPD2    H714032   2.049   3.601  14.139  0.0225 -1.2524 -0.3930
    1MPD1     C14033   1.023   2.218  15.757 -0.1388 -0.4583 -0.0333
    1MPD1    C114034   1.108   2.129  15.812 -0.1447  0.9827  0.2907
    1MPD1    C214035   1.068   1.999  15.815 -0.5336 -0.4150  0.4200
    1MPD1    C314036   0.939   1.949  15.785 -0.1627 -0.0986  0.1986
    1MPD1    C414037   0.857   2.043  15.732  0.7087  0.8293  0.5224
    1MPD1    C514038   0.900   2.172  15.723 -0.0540  0.6835 -0.0196
    1MPD1     H14039   1.142   1.924  15.840  1.7443  1.9970  0.8437
    1MPD1    H114040   0.763   2.006  15.693  1.0359  1.8891 -1.2899
    1MPD1    H214041   1.063   2.318  15.745  0.8817 -0.6955  1.3513
    1MPD1    H314042   0.835   2.248  15.682 -1.6073  0.1977  1.5033
    1MPD1     N14043   0.904   1.817  15.795 -0.4033 -0.4914  0.1365
    1MPD1    H514044   0.809   1.785  15.779 -0.0324 -0.7474 -1.4903
    1MPD1    N114045   1.242   2.160  15.814 -0.2330  0.2852  0.1788
    1MPD1    H614046   1.292   2.102  15.882 -0.8012  0.9817  1.1879
    1MPD1    H714047   1.254   2.256  15.845  0.2508 -0.3466  1.9575
    2MPD1     C14048   0.154   1.540  15.513 -0.1217  0.0861  0.0428
    2MPD1    C114049   0.192   1.626  15.617  0.5568 -0.3149  0.2221
    2MPD1    C214050   0.321   1.606  15.663 -0.1976  0.9418  0.2276
    2MPD1    C314051   0.402   1.497  15.639  0.6122  0.8698  0.0479
    2MPD1    C414052   0.357   1.405  15.549  0.1339  0.6953 -0.9028
    2MPD1    C514053   0.237   1.438  15.483 -0.1909  0.2201  0.1831
    2MPD1     H14054   0.345   1.674  15.744  1.6783  0.4015  0.1390
    2MPD1    H114055   0.414   1.317  15.522 -2.3124 -0.5864 -1.9161
    2MPD1    H214056   0.059   1.540  15.461 -0.5654  0.5067  0.8470
    2MPD1    H314057   0.222   1.382  15.391  0.6927 -1.2142  0.9144
    2MPD1     N14058   0.532   1.503  15.694 -0.2785 -0.0560 -0.3928
    2MPD1    H514059   0.551   1.575  15.763  0.4143 -2.4242  1.8966
    2MPD1    N114060   0.114   1.732  15.649  0.3214  0.6302  0.1496
    2MPD1    H614061   0.015   1.705  15.647  0.7978 -1.2412  1.7577
    2MPD1    H714062   0.119   1.778  15.739 -1.2698  1.8416 -0.3773
    3TMC3    C114063   0.762   1.449  15.717  0.8529 -0.6453 -0.0484
    3TMC3    C214064   0.824   1.342  15.774 -0.2656  0.3758  0.0026
    3TMC3    C314065   0.936   1.359  15.846 -0.8024 -0.1465  0.0523
    3TMC3    C414066   0.803   1.582  15.741  0.1801 -0.3669 -0.3078
    3TMC3    C514067   0.911   1.590  15.821 -0.0240 -0.6876 -0.7266
    3TMC3    C614068   0.986   1.482  15.875 -0.6628  0.4550  0.0896
    3TMC3     C14069   0.635   1.429  15.643 -0.1125  0.0629 -0.3712
    3TMC3     O14070   0.628   1.321  15.577  0.4292 -0.0186  0.1242
    3TMC3     H14071   0.788   1.242  15.752 -0.4195 -0.0811  2.4097
    3TMC3    H114072   0.743   1.659  15.695  1.1279  0.2476 -0.5217
    3TMC3    H214073   1.075   1.488  15.936  0.6103 -2.5247 -1.4270
    3TMC3    C714074   0.982   1.714  15.840 -0.3100  1.0485 -0.4632
    3TMC3    C814075   0.970   1.262  15.939 -0.1174 -0.9610  0.3185
    3TMC3    O114076   1.073   1.713  15.923 -0.1103  0.1083 -0.1785
    3TMC3    O214077   1.073   1.285  16.003  0.0004 -0.3944 -0.0554
    4MPD1     C14078   0.909   0.814  16.170 -0.0293 -0.1732 -0.4300
    4MPD1    C114079   0.803   0.826  16.079 -0.6278  0.6858 -0.1827
    4MPD1    C214080   0.789   0.950  16.018 -0.1180  0.0576 -0.0814
    4MPD1    C314081   0.894   1.036  16.025  0.1345  0.5125 -0.1120
    4MPD1    C414082   0.999   1.019  16.112  0.5008 -0.0382 -0.3527
    4MPD1    C514083   1.002   0.910  16.194 -0.3318  0.3134 -0.3852
    4MPD1     H14084   0.700   0.959  15.957 -0.1029  0.3030 -0.0686
    4MPD1    H114085   1.088   1.079  16.100 -0.1066  0.2024 -3.7131
    4MPD1    H214086   0.915   0.725  16.232  0.2106 -1.1656 -1.9023
    4MPD1    H314087   1.070   0.896  16.278  0.2499 -2.0603 -1.2346
    4MPD1     N14088   0.880   1.158  15.948  0.6659 -0.4531 -0.2381
    4MPD1    H514089   0.800   1.172  15.889 -1.2737 -4.3378  1.4498
    4MPD1    N114090   0.693   0.734  16.080 -0.0310 -0.5735 -0.2365
    4MPD1    H614091   0.706   0.636  16.107 -1.5054 -0.6215  0.3071
    4MPD1    H714092   0.628   0.736  16.001  0.6533 -1.4658 -0.8340
    1TCq1    O114093   1.968   4.576  11.655 -0.0514  0.3096  0.2102
    1TCq1    C114094   1.833   4.578  11.682  0.6322  0.3803  0.1817
    1TCq1    O214095   1.781   4.514  11.777  0.3419 -0.9154 -0.0228
    1TCq1    C214096   1.778   4.705  11.624  0.7524 -0.8411 -0.0295
    1TCq1    C314097   1.794   4.726  11.491 -0.5206 -0.2583  0.5350
    1TCq1    C414098   1.722   0.094  11.428 -0.9450 -0.2948  0.3149
    1TCq1    C514099   1.640   0.165  11.509 -0.5230  0.0863 -0.0086
    1TCq1    C614100   1.638   0.144  11.648  0.0440 -0.1843 -0.1169
    1TCq1    C714101   1.717   0.049  11.710 -0.2459  0.3606 -0.4324
    1TCq1    C814102   1.556   0.240  11.725 -0.0495 -0.0169  1.1350
    1TCq1    O414103   1.521   0.339  11.668 -1.0938  0.1496 -0.2643
    1TCq1    C914104   1.702   0.103  11.287  0.5219  0.2544 -0.1455
    1TCq1    O514105   1.614   0.188  11.251 -0.0979  0.0193  0.0853
    1TCq1    O614106   1.759   0.024  11.208  0.0744  0.2514  0.5849
    1TCq1    H114107   1.991   4.646  11.590 -1.4688  0.7608  0.1928
    1TCq1    H214108   1.830   4.653  11.418 -1.0020  0.7415 -0.6982
    1TCq1    H314109   1.581   0.242  11.458 -2.6797 -0.4994  1.5859
    1TCq1    H414110   1.731   0.030  11.815  2.7655 -0.9133 -1.0753
    2MPD1     C14111   1.290   0.360  12.141 -0.8465 -0.2084  0.2897
    2MPD1    C114112   1.394   0.277  12.179  0.1772  0.2160  0.1266
    2MPD1    C214113   1.465   0.214  12.077 -0.0991 -0.4864  0.2639
    2MPD1    C314114   1.456   0.265  11.945 -0.6127  0.6937 -0.5341
    2MPD1    C414115   1.354   0.357  11.911 -0.2623  0.0609  0.0147
    2MPD1    C514116   1.272   0.400  12.009 -0.2917  0.7761 -0.2055
    2MPD1     H14117   1.541   0.140  12.096 -0.5564 -0.8618  0.6390
    2MPD1    H114118   1.338   0.401  11.813 -0.9100  0.1191  0.1468
    2MPD1    H214119   1.235   0.415  12.217 -0.7757  0.9459 -0.4969
    2MPD1    H314120   1.193   0.470  11.985 -1.1299 -0.1154 -0.0548
    2MPD1     N14121   1.545   0.208  11.855  0.2793 -0.4755  0.0921
    2MPD1    H514122   1.610   0.134  11.881  0.8458 -0.0202 -0.0420
    2MPD1    N114123   1.399   0.226  12.308  0.2164  0.3237  0.6543
    2MPD1    H614124   1.364   0.290  12.378 -1.5388 -0.0505  0.1088
    2MPD1    H714125   1.493   0.196  12.335 -0.1923 -1.3678  0.2177
    1TMC1    C114126   1.187   0.038   1.030 -0.3331 -0.7689 -0.1323
    1TMC1    C214127   1.317   0.049   1.031 -0.0930  0.6521  0.1929
    1TMC1    C314128   1.380   0.114   1.138 -0.1929  0.0067  0.0590
    1TMC1    C414129   1.118   0.082   1.145 -0.8345 -0.3813  0.7403
    1TMC1    C514130   1.179   0.154   1.238  0.4833 -0.8228 -0.5344
    1TMC1    C614131   1.313   0.180   1.240  0.7374  0.5368  0.1697
    1TMC1     C14132   1.125   4.671   0.947  0.3280 -0.1680 -0.0298
    1TMC1     O14133   1.163   4.638   0.835 -0.5129 -0.2453  0.0295
    1TMC1     H14134   1.381   0.002   0.957 -1.8404  1.1275 -1.6165
    1TMC1    H114135   1.010   0.084   1.155 -0.7283  5.5791  0.8375
    1TMC1    H214136   1.361   0.250   1.306  0.5903  1.9714 -1.2538
    1TMC1    C714137   1.100   0.210   1.338 -0.2547 -0.3819  0.1498
    1TMC1    C814138   1.526   0.120   1.138  0.3367  0.1993 -0.7753
    1TMC1    O114139   0.982   0.233   1.326 -0.2623 -0.0022 -0.9474
    1TMC1    O214140   1.589   0.049   1.058 -0.1111 -0.6440 -0.4057
    1TMC1    O314141   1.141   0.142   1.444 -0.6056 -0.5294  0.1710
    1TMC1    H314142   1.237   0.123   1.451 -0.4997 -0.0720 -0.0134
    1TMC1    O514143   1.567   0.138   1.259 -0.2699  0.1064 -0.0103
    1TMC1    H514144   1.488   0.156   1.314  0.9156  2.3598  0.9374
    2MPD1     C14145   0.802   4.255   0.946 -0.5858  0.4102  0.3836
    2MPD1    C114146   0.774   4.347   1.048 -0.2986  0.5617  0.2965
    2MPD1    C214147   0.856   4.455   1.072 -0.8290  0.7595  0.1908
    2MPD1    C314148   0.962   4.481   0.992  0.1651 -0.6524  0.5789
    2MPD1    C414149   0.987   4.409   0.879 -0.0215  0.0686  1.5701
    2MPD1    C514150   0.906   4.291   0.857  0.4448 -0.5738  0.4418
    2MPD1     H14151   0.839   4.518   1.159 -0.9885 -0.2429  0.8930
    2MPD1    H114152   1.069   4.421   0.809  1.2487  0.3720  3.1001
    2MPD1    H214153   0.745   4.164   0.934 -1.2601  1.0066 -0.9780
    2MPD1    H314154   0.923   4.233   0.767  1.1527  0.9396 -0.3939
    2MPD1     N14155   1.038   4.600   1.025  0.0580  0.2400  0.0631
    2MPD1    H514156   1.024   4.639   1.118 -0.3246 -0.4500  0.2937
    2MPD1    N114157   0.676   4.319   1.140  0.2159 -0.2531  0.0956
    2MPD1    H614158   0.655   4.391   1.209  0.4850 -0.5992  0.5397
    2MPD1    H714159   0.594   4.272   1.104 -0.4464  0.0844  1.1435
    1MPD1     C14160   2.199   4.500  12.238 -0.4685  0.1403  0.0180
    1MPD1    C114161   2.207   4.635  12.235 -0.3460  0.2888  0.0419
    1MPD1    C214162   2.315   4.703  12.181  0.2307 -0.2227 -0.2904
    1MPD1    C314163   2.421   4.630  12.136 -0.0633  0.3236  0.2587
    1MPD1    C414164   2.418   4.490  12.139 -0.2723  0.7330  0.6183
    1MPD1    C514165   2.305   4.428  12.195 -0.1183 -0.3135 -0.4678
    1MPD1     H14166   2.313   0.075  12.165  0.0935 -0.3960 -1.3855
    1MPD1    H114167   2.490   4.427  12.090 -0.6429  1.1335 -0.4451
    1MPD1    H214168   2.106   4.449  12.263 -1.4908  0.5722 -2.8696
    1MPD1    H314169   2.297   4.320  12.190  0.3649 -0.3585 -0.2007
    1MPD1     N14170   2.533   4.695  12.081 -0.1993  0.1002  0.0025
    1MPD1    H514171   2.518   0.059  12.067  0.1941  0.2033  0.3310
    1MPD1    N114172   2.083   4.705  12.267 -0.1548  0.1340 -0.2520
    1MPD1    H614173   2.029   4.667  12.345 -0.4168  1.7435  0.3524
    1MPD1    H714174   2.085   0.072  12.268  0.8010  0.1177 -0.6221
    2MPD1     C14175   2.960   0.420   9.713  0.1847  0.7215  0.0505
    2MPD1    C114176   2.972   0.284   9.697 -0.6265  0.3688  0.0482
    2MPD1    C214177   2.906   0.205   9.791  0.2389  0.1884 -0.1413
    2MPD1    C314178   2.861   0.256   9.912 -0.2601  0.1418  0.0694
    2MPD1    C414179   2.863   0.394   9.923  0.2090  0.1929 -0.3914
    2MPD1    C514180   2.908   0.474   9.823 -0.1765  0.7515  0.5214
    2MPD1     H14181   2.902   0.098   9.775  0.0882  0.3250 -1.0132
    2MPD1    H114182   2.843   0.434  10.022  0.9160 -2.6017  0.8689
    2MPD1    H214183   3.008   0.486   9.641  0.7802  0.0948 -0.1370
    2MPD1    H314184   2.903   0.582   9.832  0.2684  0.6853  1.5086
    2MPD1     N14185   2.810   0.172  10.019  0.3426  0.1432 -0.4829
    2MPD1    H514186   2.791   0.218  10.107 -1.4072  0.1494 -0.8650
    2MPD1    N114187   3.017   0.230   9.582 -0.1786 -0.4375  0.4322
    2MPD1    H614188   3.022   0.129   9.576  1.7473 -0.4093  1.6915
    2MPD1    H714189   3.103   0.270   9.544  0.2946  0.1391  2.1371
    3MPD1     C14190   2.145   4.180  10.476 -0.1284  0.3891 -0.0840
    3MPD1    C114191   2.196   4.259  10.576 -0.5381 -0.7765 -0.1494
    3MPD1    C214192   2.299   4.346  10.538  0.4986 -0.1167  0.1755
    3MPD1    C314193   2.363   4.348  10.417  1.4723 -0.6209 -0.4674
    3MPD1    C414194   2.319   4.251  10.329 -0.6451 -0.6698  0.7653
    3MPD1    C514195   2.212   4.163  10.360  0.8376  1.0078  0.1773
    3MPD1     H14196   2.335   4.408  10.619 -1.3903 -0.1964  1.0933
    3MPD1    H114197   2.368   4.247  10.233  0.8025  0.7125  1.4486
    3MPD1    H214198   2.068   4.107  10.500  1.0529 -1.3201 -1.4999
    3MPD1    H314199   2.171   4.098  10.283  1.6276 -1.9188  2.2041
    3MPD1     N14200   2.472   4.431  10.390  0.6028 -0.4297  0.4875
    3MPD1    H514201   2.500   4.502  10.456  0.2600  0.3275 -0.1752
    3MPD1    N114202   2.118   4.288  10.694 -0.0182  0.2455 -0.6765
    3MPD1    H614203   2.085   4.197  10.725  0.8457 -0.9594 -3.2442
    3MPD1    H714204   2.171   4.322  10.773 -0.1182  1.3912 -1.1048
    4MPD2     C14205   2.799   0.484  11.594  1.3447 -0.2859 -0.4431
    4MPD2    C114206   2.891   0.392  11.628  0.2118  0.5767  0.0818
    4MPD2    C214207   3.004   0.382  11.544  1.0517  0.2554 -0.0230
    4MPD2    C314208   3.014   0.446  11.424 -0.1314 -0.5139  0.6212
    4MPD2    C414209   2.923   0.542  11.399 -0.6384 -0.6706  0.4980
    4MPD2    C514210   2.818   0.561  11.485  0.7189  0.6514 -0.4890
    4MPD2     H14211   3.077   0.302  11.545  1.8591  0.9837 -0.6785
    4MPD2    H114212   2.929   0.609  11.315  0.1515 -0.0029  1.0849
    4MPD2    H214213   2.713   0.504  11.658 -0.3904 -0.1424 -2.8133
    4MPD2    H314214   2.751   0.644  11.467 -1.4256 -0.9066  0.4009
    4MPD2     N14215   3.130   0.412  11.352  0.5858 -0.0518  0.2675
    4MPD2    H514216   3.186   0.339  11.394  0.2788 -0.4646 -0.0323
    4MPD2    N114217   2.883   0.310  11.747 -0.4814 -0.2766  0.3562
    4MPD2    H714218   2.965   0.254  11.771  0.2419  0.3123 -0.7250
    5TMC3    C114219   2.803   0.219  11.929  0.3353  0.5340 -0.4098
    5TMC3    C214220   2.701   0.127  11.951  0.7679 -0.5988 -0.6166
    5TMC3    C314221   2.748   0.009  11.994  0.6735 -0.7213 -0.1906
    5TMC3    C414222   2.936   0.201  11.962  0.0329 -1.0422 -0.0572
    5TMC3    C514223   2.977   0.073  11.978 -0.2483 -0.3912 -0.4102
    5TMC3    C614224   2.881   4.710  11.985  0.2299  1.0180 -0.5932
    5TMC3     C14225   2.773   0.303  11.820 -0.4106 -0.6459 -0.7005
    5TMC3     O14226   2.671   0.371  11.818  0.0305  0.3082  0.0303
    5TMC3     H14227   2.596   0.144  11.936  0.1010 -5.4431 -1.5766
    5TMC3    H114228   3.008   0.282  11.955 -1.4462  0.2128 -0.6431
    5TMC3    H214229   2.910   4.606  11.991  1.6983  1.4070 -1.0549
    5TMC3    C714230   3.094   0.044  11.892 -0.4823 -0.3299 -0.4031
    5TMC3    C814231   2.654   4.645  12.039 -0.2134  0.2675  0.4233
    5TMC3    O114232   3.133   0.135  11.821 -0.8501 -0.2417 -0.2344
    5TMC3    O214233   2.702   4.534  12.063  0.1922  0.4677 -0.0785
    6TMC3    C114234   2.739   4.730  10.145  0.7228  0.5459 -0.0744
    6TMC3    C214235   2.669   4.611  10.150 -0.0709 -0.6693 -0.3154
    6TMC3    C314236   2.645   4.548  10.270 -0.8639  0.0204 -0.8349
    6TMC3    C414237   2.772   0.060  10.264 -0.4260  0.4935  0.2225
    6TMC3    C514238   2.743   4.725  10.385  0.2420  0.0378 -0.4979
    6TMC3    C614239   2.680   4.605  10.387 -0.2433  0.3725  0.1382
    6TMC3     C14240   2.790   0.035  10.014 -0.7400 -0.1792  0.0875
    6TMC3     O14241   2.801   4.684   9.923  0.3542  0.5448 -0.3148
    6TMC3     H14242   2.648   4.551  10.062  0.0693 -1.9032  0.4954
    6TMC3    H114243   2.829   0.152  10.270 -1.1367  0.8026  2.3499
    6TMC3    H214244   2.666   4.549  10.479 -0.1737  0.3959  0.1629
    6TMC3    C714245   2.785   0.054  10.513  0.4162 -0.4581  0.4308
    6TMC3    C814246   2.542   4.447  10.268  0.1249  0.1858  0.0312
    6TMC3    O114247   2.878   0.131  10.512  0.1514 -0.0035  0.1874
    6TMC3    O214248   2.529   4.393  10.159 -0.0691  0.0049  0.4147
    7MPD2     C14249   3.214   4.482  11.492 -0.4446  0.1923  0.1423
    7MPD2    C114250   3.209   4.616  11.506  0.6427  0.3463  0.7024
    7MPD2    C214251   3.194   4.672  11.633  0.2236 -0.7482  0.1230
    7MPD2    C314252   3.157   4.595  11.742  0.5679 -0.1785  0.1393
    7MPD2    C414253   3.153   4.458  11.725 -0.0969  0.0384  0.8452
    7MPD2    C514254   3.179   4.404  11.600  0.1196  0.8274  0.9930
    7MPD2     H14255   3.190   0.045  11.642  1.7448 -0.5568 -1.4834
    7MPD2    H114256   3.122   4.392  11.806  0.6077 -1.1837  0.1116
    7MPD2    H214257   3.222   4.436  11.394  0.7591  0.9394 -0.1178
    7MPD2    H314258   3.181   4.297  11.583 -2.7391  1.4022 -2.8953
    7MPD2     N14259   3.112   4.646  11.869  0.8597  0.1216 -0.1274
    7MPD2    H514260   3.076   4.579  11.937  1.9787 -1.5715 -1.2006
    7MPD2    N114261   3.215   4.696  11.385  0.1811  0.2331 -0.5069
    7MPD2    H714262   3.224   4.641  11.300  0.3900  0.9459 -0.9400
    8TMC3    C114263   3.275   0.145  11.248 -0.0309  0.5402 -0.2499
    8TMC3    C214264   3.208   0.092  11.138 -0.5781  0.4267  0.2572
    8TMC3    C314265   3.189   0.183  11.041  0.7227 -0.4505 -0.7655
    8TMC3    C414266   3.302   0.280  11.259 -0.0178 -0.0809 -0.4132
    8TMC3    C514267   3.249   0.367  11.169  0.5557  0.6301 -0.0874
    8TMC3    C614268   3.207   0.318  11.048  0.8432 -0.0359  0.4828
    8TMC3     C14269   3.253   0.090  11.385  0.7962 -0.6386 -1.1136
    8TMC3     O14270   3.261   0.168  11.478 -0.1861  0.1639 -0.0545
    8TMC3     H14271   3.186   4.721  11.128 -3.0955  0.7003  2.7651
    8TMC3    H114272   3.369   0.311  11.338  1.1059 -2.9078 -0.2850
    8TMC3    H214273   3.154   0.378  10.975  0.9784 -1.5701 -0.8828
    8TMC3    C714274   3.153   0.452  11.233 -0.1874 -0.4224  0.1648
    8TMC3    C814275   3.101   0.137  10.931 -0.2004 -0.0560  0.3275
    8TMC3    O114276   3.085   0.526  11.162 -0.5147  0.3735  0.6240
    8TMC3    O214277   3.116   0.183  10.816 -0.0940  1.1867 -0.5751
    9MPD2     C14278   2.750   0.078  11.010  0.6012 -0.0942  0.3290
    9MPD2    C114279   2.864   0.062  10.927 -0.6519  0.7998 -0.0578
    9MPD2    C214280   2.846   0.063  10.793 -0.0242  0.3032 -0.2035
    9MPD2    C314281   2.714   0.051  10.744  0.1312  0.2937  0.0507
    9MPD2    C414282   2.604   0.041  10.823  0.3585 -0.1111  0.1994
    9MPD2    C514283   2.622   0.058  10.960 -0.0490  0.5914  0.0065
    9MPD2     H14284   2.927   0.065  10.721  0.4723 -0.2443  0.3501
    9MPD2    H114285   2.509   0.004  10.787  2.1362 -1.2738 -3.3206
    9MPD2    H214286   2.758   0.091  11.118  0.7964 -0.6643  0.3819
    9MPD2    H314287   2.541   0.042  11.029 -0.7593  0.0831 -0.9377
    9MPD2     N14288   2.686   0.030  10.609  0.0746  0.6035 -0.5389
    9MPD2    H514289   2.596   0.002  10.572 -0.0214  0.1683  0.0289
    9MPD2    N114290   2.986   0.086  10.991 -0.3381 -0.0238  0.3641
    9MPD2    H714291   2.982   0.089  11.093 -3.4170  0.0246  0.2467
    1MPD1     C14292   3.095   3.195  16.046  0.5029 -1.1587  0.1122
    1MPD1    C114293   3.149   3.233  16.165  0.1896  0.2234  0.1966
    1MPD1    C214294   3.088   3.338  16.231  0.4014 -0.3711 -0.6294
    1MPD1    C314295   2.975   3.406  16.179  0.4115  0.0030  0.6605
    1MPD1    C414296   2.923   3.360  16.062 -0.0615  0.3657 -0.9994
    1MPD1    C514297   2.979   3.257  15.998 -0.4329 -0.0721  0.3132
    1MPD1     H14298   3.122   3.379  16.326 -1.8817 -1.5609  0.7122
    1MPD1    H114299   2.839   3.409  16.014  0.9436  1.5326 -1.5467
    1MPD1    H214300   3.128   3.106  15.993  1.4510 -2.3699  2.7299
    1MPD1    H314301   2.936   3.215  15.908  1.9276 -1.8873  0.0215
    1MPD1     N14302   2.910   3.518  16.246  0.2263 -0.3576 -0.0531
    1MPD1    H514303   2.824   3.547  16.200  1.0861  2.1143 -0.0976
    1MPD1    N114304   3.277   3.185  16.210  0.0577 -0.2325  0.4130
    1MPD1    H614305   3.292   3.090  16.177 -0.5351 -0.1854  0.0237
    1MPD1    H714306   3.272   3.196  16.312 -0.7425  1.7285  0.1542
    2TMC2    C114307   2.633   3.766  16.367 -0.0807  0.3926  0.5311
    2TMC2    C214308   2.634   3.817  16.501 -0.4766  0.1755 -0.6694
    2TMC2    C314309   2.752   3.798  16.565 -1.1181  0.1878  0.1140
    2TMC2    C414310   2.726   3.677  16.324 -0.3087  0.0635  0.2557
    2TMC2    C514311   2.844   3.669  16.396 -0.4508  0.0988  0.1087
    2TMC2    C614312   2.857   3.723  16.519 -0.3206  0.2892  0.1192
    2TMC2     C14313   2.509   3.772  16.282  0.1873  0.2124 -0.0904
    2TMC2     O14314   2.502   3.717  16.171 -0.4799  0.3621  0.1806
    2TMC2     H14315   2.555   3.883  16.537  0.9841  1.3691  0.3115
    2TMC2    H114316   2.709   3.646  16.222  1.4504 -0.2474  0.0517
    2TMC2    H214317   2.949   3.727  16.575 -0.3595  0.8697  0.1425
    2TMC2    C714318   2.944   3.574  16.361 -0.0777 -0.0803  0.4099
    2TMC2    C814319   2.771   3.859  16.695 -0.3834 -0.4816  0.2969
    2TMC2    O114320   3.045   3.557  16.429  0.3113 -0.0409 -0.3157
    2TMC2    O214321   2.735   3.972  16.725 -0.4110  0.3446  0.0301
    2TMC2    O514322   2.813   3.758  16.771 -0.0472 -0.4161 -0.0645
    2TMC2    H514323   2.822   3.670  16.728 -0.9388  0.4088 -1.9292
    3MPD1     C14324   2.057   3.982  16.193 -0.1862 -0.2811  0.1403
    3MPD1    C114325   2.144   3.933  16.105  0.4121 -0.0730 -0.0996
    3MPD1    C214326   2.255   3.874  16.166  0.8621 -0.9622  0.4578
    3MPD1    C314327   2.292   3.889  16.294  0.2304  0.2517 -0.3790
    3MPD1    C414328   2.209   3.946  16.376  1.4233 -0.6392 -0.2196
    3MPD1    C514329   2.093   3.990  16.325  0.0005 -0.1843 -0.7005
    3MPD1     H14330   2.317   3.820  16.096  1.7675 -1.3830  1.5966
    3MPD1    H114331   2.238   3.973  16.477  2.1137  0.6626 -0.7717
    3MPD1    H214332   1.955   4.008  16.170  0.1010 -0.0554 -0.8792
    3MPD1    H314333   2.014   4.031  16.387 -1.5563 -3.1357 -0.7300
    3MPD1     N14334   2.410   3.831  16.348  0.5891  0.3344 -0.0243
    3MPD1    H514335   2.404   3.829  16.449 -0.7253 -0.6893 -0.1156
    3MPD1    N114336   2.110   3.912  15.970 -0.3636  0.1078  0.4645
    3MPD1    H614337   2.052   3.991  15.942  1.1363  0.6265 -1.1641
    3MPD1    H714338   2.190   3.892  15.911  0.3124 -1.5329  1.9331
    1TMC1    C114339   0.986   2.831  13.167  0.4888  0.4421 -0.7051
    1TMC1    C214340   0.968   2.964  13.187  0.1886  0.2342 -0.2632
    1TMC1    C314341   0.847   3.016  13.175  0.1172  0.2263  0.0031
    1TMC1    C414342   0.872   2.742  13.160 -0.0401  0.2074 -0.7790
    1TMC1    C514343   0.748   2.802  13.171  0.8751  0.4748 -0.3834
    1TMC1    C614344   0.733   2.941  13.167 -1.3479  0.1734 -0.1594
    1TMC1     C14345   1.119   2.772  13.158  0.8127  0.0236  0.2424
    1TMC1     O14346   1.121   2.663  13.112  0.3933 -1.3557  0.0274
    1TMC1     H14347   1.050   3.030  13.160  0.9699  0.1528  1.9492
    1TMC1    H114348   0.885   2.636  13.147  0.6764  0.0242  1.4637
    1TMC1    H214349   0.637   2.989  13.183 -1.2955  0.5109 -0.8607
    1TMC1    C714350   0.650   2.718  13.222 -0.2607 -0.1815 -0.4978
    1TMC1    C814351   0.845   3.155  13.127  0.4974 -0.2196  0.3899
    1TMC1    O114352   0.529   2.733  13.204 -0.6475  0.0199  0.1649
    1TMC1    O214353   0.929   3.241  13.157  0.6519 -0.5018 -0.6098
    1TMC1    O314354   0.706   2.611  13.290  0.2399  0.3609 -0.7428
    1TMC1    H314355   0.793   2.637  13.326 -0.6129  0.9640  0.8983
    1TMC1    O514356   0.727   3.180  13.055 -0.1638 -0.3072 -0.1333
    1TMC1    H514357   0.697   3.100  13.007 -0.0092 -1.0984  1.0784
    2MPD2     C14358   1.389   2.671  13.224  0.6851  0.4781 -0.1503
    2MPD2    C114359   1.334   2.780  13.285 -0.1768 -0.1373 -0.0454
    2MPD2    C214360   1.388   2.837  13.395  0.7939  0.5468  1.0647
    2MPD2    C314361   1.513   2.789  13.439  0.2931  0.3116 -0.3256
    2MPD2    C414362   1.582   2.694  13.364  0.5862  0.0856 -0.1946
    2MPD2    C514363   1.520   2.637  13.259  0.2704 -0.0431  0.0175
    2MPD2     H14364   1.344   2.924  13.441  2.3855  0.7169  2.2660
    2MPD2    H114365   1.677   2.654  13.396  0.9938  1.7185  0.6565
    2MPD2    H214366   1.350   2.621  13.136 -1.1185 -1.1070  1.5419
    2MPD2    H314367   1.564   2.553  13.206  0.6596 -0.8127  1.5390
    2MPD2     N14368   1.578   2.849  13.552  0.0117  0.0591 -0.1715
    2MPD2    H514369   1.519   2.901  13.616  0.6973  0.9966 -0.3080
    2MPD2    N114370   1.208   2.834  13.241 -0.3300 -0.3232  0.2326
    2MPD2    H714371   1.169   2.907  13.299 -1.0616 -1.9200  1.7578
    3TCq1    O114372   2.140   2.985  13.780 -0.6109  0.0577 -0.5047
    3TCq1    C114373   2.067   2.969  13.893  0.5631  0.1463  0.6542
    3TCq1    O214374   2.098   2.910  13.996 -0.0634  0.4217 -0.4378
    3TCq1    C214375   1.925   2.971  13.858  0.6830  0.0410  0.1129
    3TCq1    C314376   1.833   2.968  13.957 -0.3353  0.3209  0.4820
    3TCq1    C414377   1.701   2.948  13.937  0.5686 -0.0913  0.0376
    3TCq1    C514378   1.647   2.930  13.821  0.7236  0.4900 -0.6186
    3TCq1    C614379   1.741   2.917  13.718 -0.0900  0.1801 -0.1685
    3TCq1    C714380   1.878   2.945  13.731 -0.0428 -0.3256  0.0364
    3TCq1    C814381   1.708   2.843  13.594 -0.4849  0.2271 -0.2762
    3TCq1    O414382   1.803   2.792  13.534 -0.1423 -0.3853 -0.9983
    3TCq1    C914383   1.618   2.946  14.054  0.2394 -0.4998 -0.0055
    3TCq1    O514384   1.676   2.948  14.165 -0.1582 -0.1856 -0.3159
    3TCq1    O614385   1.490   2.957  14.039 -0.2313  0.2531  0.5477
    3TCq1    H114386   2.112   3.056  13.719  1.6320  2.2245  0.9960
    3TCq1    H214387   1.873   2.996  14.054 -0.5018  1.3236  0.2610
    3TCq1    H314388   1.545   2.893  13.823  0.1622  2.1172  0.6153
    3TCq1    H414389   1.951   2.940  13.650  1.6088  0.7709  1.4543
    1MPD2     C14390   0.769   4.566  14.949  0.2863 -0.0778  0.0275
    1MPD2    C114391   0.690   4.457  14.920 -0.0698  0.2778 -0.5932
    1MPD2    C214392   0.755   4.335  14.931  1.0332 -0.7139 -0.6795
    1MPD2    C314393   0.884   4.320  14.981 -0.3807 -0.5263  0.2893
    1MPD2    C414394   0.953   4.434  15.026  0.0302 -0.1855  0.0448
    1MPD2    C514395   0.889   4.557  15.006 -0.1784 -0.4456  0.6157
    1MPD2     H14396   0.712   4.238  14.912 -1.5352  0.5289 -1.1379
    1MPD2    H114397   1.046   4.422  15.081  0.2165  2.4059  0.3289
    1MPD2    H214398   0.744   4.669  14.926 -0.5146 -0.0194  1.2031
    1MPD2    H314399   0.942   4.650  15.020 -0.1014  0.1815 -3.9047
    1MPD2     N14400   0.926   4.185  15.005 -0.0755 -0.2183 -0.1553
    1MPD2    H514401   0.865   4.120  14.957  0.2330 -0.6634  0.0517
    1MPD2    N114402   0.552   4.470  14.882  0.6203 -0.2733  0.6506
    1MPD2    H714403   0.523   4.567  14.874 -1.1340 -0.8675 -0.1911
    2TMC3    C114404   0.346   4.403  14.812  0.1605  0.5011  0.5294
    2TMC3    C214405   0.261   4.290  14.815 -0.4023 -0.0623 -0.0122
    2TMC3    C314406   0.197   4.248  14.706  0.1679 -0.2700  0.2804
    2TMC3    C414407   0.352   4.479  14.694  0.2715  0.9855 -1.3214
    2TMC3    C514408   0.270   4.434  14.590  0.4232  0.7433  0.4684
    2TMC3    C614409   0.191   4.322  14.591 -0.9216 -0.1146  0.0510
    2TMC3     C14410   0.469   4.366  14.875  0.4207 -0.4025 -0.1725
    2TMC3     O14411   0.480   4.246  14.896  0.4335 -0.8110  0.4535
    2TMC3     H14412   0.252   4.235  14.908 -0.1539  1.5948  0.9979
    2TMC3    H114413   0.441   4.538  14.675  0.1374  1.5627 -0.1704
    2TMC3    H214414   0.110   4.309  14.520 -0.0246 -3.6174 -0.3534
    2TMC3    C714415   0.266   4.523  14.471  0.8520 -0.1547 -0.3871
    2TMC3    C814416   0.205   4.110  14.674  0.3263  0.2362  0.0945
    2TMC3    O114417   0.189   4.496  14.381 -1.0299 -0.8360 -0.1221
    2TMC3    O214418   0.133   4.057  14.584  0.2161 -0.3088  0.5477
    3TCq1    O114419   0.920   0.757  14.225  0.3273  0.4654 -0.3264
    3TCq1    C114420   0.877   0.814  14.344 -0.1355  0.2912  0.0023
    3TCq1    O214421   0.931   0.906  14.402 -0.0285  0.0987 -0.2139
    3TCq1    C214422   0.812   0.704  14.412 -0.1554 -0.1721  0.6634
    3TCq1    C314423   0.871   0.660  14.522 -0.1706 -0.7950 -0.5757
    3TCq1    C414424   0.847   0.532  14.565 -0.8359  0.8475  0.6522
    3TCq1    C514425   0.769   0.444  14.502  0.6158  0.2287 -0.8521
    3TCq1    C614426   0.708   0.488  14.388  0.5284  0.3346 -0.1144
    3TCq1    C714427   0.731   0.617  14.339 -0.5126  0.4469 -0.1637
    3TCq1    C814428   0.583   0.424  14.337  0.0222 -0.1372 -0.3410
    3TCq1    O414429   0.516   0.484  14.252  0.4627  0.5845 -0.0642
    3TCq1    C914430   0.896   0.501  14.703 -0.6949 -0.5621  0.4662
    3TCq1    O514431   0.814   0.468  14.791  0.1890  0.2068 -0.0846
    3TCq1    O614432   1.001   0.555  14.733  0.5179 -0.0615 -0.8202
    3TCq1    H114433   0.845   0.705  14.188 -1.2700  2.3206  0.2451
    3TCq1    H214434   0.931   0.728  14.581  0.8435 -0.0239 -2.5161
    3TCq1    H314435   0.726   0.366  14.564  2.1274  0.0943  0.0338
    3TCq1    H414436   0.681   0.640  14.246  3.2421  0.6573 -2.1207
    4MPD2     C14437   0.368   0.235  14.253  0.4994  0.1751 -0.0502
    4MPD2    C114438   0.455   0.220  14.357 -0.0385  0.2990  0.0777
    4MPD2    C214439   0.442   0.101  14.431 -0.1581  0.3643  0.8791
    4MPD2    C314440   0.344   0.008  14.411  0.5421  0.1449 -0.0187
    4MPD2    C414441   0.269   0.017  14.301 -0.7012  0.2050 -0.2467
    4MPD2    C514442   0.282   0.129  14.221  0.3732  0.1879  0.0812
    4MPD2     H14443   0.508   0.086  14.516 -0.1702 -1.7002  0.5259
    4MPD2    H114444   0.190   4.683  14.273  0.8698 -1.1244 -1.4372
    4MPD2    H214445   0.378   0.313  14.179 -3.2598  0.3629 -0.4040
    4MPD2    H314446   0.222   0.136  14.131 -0.9153 -0.7897  0.8535
    4MPD2     N14447   0.336   4.637  14.501 -0.2919  0.2918  0.2091
    4MPD2    H514448   0.394   4.647  14.583 -2.4102  0.5200  1.6871
    4MPD2    N114449   0.555   0.309  14.401  0.1137  0.1052  0.1374
    4MPD2    H714450   0.622   0.281  14.473 -0.3568 -0.5008  0.3407
    5TMC2    C114451   0.870   3.854  14.978 -0.2107  0.7311  0.2795
    5TMC2    C214452   0.838   3.801  15.105 -0.0371 -0.3731 -0.4954
    5TMC2    C314453   0.918   3.850  15.208 -0.1545 -0.2497  0.5817
    5TMC2    C414454   0.970   3.947  14.966 -0.2851  0.1348 -0.3080
    5TMC2    C514455   1.041   3.997  15.075 -0.5827 -0.2534  0.3851
    5TMC2    C614456   1.014   3.940  15.193 -0.2798  0.3143  0.2419
    5TMC2     C14457   0.762   3.884  14.894  0.0685 -0.2200  0.4406
    5TMC2     O14458   0.768   3.993  14.848  0.4055  0.1485 -0.6455
    5TMC2     H14459   0.770   3.717  15.116 -0.9777  0.4406 -0.0574
    5TMC2    H114460   0.994   3.983  14.867 -0.9295  1.1385 -0.0960
    5TMC2    H214461   1.072   3.974  15.278  1.1193  1.8332 -1.3074
    5TMC2    C714462   1.028   4.145  15.080  0.6351  0.1590 -0.3439
    5TMC2    C814463   0.885   3.829  15.345 -1.0316  0.2662 -0.1787
    5TMC2    O114464   1.104   4.201  15.153  0.7452 -0.4551  0.0837
    5TMC2    O214465   0.949   3.745  15.405 -0.0360 -0.2386 -0.1456
    5TMC2    O514466   0.754   3.846  15.348  0.1593  0.2304  0.3862
    5TMC2    H514467   0.732   3.928  15.298 -1.5675 -0.3972  0.0878
    6MPD2     C14468   0.278   3.837  14.724  0.4395 -0.4450  0.2599
    6MPD2    C114469   0.363   3.936  14.747 -0.2195  0.2448 -0.4841
    6MPD2    C214470   0.492   3.921  14.791 -0.8181  0.5781  0.2943
    6MPD2    C314471   0.545   3.800  14.821 -0.0651  0.0440  0.5193
    6MPD2    C414472   0.462   3.694  14.797  0.1667  0.3364 -0.2910
    6MPD2    C514473   0.336   3.712  14.740  0.2590  0.5466 -0.8303
    6MPD2     H14474   0.547   4.009  14.820  0.3475 -0.1742  0.3600
    6MPD2    H114475   0.496   3.594  14.821 -0.4748  0.0098 -0.7459
    6MPD2    H214476   0.170   3.846  14.712  0.8524  2.4455 -1.3943
    6MPD2    H314477   0.281   3.620  14.724  0.9757  0.1777 -1.1654
    6MPD2     N14478   0.669   3.782  14.887 -0.5256 -0.1264 -0.9205
    6MPD2    H514479   0.692   3.693  14.930  0.6903  0.4315 -0.4306
    6MPD2    N114480   0.318   4.069  14.733  0.1300 -0.8872  0.0114
    6MPD2    H714481   0.380   4.142  14.769 -0.5727 -1.1066  1.6415
  945NH4     N114482   4.032   1.872  11.618  0.5285 -0.0138 -0.6005
  945NH4     H214483   3.985   1.902  11.531  1.6930 -0.0216 -1.2449
  945NH4     H314484   4.116   1.814  11.593  0.2225  0.8428 -3.6047
  945NH4     H414485   3.961   1.816  11.670  1.8731 -3.4738 -2.4691
  945NH4     H514486   4.053   1.956  11.676  2.1417  1.1254 -2.8339
  946SOD     NA14487   3.456   3.731   7.920 -0.0778  0.0319 -0.4020
  947SOD     NA14488   2.179   1.547  14.245 -0.1753  0.2737 -0.3570
  948SOD     NA14489   4.049   2.124  13.218  0.0798 -0.0922  0.3810
  949SOD     NA14490   0.655   3.400  15.591  0.1844  0.4866 -0.3811
  950SOD     NA14491   1.650   0.370  11.145  0.8075 -0.4163 -0.4342
  951SOD     NA14492   2.943   2.018  16.968 -0.3972  0.6749  0.2709
  952SOD     NA14493   0.817   3.140  11.299 -0.2160 -0.1824 -0.1506
  953SOL     OW14494   0.062   2.257   6.606  0.8198  0.4645 -0.2807
  953SOL    HW114495   0.043   2.349   6.587 -0.0065  0.1651 -0.8829
  953SOL    HW214496   4.722   2.230   6.661  1.2730 -0.4847 -0.1280
  954SOL     OW14497   3.676   0.774   3.511  0.3302  0.2782 -0.1377
  954SOL    HW114498   3.670   0.867   3.533 -1.1217 -0.1719  1.4610
  954SOL    HW214499   3.767   0.767   3.538 -0.3150 -1.7387  1.5265
  955SOL     OW14500   0.039   0.302   5.037 -0.8775  0.0544  0.2767
  955SOL    HW114501   0.073   0.387   5.065 -1.3453  0.3980 -0.2173
  955SOL    HW214502   0.114   0.251   5.070 -0.9209 -0.8428 -0.9707
  956SOL     OW14503   3.476   1.467  17.560  0.1081 -0.0502 -0.0716
  956SOL    HW114504   3.441   1.404  17.622 -2.5988 -0.3613 -1.9252
  956SOL    HW214505   3.449   1.549  17.601  0.1931 -0.2254  0.3370
  957SOL     OW14506   1.692   1.029   9.432 -0.0255 -0.2802 -0.0091
  957SOL    HW114507   1.605   1.052   9.465  0.5269 -0.6246  1.6521
  957SOL    HW214508   1.676   0.950   9.381 -1.4177  0.8128 -1.2734
  958SOL     OW14509   2.901   3.632   7.521 -0.4221  0.2332 -0.1159
  958SOL    HW114510   2.979   3.621   7.466  0.0794 -2.4847  1.1349
  958SOL    HW214511   2.871   3.720   7.496 -1.2199 -0.2018 -0.6689
  959SOL     OW14512   3.713   2.336  15.214 -0.0107 -1.1290  0.2877
  959SOL    HW114513   3.781   2.394  15.248 -0.0489 -0.3227 -1.0137
  959SOL    HW214514   3.749   2.322  15.127 -1.9234 -0.3422 -0.6329
  960SOL     OW14515   3.962   2.063  13.825 -0.3852 -0.5013  0.1380
  960SOL    HW114516   3.963   1.967  13.829  2.8310 -0.5250 -1.0128
  960SOL    HW214517   3.885   2.076  13.770  0.0950  0.3500 -0.3193
  961SOL     OW14518   2.493   0.511  11.015 -0.1407  0.1267 -0.3842
  961SOL    HW114519   2.433   0.560  11.070 -1.6464 -1.0857 -0.9465
  961SOL    HW214520   2.531   0.459  11.086 -0.7503  0.6804  0.3543
  962SOL     OW14521   2.794   1.225   8.500 -0.0134  0.0020 -0.1248
  962SOL    HW114522   2.733   1.231   8.426 -0.1809  1.0333  0.0993
  962SOL    HW214523   2.829   1.137   8.483 -0.0931 -0.1581  0.5457
  963SOL     OW14524   1.960   2.447  13.311  0.4987  0.2059 -0.5936
  963SOL    HW114525   1.902   2.468  13.237 -1.7901 -1.8701  0.6124
  963SOL    HW214526   1.951   2.352  13.302 -1.1317  0.4367 -1.3865
  964SOL     OW14527   4.438   4.405   6.423  0.7402  0.0674  0.3365
  964SOL    HW114528   4.522   4.405   6.378  0.0056  0.6354 -1.0644
  964SOL    HW214529   4.398   4.323   6.394  1.8607  0.3658 -2.0702
  965SOL     OW14530   2.981   2.669   2.612 -0.4144  0.0354 -0.2891
  965SOL    HW114531   3.025   2.745   2.651 -3.1380  1.7226 -0.5055
  965SOL    HW214532   3.035   2.663   2.533  1.0586  1.4678  0.5863
  966SOL     OW14533   0.203   2.072   1.301  1.0143  0.1165 -0.7001
  966SOL    HW114534   0.197   1.992   1.353  0.1549  0.1293 -0.7841
  966SOL    HW214535   0.253   2.124   1.364  1.1016  0.3603 -0.9734
  967SOL     OW14536   3.907   3.391  15.230  0.0543 -0.8147  0.5987
  967SOL    HW114537   3.902   3.486  15.217  1.6486 -0.7049  0.7538
  967SOL    HW214538   4.000   3.376  15.215 -0.0514 -0.5769 -0.2931
  968SOL     OW14539   3.651   3.855  12.352  0.4122 -0.2291  0.4945
  968SOL    HW114540   3.712   3.925  12.377  1.0660 -0.5894 -0.0984
  968SOL    HW214541   3.712   3.782  12.367  1.0205  0.3449  0.8404
  969SOL     OW14542   2.208   2.135   7.850 -0.1509 -0.1146 -0.2726
  969SOL    HW114543   2.114   2.117   7.854 -0.6119  1.8508 -1.9728
  969SOL    HW214544   2.231   2.126   7.942 -2.1411 -0.2393  0.2115
  970SOL     OW14545   2.684   2.440   5.410 -0.0897 -0.3703 -0.1567
  970SOL    HW114546   2.708   2.387   5.334  0.5464 -0.6015  0.2074
  970SOL    HW214547   2.743   2.397   5.471  0.2731  1.3718  0.7408
  971SOL     OW14548   3.239   3.662  12.413  0.1821 -0.4250  0.0235
  971SOL    HW114549   3.174   3.714  12.366 -0.9438 -2.2648 -0.4368
  971SOL    HW214550   3.216   3.571  12.394 -2.1287 -0.1824  1.5927
  972SOL     OW14551   4.395   2.518   3.056  0.0664  0.9549 -0.0237
  972SOL    HW114552   4.379   2.505   3.149  1.4041 -0.9136 -0.0554
  972SOL    HW214553   4.338   2.453   3.016  1.0266  0.6281 -0.8627
  973SOL     OW14554   0.674   2.678   8.006 -0.1955  0.1838  0.3554
  973SOL    HW114555   0.757   2.634   8.020  0.4271  0.6207 -1.8667
  973SOL    HW214556   0.663   2.643   7.917 -2.3263  1.4388  0.1224
  974SOL     OW14557   4.321   3.995   2.226  0.3930  0.4262 -0.2274
  974SOL    HW114558   4.417   3.995   2.225  0.3822  0.6161 -0.8444
  974SOL    HW214559   4.310   4.055   2.300  0.2549 -0.1431  0.2175
  975SOL     OW14560   3.189   2.405  11.245 -0.1428  0.4903 -0.1617
  975SOL    HW114561   3.126   2.460  11.291  0.1175  0.5594  0.1158
  975SOL    HW214562   3.184   2.429  11.153  1.4210  0.9875 -0.1241
  976SOL     OW14563   0.455   2.291   7.224 -0.4660  0.0486 -0.1370
  976SOL    HW114564   0.404   2.244   7.157 -2.1657 -0.6946  1.6731
  976SOL    HW214565   0.406   2.259   7.300  0.1925  1.3049  0.8060
  977SOL     OW14566   3.448   3.381   3.174  0.0794 -0.0157  0.0395
  977SOL    HW114567   3.535   3.418   3.188 -0.5400  0.9033  1.4285
  977SOL    HW214568   3.472   3.304   3.122  0.1108  0.3126 -0.4419
  978SOL     OW14569   0.667   2.186   6.713  0.0958  0.2103  0.1344
  978SOL    HW114570   0.738   2.143   6.760  1.0932  1.3544 -0.3201
  978SOL    HW214571   0.599   2.127   6.746 -1.2174  2.2621  1.1178
  979SOL     OW14572   3.028   0.995   7.341 -0.1281  0.0253  0.2448
  979SOL    HW114573   2.952   0.940   7.323  0.9682 -0.9230 -1.5157
  979SOL    HW214574   3.097   0.940   7.304  0.0578  0.6044 -0.2711
  980SOL     OW14575   3.776   0.664   0.231  0.7300 -0.1907 -0.2547
  980SOL    HW114576   3.852   0.691   0.283  0.2091  2.2004 -0.7283
  980SOL    HW214577   3.716   0.650   0.304 -0.3325 -1.2476 -1.3221
  981SOL     OW14578   1.426   3.560   5.581  0.0702 -0.3932  0.5973
  981SOL    HW114579   1.479   3.540   5.504 -2.3355 -2.3953 -0.5317
  981SOL    HW214580   1.471   3.637   5.615 -0.4201  1.6276 -3.2941
  982SOL     OW14581   1.121   4.083   4.206  0.4814 -0.3675  0.1622
  982SOL    HW114582   1.130   3.989   4.191 -0.3298 -0.0174 -2.4908
  982SOL    HW214583   1.056   4.083   4.276 -0.3647 -0.8827 -0.6396
  983SOL     OW14584   0.553   0.915  11.884  0.1714  0.4445  0.4495
  983SOL    HW114585   0.484   0.981  11.887 -0.5549 -0.2941  0.0642
  983SOL    HW214586   0.608   0.942  11.810  0.1266  0.1730  0.3192
  984SOL     OW14587   4.378   3.824   3.204  0.1376 -0.2013  0.0341
  984SOL    HW114588   4.468   3.844   3.179 -0.1228  0.6778 -0.1883
  984SOL    HW214589   4.334   3.903   3.173 -1.3146  0.1606  3.0104
  985SOL     OW14590   3.239   3.346   2.847  0.5111  0.1907  0.0417
  985SOL    HW114591   3.176   3.372   2.915  1.4871  2.4993  0.0628
  985SOL    HW214592   3.206   3.395   2.772 -0.9971  2.6137  2.2757
  986SOL     OW14593   0.537   3.295   0.918 -0.2711  0.0411 -0.0108
  986SOL    HW114594   0.453   3.251   0.914  0.3281 -0.9689 -1.4143
  986SOL    HW214595   0.601   3.224   0.914 -0.3816  0.1322 -3.6243
  987SOL     OW14596   0.222   4.449   6.190  0.7910  0.1128 -0.2807
  987SOL    HW114597   0.250   4.473   6.278  0.0092  1.5043 -0.4075
  987SOL    HW214598   0.305   4.412   6.160  1.9877  0.4937  2.5316
  988SOL     OW14599   3.033   0.127   5.598 -0.9291 -0.5140  0.3235
  988SOL    HW114600   3.079   0.176   5.667 -1.3087 -1.6767  1.3843
  988SOL    HW214601   2.991   0.192   5.542 -0.3628 -0.4718 -0.0582
  989SOL     OW14602   4.336   2.195   6.268 -0.0321 -0.2096 -0.3697
  989SOL    HW114603   4.317   2.137   6.342 -0.9737  0.1579 -0.3158
  989SOL    HW214604   4.379   2.273   6.302 -0.1777 -0.0281 -0.6023
  990SOL     OW14605   1.101   2.407   4.358  0.4122  0.1470  0.2149
  990SOL    HW114606   1.105   2.458   4.277  1.1344 -0.3534 -0.0657
  990SOL    HW214607   1.008   2.413   4.381  0.0227  0.3885 -1.4310
  991SOL     OW14608   0.816   4.070   1.235  0.1362 -0.5089 -0.0959
  991SOL    HW114609   0.790   4.162   1.226  3.7291  0.5820  0.3584
  991SOL    HW214610   0.758   4.031   1.170  0.2918  0.5821 -0.9047
  992SOL     OW14611   0.986   4.251  11.120  0.1788  0.0039 -0.1808
  992SOL    HW114612   0.961   4.256  11.027  1.0587 -0.8994 -0.4793
  992SOL    HW214613   1.025   4.163  11.117 -1.8994 -0.8671 -2.3740
  993SOL     OW14614   3.585   1.149   2.159 -0.3218  0.3465  0.0680
  993SOL    HW114615   3.535   1.173   2.081 -0.3073  0.4386  0.0861
  993SOL    HW214616   3.536   1.088   2.213 -3.3732  2.4987 -0.2186
  994SOL     OW14617   0.703   1.305   7.888  0.1394 -0.0203  0.2188
  994SOL    HW114618   0.743   1.389   7.912  0.5740  0.0566 -0.7548
  994SOL    HW214619   0.725   1.255   7.967  2.9317 -1.6608 -1.5714
  995SOL     OW14620   2.379   3.018   7.179  0.6835  0.1755 -0.1123
  995SOL    HW114621   2.328   3.077   7.235 -0.1316 -0.5785 -0.0661
  995SOL    HW214622   2.353   2.929   7.203 -1.3345  1.2670  1.7726
  996SOL     OW14623   0.549   3.110  12.362 -0.3056  0.6367 -0.1706
  996SOL    HW114624   0.487   3.177  12.332 -0.2372  0.1168 -1.4943
  996SOL    HW214625   0.623   3.156  12.401  0.5144  0.1910 -1.1948
  997SOL     OW14626   2.434   4.257   2.322  0.0612  0.2368 -0.2873
  997SOL    HW114627   2.521   4.258   2.360 -0.4742 -2.2508  0.9758
  997SOL    HW214628   2.388   4.321   2.377 -1.8446 -0.9372 -0.4980
  998SOL     OW14629   4.455   1.189   0.177  0.3846 -0.2527 -0.0299
  998SOL    HW114630   4.465   1.115   0.117  0.3996  0.2889 -0.6843
  998SOL    HW214631   4.408   1.251   0.122 -1.4583 -1.8624 -0.2971
  999SOL     OW14632   0.541   2.435   4.105  0.5480  0.5770 -0.0323
  999SOL    HW114633   0.502   2.386   4.177 -1.3859  2.7218  0.3886
  999SOL    HW214634   0.583   2.513   4.142  0.9675 -0.3943  1.5125
 1000SOL     OW14635   4.089   2.801   5.729  0.2844  0.6172 -0.2007
 1000SOL    HW114636   4.051   2.887   5.748  1.8596  1.4332 -0.7917
 1000SOL    HW214637   4.147   2.801   5.805  0.6220  1.0061 -0.4620
 1001SOL     OW14638   0.269   0.781   7.824 -0.1981 -0.4308  0.3032
 1001SOL    HW114639   0.322   0.806   7.900 -0.3690 -0.6720  0.4980
 1001SOL    HW214640   0.269   0.689   7.848  0.1058 -0.8727 -1.4012
 1002SOL     OW14641   2.182   0.436   3.121 -0.3240  0.4636  0.1269
 1002SOL    HW114642   2.264   0.391   3.099  0.0670  0.4664  1.6154
 1002SOL    HW214643   2.147   0.448   3.033 -0.7941 -0.1164  0.2304
 1003SOL     OW14644   3.951   1.708   2.370 -0.1050  0.6828 -0.1504
 1003SOL    HW114645   3.942   1.662   2.287  3.1686 -1.0834  0.4442
 1003SOL    HW214646   3.863   1.739   2.390  0.0955  1.1831 -0.0506
 1004SOL     OW14647   2.514   4.619  15.323  0.1037 -0.3490 -0.2510
 1004SOL    HW114648   2.564   4.579  15.394  2.5585 -0.7950 -2.2159
 1004SOL    HW214649   2.484   4.698  15.368 -1.4485 -0.5324 -0.9646
 1005SOL     OW14650   0.680   1.417   8.697  0.1401  0.6043  0.0922
 1005SOL    HW114651   0.671   1.322   8.688  1.9333  0.5418 -1.0773
 1005SOL    HW214652   0.668   1.431   8.791 -1.6554  1.1538 -0.2157
 1006SOL     OW14653   1.848   3.367   8.541  0.1580  0.1590  0.0915
 1006SOL    HW114654   1.791   3.305   8.586 -0.3260  1.8778  1.9047
 1006SOL    HW214655   1.931   3.348   8.585  0.9862  0.5171 -1.3334
 1007SOL     OW14656   4.236   0.599   1.390 -0.1826 -0.4244 -0.4194
 1007SOL    HW114657   4.277   0.522   1.429 -1.4966  1.0482  3.9424
 1007SOL    HW214658   4.183   0.628   1.464  0.6651 -2.0120  0.8048
 1008SOL     OW14659   3.565   1.613   5.968 -0.1597  0.1031  0.5541
 1008SOL    HW114660   3.619   1.671   6.023  1.2066  0.7693 -1.5108
 1008SOL    HW214661   3.624   1.538   5.965 -0.2658  0.0009  1.0149
 1009SOL     OW14662   2.208   4.647   5.314 -0.1410 -0.2534  0.0874
 1009SOL    HW114663   2.272   4.596   5.363 -1.0191 -1.2645  0.1968
 1009SOL    HW214664   2.125   4.627   5.357 -0.1012 -3.1408 -1.2140
 1010SOL     OW14665   3.319   0.910   1.880  0.6094 -0.2713 -0.4302
 1010SOL    HW114666   3.342   0.866   1.962  1.5586  2.1913  0.6467
 1010SOL    HW214667   3.300   0.835   1.824  0.5965 -0.9909  0.5324
 1011SOL     OW14668   2.038   4.107   3.740  0.0009  0.0544 -0.0866
 1011SOL    HW114669   2.075   4.069   3.659 -1.9073 -1.2710 -0.3521
 1011SOL    HW214670   2.039   4.199   3.715 -2.1423  0.1884  0.2932
 1012SOL     OW14671   0.989   4.267   5.927  0.8890  0.1019  0.1259
 1012SOL    HW114672   1.025   4.355   5.930 -1.4603  1.1229 -0.8836
 1012SOL    HW214673   0.962   4.277   5.835  1.1659  0.8446  0.1254
 1013SOL     OW14674   0.925   2.058   2.093  0.0027 -0.0370  0.5143
 1013SOL    HW114675   0.870   2.092   2.164 -0.1074 -1.2894  1.0154
 1013SOL    HW214676   0.854   2.013   2.049 -0.5225  0.3981  0.9138
 1014SOL     OW14677   2.346   3.640  17.535 -0.1448 -0.6577 -0.6910
 1014SOL    HW114678   2.290   3.683  17.599  1.0334 -0.9499  0.5295
 1014SOL    HW214679   2.333   3.549  17.561 -1.9579  0.2630  1.6025
 1015SOL     OW14680   2.415   0.875   2.193  0.3206 -0.0002  0.5180
 1015SOL    HW114681   2.396   0.847   2.104 -1.3700 -1.8497  1.4771
 1015SOL    HW214682   2.327   0.891   2.227  0.6760  1.1734  0.8824
 1016SOL     OW14683   2.069   4.231  17.151  0.1535  0.3530 -0.3119
 1016SOL    HW114684   2.160   4.204  17.147 -0.8856 -2.9750 -1.2258
 1016SOL    HW214685   2.027   4.153  17.116  0.8372  0.1523 -0.6650
 1017SOL     OW14686   0.519   3.221  15.534  0.4572  0.1217  0.4220
 1017SOL    HW114687   0.440   3.193  15.580 -0.0559 -1.0013 -1.1530
 1017SOL    HW214688   0.551   3.132  15.520  1.9978  0.8347 -0.6462
 1018SOL     OW14689   2.687   4.203   7.223 -0.0579  0.0075 -0.1062
 1018SOL    HW114690   2.618   4.265   7.200  0.4435  0.1738 -1.1683
 1018SOL    HW214691   2.692   4.191   7.318  1.5117  0.7210 -0.1031
 1019SOL     OW14692   1.792   3.210   8.080 -0.2848  0.4103  0.1284
 1019SOL    HW114693   1.885   3.189   8.082 -0.3490 -0.0432 -2.1535
 1019SOL    HW214694   1.790   3.283   8.018 -0.1250 -0.0409 -0.4102
 1020SOL     OW14695   1.753   3.920   2.798 -0.0851 -0.3138  0.3708
 1020SOL    HW114696   1.749   3.825   2.795 -0.5118 -0.2856  0.0172
 1020SOL    HW214697   1.658   3.934   2.800  0.1341  1.2842 -0.2432
 1021SOL     OW14698   2.538   1.429   8.458 -0.5211 -0.4193 -0.1952
 1021SOL    HW114699   2.475   1.459   8.392 -0.0121  1.0455 -0.0128
 1021SOL    HW214700   2.584   1.354   8.418 -1.7194  0.1708 -2.6907
 1022SOL     OW14701   1.163   3.897  13.368  0.3372 -0.8193 -0.1703
 1022SOL    HW114702   1.091   3.942  13.323  1.3974  0.9275 -0.0653
 1022SOL    HW214703   1.139   3.804  13.380  0.8497 -0.6550  2.1346
 1023SOL     OW14704   1.744   3.405   7.910 -0.0312 -0.0432 -0.4927
 1023SOL    HW114705   1.761   3.487   7.957  2.7948  0.2004 -1.9859
 1023SOL    HW214706   1.652   3.423   7.891 -0.0354  1.2519  0.7379
 1024SOL     OW14707   2.644   0.453   4.605  1.0296 -0.2823 -0.0805
 1024SOL    HW114708   2.673   0.391   4.539  0.5704  0.9922 -1.4702
 1024SOL    HW214709   2.634   0.400   4.684  2.9171  0.9934  1.0113
 1025SOL     OW14710   3.525   3.766   3.127 -0.4363 -0.1551 -0.4020
 1025SOL    HW114711   3.434   3.737   3.133 -0.9223  1.0388 -2.1510
 1025SOL    HW214712   3.504   3.851   3.165 -1.3122  0.2867 -1.8784
 1026SOL     OW14713   2.288   1.464   8.028 -0.0031 -0.0604 -0.0333
 1026SOL    HW114714   2.363   1.516   8.057 -1.3837  2.0024 -0.1714
 1026SOL    HW214715   2.265   1.509   7.947 -1.5806  0.6203  0.7905
 1027SOL     OW14716   1.729   3.299   9.116  0.1924 -0.3490 -0.0478
 1027SOL    HW114717   1.736   3.279   9.022 -3.5222  3.1782 -1.0610
 1027SOL    HW214718   1.635   3.311   9.131 -0.1291 -1.6705 -1.0525
 1028SOL     OW14719   3.465   0.006   7.487 -0.1724  0.0225  0.2280
 1028SOL    HW114720   3.379   0.001   7.527 -0.1619  1.6411  0.4335
 1028SOL    HW214721   3.497   0.085   7.530 -0.1495 -0.4667  1.0953
 1029SOL     OW14722   1.734   3.034  17.633 -0.3516 -0.5240  0.3534
 1029SOL    HW114723   1.661   2.979  17.661 -1.9703  0.9759 -0.9400
 1029SOL    HW214724   1.689   3.115  17.609 -0.1879 -0.2864  0.8439
 1030SOL     OW14725   2.860   0.819   4.926  0.0505  0.2926 -0.0866
 1030SOL    HW114726   2.802   0.883   4.886 -1.2974 -2.3505 -2.3846
 1030SOL    HW214727   2.800   0.786   4.993  0.6417  0.0428  0.3217
 1031SOL     OW14728   2.332   0.771   5.870 -0.0078  0.7834 -0.2337
 1031SOL    HW114729   2.363   0.726   5.791 -0.5093  1.0973 -0.6105
 1031SOL    HW214730   2.291   0.849   5.832  0.8271  1.2259 -0.2141
 1032SOL     OW14731   2.036   2.100   2.824  0.3362  0.0248 -0.9087
 1032SOL    HW114732   1.964   2.138   2.875  0.9016 -3.5172  2.5061
 1032SOL    HW214733   2.086   2.178   2.804 -1.5074  1.2385 -0.7971
 1033SOL     OW14734   0.893   1.866   2.793  0.0073  0.0504  0.3764
 1033SOL    HW114735   0.977   1.901   2.825  0.7471 -1.5580  0.1778
 1033SOL    HW214736   0.920   1.857   2.701 -1.9137 -0.3515 -0.1391
 1034SOL     OW14737   3.829   4.683   5.464  0.4124 -0.6173 -0.2421
 1034SOL    HW114738   3.742   4.721   5.475  1.1269  1.0614 -0.4608
 1034SOL    HW214739   3.855   4.721   5.380  2.0461 -0.3407  0.3898
 1035SOL     OW14740   4.000   3.706   9.830  0.2022 -0.2026 -0.6404
 1035SOL    HW114741   3.993   3.785   9.776  0.9091  0.3358  0.0581
 1035SOL    HW214742   3.996   3.734   9.922 -0.0019  1.6423 -1.2034
 1036SOL     OW14743   2.650   2.185   3.854 -0.0224 -0.3281  0.3964
 1036SOL    HW114744   2.649   2.257   3.791  2.1632 -0.2572  0.4460
 1036SOL    HW214745   2.699   2.226   3.925  0.5167 -1.7706  0.8703
 1037SOL     OW14746   2.106   1.684   4.972  0.0704  0.3647  0.3590
 1037SOL    HW114747   2.040   1.748   4.945  0.7875  2.7110  4.1372
 1037SOL    HW214748   2.055   1.630   5.032  2.0764  1.1964  2.8068
 1038SOL     OW14749   3.745   4.224   2.831  0.0181  0.6016  0.4087
 1038SOL    HW114750   3.793   4.194   2.754  0.2788  0.6457  0.5576
 1038SOL    HW214751   3.678   4.157   2.816  0.1474  0.1509  1.8763
 1039SOL     OW14752   1.683   2.776   2.366  0.4769  0.3639 -0.2153
 1039SOL    HW114753   1.763   2.809   2.324 -0.1455  1.2749 -0.6935
 1039SOL    HW214754   1.716   2.781   2.456  1.0346  0.2516 -0.4123
 1040SOL     OW14755   4.081   0.234   9.691  0.8236 -0.4567 -0.2890
 1040SOL    HW114756   4.030   0.308   9.657  2.0938 -0.7084 -2.7794
 1040SOL    HW214757   4.165   0.278   9.704  0.6328 -0.0117 -0.5214
 1041SOL     OW14758   4.325   2.914   3.768 -0.5322 -0.0826 -0.1053
 1041SOL    HW114759   4.354   2.937   3.679  2.0673  5.2493  2.0823
 1041SOL    HW214760   4.237   2.879   3.756 -0.7318  0.6146 -0.6745
 1042SOL     OW14761   1.471   4.474   4.602  0.0403  0.1306 -0.2441
 1042SOL    HW114762   1.513   4.486   4.517 -1.0430  1.2182 -0.6333
 1042SOL    HW214763   1.483   4.381   4.619  1.3857  0.2670 -0.4675
 1043SOL     OW14764   0.320   1.313   6.054 -0.4779 -0.1296  1.1586
 1043SOL    HW114765   0.341   1.375   6.125 -0.2032 -0.1349  1.0822
 1043SOL    HW214766   0.403   1.280   6.020 -1.5326 -0.6109 -0.8892
 1044SOL     OW14767   2.012   2.652   7.067 -0.0740 -0.5091 -0.4059
 1044SOL    HW114768   2.078   2.585   7.047 -0.8510 -1.3137 -0.3005
 1044SOL    HW214769   1.955   2.655   6.990  2.5731  1.4054 -2.2656
 1045SOL     OW14770   3.869   0.733  10.449  0.3576  0.3639  0.0327
 1045SOL    HW114771   3.804   0.802  10.463  0.9801  1.3485 -1.9284
 1045SOL    HW214772   3.942   0.785  10.482 -0.8468  1.1743  1.4011
 1046SOL     OW14773   0.821   0.789   7.705  0.4237  0.1525 -0.1383
 1046SOL    HW114774   0.854   0.872   7.738  0.3769  0.0798  0.0871
 1046SOL    HW214775   0.750   0.771   7.767  0.2152  2.8067  0.3832
 1047SOL     OW14776   4.579   1.180   5.966  0.8601 -0.2207  0.1182
 1047SOL    HW114777   4.554   1.132   6.045  0.3620  0.1029  0.1513
 1047SOL    HW214778   4.519   1.253   5.977 -1.1582 -1.9477  0.6200
 1048SOL     OW14779   2.576   0.925  13.316  0.4657 -0.1286  0.4344
 1048SOL    HW114780   2.658   0.875  13.318  0.0751 -0.8632 -3.0975
 1048SOL    HW214781   2.550   0.923  13.408 -0.9976  0.1022  0.0135
 1049SOL     OW14782   0.254   1.796   1.886 -0.3790  0.1508 -0.4176
 1049SOL    HW114783   0.313   1.721   1.894  2.1567  1.8504 -3.0830
 1049SOL    HW214784   0.296   1.850   1.953  1.6887 -0.4228 -1.2339
 1050SOL     OW14785   3.815   3.741   6.226 -0.0848 -0.3503 -0.2608
 1050SOL    HW114786   3.887   3.705   6.278 -0.9510 -0.4489  0.8413
 1050SOL    HW214787   3.849   3.830   6.214  1.7837 -0.8771  1.1748
 1051SOL     OW14788   2.866   3.518   5.869  0.0921  0.0376  0.3918
 1051SOL    HW114789   2.906   3.572   5.801 -0.0830  1.1313  1.1428
 1051SOL    HW214790   2.799   3.581   5.897  0.3549 -0.0697  1.2631
 1052SOL     OW14791   4.563   1.944  15.581 -0.2783  0.4761  0.2499
 1052SOL    HW114792   4.557   2.021  15.637  1.7891  1.2702 -0.6498
 1052SOL    HW214793   4.539   1.874  15.642 -0.0632  1.1728  1.1350
 1053SOL     OW14794   0.584   2.792   9.214 -0.1602  0.2988 -0.1301
 1053SOL    HW114795   0.548   2.861   9.158 -2.6554 -1.6525 -0.8883
 1053SOL    HW214796   0.507   2.737   9.219 -0.9692  1.0200 -4.8752
 1054SOL     OW14797   0.107   2.123   8.567  0.0013 -0.5121  0.2215
 1054SOL    HW114798   0.198   2.146   8.546 -0.6237  0.5425 -1.4186
 1054SOL    HW214799   0.102   2.178   8.646  0.4732  0.4219 -0.3911
 1055SOL     OW14800   4.542   1.006   8.358 -0.7402 -0.0579  0.0221
 1055SOL    HW114801   4.492   1.065   8.302 -0.4441 -1.8273 -2.0878
 1055SOL    HW214802   4.495   0.923   8.367  1.0738 -0.9096  1.6502
 1056SOL     OW14803   3.776   0.073   4.440  0.6660 -0.0026 -0.2763
 1056SOL    HW114804   3.778   0.136   4.368 -1.2116 -1.6036 -1.7353
 1056SOL    HW214805   3.720   0.004   4.404 -0.7163  0.0457  1.7796
 1057SOL     OW14806   4.360   2.570  11.743  0.1262 -0.0878 -0.1710
 1057SOL    HW114807   4.406   2.634  11.799 -0.3293  0.3519 -0.3060
 1057SOL    HW214808   4.277   2.614  11.729 -0.1609 -0.4446  0.4059
 1058SOL     OW14809   2.993   0.926   4.653 -0.5448 -0.1478  0.5489
 1058SOL    HW114810   2.937   0.879   4.715 -0.6113 -0.4856  0.2384
 1058SOL    HW214811   2.929   0.931   4.582  0.8373 -0.7268 -0.7504
 1059SOL     OW14812   1.453   2.651  11.272 -0.0732 -0.2317  0.4842
 1059SOL    HW114813   1.487   2.561  11.268  0.5801  0.1390 -2.4570
 1059SOL    HW214814   1.479   2.679  11.184 -0.2319 -1.7373 -0.0544
 1060SOL     OW14815   3.424   0.486   5.690 -0.0726  0.2810 -0.8523
 1060SOL    HW114816   3.333   0.502   5.718 -0.1734 -2.9507  0.5824
 1060SOL    HW214817   3.462   0.523   5.770 -1.3245 -0.8677  0.2698
 1061SOL     OW14818   0.341   0.282   4.027 -0.4402  0.7768 -0.3283
 1061SOL    HW114819   0.390   0.270   3.946  0.0632  0.8509 -0.0307
 1061SOL    HW214820   0.392   0.226   4.085 -1.6870  0.8527  0.8256
 1062SOL     OW14821   1.803   3.290  16.911 -0.0393  0.2485  0.4746
 1062SOL    HW114822   1.898   3.279  16.911 -0.2130 -1.1646  1.7873
 1062SOL    HW214823   1.798   3.384  16.929  0.4693 -0.1144  2.5190
 1063SOL     OW14824   3.247   1.078  12.470  0.4438 -0.0221  0.2902
 1063SOL    HW114825   3.222   0.998  12.425 -1.4116  1.1613 -0.7649
 1063SOL    HW214826   3.166   1.124  12.446  1.2973  0.8750 -0.8958
 1064SOL     OW14827   1.131   0.367   4.120  0.0008  0.2223 -0.3631
 1064SOL    HW114828   1.051   0.357   4.173 -0.5297  1.1039 -1.0008
 1064SOL    HW214829   1.100   0.327   4.039 -0.2340 -2.3011  0.9348
 1065SOL     OW14830   3.397   2.148   3.712 -1.0059  0.3102  0.3589
 1065SOL    HW114831   3.410   2.054   3.699  1.3489  0.2891  2.8401
 1065SOL    HW214832   3.387   2.158   3.807  1.0836 -0.8367  0.6932
 1066SOL     OW14833   4.260   1.823   7.311 -0.1509 -0.9311  0.2414
 1066SOL    HW114834   4.322   1.828   7.384  0.3274 -0.4927 -0.1948
 1066SOL    HW214835   4.188   1.879   7.340  1.0804  0.3534  0.8258
 1067SOL     OW14836   1.155   3.953  11.097 -0.1551 -0.6616 -0.0625
 1067SOL    HW114837   1.096   3.890  11.057 -1.3126  0.3116  0.1300
 1067SOL    HW214838   1.175   4.010  11.023 -2.6004 -0.4332 -0.5251
 1068SOL     OW14839   2.859   3.827  12.235 -0.7886 -0.4469  0.4063
 1068SOL    HW114840   2.802   3.820  12.159 -0.8368  3.2583  0.0809
 1068SOL    HW214841   2.806   3.883  12.291 -2.4531  0.1955 -1.8067
 1069SOL     OW14842   3.996   4.578  16.274  0.9898 -0.5110  0.0949
 1069SOL    HW114843   3.998   4.482  16.279  0.7333 -0.7574 -4.1195
 1069SOL    HW214844   3.907   4.599  16.246  1.0423 -0.7599 -0.2622
 1070SOL     OW14845   2.572   2.478  13.402  0.2568  0.0794  0.7265
 1070SOL    HW114846   2.635   2.550  13.413 -0.2099  0.7107 -0.6908
 1070SOL    HW214847   2.490   2.528  13.408 -0.9197 -1.6326 -1.0911
 1071SOL     OW14848   0.270   0.179   5.514 -0.5954 -0.1794  0.3754
 1071SOL    HW114849   0.243   0.100   5.561 -0.2763 -1.2229 -1.1969
 1071SOL    HW214850   0.329   0.208   5.583  0.8119 -0.1663 -0.8254
 1072SOL     OW14851   2.631   4.135   2.664 -0.0747  0.2829  0.5070
 1072SOL    HW114852   2.639   4.192   2.741 -2.9618  0.0871  0.9419
 1072SOL    HW214853   2.674   4.055   2.692  0.7820  0.0468 -1.4516
 1073SOL     OW14854   3.676   1.402   7.972  0.2400  0.0332  0.7282
 1073SOL    HW114855   3.735   1.472   7.944  1.1099 -1.1822 -0.4649
 1073SOL    HW214856   3.672   1.430   8.064  2.2101 -0.5971  1.0040
 1074SOL     OW14857   3.257   1.002   2.759  0.9225  0.0825  0.2490
 1074SOL    HW114858   3.299   0.922   2.792  0.5633 -1.4928 -3.1008
 1074SOL    HW214859   3.163   0.989   2.770  0.5639  1.1686 -1.6238
 1075SOL     OW14860   3.316   1.216  15.888  0.0926 -0.3910  0.1616
 1075SOL    HW114861   3.333   1.253  15.802  0.5254  0.6171  0.6755
 1075SOL    HW214862   3.365   1.277  15.943 -0.1822  0.3071 -0.3715
 1076SOL     OW14863   2.301   1.272   8.969  0.3166  0.6431  0.3550
 1076SOL    HW114864   2.372   1.267   8.906  1.5472  0.4433  1.7671
 1076SOL    HW214865   2.227   1.263   8.908  0.1384  0.0011  0.6738
 1077SOL     OW14866   2.356   2.068   8.453 -0.4092  0.4146  0.2197
 1077SOL    HW114867   2.305   2.059   8.533 -1.7389 -0.9924 -0.7861
 1077SOL    HW214868   2.401   1.985   8.439  1.9930  1.8408 -0.5732
 1078SOL     OW14869   2.388   2.767   1.773 -0.2107 -0.2104 -1.1851
 1078SOL    HW114870   2.368   2.846   1.824 -2.0989 -1.3525 -0.1453
 1078SOL    HW214871   2.317   2.781   1.711 -1.3471 -0.7404 -0.0156
 1079SOL     OW14872   3.913   3.768   7.028  0.2750 -0.4034 -0.3887
 1079SOL    HW114873   3.987   3.708   7.021 -0.4450 -1.4491  0.8944
 1079SOL    HW214874   3.873   3.770   6.941  0.4562 -2.4407 -0.5143
 1080SOL     OW14875   0.019   1.674   1.324 -0.3532 -0.4859  0.0347
 1080SOL    HW114876   4.692   1.603   1.345  0.1596 -0.7939  0.4922
 1080SOL    HW214877   4.699   1.719   1.259 -0.3547 -0.0011  0.3738
 1081SOL     OW14878   1.333   1.853   4.596 -0.1113 -0.1914 -0.0140
 1081SOL    HW114879   1.377   1.895   4.522 -1.4490 -2.4874 -2.1477
 1081SOL    HW214880   1.253   1.845   4.543 -1.0665 -0.2143  1.4146
 1082SOL     OW14881   4.697   3.929   6.098  0.1732  0.0843  0.0485
 1082SOL    HW114882   0.037   3.869   6.100  1.0164  1.1724  1.3201
 1082SOL    HW214883   4.630   3.875   6.141  0.5195 -1.0308 -0.8157
 1083SOL     OW14884   3.293   0.501   7.747 -0.0378  0.2246 -0.0080
 1083SOL    HW114885   3.382   0.523   7.720  0.2186  0.0739  0.7099
 1083SOL    HW214886   3.250   0.583   7.727  1.0352  1.0858  1.2352
 1084SOL     OW14887   2.145   0.604   7.756  0.1320 -0.2153 -0.2331
 1084SOL    HW114888   2.070   0.575   7.808 -1.9824 -0.6089 -3.5554
 1084SOL    HW214889   2.100   0.660   7.693  2.2353 -1.0178 -2.4067
 1085SOL     OW14890   2.332   1.560   4.040  0.5645  0.2253 -0.0752
 1085SOL    HW114891   2.386   1.488   4.007 -0.7144 -1.8962  2.4533
 1085SOL    HW214892   2.349   1.622   3.969 -0.4715  1.2826  0.5985
 1086SOL     OW14893   1.952   3.102   9.122  0.2716 -0.4369  0.1991
 1086SOL    HW114894   1.888   3.123   9.053 -0.2354  1.4931  1.2648
 1086SOL    HW214895   1.942   3.007   9.131 -1.7181 -0.0209  2.5422
 1087SOL     OW14896   1.092   3.119   3.398  0.1666  0.1431  0.3674
 1087SOL    HW114897   1.113   3.030   3.368 -2.2419  0.3023 -1.8394
 1087SOL    HW214898   1.109   3.175   3.322 -1.6362 -1.1463 -1.0102
 1088SOL     OW14899   1.006   0.621   4.867 -0.4191 -0.0557  0.0687
 1088SOL    HW114900   0.982   0.707   4.832  0.0495  0.0254 -0.0548
 1088SOL    HW214901   1.088   0.603   4.821  0.5580  1.4068  1.2285
 1089SOL     OW14902   1.557   1.471   6.054  0.6822 -0.2621  0.1196
 1089SOL    HW114903   1.576   1.431   6.139 -3.5371 -0.9995  0.7216
 1089SOL    HW214904   1.486   1.525   6.088 -0.5222 -0.3734 -2.2151
 1090SOL     OW14905   2.090   1.649   4.091  0.0344  0.1890  0.2221
 1090SOL    HW114906   2.158   1.585   4.109  0.1606 -0.3633 -2.1828
 1090SOL    HW214907   2.110   1.669   4.000 -0.8031 -0.5938 -0.1416
 1091SOL     OW14908   2.921   4.486  13.624 -0.4670  0.0105  0.3140
 1091SOL    HW114909   2.883   4.405  13.591  2.7603 -1.7355  0.8270
 1091SOL    HW214910   2.969   4.451  13.699  0.9735  0.7976 -0.2295
 1092SOL     OW14911   1.903   3.755   8.921  0.9196 -0.2694 -0.1273
 1092SOL    HW114912   1.996   3.761   8.942  1.2326  1.3022 -2.0150
 1092SOL    HW214913   1.903   3.708   8.837  0.4294 -1.0339  0.2924
 1093SOL     OW14914   1.344   2.923   5.473  0.1197  0.5902  0.2040
 1093SOL    HW114915   1.363   3.006   5.517  0.4420 -0.2041  1.5766
 1093SOL    HW214916   1.280   2.941   5.404  0.0634  1.7131  0.5492
 1094SOL     OW14917   0.079   2.624   4.660  0.8466  0.1596  0.2790
 1094SOL    HW114918   0.099   2.641   4.568  1.1063  0.4487  0.3896
 1094SOL    HW214919   0.007   2.561   4.656  0.3543  0.6988  0.5368
 1095SOL     OW14920   3.960   1.406   9.325  0.0713 -0.0331 -0.1316
 1095SOL    HW114921   4.021   1.366   9.386 -0.2903 -1.9967 -1.0514
 1095SOL    HW214922   3.998   1.357   9.251 -0.3792 -1.5112  0.6091
 1096SOL     OW14923   0.455   0.692   9.672  0.6777 -0.1502  0.2805
 1096SOL    HW114924   0.373   0.740   9.659  0.7578 -0.0203  0.2529
 1096SOL    HW214925   0.514   0.761   9.639 -1.6528  0.9553 -1.5628
 1097SOL     OW14926   1.418   0.772   0.977  0.2750  0.3739  0.2965
 1097SOL    HW114927   1.436   0.855   0.934 -0.1563 -0.3868 -1.3222
 1097SOL    HW214928   1.350   0.729   0.925  0.6163 -1.0846  1.0496
 1098SOL     OW14929   1.744   2.471   5.552 -0.0667  0.9172  0.4747
 1098SOL    HW114930   1.725   2.565   5.545 -0.4933  0.9619  2.3403
 1098SOL    HW214931   1.678   2.444   5.616 -1.1482  2.7783  0.1615
 1099SOL     OW14932   4.041   1.346  12.460  0.4367 -0.5958  0.0322
 1099SOL    HW114933   4.130   1.343  12.495  0.4109 -0.8969  0.0789
 1099SOL    HW214934   4.056   1.420  12.402 -1.2431  1.3670  2.0911
 1100SOL     OW14935   0.596   1.548  10.080 -0.3052 -0.2080  0.0821
 1100SOL    HW114936   0.650   1.625  10.097 -0.2878 -0.2606  0.2669
 1100SOL    HW214937   0.660   1.504  10.024 -0.6680  0.1500 -0.6071
 1101SOL     OW14938   3.862   4.485  16.711  0.3606 -0.2120 -0.3336
 1101SOL    HW114939   3.887   4.412  16.767  1.3929 -0.4012 -1.0413
 1101SOL    HW214940   3.798   4.522  16.772  2.1872 -0.7253  1.8829
 1102SOL     OW14941   2.135   0.240  12.197  0.1986 -0.4568  0.5659
 1102SOL    HW114942   2.099   0.300  12.262 -0.1489  0.4032 -0.4140
 1102SOL    HW214943   2.168   0.302  12.132  1.1425 -0.6396  0.8679
 1103SOL     OW14944   4.135   4.569  11.163  0.0374 -0.5757  0.5598
 1103SOL    HW114945   4.129   4.664  11.155 -2.3042 -0.7711 -0.1095
 1103SOL    HW214946   4.229   4.560  11.146  0.0149  0.4556 -0.0905
 1104SOL     OW14947   4.034   4.117   7.747 -0.2353  0.5939 -0.0081
 1104SOL    HW114948   4.000   4.109   7.658 -1.6683 -1.4559  0.7001
 1104SOL    HW214949   4.077   4.202   7.746  2.9010 -1.0402 -1.4340
 1105SOL     OW14950   1.710   2.223   9.135 -0.0981  0.1327 -0.3778
 1105SOL    HW114951   1.740   2.205   9.046 -1.6885  1.4559 -1.1718
 1105SOL    HW214952   1.751   2.309   9.145  2.0115 -0.6801 -1.9375
 1106SOL     OW14953   2.205   2.252  14.770  0.2762 -0.0257  0.2455
 1106SOL    HW114954   2.223   2.168  14.728 -0.0596  0.0125  0.0225
 1106SOL    HW214955   2.109   2.254  14.770  0.2348 -3.2761  0.1059
 1107SOL     OW14956   2.714   2.898  11.349  0.1113 -0.0990  0.5478
 1107SOL    HW114957   2.670   2.880  11.266 -3.8286  0.9458  2.3979
 1107SOL    HW214958   2.672   2.982  11.371 -0.6510 -0.2177 -0.4166
 1108SOL     OW14959   3.306   0.996  13.241 -0.2723  0.4535  0.2257
 1108SOL    HW114960   3.218   0.981  13.206  0.2774 -2.4600  0.0199
 1108SOL    HW214961   3.346   0.914  13.210  0.9404  1.6020 -1.2871
 1109SOL     OW14962   3.837   1.929  17.656 -0.2386 -0.4298  0.2815
 1109SOL    HW114963   3.775   1.858  17.668  0.9745 -1.1503  2.1655
 1109SOL    HW214964   3.779   2.005  17.667 -0.8830 -0.6560 -1.5707
 1110SOL     OW14965   3.082   0.215  10.391  0.4469 -0.1911 -1.1439
 1110SOL    HW114966   3.006   0.186  10.441  0.2700 -1.9470 -2.4669
 1110SOL    HW214967   3.097   0.142  10.332 -1.9997 -1.0752 -0.6757
 1111SOL     OW14968   1.994   1.494   1.874  0.1259 -0.0877 -0.0801
 1111SOL    HW114969   2.041   1.449   1.804  1.6760  2.3015 -0.5705
 1111SOL    HW214970   1.903   1.471   1.853 -0.9895  0.8230  3.8161
 1112SOL     OW14971   1.452   2.704   8.336 -0.2710 -0.3954  0.0519
 1112SOL    HW114972   1.368   2.662   8.321 -0.1304  0.1182 -2.2134
 1112SOL    HW214973   1.429   2.797   8.342  0.1419 -0.3015  0.2089
 1113SOL     OW14974   3.597   0.667   1.238 -0.1743  0.0105 -0.5010
 1113SOL    HW114975   3.590   0.754   1.277  1.0857  0.0628 -0.3734
 1113SOL    HW214976   3.658   0.681   1.166  1.0283  0.7300  0.6423
 1114SOL     OW14977   2.950   2.994   9.156 -0.3642  0.1626 -0.3613
 1114SOL    HW114978   3.030   2.979   9.207 -1.0295 -2.7390 -0.1461
 1114SOL    HW214979   2.925   2.902   9.146  1.7234 -0.2471 -1.8133
 1115SOL     OW14980   3.437   4.424   2.893  0.5449  0.0435  0.5301
 1115SOL    HW114981   3.438   4.383   2.980  0.9677 -2.4962 -0.6537
 1115SOL    HW214982   3.388   4.355   2.848 -0.4095  0.1747  1.3604
 1116SOL     OW14983   4.178   4.508   3.032  0.0813  0.1684  0.1826
 1116SOL    HW114984   4.189   4.444   2.961  1.0390  1.1049 -0.5280
 1116SOL    HW214985   4.266   4.543   3.048  0.0002 -0.8242  2.7391
 1117SOL     OW14986   4.523   3.742   5.240 -0.1245  0.1198 -0.2838
 1117SOL    HW114987   4.578   3.777   5.309  2.0929 -0.3410 -1.8240
 1117SOL    HW214988   4.485   3.675   5.297  0.3037  0.3825  0.3004
 1118SOL     OW14989   4.262   0.310   5.407 -0.5137  0.2929  0.1236
 1118SOL    HW114990   4.347   0.333   5.445  0.5996 -0.6342 -1.7927
 1118SOL    HW214991   4.206   0.374   5.450 -1.6244  0.2853 -1.3270
 1119SOL     OW14992   0.685   4.317   7.512 -0.3081 -0.0736 -0.0252
 1119SOL    HW114993   0.696   4.231   7.553  5.4869  0.0053 -1.4932
 1119SOL    HW214994   0.742   4.301   7.437  2.5745  3.7080  1.3507
 1120SOL     OW14995   0.428   3.890   1.345  0.0206  0.3570  0.0748
 1120SOL    HW114996   0.454   3.930   1.428  1.3674  1.3594 -0.8371
 1120SOL    HW214997   0.400   3.953   1.279  0.0489 -0.0463 -0.3229
 1121SOL     OW14998   2.455   3.978   7.013  0.1459  0.2810  0.2574
 1121SOL    HW114999   2.488   4.057   6.969 -0.4425 -0.1786 -1.0217
 1121SOL    HW215000   2.361   3.980   6.996  0.0570  2.3009  0.9515
 1122SOL     OW15001   2.949   0.780   3.982 -0.5670 -0.1760  0.1073
 1122SOL    HW115002   3.012   0.848   3.958 -0.1913 -0.4377  0.3565
 1122SOL    HW215003   2.994   0.696   3.981  0.7875  0.5489  0.0833
 1123SOL     OW15004   4.203   4.183  12.791 -0.4183  0.3494 -0.6363
 1123SOL    HW115005   4.120   4.144  12.816 -0.2692 -0.1815 -0.9821
 1123SOL    HW215006   4.193   4.190  12.696  1.7512  0.6521 -0.8501
 1124SOL     OW15007   0.645   3.377   4.249 -0.3291  0.1780  0.3868
 1124SOL    HW115008   0.595   3.442   4.200  0.7905  2.1448  1.8563
 1124SOL    HW215009   0.590   3.301   4.229  0.9273 -1.0289  1.4596
 1125SOL     OW15010   0.312   1.221   2.365  0.0674 -0.0666 -0.5545
 1125SOL    HW115011   0.377   1.267   2.418 -1.6790 -0.6641  2.0909
 1125SOL    HW215012   0.364   1.144   2.343 -0.9112 -1.1009  0.7531
 1126SOL     OW15013   2.497   0.152   4.012 -0.2811  0.2456  0.5470
 1126SOL    HW115014   2.555   0.226   4.031  0.3840 -0.5297  1.5613
 1126SOL    HW215015   2.521   0.130   3.922  3.1444 -1.4422  1.8552
 1127SOL     OW15016   3.913   1.014   6.263  0.8575  0.1821  0.6011
 1127SOL    HW115017   3.897   1.087   6.203 -0.4019  1.2248  2.1913
 1127SOL    HW215018   3.991   1.046   6.308 -1.0035  1.1376  3.1766
 1128SOL     OW15019   0.440   0.282   2.283 -0.0136 -0.8597  0.4213
 1128SOL    HW115020   0.365   0.260   2.227  0.8646 -1.0080 -0.6819
 1128SOL    HW215021   0.408   0.301   2.372 -2.8392  0.1273 -0.7750
 1129SOL     OW15022   3.930   4.508  15.869 -0.5403  0.2091 -0.3784
 1129SOL    HW115023   3.954   4.586  15.919 -0.9268 -0.8230  1.4255
 1129SOL    HW215024   3.942   4.546  15.782  1.8195 -2.1812 -1.0921
 1130SOL     OW15025   1.581   4.710   6.585 -0.4271  1.0442  0.1161
 1130SOL    HW115026   1.625   0.048   6.630  0.0693  1.9043 -1.7655
 1130SOL    HW215027   1.520   0.019   6.526  0.2798  1.3210 -0.4031
 1131SOL     OW15028   3.898   2.589   8.065  0.0213  0.3417 -0.7091
 1131SOL    HW115029   3.870   2.569   7.975  0.3505 -0.8376 -0.5446
 1131SOL    HW215030   3.812   2.578   8.105  0.9648  0.9982  1.4739
 1132SOL     OW15031   3.615   1.535  11.761 -0.1849 -0.1404  0.2867
 1132SOL    HW115032   3.610   1.607  11.697  1.1938  0.1077  0.4668
 1132SOL    HW215033   3.546   1.486  11.716  1.4577 -0.9127 -1.3984
 1133SOL     OW15034   1.557   0.293   8.630  0.2552  0.1719 -0.6363
 1133SOL    HW115035   1.489   0.268   8.568 -0.0396  0.8173 -0.5801
 1133SOL    HW215036   1.629   0.309   8.569  1.7106 -0.1673  0.9676
 1134SOL     OW15037   4.342   4.700   4.419 -0.1337 -0.0699 -0.0457
 1134SOL    HW115038   4.409   4.693   4.487  2.2740  0.6771 -2.3626
 1134SOL    HW215039   4.263   4.715   4.471 -0.7938  1.1216 -1.3783
 1135SOL     OW15040   2.771   3.057   7.867  0.0437 -0.4203 -0.2432
 1135SOL    HW115041   2.834   2.986   7.872  0.2946 -0.1479  0.5455
 1135SOL    HW215042   2.801   3.109   7.792  2.3884 -2.0860 -0.4490
 1136SOL     OW15043   3.395   0.817   2.160 -0.4035  0.6767 -0.2047
 1136SOL    HW115044   3.429   0.873   2.230  1.8037 -0.8125 -0.0899
 1136SOL    HW215045   3.478   0.775   2.140  0.3674  2.5024 -0.7630
 1137SOL     OW15046   1.587   4.337   2.517 -0.4350 -0.2869 -0.5374
 1137SOL    HW115047   1.570   4.430   2.534  1.7130  0.3663 -1.9698
 1137SOL    HW215048   1.512   4.309   2.465 -0.6416 -0.8522  0.0558
 1138SOL     OW15049   0.205   1.375  14.773 -0.0588  0.5584  0.4817
 1138SOL    HW115050   0.273   1.394  14.837  0.3840  2.0257 -0.4303
 1138SOL    HW215051   0.227   1.291  14.731 -0.9683  1.7041 -2.2859
 1139SOL     OW15052   3.501   1.413  12.217 -0.3583  0.3888  0.6784
 1139SOL    HW115053   3.444   1.488  12.230  2.1024  1.7748  3.4689
 1139SOL    HW215054   3.463   1.346  12.274 -0.1780  1.1458  1.6850
 1140SOL     OW15055   2.590   3.646   2.910  0.2482  0.1895 -0.3477
 1140SOL    HW115056   2.664   3.627   2.967 -0.3654  1.6924  0.9537
 1140SOL    HW215057   2.521   3.588   2.943  1.6799 -0.7839  0.8940
 1141SOL     OW15058   4.391   3.571   4.864 -0.6691  0.2828 -0.0854
 1141SOL    HW115059   4.427   3.484   4.844 -1.4203  0.5135 -2.4406
 1141SOL    HW215060   4.326   3.588   4.795 -0.0127 -2.5590 -1.4252
 1142SOL     OW15061   1.566   0.714   2.308 -0.1264 -0.2778 -0.0191
 1142SOL    HW115062   1.649   0.702   2.354 -0.7850  1.6186  1.6373
 1142SOL    HW215063   1.595   0.755   2.227 -0.0863  1.2519  0.7621
 1143SOL     OW15064   3.461   3.653  12.272 -0.7847 -0.5201 -0.6465
 1143SOL    HW115065   3.505   3.721  12.324  1.5756 -2.2387 -0.3980
 1143SOL    HW215066   3.378   3.660  12.319  1.2602 -1.1785  3.0439
 1144SOL     OW15067   2.526   3.610   6.547  0.1440 -0.5948 -0.4506
 1144SOL    HW115068   2.552   3.570   6.630 -0.8303 -1.8170 -0.7326
 1144SOL    HW215069   2.614   3.617   6.509  0.7344 -2.2390  0.6162
 1145SOL     OW15070   4.048   0.204  17.644 -0.1803  0.3106 -0.6856
 1145SOL    HW115071   3.953   0.194  17.652  0.1732 -1.3101  1.2881
 1145SOL    HW215072   4.070   0.253  17.722 -0.4221 -0.1010 -0.3593
 1146SOL     OW15073   3.268   4.488  17.077 -0.4298  0.6523  0.0498
 1146SOL    HW115074   3.263   4.569  17.025  1.5216  0.3498 -0.6012
 1146SOL    HW215075   3.251   4.417  17.015 -0.5434  0.0687  0.7456
 1147SOL     OW15076   0.369   1.267   4.422 -0.3049  0.3676  0.4081
 1147SOL    HW115077   0.366   1.351   4.467 -0.1700  1.6766 -1.9895
 1147SOL    HW215078   0.317   1.297   4.347 -3.2594 -0.3923  2.1498
 1148SOL     OW15079   4.062   2.254   1.565  0.0825 -0.1724 -0.1507
 1148SOL    HW115080   4.049   2.163   1.589  2.7411 -0.1423  1.4147
 1148SOL    HW215081   4.033   2.255   1.473 -0.1733 -2.5297 -0.0875
 1149SOL     OW15082   4.701   2.630   6.392  0.6680  0.1326  0.4429
 1149SOL    HW115083   0.011   2.658   6.472 -0.1156  0.5302  0.7401
 1149SOL    HW215084   0.028   2.562   6.365 -0.4324 -1.2730  1.4787
 1150SOL     OW15085   0.605   3.658   6.644  0.4294  0.0119 -0.0053
 1150SOL    HW115086   0.530   3.679   6.589 -0.3565 -0.7433  0.7677
 1150SOL    HW215087   0.562   3.621   6.721 -0.7209  0.6493 -0.3522
 1151SOL     OW15088   3.580   0.964   6.589  0.0682  0.3245  0.2621
 1151SOL    HW115089   3.551   0.953   6.680 -0.9684 -1.6438 -0.3223
 1151SOL    HW215090   3.619   1.052   6.591  3.4953 -1.1470 -1.2089
 1152SOL     OW15091   0.742   4.179   3.950  0.1930  0.0030 -0.2099
 1152SOL    HW115092   0.696   4.155   4.031  2.1290  1.1197  1.2040
 1152SOL    HW215093   0.682   4.162   3.877 -2.4426  1.6470  1.5922
 1153SOL     OW15094   0.324   4.464   3.757  0.2192  0.2469 -0.0808
 1153SOL    HW115095   0.312   4.537   3.817 -0.5908 -0.8580  1.0715
 1153SOL    HW215096   0.370   4.510   3.686  0.8115  1.0500  0.8232
 1154SOL     OW15097   0.883   3.303   8.909  0.5039 -0.7788  0.0478
 1154SOL    HW115098   0.884   3.396   8.889  1.4300 -0.9717 -0.7930
 1154SOL    HW215099   0.801   3.266   8.877 -0.6085  0.4384  1.4642
 1155SOL     OW15100   1.174   2.409   0.670  0.2743  0.3491 -0.5206
 1155SOL    HW115101   1.123   2.479   0.628  1.3508  2.4796  1.6951
 1155SOL    HW215102   1.170   2.444   0.759 -1.5793 -0.6428 -0.2104
 1156SOL     OW15103   4.661   3.621   2.326  0.2988 -0.2608  0.1457
 1156SOL    HW115104   4.596   3.556   2.298  1.2353 -1.3373  0.4299
 1156SOL    HW215105   4.656   3.618   2.421  0.5867  2.9689  0.2638
 1157SOL     OW15106   3.514   3.436   1.888 -0.5776  0.1070  0.3716
 1157SOL    HW115107   3.596   3.484   1.877 -2.0129  2.0141 -1.9408
 1157SOL    HW215108   3.447   3.501   1.871 -0.9545 -0.5744 -0.7568
 1158SOL     OW15109   1.441   2.978   9.276 -0.3167  0.3605  0.4643
 1158SOL    HW115110   1.419   2.984   9.369  0.6243 -3.3254  0.9361
 1158SOL    HW215111   1.535   2.992   9.287 -0.0459  0.4738 -2.1337
 1159SOL     OW15112   1.244   2.505   9.692  0.4745  0.3954  0.1350
 1159SOL    HW115113   1.202   2.534   9.611 -0.6621  2.0719  1.3320
 1159SOL    HW215114   1.173   2.516   9.756  0.0837  3.3243 -0.8017
 1160SOL     OW15115   4.177   3.640   4.700 -0.3227 -0.3884 -0.1554
 1160SOL    HW115116   4.093   3.658   4.658 -0.0645 -1.6727 -1.2167
 1160SOL    HW215117   4.205   3.732   4.698  0.8406 -0.7446 -0.1231
 1161SOL     OW15118   3.335   1.794   2.167  0.1318 -0.0603  0.4811
 1161SOL    HW115119   3.247   1.813   2.136  0.7624  1.0428 -0.6277
 1161SOL    HW215120   3.369   1.740   2.096 -0.4562 -1.8026  1.5051
 1162SOL     OW15121   3.737   4.549   8.763  0.0533 -0.2189 -0.0427
 1162SOL    HW115122   3.803   4.484   8.738  2.5148  1.4755  2.0089
 1162SOL    HW215123   3.656   4.498   8.764  0.8048 -1.4858 -3.1591
 1163SOL     OW15124   4.469   2.355  14.876 -0.1659 -0.2789  0.6087
 1163SOL    HW115125   4.520   2.397  14.806 -2.2666 -0.6892 -1.1635
 1163SOL    HW215126   4.383   2.359  14.835 -0.1393 -0.1233  0.5687
 1164SOL     OW15127   2.535   3.802  14.828  0.1191 -0.4134 -0.3850
 1164SOL    HW115128   2.520   3.707  14.832  0.3595 -0.4219  0.3177
 1164SOL    HW215129   2.444   3.827  14.842  0.4635  0.6674 -0.1083
 1165SOL     OW15130   4.193   0.637   2.497 -0.2078 -0.7596  0.2876
 1165SOL    HW115131   4.193   0.542   2.483  0.5293 -0.9444  1.6373
 1165SOL    HW215132   4.152   0.651   2.583  1.0729  2.2941  0.4097
 1166SOL     OW15133   2.320   1.227   4.888 -0.3682  0.3773  0.3751
 1166SOL    HW115134   2.242   1.238   4.942  0.0211  1.3667  0.7475
 1166SOL    HW215135   2.361   1.148   4.921  1.4838  2.0290  2.0616
 1167SOL     OW15136   0.038   1.751  11.419  0.7313 -0.2015 -0.0336
 1167SOL    HW115137   0.037   1.847  11.422 -1.9334 -0.1792 -2.3574
 1167SOL    HW215138   0.055   1.741  11.326 -4.5827 -0.7666 -0.9535
 1168SOL     OW15139   4.131   2.273  13.888  0.4794 -0.0027  0.2509
 1168SOL    HW115140   4.214   2.228  13.868 -0.0737  0.1316 -2.3293
 1168SOL    HW215141   4.065   2.220  13.843  1.1124 -0.5868  0.0071
 1169SOL     OW15142   3.189   1.946   7.523  0.2603  0.2540  0.1318
 1169SOL    HW115143   3.154   1.865   7.486 -0.8149  1.3636 -1.2436
 1169SOL    HW215144   3.250   1.967   7.452 -0.8991 -1.2148 -1.3095
 1170SOL     OW15145   0.829   1.230   2.146  0.1693 -0.0394  0.2993
 1170SOL    HW115146   0.825   1.136   2.164 -0.1466 -0.1895 -0.5779
 1170SOL    HW215147   0.917   1.259   2.173  0.8878 -0.5492 -1.5598
 1171SOL     OW15148   4.661   4.362   4.292  0.3811 -0.1786 -0.0787
 1171SOL    HW115149   0.001   4.312   4.259  0.4750  0.6641 -1.1321
 1171SOL    HW215150   4.600   4.289   4.300 -0.7746  0.7413 -0.5010
 1172SOL     OW15151   0.600   4.604   3.016 -0.9336  0.5739 -0.2090
 1172SOL    HW115152   0.618   4.608   3.110  2.1698 -0.0491 -0.7703
 1172SOL    HW215153   0.687   4.574   2.989 -0.7260  0.3978  0.6533
 1173SOL     OW15154   3.646   1.620   2.089  0.0350  0.4575  0.5187
 1173SOL    HW115155   3.689   1.583   2.166 -1.7068  0.6736  1.6029
 1173SOL    HW215156   3.563   1.572   2.085  0.8971 -0.9033 -1.1507
 1174SOL     OW15157   4.109   0.488   6.831 -0.1178 -0.3723  0.3155
 1174SOL    HW115158   4.142   0.545   6.900 -2.0117  1.6610 -0.4519
 1174SOL    HW215159   4.097   0.406   6.878  0.4900 -0.2718  0.6463
 1175SOL     OW15160   1.358   0.762   7.140 -0.0192  0.0980 -0.0596
 1175SOL    HW115161   1.418   0.815   7.192  0.9194 -0.2659 -0.7865
 1175SOL    HW215162   1.282   0.762   7.199 -1.2277 -0.8949 -1.6090
 1176SOL     OW15163   0.348   0.340   4.449 -0.0446  0.3196  0.3082
 1176SOL    HW115164   0.416   0.407   4.456  1.7123 -1.4576  0.3300
 1176SOL    HW215165   0.277   0.401   4.430  0.5789  0.2888 -2.0852
 1177SOL     OW15166   2.828   1.534   6.160  0.6577 -0.0827 -0.0295
 1177SOL    HW115167   2.788   1.529   6.247  1.1774  1.0729  0.2880
 1177SOL    HW215168   2.882   1.613   6.173 -1.9142  1.9436 -1.6521
 1178SOL     OW15169   3.869   0.535   5.808  0.0813  0.1496  0.3223
 1178SOL    HW115170   3.862   0.560   5.716 -1.2593 -0.9273  0.1330
 1178SOL    HW215171   3.821   0.453   5.803  0.4781 -0.0588 -0.1487
 1179SOL     OW15172   4.727   4.406   3.894  0.7310 -0.6715 -0.0044
 1179SOL    HW115173   0.067   4.383   3.838  1.4081  0.7413  0.3276
 1179SOL    HW215174   4.660   4.345   3.864  1.3381 -1.6181  0.5685
 1180SOL     OW15175   3.449   2.417   2.903 -0.1394  0.4560  0.2127
 1180SOL    HW115176   3.443   2.343   2.844  0.5853  0.3301  0.3014
 1180SOL    HW215177   3.423   2.361   2.976  0.3417 -0.6935 -0.5194
 1181SOL     OW15178   1.544   3.832   0.753  0.2038  0.0075  0.0011
 1181SOL    HW115179   1.494   3.907   0.785 -1.7145 -1.3400  0.1911
 1181SOL    HW215180   1.633   3.866   0.749 -0.2377  1.1828  0.2316
 1182SOL     OW15181   3.114   0.871  10.021  0.0814 -0.0321  0.4455
 1182SOL    HW115182   3.093   0.868  10.114 -0.3887 -0.5183  0.3198
 1182SOL    HW215183   3.028   0.890   9.983 -0.1608  0.3349  1.1737
 1183SOL     OW15184   3.150   3.638   2.749  0.2901 -0.7277 -0.6323
 1183SOL    HW115185   3.239   3.669   2.764 -0.8506  1.5657  1.4434
 1183SOL    HW215186   3.113   3.622   2.835 -1.4064 -0.6272 -1.3474
 1184SOL     OW15187   2.042   3.084   1.824  0.5829 -0.2409 -0.0828
 1184SOL    HW115188   2.118   3.138   1.800  1.8534 -0.9549  2.3226
 1184SOL    HW215189   1.966   3.126   1.784  2.3500  1.8699 -1.1713
 1185SOL     OW15190   0.346   0.956   7.265 -0.4418 -0.4599  0.2924
 1185SOL    HW115191   0.411   0.915   7.209 -0.4595  0.1264 -0.1520
 1185SOL    HW215192   0.364   0.915   7.350  3.7140  0.6391 -0.0542
 1186SOL     OW15193   4.464   4.592   3.034 -0.0922  0.3671 -0.2749
 1186SOL    HW115194   4.537   4.538   3.065 -0.6235 -0.7670 -0.9892
 1186SOL    HW215195   4.475   4.665   3.094 -0.8673  0.0531  0.2359
 1187SOL     OW15196   1.114   3.696  12.341 -0.0484  0.0340  0.2107
 1187SOL    HW115197   1.075   3.781  12.322  0.1342  0.1354  0.2910
 1187SOL    HW215198   1.176   3.736  12.402  0.2803 -1.8204  1.1087
 1188SOL     OW15199   1.046   2.222   0.302 -0.0354 -0.1717  0.3751
 1188SOL    HW115200   1.021   2.137   0.267 -2.5435  0.5223  0.4485
 1188SOL    HW215201   1.111   2.233   0.233 -0.4899  0.5078  0.0627
 1189SOL     OW15202   4.457   0.004   6.224 -0.0387  0.2084 -0.2495
 1189SOL    HW115203   4.542   4.729   6.268 -0.0390  0.7503 -0.1263
 1189SOL    HW215204   4.430   0.089   6.259  1.5746  0.6909 -0.2030
 1190SOL     OW15205   3.444   2.909   2.479  1.0388  0.2800  0.1440
 1190SOL    HW115206   3.494   2.856   2.541  2.7380  0.2228 -1.2656
 1190SOL    HW215207   3.514   2.973   2.463  1.1429  0.0065 -0.4760
 1191SOL     OW15208   4.595   1.946   2.575  0.1395  0.2032  0.3339
 1191SOL    HW115209   4.691   1.941   2.584  0.1328  1.5072  1.1174
 1191SOL    HW215210   4.587   1.953   2.480 -0.8420  0.0861  0.4159
 1192SOL     OW15211   4.622   0.460   7.494 -0.1408  0.2846  0.1130
 1192SOL    HW115212   4.622   0.377   7.542  1.6113  0.9836  1.3049
 1192SOL    HW215213   4.611   0.533   7.556  0.3526  0.8273 -0.4407
 1193SOL     OW15214   3.669   0.825   0.794 -0.8551 -0.3677 -0.5226
 1193SOL    HW115215   3.691   0.795   0.882  0.2771  1.5027 -0.1658
 1193SOL    HW215216   3.738   0.890   0.782  0.7173 -2.2865 -1.8654
 1194SOL     OW15217   4.573   1.102   8.690  0.1760  0.1916 -0.1583
 1194SOL    HW115218   4.617   1.035   8.638 -0.7478  0.0942 -0.8151
 1194SOL    HW215219   4.650   1.158   8.696  0.1599  0.3193 -1.2107
 1195SOL     OW15220   3.076   3.247  14.296  0.2935 -0.1302 -0.1541
 1195SOL    HW115221   3.021   3.319  14.264 -1.4205 -1.5583 -0.4253
 1195SOL    HW215222   3.134   3.295  14.355  0.1614 -0.3790  0.1787
 1196SOL     OW15223   2.740   0.998  16.120  0.6769 -0.0135 -0.3439
 1196SOL    HW115224   2.705   1.087  16.124  1.3540  0.2025  0.6004
 1196SOL    HW215225   2.670   0.953  16.073 -0.3056 -0.7902  1.8727
 1197SOL     OW15226   0.747   3.160   7.705 -0.1906 -0.9741  0.1775
 1197SOL    HW115227   0.840   3.135   7.709 -0.0992 -0.2952  2.3081
 1197SOL    HW215228   0.747   3.238   7.760  0.4101 -0.6401 -0.3008
 1198SOL     OW15229   0.176   0.292   6.260 -0.0138  0.1715 -0.1845
 1198SOL    HW115230   0.136   0.244   6.333  0.4765 -0.2479 -0.1947
 1198SOL    HW215231   0.088   0.320   6.234  0.2445  0.9678 -0.2207
 1199SOL     OW15232   4.424   0.951   0.775  0.2066  0.2800  0.0663
 1199SOL    HW115233   4.446   1.003   0.698 -0.2892  0.4533  0.0410
 1199SOL    HW215234   4.396   1.025   0.829  2.4437  1.0446  0.1420
 1200SOL     OW15235   4.121   1.172   2.715  0.0307  0.5473 -0.0385
 1200SOL    HW115236   4.200   1.117   2.718 -0.5928 -0.1953  2.4588
 1200SOL    HW215237   4.153   1.244   2.659  2.0560  0.8792  1.5644
 1201SOL     OW15238   1.639   1.921   7.723  0.2209  0.1108 -0.1993
 1201SOL    HW115239   1.649   1.957   7.635  0.4180 -0.2889 -0.3402
 1201SOL    HW215240   1.555   1.875   7.721  0.4061 -0.2675  1.0956
 1202SOL     OW15241   1.328   3.615   4.049 -0.1107 -0.4152 -0.3948
 1202SOL    HW115242   1.233   3.622   4.048 -0.0645  0.2144 -0.6609
 1202SOL    HW215243   1.350   3.569   4.130 -2.6187 -1.1142 -0.1194
 1203SOL     OW15244   4.254   1.244  16.467 -0.1513 -0.1049 -0.0651
 1203SOL    HW115245   4.250   1.312  16.399 -0.2730 -1.8996 -1.8647
 1203SOL    HW215246   4.329   1.270  16.521 -1.0511  3.1096 -0.3518
 1204SOL     OW15247   2.649   3.721   7.988  0.1847 -0.0444  0.5126
 1204SOL    HW115248   2.676   3.721   8.079  0.8519 -1.5849  0.3270
 1204SOL    HW215249   2.709   3.654   7.955 -0.4380 -1.5464  2.4182
 1205SOL     OW15250   0.796   1.210   7.589 -0.3887  0.3869  0.6171
 1205SOL    HW115251   0.712   1.175   7.556 -0.7683 -0.5538  2.5891
 1205SOL    HW215252   0.783   1.224   7.683  0.1780  1.9327  0.4599
 1206SOL     OW15253   4.403   1.758  15.023 -0.4656 -0.9627 -0.3258
 1206SOL    HW115254   4.326   1.748  15.079  0.6725 -1.0721  1.2336
 1206SOL    HW215255   4.390   1.693  14.954 -1.0105 -0.4553 -0.7006
 1207SOL     OW15256   4.283   1.375   8.182  0.3252  0.4961 -0.3112
 1207SOL    HW115257   4.201   1.395   8.226 -1.7548 -1.5738 -3.1625
 1207SOL    HW215258   4.348   1.434   8.220  0.2367  1.7189 -2.0534
 1208SOL     OW15259   2.481   3.429   4.760  0.3085 -0.2937 -0.3761
 1208SOL    HW115260   2.529   3.384   4.829  0.9093 -0.1775 -0.7205
 1208SOL    HW215261   2.540   3.412   4.686  0.4772  0.8188 -0.4927
 1209SOL     OW15262   0.009   3.492   4.177  0.5243 -0.3233 -0.0855
 1209SOL    HW115263   4.724   3.517   4.267  0.0330 -1.6843  0.1717
 1209SOL    HW215264   4.669   3.525   4.127  0.3965 -2.3736 -1.2111
 1210SOL     OW15265   4.597   1.426  11.289 -0.2443  0.1149 -0.1256
 1210SOL    HW115266   4.640   1.347  11.257 -0.4713  0.9037 -2.4035
 1210SOL    HW215267   4.543   1.444  11.212  1.1343  2.6852 -0.4945
 1211SOL     OW15268   2.019   1.340   8.049  0.1363  0.0340  0.3382
 1211SOL    HW115269   2.006   1.246   8.033  0.1032  0.0510  0.2627
 1211SOL    HW215270   2.115   1.347   8.055  0.2196  0.5140 -1.5704
 1212SOL     OW15271   1.597   3.904   3.069 -0.0504 -0.1425 -0.1094
 1212SOL    HW115272   1.571   3.895   2.977  0.4816 -2.0819 -0.0749
 1212SOL    HW215273   1.674   3.957   3.046  2.0796 -1.8141  3.1575
 1213SOL     OW15274   3.241   1.819   4.541  0.0783 -0.2107 -0.2034
 1213SOL    HW115275   3.170   1.780   4.490 -1.9909  2.7624  0.4127
 1213SOL    HW215276   3.201   1.906   4.543  0.0577 -0.2204 -0.1885
 1214SOL     OW15277   1.254   1.521  12.272 -0.3140 -0.2354 -0.5741
 1214SOL    HW115278   1.326   1.482  12.222  0.2065 -1.5667  1.2069
 1214SOL    HW215279   1.269   1.614  12.251  3.7707 -0.7055  0.1663
 1215SOL     OW15280   3.043   4.148   4.277  0.2285 -0.3026  0.5079
 1215SOL    HW115281   3.093   4.174   4.199 -0.1121  1.3849  0.8464
 1215SOL    HW215282   3.001   4.066   4.251  0.3139 -0.8309  2.0479
 1216SOL     OW15283   2.443   4.624   9.323  0.1798 -0.7681  0.4214
 1216SOL    HW115284   2.508   4.649   9.257 -0.8086  0.2346 -0.1700
 1216SOL    HW215285   2.502   4.604   9.396 -0.0384 -0.2956  0.7322
 1217SOL     OW15286   1.693   4.016   7.205 -0.3889  0.1109  0.1526
 1217SOL    HW115287   1.678   4.097   7.156  1.3724 -0.1206 -0.7935
 1217SOL    HW215288   1.721   4.058   7.287  0.0889  1.7523 -0.8351
 1218SOL     OW15289   4.090   0.346  10.190 -0.2304 -0.0270  0.3146
 1218SOL    HW115290   4.042   0.287  10.248 -0.5246 -0.3061 -0.2107
 1218SOL    HW215291   4.131   0.275  10.140 -1.3301  1.0426 -2.0762
 1219SOL     OW15292   1.106   3.497   6.729  0.0017  0.1008 -0.2811
 1219SOL    HW115293   1.176   3.538   6.779  0.6365 -1.8337  0.4399
 1219SOL    HW215294   1.130   3.404   6.719 -1.0773 -0.1836 -0.2567
 1220SOL     OW15295   2.942   2.559  11.148  0.4303 -0.3259 -0.3157
 1220SOL    HW115296   2.917   2.648  11.125 -1.0503 -0.5716  0.3637
 1220SOL    HW215297   2.924   2.510  11.068 -1.2038 -0.3125  0.0395
 1221SOL     OW15298   3.358   3.184   5.825 -0.0449 -0.1228  0.0601
 1221SOL    HW115299   3.312   3.268   5.820  1.3517  0.5533 -1.2161
 1221SOL    HW215300   3.341   3.151   5.737 -4.8791  0.1611  0.8664
 1222SOL     OW15301   1.920   3.179   5.591 -0.2991  0.2366  0.4713
 1222SOL    HW115302   1.889   3.099   5.550  1.8394 -0.4901  0.2964
 1222SOL    HW215303   2.012   3.160   5.578 -0.2086  0.5093  0.7140
 1223SOL     OW15304   0.955   1.739  10.300 -0.2086 -0.4609 -0.0400
 1223SOL    HW115305   1.040   1.725  10.339 -0.6972  0.9928  1.5115
 1223SOL    HW215306   0.939   1.652  10.261  1.5082 -0.7419 -0.1010
 1224SOL     OW15307   4.283   0.502   7.496 -0.6804  0.2042  0.3819
 1224SOL    HW115308   4.362   0.550   7.519 -0.2691 -0.7052  0.9031
 1224SOL    HW215309   4.283   0.434   7.564  3.2742 -1.0965 -0.8992
 1225SOL     OW15310   3.407   3.360   6.865 -0.3795 -0.0858  0.2445
 1225SOL    HW115311   3.466   3.319   6.928 -1.0805 -1.5071 -0.0248
 1225SOL    HW215312   3.393   3.294   6.797 -1.5978 -0.2142  0.6175
 1226SOL     OW15313   4.118   2.085   7.672  0.1677 -0.2687  0.1655
 1226SOL    HW115314   4.187   2.118   7.730 -0.2560 -0.7318  0.9328
 1226SOL    HW215315   4.102   2.172   7.634 -0.0804 -0.0082  0.8658
 1227SOL     OW15316   1.524   0.733   5.423 -0.6192  0.0401 -0.3090
 1227SOL    HW115317   1.605   0.722   5.374 -0.0789  0.8932  0.3967
 1227SOL    HW215318   1.539   0.688   5.507 -0.7044  1.2134  0.3277
 1228SOL     OW15319   4.662   1.478   0.775  0.0140  0.2897 -0.1415
 1228SOL    HW115320   4.603   1.515   0.709  0.7705  1.7467 -0.0119
 1228SOL    HW215321   4.673   1.387   0.750 -0.6149 -0.4572  2.3075
 1229SOL     OW15322   2.840   2.909   2.229  0.3064  0.5487  0.0591
 1229SOL    HW115323   2.793   2.826   2.224  1.0066  0.1850 -0.3909
 1229SOL    HW215324   2.803   2.954   2.153  0.4537 -0.7290 -0.7731
 1230SOL     OW15325   2.057   2.787   3.020 -0.5742  0.3935  0.0560
 1230SOL    HW115326   2.130   2.842   2.990 -1.3093  2.3080  1.7611
 1230SOL    HW215327   2.085   2.779   3.111  0.7770  1.6574 -0.2472
 1231SOL     OW15328   4.196   2.689   2.618  0.7652 -0.1564 -0.3065
 1231SOL    HW115329   4.257   2.764   2.622 -0.1319  0.4359  2.1616
 1231SOL    HW215330   4.127   2.720   2.559  2.0014  0.7376 -1.2910
 1232SOL     OW15331   1.591   1.270   3.947  0.1392 -0.1302 -0.2961
 1232SOL    HW115332   1.653   1.276   3.875  1.1249 -0.9766  0.4833
 1232SOL    HW215333   1.648   1.293   4.020 -0.4113  0.0027  0.0889
 1233SOL     OW15334   1.914   3.548   9.188  0.1059 -0.2606  0.0505
 1233SOL    HW115335   1.843   3.487   9.169 -0.3487  0.4355 -0.5158
 1233SOL    HW215336   1.933   3.568   9.096 -1.0412 -0.8504 -0.3109
 1234SOL     OW15337   4.612   4.610   4.208  0.1235  0.3983 -0.0601
 1234SOL    HW115338   4.668   4.666   4.263 -0.8448 -0.1823  1.5257
 1234SOL    HW215339   4.643   4.522   4.229 -1.9478  0.0601  1.6030
 1235SOL     OW15340   2.142   4.563   4.111 -0.5709 -0.0136 -0.0588
 1235SOL    HW115341   2.204   4.559   4.184 -0.8177 -0.7539  0.1143
 1235SOL    HW215342   2.072   4.500   4.128 -1.3975  1.0317  0.4683
 1236SOL     OW15343   3.661   1.866  16.340 -0.0187 -0.4275  0.2452
 1236SOL    HW115344   3.711   1.794  16.303  1.1891  0.0258  0.9720
 1236SOL    HW215345   3.643   1.913  16.259  1.5635 -1.2611 -0.5801
 1237SOL     OW15346   4.518   4.590   2.535  0.6061 -0.5426  0.5612
 1237SOL    HW115347   4.605   4.573   2.500 -1.4361 -3.3200 -3.1452
 1237SOL    HW215348   4.465   4.599   2.456  0.4300 -0.6220  0.6696
 1238SOL     OW15349   0.036   1.285   5.208  0.0977  0.4729 -0.4596
 1238SOL    HW115350   4.695   1.248   5.253  0.8698 -1.2836 -0.6110
 1238SOL    HW215351   4.725   1.328   5.136 -2.2636 -1.1998  0.0360
 1239SOL     OW15352   0.119   2.691   0.609 -0.1922 -0.5295  0.4152
 1239SOL    HW115353   0.136   2.781   0.583 -0.0976 -0.2033  1.5872
 1239SOL    HW215354   0.054   2.663   0.545 -2.0890 -1.6607  2.8097
 1240SOL     OW15355   1.963   2.564   8.079 -0.5934  0.8725  0.2224
 1240SOL    HW115356   2.015   2.597   8.005  1.2962 -1.8275  0.3639
 1240SOL    HW215357   1.928   2.485   8.040  1.6016 -0.4207  0.8829
 1241SOL     OW15358   0.705   3.258   1.824 -0.3927 -0.1561 -0.6793
 1241SOL    HW115359   0.646   3.242   1.750  1.1791 -0.6821 -1.8122
 1241SOL    HW215360   0.787   3.223   1.790 -0.8441 -0.1490 -1.7833
 1242SOL     OW15361   0.540   4.247   3.764  0.8502 -0.5004 -0.2338
 1242SOL    HW115362   0.554   4.322   3.706 -1.6658 -0.8115 -1.2560
 1242SOL    HW215363   0.503   4.188   3.699 -0.4283 -0.8546  0.8045
 1243SOL     OW15364   2.644   0.286   8.861  0.3142 -0.2491 -0.1110
 1243SOL    HW115365   2.623   0.197   8.833  0.6293 -1.0736  2.2366
 1243SOL    HW215366   2.681   0.320   8.780 -1.8633  0.5975 -0.7621
 1244SOL     OW15367   1.063   2.239   6.951  0.7821  0.0772  0.6081
 1244SOL    HW115368   1.039   2.214   7.040  0.1837 -2.0594 -0.1330
 1244SOL    HW215369   1.014   2.173   6.900 -0.6116  1.0394  0.7018
 1245SOL     OW15370   0.406   1.985   2.836 -0.2343 -0.0191 -0.1396
 1245SOL    HW115371   0.356   2.031   2.768  1.0192  2.4796  0.6276
 1245SOL    HW215372   0.347   1.983   2.911 -0.3839  0.5774 -0.2425
 1246SOL     OW15373   3.972   3.080   7.586  0.0523  0.2141  0.0879
 1246SOL    HW115374   3.934   3.164   7.610 -0.4636  0.3457 -1.1671
 1246SOL    HW215375   4.042   3.109   7.526  0.4407  0.6937  0.7719
 1247SOL     OW15376   0.975   0.480   2.378 -0.2146 -0.3733 -0.1306
 1247SOL    HW115377   1.033   0.462   2.453  0.3757  1.7709 -0.0707
 1247SOL    HW215378   0.992   0.573   2.361 -0.4816 -0.6641 -1.9441
 1248SOL     OW15379   1.107   1.923   9.179  0.6279  0.1854  0.6684
 1248SOL    HW115380   1.107   1.846   9.236  2.8576 -0.5133 -0.2582
 1248SOL    HW215381   1.169   1.898   9.110  1.5516  0.0589  1.5272
 1249SOL     OW15382   0.604   0.130   2.593 -0.0899  0.0746 -0.1240
 1249SOL    HW115383   0.633   0.203   2.539 -1.0738  0.4733 -0.1168
 1249SOL    HW215384   0.685   0.087   2.622  0.8980  0.8746 -1.6971
 1250SOL     OW15385   4.554   3.121   5.648 -0.1405  0.3211  0.4362
 1250SOL    HW115386   4.470   3.077   5.656  0.6548 -1.3078  0.0779
 1250SOL    HW215387   4.551   3.143   5.554 -2.6141 -2.2511 -0.0926
 1251SOL     OW15388   2.236   3.289   4.396  0.3694  0.2984  0.0874
 1251SOL    HW115389   2.214   3.379   4.420 -1.6008 -0.0903 -0.2366
 1251SOL    HW215390   2.326   3.298   4.426  0.3360  0.0093  0.2831
 1252SOL     OW15391   1.641   1.719  12.200 -0.0765 -0.3053  0.0381
 1252SOL    HW115392   1.630   1.736  12.294 -0.9664  0.3483 -0.1873
 1252SOL    HW215393   1.613   1.628  12.196  2.2028 -1.0302  0.6195
 1253SOL     OW15394   0.554   2.372   8.684 -0.0790  0.0421  0.6499
 1253SOL    HW115395   0.463   2.392   8.705  0.2070  1.5538  0.3903
 1253SOL    HW215396   0.608   2.434   8.732 -0.9926  1.3351  0.0184
 1254SOL     OW15397   3.996   1.620  12.025  0.3157 -1.0829 -0.0445
 1254SOL    HW115398   3.992   1.713  12.047 -0.5774 -0.7714 -1.5366
 1254SOL    HW215399   3.904   1.603  12.007 -0.2074 -0.5907  2.1749
 1255SOL     OW15400   3.466   1.645   4.317  0.1718  0.3349 -0.1682
 1255SOL    HW115401   3.452   1.551   4.316  0.2389  0.3290 -0.5996
 1255SOL    HW215402   3.415   1.669   4.239  1.7873  0.7838 -1.0980
 1256SOL     OW15403   2.027   2.484   9.990  0.4258  0.4766 -0.5036
 1256SOL    HW115404   2.066   2.421   9.930  0.7281 -2.7794  3.1142
 1256SOL    HW215405   2.043   2.562   9.937  1.4343  0.1632 -0.6457
 1257SOL     OW15406   0.792   2.338   9.325 -0.3014  0.2498  0.2407
 1257SOL    HW115407   0.771   2.406   9.260  1.6551  0.0760 -0.5965
 1257SOL    HW215408   0.830   2.271   9.268 -1.6613 -0.8793  0.6677
 1258SOL     OW15409   0.430   2.026   7.847 -0.7402 -0.2682 -0.0141
 1258SOL    HW115410   0.471   2.083   7.782 -1.3047 -1.3943 -1.3652
 1258SOL    HW215411   0.386   2.082   7.910 -3.2790  0.0502 -2.0828
 1259SOL     OW15412   0.920   2.551   8.052  0.5157  0.1538  0.5062
 1259SOL    HW115413   0.979   2.612   8.095 -0.1731  3.3170 -3.0659
 1259SOL    HW215414   0.980   2.490   8.009  0.7216  2.3377 -2.3024
 1260SOL     OW15415   1.244   3.384   5.744 -0.3132  0.5036  0.0997
 1260SOL    HW115416   1.304   3.458   5.739 -0.8792  0.8934 -0.7091
 1260SOL    HW215417   1.154   3.413   5.731  0.0879  1.4968 -0.4440
 1261SOL     OW15418   3.511   2.737   7.570 -0.2706 -0.8362 -0.2340
 1261SOL    HW115419   3.546   2.661   7.617 -1.3135 -0.3659  1.3171
 1261SOL    HW215420   3.586   2.785   7.535 -0.2304 -2.0540 -1.8194
 1262SOL     OW15421   0.057   3.345   4.556  0.0647 -0.7174  0.0869
 1262SOL    HW115422   4.707   3.301   4.563 -0.7747  1.3754  3.2120
 1262SOL    HW215423   0.058   3.408   4.628 -0.7640 -0.1836 -0.3572
 1263SOL     OW15424   1.759   2.100   3.810  0.2554 -0.1800  0.2201
 1263SOL    HW115425   1.709   2.167   3.764 -0.1494 -2.1684 -2.1903
 1263SOL    HW215426   1.842   2.147   3.823 -0.3387  0.2764  2.3465
 1264SOL     OW15427   0.802   2.195   4.382  0.0243  0.0758 -0.5751
 1264SOL    HW115428   0.818   2.117   4.435 -0.3049 -0.6930 -1.6150
 1264SOL    HW215429   0.882   2.206   4.329  1.0518  1.1359  1.2021
 1265SOL     OW15430   1.728   2.170   8.883 -0.2901  0.2364 -0.1667
 1265SOL    HW115431   1.716   2.108   8.811  2.2111 -0.2244 -0.2134
 1265SOL    HW215432   1.644   2.214   8.874  0.6813  2.2151  0.3170
 1266SOL     OW15433   1.594   3.562   0.545  0.5326  0.0682 -0.3237
 1266SOL    HW115434   1.587   3.620   0.622 -1.4348 -2.0874  1.1169
 1266SOL    HW215435   1.608   3.629   0.478  0.2613 -0.4328 -0.8762
 1267SOL     OW15436   0.361   2.748   7.624 -0.6389  0.3003  0.0919
 1267SOL    HW115437   0.450   2.780   7.635 -0.6117  0.2795 -0.0568
 1267SOL    HW215438   0.325   2.805   7.555 -0.7081  2.0308  1.5769
 1268SOL     OW15439   3.099   1.000  13.058  0.7751 -0.0569 -1.4287
 1268SOL    HW115440   3.086   1.060  12.984 -0.6296 -1.6088 -2.4549
 1268SOL    HW215441   3.058   0.917  13.035  0.7305 -0.5653  0.4331
 1269SOL     OW15442   2.448   1.589   8.222  0.0850 -0.2700 -0.5105
 1269SOL    HW115443   2.359   1.573   8.254  0.6808 -1.5280  0.5007
 1269SOL    HW215444   2.474   1.669   8.268  1.6414  0.0243 -1.9305
 1270SOL     OW15445   3.710   2.340   9.181  0.5505  0.1161 -0.0155
 1270SOL    HW115446   3.685   2.274   9.245  0.6619  0.1415  0.0549
 1270SOL    HW215447   3.755   2.412   9.225  0.5024 -0.1845  0.5216
 1271SOL     OW15448   2.012   4.000   2.825 -0.5732  0.3957 -0.2735
 1271SOL    HW115449   2.012   4.036   2.737  0.0966  1.5016  0.1780
 1271SOL    HW215450   1.920   3.972   2.831 -0.4535 -0.1679 -1.1094
 1272SOL     OW15451   4.095   1.113  11.498  1.0389  0.1662  0.0893
 1272SOL    HW115452   4.078   1.019  11.503 -0.4348  0.4591  0.7504
 1272SOL    HW215453   4.114   1.126  11.591  3.0702  1.3502 -0.5185
 1273SOL     OW15454   3.712   3.109   2.036 -0.1024  1.1144  0.3140
 1273SOL    HW115455   3.785   3.171   2.045  0.1345  0.8775  0.0164
 1273SOL    HW215456   3.761   3.031   2.014 -0.7609  0.2648  1.8556
 1274SOL     OW15457   3.072   4.653   5.959 -0.8152  0.1821 -0.6208
 1274SOL    HW115458   3.004   4.708   5.919 -1.2520 -0.2340 -0.4529
 1274SOL    HW215459   3.035   4.630   6.044 -0.0479 -0.7708 -0.5569
 1275SOL     OW15460   4.093   2.521   3.367 -0.2540  0.0323  0.3166
 1275SOL    HW115461   4.052   2.499   3.451 -0.5439  0.1692  0.2076
 1275SOL    HW215462   4.127   2.607   3.390  1.0188 -0.2931 -0.3076
 1276SOL     OW15463   0.725   4.646   3.979  0.0547 -0.0646  0.1469
 1276SOL    HW115464   0.651   4.585   3.971  0.6001 -0.6559 -0.4328
 1276SOL    HW215465   0.793   4.578   3.980  1.7125  1.6090 -0.1438
 1277SOL     OW15466   2.003   3.923   6.973 -0.3675 -0.6918  0.1894
 1277SOL    HW115467   1.959   3.956   6.895 -1.4249 -0.0326  1.0528
 1277SOL    HW215468   2.065   3.861   6.935  0.3861  0.9809 -1.2827
 1278SOL     OW15469   2.531   4.305   3.466  0.2239 -0.5383  0.1347
 1278SOL    HW115470   2.545   4.280   3.558 -1.9104 -1.2035  0.2831
 1278SOL    HW215471   2.601   4.252   3.427 -0.8061 -0.4768 -1.7881
 1279SOL     OW15472   2.012   3.532   9.845 -0.1797  0.6069  0.3126
 1279SOL    HW115473   2.052   3.451   9.877 -1.0636  0.8958  2.1534
 1279SOL    HW215474   2.064   3.551   9.767  2.3586 -0.7429  1.6941
 1280SOL     OW15475   4.304   0.351   7.723 -0.5727 -0.1915  0.7874
 1280SOL    HW115476   4.231   0.337   7.783  0.5865  0.9738  2.4462
 1280SOL    HW215477   4.357   0.405   7.781  0.0962  0.6042 -0.5552
 1281SOL     OW15478   1.611   2.633   3.770 -0.3809 -0.1231  0.2470
 1281SOL    HW115479   1.549   2.653   3.840  1.7627  2.2685  1.4662
 1281SOL    HW215480   1.600   2.717   3.725 -1.5428 -0.9458 -1.0195
 1282SOL     OW15481   3.058   4.243   6.613 -0.4105  0.3099  0.3468
 1282SOL    HW115482   3.106   4.217   6.692  2.2276  4.1938  0.0265
 1282SOL    HW215483   3.118   4.205   6.548  0.1092  2.2358 -0.2963
 1283SOL     OW15484   0.513   1.436   7.719 -0.1384 -1.0577 -0.6375
 1283SOL    HW115485   0.524   1.531   7.718 -0.1738 -1.0589 -1.1580
 1283SOL    HW215486   0.585   1.404   7.773  0.5853  0.0420 -0.9536
 1284SOL     OW15487   0.011   2.042  12.548 -0.3775 -0.0590 -0.2853
 1284SOL    HW115488   0.076   2.057  12.480 -0.2131 -1.1863 -0.3777
 1284SOL    HW215489   0.019   1.951  12.579 -1.0196  0.3171  1.0049
 1285SOL     OW15490   4.536   1.299   3.774 -0.4089  0.3243  0.3540
 1285SOL    HW115491   4.563   1.271   3.687 -0.7231 -1.2253  0.7521
 1285SOL    HW215492   4.475   1.229   3.801 -1.6442  0.6827 -1.5477
 1286SOL     OW15493   0.058   2.262   0.919  0.7457 -0.0023 -0.3903
 1286SOL    HW115494   4.704   2.297   0.921  0.5225 -0.7076  2.6851
 1286SOL    HW215495   0.103   2.344   0.941  1.1509 -0.1334 -0.7241
 1287SOL     OW15496   3.045   1.519   8.491  0.4684 -0.4158 -0.3805
 1287SOL    HW115497   2.965   1.571   8.500  1.5741  0.9225  1.7175
 1287SOL    HW215498   3.112   1.587   8.503  0.0302  0.1486 -1.1353
 1288SOL     OW15499   1.983   2.291   1.838  0.1736  0.3917 -0.1394
 1288SOL    HW115500   1.998   2.221   1.775 -2.8705  2.6265 -3.3701
 1288SOL    HW215501   2.070   2.294   1.877  0.5403  0.9207 -0.9850
 1289SOL     OW15502   1.688   2.356   9.777  0.2281 -0.3572  0.0869
 1289SOL    HW115503   1.643   2.274   9.755 -0.9710  0.3892 -0.2644
 1289SOL    HW215504   1.621   2.412   9.738  1.3235  0.3434 -0.7817
 1290SOL     OW15505   1.384   1.301  11.625 -0.2321  0.4084  0.0606
 1290SOL    HW115506   1.378   1.236  11.695  0.4134 -0.0778 -0.3430
 1290SOL    HW215507   1.456   1.353  11.661 -1.4330  1.1074  1.4816
 1291SOL     OW15508   3.962   0.372   6.620 -0.1255 -0.2610 -0.1256
 1291SOL    HW115509   4.013   0.429   6.677  0.2026 -1.9964  1.3340
 1291SOL    HW215510   4.020   0.296   6.608  0.3665 -0.0142  0.6817
 1292SOL     OW15511   1.657   4.718   8.457  0.0198  1.2939  0.2768
 1292SOL    HW115512   1.586   4.727   8.393  0.5372  1.2697 -0.2979
 1292SOL    HW215513   1.701   4.634   8.446 -0.8460  0.8312  0.3555
 1293SOL     OW15514   1.138   3.833   6.637 -0.2302 -0.5770 -0.0369
 1293SOL    HW115515   1.227   3.811   6.663  0.2484  1.3461 -0.0413
 1293SOL    HW215516   1.123   3.778   6.560  2.6337 -1.3387 -0.0334
 1294SOL     OW15517   1.710   2.273   1.928  0.8933  0.1798 -0.2227
 1294SOL    HW115518   1.704   2.368   1.931 -1.7082 -0.0213  1.3306
 1294SOL    HW215519   1.805   2.265   1.917  0.8207 -0.2368 -0.5601
 1295SOL     OW15520   2.603   1.074  10.887 -0.5167  0.1271  0.6834
 1295SOL    HW115521   2.615   1.167  10.869  3.0710  0.1035  2.9310
 1295SOL    HW215522   2.528   1.074  10.945 -2.3778  1.5042 -1.7452
 1296SOL     OW15523   0.038   3.519   4.802 -0.1965  0.1757 -0.2902
 1296SOL    HW115524   4.730   3.588   4.852 -1.7525 -1.7996  1.1215
 1296SOL    HW215525   0.114   3.556   4.758  0.1823  0.3526  0.5298
 1297SOL     OW15526   2.564   4.196   0.538  0.4100 -0.0515  0.8140
 1297SOL    HW115527   2.559   4.163   0.628  0.8218  0.0888  0.8862
 1297SOL    HW215528   2.500   4.267   0.541 -0.2111 -0.4387 -3.6510
 1298SOL     OW15529   4.571   0.608  12.343 -0.0976 -0.1807  0.2379
 1298SOL    HW115530   4.618   0.635  12.422  0.2573  0.1715 -0.0858
 1298SOL    HW215531   4.628   0.636  12.271  0.1297 -0.5763  0.2685
 1299SOL     OW15532   1.024   0.225   7.467 -0.4237 -0.1349 -0.3032
 1299SOL    HW115533   0.986   0.144   7.433 -0.9238  0.6045 -1.4751
 1299SOL    HW215534   0.970   0.257   7.539  2.3736  0.1488  1.7038
 1300SOL     OW15535   1.635   3.859   9.807 -0.2942 -0.3475 -0.1859
 1300SOL    HW115536   1.633   3.767   9.781 -1.2409 -0.4144  0.1234
 1300SOL    HW215537   1.654   3.853   9.900 -0.6537  0.7192 -0.0444
 1301SOL     OW15538   2.611   1.487   5.941 -0.1503  0.0949 -0.1627
 1301SOL    HW115539   2.593   1.568   5.989 -0.0191  0.8502 -1.3705
 1301SOL    HW215540   2.674   1.452   6.004 -1.6985 -0.0477  1.3109
 1302SOL     OW15541   2.812   0.854   9.674 -0.2101  0.2326  0.6365
 1302SOL    HW115542   2.735   0.846   9.618  0.1981  1.2192 -0.0625
 1302SOL    HW215543   2.881   0.815   9.620  0.2020  0.0493  1.2982
 1303SOL     OW15544   1.434   3.695   7.236  0.4294 -0.2965  0.0746
 1303SOL    HW115545   1.461   3.684   7.327  0.6486  2.1708  0.3032
 1303SOL    HW215546   1.339   3.705   7.240  0.2459 -1.4176 -1.3946
 1304SOL     OW15547   4.659   2.890   4.383  0.5167 -0.0262  0.9965
 1304SOL    HW115548   4.574   2.851   4.366  1.6245 -1.6475 -0.7621
 1304SOL    HW215549   4.718   2.820   4.355 -1.0683 -1.0256  0.1978
 1305SOL     OW15550   2.693   2.592   1.163  0.4478 -0.1380 -0.0483
 1305SOL    HW115551   2.633   2.622   1.231 -1.2395 -0.0410 -1.5759
 1305SOL    HW215552   2.650   2.511   1.137 -0.1966  0.0555  0.4218
 1306SOL     OW15553   0.836   2.734   0.766  0.0559  0.3690  0.7140
 1306SOL    HW115554   0.848   2.827   0.743  2.2148 -0.3899 -1.2352
 1306SOL    HW215555   0.891   2.677   0.713  0.2685  1.5636 -0.3619
 1307SOL     OW15556   0.352   1.671   8.531 -0.0427 -0.3035 -0.2399
 1307SOL    HW115557   0.392   1.681   8.444  2.2699 -0.3688  0.8294
 1307SOL    HW215558   0.269   1.718   8.530  0.1586  0.0673  2.0246
 1308SOL     OW15559   1.026   0.510  13.479 -0.1162  0.2677 -0.1226
 1308SOL    HW115560   1.017   0.532  13.386 -0.6555 -2.3819 -0.6820
 1308SOL    HW215561   0.939   0.478  13.503 -0.1438  1.6593  1.6283
 1309SOL     OW15562   1.252   2.333   6.790  0.0273  0.8248 -0.1264
 1309SOL    HW115563   1.331   2.280   6.803 -0.5927 -0.2311 -0.5966
 1309SOL    HW215564   1.195   2.307   6.862  1.8410 -4.0903 -0.4655
 1310SOL     OW15565   2.823   1.890  13.733 -0.5855 -0.2312 -0.2070
 1310SOL    HW115566   2.780   1.919  13.652 -0.2505  1.2325  0.1511
 1310SOL    HW215567   2.742   1.878  13.783  0.3143  1.8907  1.7467
 1311SOL     OW15568   2.831   2.198  15.263 -0.3806 -0.7451  0.1627
 1311SOL    HW115569   2.775   2.243  15.200 -0.6331 -1.4921 -0.1521
 1311SOL    HW215570   2.766   2.131  15.280 -1.4903  0.2184 -0.2981
 1312SOL     OW15571   0.347   1.336  15.104  0.2324 -0.0387  0.3785
 1312SOL    HW115572   0.294   1.416  15.100  0.7038  0.4205  3.0187
 1312SOL    HW215573   0.366   1.323  15.197  1.1042  2.0922  0.5165
 1313SOL     OW15574   3.746   3.193   7.750  0.5446 -0.1817  0.1292
 1313SOL    HW115575   3.661   3.230   7.772 -0.7949 -3.9664  1.3732
 1313SOL    HW215576   3.769   3.220   7.661  0.2044 -0.3882 -0.0226
 1314SOL     OW15577   3.108   1.225   5.256 -0.1778  0.1971 -0.9926
 1314SOL    HW115578   3.051   1.263   5.323 -1.1251 -3.2302  0.1437
 1314SOL    HW215579   3.040   1.174   5.211 -1.7767 -0.2372  1.9126
 1315SOL     OW15580   0.901   3.460   4.193  0.9022 -0.4456 -0.4752
 1315SOL    HW115581   0.878   3.547   4.159  0.5972 -0.4393 -0.2536
 1315SOL    HW215582   0.817   3.433   4.231  0.5888 -1.0265 -1.5939
 1316SOL     OW15583   2.106   3.682  12.948 -0.4345  0.0380 -0.1531
 1316SOL    HW115584   2.119   3.614  12.882 -1.6678 -1.2551  0.9488
 1316SOL    HW215585   2.095   3.756  12.887  2.0566 -0.4908 -1.2210
 1317SOL     OW15586   3.388   2.477   5.620 -0.2544 -0.6889 -0.1005
 1317SOL    HW115587   3.375   2.383   5.607 -2.9862 -0.1264 -1.4231
 1317SOL    HW215588   3.392   2.505   5.528 -0.5414  0.3810  0.2070
 1318SOL     OW15589   2.112   1.283   7.433 -0.2849  0.1672 -0.2176
 1318SOL    HW115590   2.200   1.286   7.396 -0.4045  1.7344 -0.4040
 1318SOL    HW215591   2.140   1.291   7.524 -1.6062  0.1129  0.1889
 1319SOL     OW15592   2.676   0.032  13.304 -0.2855 -0.1429  0.1591
 1319SOL    HW115593   2.589   0.020  13.267 -0.7240  0.1190  1.0942
 1319SOL    HW215594   2.654   0.020  13.396 -2.6091 -0.3295 -0.4358
 1320SOL     OW15595   3.137   4.553   3.156 -0.4273 -0.2048  0.0347
 1320SOL    HW115596   3.180   4.486   3.102 -1.0463  1.0284 -2.0230
 1320SOL    HW215597   3.048   4.520   3.167 -0.2240 -0.9547 -0.5232
 1321SOL     OW15598   1.844   4.244   8.941 -0.0925  0.3928 -0.2226
 1321SOL    HW115599   1.775   4.196   8.989  0.3107  0.0538  0.0232
 1321SOL    HW215600   1.848   4.336   8.966  0.8092 -0.0886  1.4009
 1322SOL     OW15601   2.617   4.020  13.869  0.1480  0.1048  0.2662
 1322SOL    HW115602   2.591   4.064  13.950 -0.8994 -0.7508  0.3925
 1322SOL    HW215603   2.653   3.938  13.902 -0.5966 -0.0642  0.6809
 1323SOL     OW15604   1.684   1.056   0.465  0.2885  0.1857  0.4589
 1323SOL    HW115605   1.658   0.983   0.520  1.8755 -0.9296 -0.2803
 1323SOL    HW215606   1.669   1.140   0.508  1.3873 -0.5278  2.2289
 1324SOL     OW15607   3.720   0.663   8.829 -0.0392 -0.4446 -0.5182
 1324SOL    HW115608   3.685   0.574   8.823  3.1375 -1.8455  1.4348
 1324SOL    HW215609   3.733   0.663   8.924  0.4013 -0.1819 -0.5762
 1325SOL     OW15610   3.460   2.540   2.267  0.0822  0.0028 -0.1386
 1325SOL    HW115611   3.468   2.594   2.346  0.5196 -1.2940  0.7108
 1325SOL    HW215612   3.539   2.553   2.214 -0.5129  1.8836 -0.5674
 1326SOL     OW15613   3.266   3.607   7.970 -0.3414  0.7233  0.2163
 1326SOL    HW115614   3.183   3.596   8.014  0.5804 -1.8272  1.2807
 1326SOL    HW215615   3.253   3.534   7.910 -1.9325 -0.3461  1.8984
 1327SOL     OW15616   4.519   2.642  15.593  0.3249  0.0934 -0.2985
 1327SOL    HW115617   4.443   2.645  15.650 -1.2366 -0.7038 -2.3427
 1327SOL    HW215618   4.494   2.569  15.536  0.1548  0.0143 -0.1213
 1328SOL     OW15619   4.056   1.551  12.279 -0.3511  0.2832 -0.1028
 1328SOL    HW115620   4.075   1.560  12.185  0.8381 -0.8207  0.0310
 1328SOL    HW215621   4.125   1.610  12.309 -0.5616 -0.6694  2.2483
 1329SOL     OW15622   3.661   3.381   6.565 -0.0971 -0.0923 -0.7366
 1329SOL    HW115623   3.651   3.428   6.648  2.0441  1.5943 -1.4203
 1329SOL    HW215624   3.750   3.413   6.546  1.2034 -2.0374  2.0700
 1330SOL     OW15625   4.064   2.746   6.821 -0.7745 -0.4127 -0.0032
 1330SOL    HW115626   4.128   2.730   6.890 -0.7784  2.6527  0.6972
 1330SOL    HW215627   4.073   2.835   6.787  0.1585 -0.4800  0.0877
 1331SOL     OW15628   0.862   0.185   7.072  0.0708 -0.3215  0.3791
 1331SOL    HW115629   0.773   0.196   7.107 -0.6435 -3.2097 -0.4606
 1331SOL    HW215630   0.845   0.101   7.029  0.4153 -0.8899  1.3655
 1332SOL     OW15631   4.408   0.790   4.502  0.2187  0.4588  0.3944
 1332SOL    HW115632   4.441   0.723   4.442 -2.0545 -0.9833  0.7734
 1332SOL    HW215633   4.454   0.768   4.583  0.1557 -1.9702 -0.2366
 1333SOL     OW15634   2.413   1.956   2.167  0.2959  0.1053  0.6197
 1333SOL    HW115635   2.435   1.863   2.162 -0.4916 -0.0608  0.1617
 1333SOL    HW215636   2.360   1.965   2.088  0.6733  2.8363  0.6855
 1334SOL     OW15637   1.478   2.697   2.166  0.2499  0.1059  0.0201
 1334SOL    HW115638   1.554   2.687   2.223  0.1536  0.3904  0.1995
 1334SOL    HW215639   1.405   2.670   2.221  0.0331  0.1021 -0.2690
 1335SOL     OW15640   2.561   1.567   2.181 -0.3627  0.0904  0.4261
 1335SOL    HW115641   2.605   1.517   2.112 -1.9629 -0.5954 -0.1133
 1335SOL    HW215642   2.527   1.636   2.124 -1.1112  1.1456  2.1709
 1336SOL     OW15643   3.394   1.231   6.251  0.2748 -0.3691  0.5538
 1336SOL    HW115644   3.302   1.209   6.232 -0.0227  0.2991  1.2087
 1336SOL    HW215645   3.391   1.272   6.337  0.9273  0.6670  0.0833
 1337SOL     OW15646   4.060   0.335   7.856  0.3811  0.0147  0.3446
 1337SOL    HW115647   4.073   0.381   7.939  1.0576 -0.1744  0.3435
 1337SOL    HW215648   4.046   0.248   7.894 -0.2249  0.0467  0.2019
 1338SOL     OW15649   3.288   0.273  12.660 -0.0918  0.3205 -0.0310
 1338SOL    HW115650   3.371   0.315  12.636 -0.7775  1.2642 -0.7418
 1338SOL    HW215651   3.284   0.200  12.597  2.6682 -0.6111  0.8857
 1339SOL     OW15652   0.139   2.211   3.509 -0.3765 -0.2950  0.1832
 1339SOL    HW115653   0.045   2.194   3.509 -0.2025 -1.3033 -2.0429
 1339SOL    HW215654   0.163   2.174   3.594  3.0243 -1.6681 -1.3694
 1340SOL     OW15655   2.285   1.064  13.816 -0.0994  0.6486 -0.5971
 1340SOL    HW115656   2.200   1.042  13.853  1.8627 -4.8601  0.6247
 1340SOL    HW215657   2.280   1.021  13.731 -0.2372  0.8454 -0.6883
 1341SOL     OW15658   2.740   0.376   3.448  0.5349  0.2266 -0.2577
 1341SOL    HW115659   2.650   0.388   3.480  0.9046 -1.4859  1.4915
 1341SOL    HW215660   2.736   0.393   3.354  0.7074  1.9449  0.0537
 1342SOL     OW15661   0.557   0.984   3.553 -0.1548  0.5998  0.5090
 1342SOL    HW115662   0.619   0.934   3.607  1.1408  2.6523  0.8897
 1342SOL    HW215663   0.478   0.951   3.595  0.0200  0.3352  0.6355
 1343SOL     OW15664   2.275   3.382  15.471 -0.3277 -0.0504  0.4977
 1343SOL    HW115665   2.183   3.407  15.464 -0.4234 -0.4410  0.3570
 1343SOL    HW215666   2.318   3.467  15.484  1.1832 -0.7841  0.3037
 1344SOL     OW15667   3.661   4.091   6.530 -0.2425 -0.0562  0.0885
 1344SOL    HW115668   3.687   4.124   6.444  0.1505  0.1938  0.3030
 1344SOL    HW215669   3.720   4.144   6.585  0.2221 -0.5832  0.0969
 1345SOL     OW15670   2.744   2.380   4.598 -0.0063 -0.2898 -0.1428
 1345SOL    HW115671   2.672   2.320   4.615 -1.2955  2.1195  2.8079
 1345SOL    HW215672   2.723   2.405   4.508 -0.6865 -0.3476  0.0022
 1346SOL     OW15673   1.079   4.019   7.773  0.6932 -0.0818 -0.5635
 1346SOL    HW115674   1.156   4.044   7.721 -0.3170 -0.1157 -2.0761
 1346SOL    HW215675   1.118   4.014   7.860  1.2310  0.2856 -0.7812
 1347SOL     OW15676   2.703   0.328   4.012 -0.9391  0.2378  0.6626
 1347SOL    HW115677   2.764   0.287   4.074 -0.8829 -1.7376 -0.6572
 1347SOL    HW215678   2.722   0.421   4.020 -2.0090  0.4662  0.5627
 1348SOL     OW15679   4.339   2.077  13.967 -0.8151  0.3603  0.0596
 1348SOL    HW115680   4.291   2.007  14.011  0.2400  0.1277  0.8102
 1348SOL    HW215681   4.342   2.154  14.024 -0.7219 -0.1088  0.6846
 1349SOL     OW15682   2.643   3.773  15.711 -0.6621 -0.3127  0.4676
 1349SOL    HW115683   2.696   3.849  15.735  2.3539 -1.8331 -1.3329
 1349SOL    HW215684   2.556   3.790  15.745 -0.8475  1.9183 -1.1288
 1350SOL     OW15685   2.976   1.055   8.425  0.4569 -0.3065  0.1768
 1350SOL    HW115686   2.986   1.134   8.373 -0.3337  0.3512  1.0385
 1350SOL    HW215687   3.049   1.052   8.487  0.1624 -0.5161  0.5067
 1351SOL     OW15688   1.059   1.251   2.269  0.0749  0.0969 -0.3006
 1351SOL    HW115689   1.141   1.258   2.221 -0.4029  1.4317 -0.9165
 1351SOL    HW215690   1.057   1.339   2.307 -1.4432 -0.4950  0.9890
 1352SOL     OW15691   1.369   2.846   2.417  0.5320 -0.5787 -0.0539
 1352SOL    HW115692   1.455   2.851   2.376  1.4185  2.4734  2.1952
 1352SOL    HW215693   1.401   2.825   2.505 -0.2152 -0.3489  0.2732
 1353SOL     OW15694   2.083   0.779   2.511 -0.4523 -0.3271 -1.0929
 1353SOL    HW115695   2.106   0.789   2.418  1.5526 -0.1987 -0.5726
 1353SOL    HW215696   2.057   0.869   2.530 -0.2749 -0.3330 -0.8285
 1354SOL     OW15697   3.481   2.319  13.667 -0.3487 -0.1793 -0.0535
 1354SOL    HW115698   3.514   2.409  13.671  2.1598 -1.1980  2.1781
 1354SOL    HW215699   3.468   2.306  13.761 -1.8538  0.8717 -0.1127
 1355SOL     OW15700   4.163   3.579   5.541 -0.2422  0.0142  0.5142
 1355SOL    HW115701   4.083   3.541   5.579 -1.0955  0.8121 -0.4814
 1355SOL    HW215702   4.135   3.608   5.455 -0.7939 -1.0577  0.3226
 1356SOL     OW15703   1.611   2.800  10.174 -0.1502  0.2997 -0.1446
 1356SOL    HW115704   1.555   2.733  10.214 -1.5126  0.4895 -1.6919
 1356SOL    HW215705   1.613   2.769  10.083  0.0242  1.3468 -0.4964
 1357SOL     OW15706   1.017   0.908   9.005  0.1344 -0.3516  0.6391
 1357SOL    HW115707   0.947   0.969   8.981  1.5999  1.8766  2.0360
 1357SOL    HW215708   0.994   0.834   8.949 -1.2099 -0.0741  0.8245
 1358SOL     OW15709   2.167   3.916  14.292  0.0750 -0.4145 -0.6242
 1358SOL    HW115710   2.112   3.952  14.223 -0.5691  2.7678  1.5574
 1358SOL    HW215711   2.253   3.927  14.253 -0.0112 -0.7577 -0.9076
 1359SOL     OW15712   2.198   2.417   9.743  0.0928 -0.4296  0.2843
 1359SOL    HW115713   2.224   2.330   9.714  1.4104 -0.0662  0.4100
 1359SOL    HW215714   2.156   2.454   9.665 -0.9475 -1.0645  0.5328
 1360SOL     OW15715   2.329   2.172   2.565  0.6719  0.1645  0.6130
 1360SOL    HW115716   2.374   2.220   2.634  0.1116 -0.4107  1.3771
 1360SOL    HW215717   2.309   2.240   2.500  0.5590 -0.1983  0.2677
 1361SOL     OW15718   2.521   4.696  14.398 -0.1478 -0.5772  0.2760
 1361SOL    HW115719   2.449   4.711  14.337  1.0137  1.9419 -0.4608
 1361SOL    HW215720   2.576   4.638  14.345  2.6040  1.1842  1.2375
 1362SOL     OW15721   1.491   0.991   5.661  0.1055 -0.0982  0.0917
 1362SOL    HW115722   1.505   0.953   5.747 -1.8796  1.2784  1.0313
 1362SOL    HW215723   1.423   0.936   5.623 -1.0041 -1.3177  3.8958
 1363SOL     OW15724   4.570   2.235   7.064  0.1262 -0.0569  0.0002
 1363SOL    HW115725   4.489   2.184   7.065 -0.4246  0.8551  1.6071
 1363SOL    HW215726   4.614   2.174   7.004 -0.3525 -0.8283  0.4228
 1364SOL     OW15727   3.154   3.796   2.409  0.8720  0.0452  0.2734
 1364SOL    HW115728   3.237   3.759   2.439  0.6465  0.1577  1.0434
 1364SOL    HW215729   3.099   3.718   2.399  1.3713  0.0606 -2.4132
 1365SOL     OW15730   3.151   1.469   2.161 -0.0740  0.2919  0.5131
 1365SOL    HW115731   3.079   1.407   2.149  2.5600 -2.7955  0.8793
 1365SOL    HW215732   3.128   1.538   2.099  2.6042  2.6691  2.1508
 1366SOL     OW15733   0.530   2.016   7.434  0.0910  0.2356 -0.3621
 1366SOL    HW115734   0.480   1.937   7.414  2.5179 -0.6434 -2.8563
 1366SOL    HW215735   0.463   2.084   7.434  1.0854  1.2182  0.2873
 1367SOL     OW15736   1.172   3.765   6.273  0.1536  0.6746 -1.0201
 1367SOL    HW115737   1.175   3.696   6.339  0.4836  0.5663 -1.1507
 1367SOL    HW215738   1.183   3.712   6.194 -0.5847  0.5054 -1.0124
 1368SOL     OW15739   4.395   0.840   2.442 -0.0538  0.0608  0.7378
 1368SOL    HW115740   4.470   0.782   2.453  0.6224  0.8332  0.1289
 1368SOL    HW215741   4.320   0.782   2.454 -0.2971  0.5648  1.6451
 1369SOL     OW15742   0.152   2.070   3.738  0.2776 -0.2540 -0.2559
 1369SOL    HW115743   0.195   2.004   3.793 -1.7897 -0.4726  1.1192
 1369SOL    HW215744   0.147   2.135   3.808 -0.1496 -0.5358 -0.0185
 1370SOL     OW15745   1.857   0.905   9.819  0.0495  0.7045 -0.4799
 1370SOL    HW115746   1.841   0.853   9.897 -1.4436  0.9223 -0.6403
 1370SOL    HW215747   1.952   0.897   9.829 -0.0289  0.0009 -0.3094
 1371SOL     OW15748   4.734   3.198   7.738  0.4596  0.4525 -0.3685
 1371SOL    HW115749   4.706   3.268   7.796  1.0334 -0.7140  1.2899
 1371SOL    HW215750   4.715   3.121   7.792  0.3747  0.6378 -0.1365
 1372SOL     OW15751   2.248   2.686   8.232 -0.0271  0.0839 -0.3847
 1372SOL    HW115752   2.213   2.688   8.321 -0.3888  0.4267 -0.5369
 1372SOL    HW215753   2.277   2.594   8.228 -1.5546 -0.4883  1.8029
 1373SOL     OW15754   1.210   0.281   6.535 -0.3238 -0.2252  0.2919
 1373SOL    HW115755   1.133   0.327   6.500 -0.8050 -2.5342 -1.6973
 1373SOL    HW215756   1.190   0.279   6.629  0.6352 -2.5989  0.4328
 1374SOL     OW15757   3.024   0.802   5.323 -0.4943 -0.5564 -0.0504
 1374SOL    HW115758   2.966   0.869   5.287 -1.2696 -0.7021  0.9556
 1374SOL    HW215759   3.092   0.802   5.255 -1.2443  1.4047 -0.8133
 1375SOL     OW15760   0.813   3.719   0.890  0.4824  0.3779  0.0854
 1375SOL    HW115761   0.820   3.739   0.796  0.8728 -0.5535 -0.0795
 1375SOL    HW215762   0.735   3.665   0.880  0.3564  0.9691 -2.1265
 1376SOL     OW15763   3.102   1.476  14.280 -0.0509 -0.0812  0.4009
 1376SOL    HW115764   3.062   1.548  14.329 -1.7637  0.0145 -1.1652
 1376SOL    HW215765   3.084   1.405  14.342 -0.9724 -1.2041 -1.1487
 1377SOL     OW15766   2.962   0.194   9.075  0.1200  0.3417  0.1126
 1377SOL    HW115767   2.995   0.116   9.031 -0.9404  0.0162 -0.1102
 1377SOL    HW215768   3.016   0.263   9.036  3.5971 -2.5322 -0.1651
 1378SOL     OW15769   3.977   0.385   2.667  0.2138 -0.4494 -0.3176
 1378SOL    HW115770   3.887   0.386   2.698  0.6588  0.4465  0.9311
 1378SOL    HW215771   3.965   0.359   2.575  0.2610  0.1289 -0.4874
 1379SOL     OW15772   3.857   0.495   9.645  0.0878 -0.3942  0.1070
 1379SOL    HW115773   3.790   0.563   9.656 -0.0459 -0.4159 -0.5646
 1379SOL    HW215774   3.808   0.415   9.666 -0.5702 -0.5228 -1.9047
 1380SOL     OW15775   3.014   3.788  15.010  0.0002 -0.4193 -0.3991
 1380SOL    HW115776   2.943   3.851  14.996  1.1286  1.1608  1.0664
 1380SOL    HW215777   3.015   3.741  14.927 -0.7287  0.8305 -1.1217
 1381SOL     OW15778   1.940   2.034  13.652  0.1626  0.4230  0.6298
 1381SOL    HW115779   1.902   2.120  13.632  0.2956  0.2103 -0.5225
 1381SOL    HW215780   1.866   1.982  13.621  1.6316 -0.6120 -1.0858
 1382SOL     OW15781   4.236   0.505   4.484 -0.1005 -0.8041 -0.4547
 1382SOL    HW115782   4.196   0.513   4.398  0.3992  1.4629 -0.4774
 1382SOL    HW215783   4.188   0.434   4.526  0.6734 -1.7359 -1.1517
 1383SOL     OW15784   2.584   3.400   3.278  0.4984  0.1755 -0.4225
 1383SOL    HW115785   2.538   3.428   3.198  0.1684  1.9205  0.3663
 1383SOL    HW215786   2.627   3.327   3.234 -0.9392 -0.3575 -0.9447
 1384SOL     OW15787   3.577   1.320   8.971  0.8938  0.3254  0.1678
 1384SOL    HW115788   3.510   1.388   8.968  2.0929  1.6641  3.3289
 1384SOL    HW215789   3.559   1.294   9.061 -0.4928 -0.2691 -0.2961
 1385SOL     OW15790   3.868   0.612   5.248 -0.1445  0.1582 -0.3564
 1385SOL    HW115791   3.857   0.549   5.319  0.2478 -0.6723 -1.0395
 1385SOL    HW215792   3.963   0.624   5.252 -0.2123 -0.3879  2.4751
 1386SOL     OW15793   0.419   3.501  16.051 -0.0274 -0.6340 -0.1007
 1386SOL    HW115794   0.339   3.450  16.068 -0.2969  0.7440  2.8044
 1386SOL    HW215795   0.392   3.593  16.050  2.0521 -0.0087  1.7446
 1387SOL     OW15796   3.827   0.172  13.737 -0.7794  0.0754 -0.5581
 1387SOL    HW115797   3.872   0.235  13.680  0.3555  0.1929  0.4789
 1387SOL    HW215798   3.779   0.236  13.790  0.0114  0.1783  0.0251
 1388SOL     OW15799   3.209   3.999   5.055  0.0518 -0.1307  0.6007
 1388SOL    HW115800   3.249   4.036   4.977 -0.9314 -0.8074 -0.2185
 1388SOL    HW215801   3.191   4.078   5.106 -1.8288  0.8082 -1.5285
 1389SOL     OW15802   2.756   0.089   6.185  0.5682  0.3966 -0.4641
 1389SOL    HW115803   2.750   0.117   6.276  0.3415 -0.7927 -0.1161
 1389SOL    HW215804   2.661   0.096   6.171  0.3179 -1.2138  0.4927
 1390SOL     OW15805   3.817   0.363   6.371 -0.2444 -0.7614 -0.2714
 1390SOL    HW115806   3.733   0.319   6.383 -1.1101  0.5371 -1.6839
 1390SOL    HW215807   3.842   0.373   6.463 -2.9548  0.1023  0.3538
 1391SOL     OW15808   2.797   1.937  10.044 -0.1223  0.0640 -0.1098
 1391SOL    HW115809   2.752   1.883   9.979  1.1438 -0.5349 -0.4949
 1391SOL    HW215810   2.727   1.986  10.087  1.7306 -0.4334  3.4531
 1392SOL     OW15811   3.705   2.461   4.375 -0.4817  0.4491 -0.0051
 1392SOL    HW115812   3.682   2.551   4.395  2.4455  1.2280 -0.0860
 1392SOL    HW215813   3.800   2.455   4.382 -0.4694 -0.9710 -1.2916
 1393SOL     OW15814   3.170   4.408  13.235 -0.7456 -0.0924  0.2490
 1393SOL    HW115815   3.077   4.383  13.230 -0.3918 -1.5785  1.1091
 1393SOL    HW215816   3.195   4.437  13.148 -1.3892  1.7133  0.6599
 1394SOL     OW15817   3.631   1.771   6.881 -0.2450 -0.5813  0.1755
 1394SOL    HW115818   3.578   1.699   6.916 -0.7129  0.2390  1.1461
 1394SOL    HW215819   3.635   1.742   6.790  0.5456 -0.1426  0.0677
 1395SOL     OW15820   3.856   2.024   2.594 -0.1129  0.5568 -0.3855
 1395SOL    HW115821   3.925   2.024   2.528  0.9520  1.6694  0.7373
 1395SOL    HW215822   3.776   2.056   2.551 -1.0861 -0.6488  0.5328
 1396SOL     OW15823   2.799   4.240  13.810  0.2400  0.1024 -0.3092
 1396SOL    HW115824   2.823   4.159  13.765  1.0986 -0.7838  1.7286
 1396SOL    HW215825   2.705   4.224  13.816  1.0002 -3.7702  1.3790
 1397SOL     OW15826   1.226   3.854  17.734 -0.5774 -0.0596 -0.0225
 1397SOL    HW115827   1.320   3.859   0.016 -0.8779 -1.8768  1.8262
 1397SOL    HW215828   1.187   3.847   0.083  2.6013  1.1245  1.5051
 1398SOL     OW15829   2.021   2.919   6.464  0.5238 -0.5896  0.4239
 1398SOL    HW115830   1.955   2.940   6.398  1.5793  0.1656 -0.3926
 1398SOL    HW215831   2.010   2.996   6.520 -0.0201 -0.2573 -0.1465
 1399SOL     OW15832   2.772   2.683   9.568 -0.2671  0.0733 -0.4160
 1399SOL    HW115833   2.724   2.648   9.643  0.9827  0.4756  0.5590
 1399SOL    HW215834   2.738   2.623   9.502 -0.9136 -0.3633  0.3110
 1400SOL     OW15835   0.232   3.392   1.019  0.0217  0.4129  0.3914
 1400SOL    HW115836   0.241   3.314   0.963 -1.0733  0.8288 -0.3677
 1400SOL    HW215837   0.155   3.438   0.985  0.8302  1.8656  0.5615
 1401SOL     OW15838   4.180   2.995  13.779  0.3172  0.3146  0.1120
 1401SOL    HW115839   4.199   3.053  13.853  0.0065  0.1418  0.3262
 1401SOL    HW215840   4.266   2.986  13.738  0.2462 -2.6892  0.5729
 1402SOL     OW15841   2.036   3.665   9.402  0.2499 -0.4247 -0.6109
 1402SOL    HW115842   2.114   3.693   9.353  0.0616  1.6183  0.2883
 1402SOL    HW215843   1.991   3.610   9.338 -0.2136  0.6209 -1.1637
 1403SOL     OW15844   0.560   1.755  14.908 -0.4262 -0.4762 -0.1695
 1403SOL    HW115845   0.498   1.741  14.836  2.3423 -1.4367 -2.4061
 1403SOL    HW215846   0.594   1.667  14.923 -0.6901 -0.3233  1.3144
 1404SOL     OW15847   2.690   1.759   9.858  0.0321 -0.2237  0.0949
 1404SOL    HW115848   2.623   1.798   9.801  1.8233  2.2583 -0.3126
 1404SOL    HW215849   2.677   1.667   9.836  0.7386 -0.4762  0.7463
 1405SOL     OW15850   2.605   3.633   1.831 -0.4171 -0.5790  0.1390
 1405SOL    HW115851   2.650   3.715   1.812 -3.6963  1.1529 -0.1567
 1405SOL    HW215852   2.659   3.561   1.798  1.7285  1.5506 -1.0159
 1406SOL     OW15853   3.021   2.533   0.219 -0.0584 -0.4949  0.1895
 1406SOL    HW115854   2.936   2.501   0.191  0.5544 -0.4129 -1.7569
 1406SOL    HW215855   3.003   2.596   0.289 -0.4064  1.7473 -1.9297
 1407SOL     OW15856   0.470   3.356   8.360  0.7076  0.1234 -0.0610
 1407SOL    HW115857   0.444   3.394   8.444  0.0160 -0.3127 -0.0752
 1407SOL    HW215858   0.448   3.264   8.371  0.3381 -0.0997 -2.6177
 1408SOL     OW15859   1.768   3.024   8.924 -0.1129  0.3530  0.6260
 1408SOL    HW115860   1.678   3.002   8.947  0.0504 -0.3595  0.5688
 1408SOL    HW215861   1.767   2.993   8.833 -1.6113  0.8038  0.4840
 1409SOL     OW15862   3.258   0.563   2.196  0.0834  0.1571  0.4013
 1409SOL    HW115863   3.228   0.580   2.286 -2.3059  0.5821 -0.4695
 1409SOL    HW215864   3.305   0.643   2.174  0.1782 -0.9598 -3.3887
 1410SOL     OW15865   2.107   2.931  10.136  0.5600 -0.4415  0.0035
 1410SOL    HW115866   2.065   2.855  10.175 -0.1667 -0.5686 -1.0071
 1410SOL    HW215867   2.137   2.971  10.217  1.2579 -1.6179  0.3202
 1411SOL     OW15868   4.080   0.615  12.106 -0.6060  0.4356 -0.1306
 1411SOL    HW115869   4.085   0.708  12.125 -1.7381  0.1240  1.6243
 1411SOL    HW215870   4.170   0.596  12.132 -0.3078  0.6901 -0.9673
 1412SOL     OW15871   4.579   0.521   5.292 -0.0043 -0.3110  0.7194
 1412SOL    HW115872   4.594   0.440   5.341  2.1193 -0.9604 -0.9854
 1412SOL    HW215873   4.586   0.580   5.368  1.2089  1.8258 -1.0547
 1413SOL     OW15874   0.419   2.741   5.755  0.0038  0.1859  0.4881
 1413SOL    HW115875   0.328   2.763   5.772  0.1398  2.9187 -2.1863
 1413SOL    HW215876   0.443   2.796   5.680 -0.0680  0.0646  0.3762
 1414SOL     OW15877   3.792   4.690   0.726  0.1791  0.0376  0.3325
 1414SOL    HW115878   3.813   0.020   0.794  2.8682  1.5568 -1.9322
 1414SOL    HW215879   3.839   4.618   0.766 -1.5891 -2.0121 -1.2368
 1415SOL     OW15880   3.797   1.270   4.188 -0.0857 -0.2437  0.1407
 1415SOL    HW115881   3.842   1.255   4.104 -0.1460 -1.4403  0.3216
 1415SOL    HW215882   3.712   1.307   4.166 -0.5340 -0.8182  0.9608
 1416SOL     OW15883   3.135   2.107   9.541 -0.2723 -0.3513  0.0966
 1416SOL    HW115884   3.211   2.153   9.505  1.4580 -2.5852  0.8649
 1416SOL    HW215885   3.065   2.170   9.526  1.7594  1.8771 -0.0335
 1417SOL     OW15886   3.497   0.950   6.839 -0.0119  0.1392 -0.1569
 1417SOL    HW115887   3.426   1.002   6.802  0.1449 -0.0098 -0.6649
 1417SOL    HW215888   3.535   1.001   6.911 -0.2071  0.5439 -0.3404
 1418SOL     OW15889   1.836   2.138   5.300 -0.0099 -0.2232 -0.3599
 1418SOL    HW115890   1.807   2.159   5.389  1.5753  1.1737 -0.1860
 1418SOL    HW215891   1.788   2.205   5.252  0.8231 -0.1855 -1.1165
 1419SOL     OW15892   3.170   1.060   9.520 -0.6430 -0.5327  0.8647
 1419SOL    HW115893   3.154   1.116   9.444 -0.3656  0.2346  1.3677
 1419SOL    HW215894   3.098   1.084   9.579 -1.8490  2.1711 -1.7314
 1420SOL     OW15895   3.784   0.808   3.823 -0.2754 -0.0962  0.1051
 1420SOL    HW115896   3.818   0.777   3.739  0.4621 -0.3885  0.5159
 1420SOL    HW215897   3.861   0.842   3.868 -0.2331  0.3193 -0.2894
 1421SOL     OW15898   2.141   2.019   9.767  0.1535  0.4968 -0.5688
 1421SOL    HW115899   2.230   2.050   9.748  0.6618 -1.4657 -1.3310
 1421SOL    HW215900   2.131   2.042   9.860 -0.7962  0.0896 -0.5668
 1422SOL     OW15901   0.602   1.081   1.800  0.1244 -0.0525  0.6086
 1422SOL    HW115902   0.597   1.162   1.750 -0.5452 -0.0533  0.6760
 1422SOL    HW215903   0.659   1.037   1.736 -1.6600 -0.1559 -0.9184
 1423SOL     OW15904   2.067   3.817   6.280  0.2921  0.5081 -0.4062
 1423SOL    HW115905   2.060   3.870   6.200  0.1599  1.4438  0.2189
 1423SOL    HW215906   2.156   3.832   6.312  0.6919 -2.6200 -0.0700
 1424SOL     OW15907   2.483   4.094  13.089 -0.3105 -0.2481  0.3616
 1424SOL    HW115908   2.570   4.132  13.083  0.9062 -2.8111  1.4373
 1424SOL    HW215909   2.438   4.168  13.049  0.4443 -0.3574 -0.6648
 1425SOL     OW15910   0.319   3.310   1.414  0.0523  0.0650  0.4671
 1425SOL    HW115911   0.226   3.318   1.439  0.9608  2.5387  3.0129
 1425SOL    HW215912   0.370   3.301   1.495  2.2408  0.2460 -0.9047
 1426SOL     OW15913   0.567   0.338   6.860  0.0607  0.5130  0.3588
 1426SOL    HW115914   0.615   0.417   6.883 -1.6743  1.6091  0.2092
 1426SOL    HW215915   0.647   0.294   6.830 -0.5673  0.0340 -0.6347
 1427SOL     OW15916   2.624   3.982   1.495 -0.3607  0.0545  0.4687
 1427SOL    HW115917   2.580   3.954   1.415 -1.4566  0.9811  0.7427
 1427SOL    HW215918   2.715   3.969   1.470 -0.4719 -0.4226  0.3249
 1428SOL     OW15919   2.438   4.531  15.084  0.3095  0.4270 -0.4512
 1428SOL    HW115920   2.435   4.608  15.027  2.6640  0.2875 -0.7577
 1428SOL    HW215921   2.460   4.562  15.172  1.0526 -3.3864  0.6974
 1429SOL     OW15922   4.529   3.421   6.101  0.0766  0.0243  0.6978
 1429SOL    HW115923   4.550   3.355   6.035  2.1137  0.7132  0.6553
 1429SOL    HW215924   4.484   3.367   6.166  1.0824 -1.4551  0.1561
 1430SOL     OW15925   3.658   1.723   3.930  0.1627  0.6706  0.3810
 1430SOL    HW115926   3.679   1.764   3.846  2.3280  3.5077  2.3160
 1430SOL    HW215927   3.573   1.765   3.946 -0.7194 -1.3201  1.0157
 1431SOL     OW15928   3.657   2.257   2.025 -0.2865  0.4749 -0.4870
 1431SOL    HW115929   3.713   2.180   2.036  3.4903  3.5516  2.2518
 1431SOL    HW215930   3.570   2.227   2.051 -0.1288  0.0991 -0.3892
 1432SOL     OW15931   3.197   3.775   3.985  0.2418 -0.0942  0.1408
 1432SOL    HW115932   3.206   3.756   3.891  1.2080 -1.1536  0.4507
 1432SOL    HW215933   3.267   3.839   3.996  0.3997 -0.2258 -0.0876
 1433SOL     OW15934   3.246   3.196   5.006  0.0611  0.3328  0.0614
 1433SOL    HW115935   3.310   3.209   5.076 -0.3278  0.5699  0.3704
 1433SOL    HW215936   3.222   3.287   4.989 -1.7760  0.4569  3.4383
 1434SOL     OW15937   1.963   1.749   6.723 -0.7518  0.2184 -0.1745
 1434SOL    HW115938   2.000   1.835   6.745 -1.6314  0.4417  0.4282
 1434SOL    HW215939   1.973   1.741   6.628  1.9957 -0.6020  0.1649
 1435SOL     OW15940   1.118   0.547   2.595  0.2305 -0.0600  0.3061
 1435SOL    HW115941   1.063   0.625   2.609 -1.0741 -0.1541 -4.4754
 1435SOL    HW215942   1.191   0.584   2.546 -0.5638 -1.8638 -2.2329
 1436SOL     OW15943   0.732   1.149  10.298  0.1700  0.1713  0.0716
 1436SOL    HW115944   0.702   1.221  10.354 -0.2582  0.5931 -0.7045
 1436SOL    HW215945   0.721   1.075  10.358 -0.2328 -0.5132 -0.8506
 1437SOL     OW15946   1.036   2.133   4.228  0.5702 -0.0816 -0.0713
 1437SOL    HW115947   1.124   2.166   4.243  0.7931 -0.4410 -0.5760
 1437SOL    HW215948   1.043   2.106   4.136 -1.5191 -1.5926  0.1942
 1438SOL     OW15949   2.052   0.781  12.745 -0.3780  0.2467  0.0101
 1438SOL    HW115950   2.117   0.711  12.753  0.1002  0.6385 -0.4570
 1438SOL    HW215951   2.085   0.811  12.660  2.5316  0.5060  1.2227
 1439SOL     OW15952   3.782   0.748   1.038 -0.3575 -0.5415 -0.5297
 1439SOL    HW115953   3.848   0.692   1.077  0.1931  1.5915  1.6096
 1439SOL    HW215954   3.801   0.836   1.071  1.6714 -1.2884  0.2570
 1440SOL     OW15955   3.921   0.337   2.062  0.1488 -0.0918  0.2206
 1440SOL    HW115956   3.953   0.382   1.983  0.4834 -2.0035 -0.7263
 1440SOL    HW215957   3.836   0.313   2.026 -0.3204  1.1990  0.4891
 1441SOL     OW15958   2.039   4.062  13.334 -0.2264 -0.9037  0.2054
 1441SOL    HW115959   2.022   4.003  13.407  3.6209 -1.4478  0.6915
 1441SOL    HW215960   1.955   4.107  13.333  0.0647 -0.4291 -1.6956
 1442SOL     OW15961   0.534   0.852  14.179  0.6112  0.0170 -0.4534
 1442SOL    HW115962   0.490   0.937  14.180  1.7371  0.5930  0.2124
 1442SOL    HW215963   0.476   0.814  14.245  2.5129  0.1697  1.2823
 1443SOL     OW15964   0.243   4.240  15.594  0.1126 -0.7008  0.1889
 1443SOL    HW115965   0.173   4.213  15.652  1.2492 -1.7608  1.0458
 1443SOL    HW215966   0.263   4.153  15.560 -2.4934 -1.0425 -0.4995
 1444SOL     OW15967   4.650   0.399   6.256  0.0630  0.2202 -0.1449
 1444SOL    HW115968   4.652   0.366   6.346 -1.2150 -1.6539 -0.8035
 1444SOL    HW215969   4.651   0.492   6.279  1.4891  0.0309  0.5234
 1445SOL     OW15970   1.890   2.335   7.316  0.0324 -0.4601 -0.4389
 1445SOL    HW115971   1.847   2.354   7.233 -1.9029 -0.7929  0.4806
 1445SOL    HW215972   1.972   2.304   7.278  0.1214 -0.4579 -0.2519
 1446SOL     OW15973   0.071   2.669   5.158  0.3808  0.1482 -0.8782
 1446SOL    HW115974   0.061   2.681   5.253  2.5873  0.6360 -0.6980
 1446SOL    HW215975   0.075   2.575   5.142  1.1059 -0.2177  1.4142
 1447SOL     OW15976   3.168   4.478  14.179 -0.2936 -0.2217  0.3662
 1447SOL    HW115977   3.127   4.391  14.179 -0.1432 -0.2918 -0.5086
 1447SOL    HW215978   3.253   4.451  14.213  0.5172  1.9080  0.0114
 1448SOL     OW15979   3.648   3.304   2.565  0.3932  0.0051 -0.2748
 1448SOL    HW115980   3.566   3.286   2.517 -0.4590  0.4352  1.0192
 1448SOL    HW215981   3.617   3.291   2.654  0.6642 -2.4564 -0.5382
 1449SOL     OW15982   0.132   3.211   4.170 -0.3555  0.1629  0.6845
 1449SOL    HW115983   0.118   3.303   4.149  2.2107  0.5300  0.5893
 1449SOL    HW215984   0.062   3.171   4.118 -1.9473  0.5890  2.5030
 1450SOL     OW15985   4.064   0.063   6.862 -0.1253  0.9220  0.2122
 1450SOL    HW115986   4.036   0.065   6.770 -0.2114 -1.7100  0.1683
 1450SOL    HW215987   4.154   0.092   6.850  0.6748 -1.8451 -0.5238
 1451SOL     OW15988   3.119   2.238   7.213 -0.3981  0.2832  0.2890
 1451SOL    HW115989   3.034   2.223   7.171 -0.5048 -0.6436  0.8391
 1451SOL    HW215990   3.159   2.151   7.212 -0.3802  0.3089 -0.8421
 1452SOL     OW15991   2.664   2.605   3.052  0.1503  0.3163 -0.6481
 1452SOL    HW115992   2.744   2.653   3.030 -0.2952  0.3377 -2.1913
 1452SOL    HW215993   2.685   2.512   3.039 -0.2257 -0.2832  2.8606
 1453SOL     OW15994   4.417   4.310   6.143 -0.6300  0.3296 -0.4415
 1453SOL    HW115995   4.415   4.390   6.092  1.3061  0.5952 -0.0966
 1453SOL    HW215996   4.337   4.270   6.109 -0.4566  0.8161 -1.4291
 1454SOL     OW15997   3.791   2.812  11.145  0.5259 -0.0229 -0.4557
 1454SOL    HW115998   3.745   2.896  11.146 -0.4097 -0.5410  0.2144
 1454SOL    HW215999   3.882   2.841  11.150  0.0821  1.0886  1.0971
 1455SOL     OW16000   3.784   1.008   4.880  0.7767 -0.2059 -0.1224
 1455SOL    HW116001   3.775   1.058   4.961  0.3521  1.4943 -1.1994
 1455SOL    HW216002   3.800   0.925   4.925  0.3638  0.1609  0.7024
 1456SOL     OW16003   4.561   3.482   9.294  0.6433 -0.1146  0.4107
 1456SOL    HW116004   4.547   3.389   9.278 -0.3394  0.1210 -0.1300
 1456SOL    HW216005   4.508   3.490   9.373 -0.7557  0.1646 -0.5471
 1457SOL     OW16006   0.898   1.481  10.235 -0.0821  0.2631 -0.0196
 1457SOL    HW116007   0.924   1.419  10.303  2.0178  1.9430  0.7035
 1457SOL    HW216008   0.964   1.469  10.166  0.9570  2.7192  0.5249
 1458SOL     OW16009   2.776   0.308   4.411  0.1498 -0.1950  0.8548
 1458SOL    HW116010   2.849   0.249   4.430 -0.8705 -1.1742  1.7539
 1458SOL    HW216011   2.822   0.391   4.400  1.4207 -0.8729  1.1138
 1459SOL     OW16012   2.166   0.744   6.971 -0.0794  0.1401 -0.0632
 1459SOL    HW116013   2.071   0.731   6.979 -0.3617  1.0834 -1.8931
 1459SOL    HW216014   2.197   0.668   6.922 -1.2729  0.0876 -0.7294
 1460SOL     OW16015   1.149   1.439   3.459 -0.2536  0.1218 -0.1407
 1460SOL    HW116016   1.124   1.445   3.367 -0.2838 -0.0469 -0.1442
 1460SOL    HW216017   1.200   1.519   3.463 -1.4527  0.8657  0.4650
 1461SOL     OW16018   3.313   0.388   6.583 -0.3080 -0.1238 -0.4145
 1461SOL    HW116019   3.339   0.375   6.492 -0.8077  0.4856 -0.6415
 1461SOL    HW216020   3.317   0.483   6.584 -0.3021 -0.1399  0.8799
 1462SOL     OW16021   0.501   2.018  14.903 -0.3040  0.9575 -0.5258
 1462SOL    HW116022   0.543   1.937  14.932 -1.2646  0.8015  0.4098
 1462SOL    HW216023   0.415   1.996  14.939 -0.5923  1.0227 -1.1747
 1463SOL     OW16024   2.357   4.440   6.072  0.6503  0.4320  0.9271
 1463SOL    HW116025   2.439   4.422   6.026  1.2276  0.6245  1.8828
 1463SOL    HW216026   2.299   4.371   6.041 -0.1331  0.4948  2.2586
 1464SOL     OW16027   3.393   3.488  12.888  0.0974  0.1894  0.3575
 1464SOL    HW116028   3.393   3.536  12.805 -1.3011 -1.2594 -0.4886
 1464SOL    HW216029   3.425   3.403  12.858 -0.4279  0.4066 -0.8181
 1465SOL     OW16030   2.217   4.258   5.342  0.3357  0.5622 -1.1199
 1465SOL    HW116031   2.137   4.248   5.289 -0.0721 -1.7568 -0.0441
 1465SOL    HW216032   2.264   4.328   5.297 -0.6022  0.7678 -1.7821
 1466SOL     OW16033   2.512   0.395   2.035 -0.0549  0.3930 -0.5800
 1466SOL    HW116034   2.499   0.428   2.124  2.2082  0.5212 -0.2946
 1466SOL    HW216035   2.450   0.448   1.985 -0.7631  0.4633  0.3639
 1467SOL     OW16036   2.945   2.736   7.347  0.4401  0.3572 -0.1612
 1467SOL    HW116037   2.954   2.736   7.252 -1.6492  3.3049 -0.3393
 1467SOL    HW216038   3.011   2.799   7.375 -0.4171  0.3529  1.9595
 1468SOL     OW16039   3.099   2.182   1.642 -0.7101 -0.3420  0.0584
 1468SOL    HW116040   3.081   2.193   1.549 -3.4239 -1.6949  0.4278
 1468SOL    HW216041   3.152   2.260   1.658 -1.3061  0.1395 -0.3356
 1469SOL     OW16042   3.200   3.862   1.724  0.1596 -0.0144  0.4121
 1469SOL    HW116043   3.113   3.831   1.749 -0.5289  2.5109  1.1946
 1469SOL    HW216044   3.195   3.835   1.633  0.3263 -1.0453  0.7124
 1470SOL     OW16045   2.469   1.690  14.480  0.2978  0.3343 -0.3412
 1470SOL    HW116046   2.393   1.686  14.538  0.5351  2.7534  0.1157
 1470SOL    HW216047   2.430   1.660  14.398 -0.6791  4.6254 -1.4290
 1471SOL     OW16048   0.386   3.570   5.684  0.1608  0.1363 -0.3922
 1471SOL    HW116049   0.404   3.516   5.607 -0.2833  0.1350 -0.4963
 1471SOL    HW216050   0.461   3.628   5.675  1.8469 -1.8435  1.1391
 1472SOL     OW16051   0.537   4.007   1.564  0.2279  0.3018 -0.0175
 1472SOL    HW116052   0.597   3.956   1.619  0.5530 -0.3747 -1.0100
 1472SOL    HW216053   0.506   4.076   1.623  3.1293  1.1611  0.4979
 1473SOL     OW16054   0.061   0.778   3.861 -0.1943 -0.0730  0.1021
 1473SOL    HW116055   0.057   0.854   3.919 -1.4654  0.0502 -0.1536
 1473SOL    HW216056   4.729   0.802   3.798 -0.6999 -1.4879  0.1091
 1474SOL     OW16057   1.500   1.502   0.468  0.0945  0.4939 -0.7757
 1474SOL    HW116058   1.450   1.584   0.466  0.8740  1.0162  0.6433
 1474SOL    HW216059   1.460   1.459   0.393 -1.7954 -0.0654  0.5587
 1475SOL     OW16060   1.779   4.723   1.370 -0.6395  0.2473 -0.2230
 1475SOL    HW116061   1.874   0.005   1.365 -0.4139 -0.4957  1.4070
 1475SOL    HW216062   1.769   0.001   1.276 -2.2341  0.1324 -0.0626
 1476SOL     OW16063   1.281   2.850   8.867  0.2951  0.1110 -0.1009
 1476SOL    HW116064   1.290   2.832   8.773  2.1539 -2.0743  0.4961
 1476SOL    HW216065   1.198   2.896   8.874  2.1732  3.1737  1.7883
 1477SOL     OW16066   1.417   4.188  15.819  0.0363 -0.6007 -0.2698
 1477SOL    HW116067   1.417   4.159  15.727  1.7941  0.7133 -0.6905
 1477SOL    HW216068   1.356   4.262  15.819 -0.6703 -1.1892  0.6816
 1478SOL     OW16069   2.786   2.702   1.523 -0.0828 -0.6607 -0.0294
 1478SOL    HW116070   2.693   2.690   1.506 -0.0260  0.9009 -1.4841
 1478SOL    HW216071   2.809   2.608   1.519  0.8964 -0.4689  1.1100
 1479SOL     OW16072   0.661   2.305   0.285  0.1659  0.1081  0.3420
 1479SOL    HW116073   0.617   2.369   0.229  0.8959  0.9443  0.7182
 1479SOL    HW216074   0.736   2.360   0.310 -1.4069  2.2814  0.3496
 1480SOL     OW16075   2.651   0.057   4.361 -0.4011 -0.4455  0.7755
 1480SOL    HW116076   2.688   0.144   4.376 -2.1857  0.4603 -0.0829
 1480SOL    HW216077   2.729   0.014   4.326 -0.8699  0.4407 -1.2900
 1481SOL     OW16078   0.399   4.346   5.505  0.2015  0.0576 -0.1270
 1481SOL    HW116079   0.318   4.317   5.548  0.6177 -0.2453  0.4448
 1481SOL    HW216080   0.383   4.439   5.485  0.9057 -0.3543 -2.6106
 1482SOL     OW16081   4.387   2.475   1.658  0.6731 -0.0682 -0.0269
 1482SOL    HW116082   4.389   2.434   1.571 -1.6328 -3.4694  1.5469
 1482SOL    HW216083   4.481   2.486   1.675  1.1317 -1.6758 -1.4836
 1483SOL     OW16084   0.596   4.397   7.170  0.2105 -0.2409 -0.0232
 1483SOL    HW116085   0.542   4.407   7.092  2.3531  3.0142 -1.1038
 1483SOL    HW216086   0.535   4.344   7.221  0.4516 -1.6145 -1.1550
 1484SOL     OW16087   0.961   0.179  15.132  0.3772  0.0785 -0.3567
 1484SOL    HW116088   1.038   0.175  15.075  1.8588 -0.9838  1.7270
 1484SOL    HW216089   0.976   0.115  15.202  0.2436 -2.0379 -2.2539
 1485SOL     OW16090   0.958   2.361   3.875 -0.0755 -0.3918  0.1518
 1485SOL    HW116091   0.972   2.274   3.912 -0.9819 -1.0272 -1.0203
 1485SOL    HW216092   0.910   2.404   3.945  0.9560 -0.9228  1.2013
 1486SOL     OW16093   1.194   3.900   0.512 -0.3868 -0.3858 -0.0710
 1486SOL    HW116094   1.169   3.982   0.554  2.6460  0.5707 -0.1093
 1486SOL    HW216095   1.208   3.848   0.591  0.1318  2.2924  1.6074
 1487SOL     OW16096   0.527   2.857  17.700  1.2211 -0.8950  0.2876
 1487SOL    HW116097   0.596   2.796  17.729  2.1718 -0.0907 -0.2826
 1487SOL    HW216098   0.495   2.832  17.613  2.2308  2.6059 -1.0861
 1488SOL     OW16099   4.532   4.120   5.126 -0.3479 -0.1278  0.4056
 1488SOL    HW116100   4.615   4.073   5.115  0.5288  1.5709 -0.1836
 1488SOL    HW216101   4.470   4.051   5.150 -1.0077 -0.1267 -1.3159
 1489SOL     OW16102   4.203   0.921  10.287 -0.4396 -0.1324 -0.0126
 1489SOL    HW116103   4.230   0.972  10.210  1.0847  0.4095  0.8820
 1489SOL    HW216104   4.285   0.879  10.313  0.6896  0.4598 -2.6290
 1490SOL     OW16105   0.526   0.833  16.288 -0.7917 -0.2529 -0.5159
 1490SOL    HW116106   0.590   0.800  16.224  0.8445  1.0043  0.4592
 1490SOL    HW216107   0.488   0.894  16.225 -0.0406 -0.9499 -1.6396
 1491SOL     OW16108   2.145   4.532   9.184  0.2181  0.0486 -0.1002
 1491SOL    HW116109   2.204   4.565   9.116 -0.6107 -0.3875 -1.0398
 1491SOL    HW216110   2.147   4.600   9.251  1.7506 -0.7792  0.6758
 1492SOL     OW16111   2.766   4.690   7.784  0.3687  0.1464  0.6197
 1492SOL    HW116112   2.754   4.670   7.877 -0.7354 -3.4008 -0.2420
 1492SOL    HW216113   2.766   4.597   7.761  2.4711  0.0667  0.9996
 1493SOL     OW16114   2.118   3.282   0.976 -0.0708 -0.0178  0.0822
 1493SOL    HW116115   2.077   3.210   1.025 -0.8452  0.0419 -0.4905
 1493SOL    HW216116   2.039   3.297   0.925  0.6515 -0.7018 -1.2515
 1494SOL     OW16117   4.509   1.027   1.193 -0.5923  0.1218  0.1063
 1494SOL    HW116118   4.604   1.039   1.203 -0.4120 -0.0659 -1.3782
 1494SOL    HW216119   4.481   1.021   1.284 -0.8167 -0.9904 -0.0343
 1495SOL     OW16120   1.662   3.307   5.530  0.0212  0.4220  0.4901
 1495SOL    HW116121   1.689   3.377   5.589 -3.4436  2.1811  0.0319
 1495SOL    HW216122   1.746   3.262   5.520 -2.2345 -3.6528 -0.2860
 1496SOL     OW16123   1.356   4.066   3.719  0.2766  0.5220  0.8388
 1496SOL    HW116124   1.431   4.028   3.764  0.0896 -0.0210  0.6904
 1496SOL    HW216125   1.343   4.008   3.644 -0.1663  0.8616  0.6530
 1497SOL     OW16126   4.137   1.030   8.267  0.2308 -0.0504 -0.1438
 1497SOL    HW116127   4.054   1.043   8.222  0.6422 -0.3858 -0.9954
 1497SOL    HW216128   4.111   1.047   8.358  2.2017  1.6583  0.1305
 1498SOL     OW16129   1.692   4.459   5.121 -0.6594  0.0913  0.4371
 1498SOL    HW116130   1.668   4.547   5.150  1.1269  0.3615  1.1020
 1498SOL    HW216131   1.624   4.407   5.164  0.1380 -0.3809  1.1060
 1499SOL     OW16132   2.586   0.580  13.464 -0.2402  0.0484  0.3100
 1499SOL    HW116133   2.633   0.632  13.399 -0.2769  0.9602  1.0027
 1499SOL    HW216134   2.638   0.503  13.488  0.1260  0.7797  1.8766
 1500SOL     OW16135   4.547   0.980   6.479  0.3987  0.5237  0.3757
 1500SOL    HW116136   4.481   0.911   6.483  1.3368 -0.2282  3.2764
 1500SOL    HW216137   4.525   1.037   6.552 -0.2329 -0.2912  0.8231
 1501SOL     OW16138   1.513   0.497  10.619 -0.4171  0.2650 -0.0821
 1501SOL    HW116139   1.444   0.517  10.682  0.1259  4.7067 -0.8227
 1501SOL    HW216140   1.503   0.404  10.603 -1.6714  0.6997 -1.8716
 1502SOL     OW16141   4.514   0.438   6.541 -0.1060  0.1747 -0.0417
 1502SOL    HW116142   4.578   0.384   6.587  0.2136  0.0988 -0.5856
 1502SOL    HW216143   4.569   0.512   6.514  0.1592 -0.1766 -0.4580
 1503SOL     OW16144   2.771   2.378   9.915  0.0703 -0.3603 -0.6935
 1503SOL    HW116145   2.825   2.368   9.994  0.3155  0.0306 -0.8102
 1503SOL    HW216146   2.813   2.319   9.853 -0.3968 -0.5601 -0.8189
 1504SOL     OW16147   4.465   0.293   6.091  0.3701 -0.4814 -0.4019
 1504SOL    HW116148   4.403   0.260   6.157 -1.6581  1.8976 -1.1250
 1504SOL    HW216149   4.524   0.352   6.137  0.1282 -0.4343 -0.1519
 1505SOL     OW16150   0.055   1.004   9.322 -0.1812  0.8438  0.8400
 1505SOL    HW116151   0.058   1.099   9.311  1.4828  0.6724 -0.1320
 1505SOL    HW216152   4.706   0.990   9.277 -0.2959  2.1460  0.6568
 1506SOL     OW16153   2.935   2.624   3.300  0.3075  0.1388  0.1450
 1506SOL    HW116154   2.866   2.681   3.266  0.6973  0.1841 -0.5771
 1506SOL    HW216155   3.008   2.632   3.238 -1.0510 -1.0052 -1.6140
 1507SOL     OW16156   4.058   4.687  14.357 -0.1666  0.0732 -0.8938
 1507SOL    HW116157   3.990   0.011  14.323  2.4938  4.3770  1.2538
 1507SOL    HW216158   4.106   0.006  14.420  1.0319 -1.0469 -0.8557
 1508SOL     OW16159   1.921   2.205   7.591  0.5989  0.2444 -0.1194
 1508SOL    HW116160   1.983   2.158   7.535 -0.6922 -1.1331 -0.3725
 1508SOL    HW216161   1.902   2.275   7.529  3.6158 -0.0348 -1.3750
 1509SOL     OW16162   3.383   1.725   1.151 -0.0542 -0.3941  0.2065
 1509SOL    HW116163   3.473   1.756   1.151  0.7074 -2.6072  2.6355
 1509SOL    HW216164   3.385   1.650   1.091 -0.6691  1.8262 -2.5886
 1510SOL     OW16165   4.559   0.823   2.099  0.4075 -0.0779  0.0396
 1510SOL    HW116166   4.643   0.866   2.117  0.3303 -0.1153  0.4757
 1510SOL    HW216167   4.583   0.739   2.057 -0.8851 -0.4456  0.0333
 1511SOL     OW16168   4.350   1.555   1.074  0.1404 -0.2569  0.3033
 1511SOL    HW116169   4.435   1.512   1.078 -0.2411 -0.9373  1.1269
 1511SOL    HW216170   4.352   1.584   0.982 -0.0884  3.1478  1.3659
 1512SOL     OW16171   4.250   1.719  12.301 -0.1197 -0.2936 -0.3185
 1512SOL    HW116172   4.212   1.806  12.299 -0.9435 -0.7061 -2.5065
 1512SOL    HW216173   4.287   1.704  12.214  0.1190 -1.8171  0.0334
 1513SOL     OW16174   1.751   2.223   9.481  0.2543  0.0575  0.8717
 1513SOL    HW116175   1.791   2.201   9.565  2.0139 -1.0828 -0.2791
 1513SOL    HW216176   1.770   2.316   9.472  1.9333 -0.2186  1.5558
 1514SOL     OW16177   3.563   1.297  17.350  0.3268  0.2934 -0.3584
 1514SOL    HW116178   3.570   1.359  17.277  5.9676 -0.6473 -0.5895
 1514SOL    HW216179   3.557   1.362  17.420  0.7551 -1.7857  1.6050
 1515SOL     OW16180   3.371   4.572   1.902  0.8019 -0.1866 -0.4678
 1515SOL    HW116181   3.342   4.486   1.873  0.9012 -0.0825 -0.8804
 1515SOL    HW216182   3.362   4.557   1.996  0.0479  0.7388 -0.3997
 1516SOL     OW16183   1.118   3.426   2.967  0.2108 -0.3514 -0.1610
 1516SOL    HW116184   1.116   3.377   2.885  2.8028  0.2522 -0.5935
 1516SOL    HW216185   1.170   3.501   2.937 -0.6298 -0.3716 -1.6675
 1517SOL     OW16186   4.446   3.900   5.535  0.1235  0.2723 -0.1322
 1517SOL    HW116187   4.499   3.891   5.615  0.1380 -1.8217 -0.3945
 1517SOL    HW216188   4.508   3.954   5.485  1.9930 -0.8598  0.9661
 1518SOL     OW16189   4.016   1.987   5.340 -0.0845 -0.5399  0.4371
 1518SOL    HW116190   4.006   2.012   5.248  0.8911 -0.4183  0.3685
 1518SOL    HW216191   3.980   1.898   5.336  2.1148 -1.4591  1.0483
 1519SOL     OW16192   1.756   2.511   6.282 -0.1927  0.0173  0.1812
 1519SOL    HW116193   1.744   2.435   6.225 -1.4073  0.0716  0.3762
 1519SOL    HW216194   1.821   2.474   6.342  1.4073 -1.7682 -2.6641
 1520SOL     OW16195   2.584   1.980   0.083  0.4983 -0.0099 -0.0956
 1520SOL    HW116196   2.562   1.941   0.168 -1.1026  1.3996  0.1274
 1520SOL    HW216197   2.634   1.918   0.030  1.3363 -0.5112  1.2784
 1521SOL     OW16198   1.444   0.573   6.126 -0.1472 -0.4890  0.0950
 1521SOL    HW116199   1.364   0.532   6.157 -1.6780  1.4835 -1.2587
 1521SOL    HW216200   1.506   0.563   6.199  0.0416  0.6891  0.1102
 1522SOL     OW16201   1.193   3.798  14.133 -0.3989 -0.3859  0.0517
 1522SOL    HW116202   1.131   3.832  14.068 -0.7214  0.1765  0.6619
 1522SOL    HW216203   1.155   3.718  14.169 -0.3599 -1.4103 -2.1205
 1523SOL     OW16204   0.748   1.752  12.170  0.2918 -0.3051  0.3312
 1523SOL    HW116205   0.784   1.774  12.084 -0.9463  1.8085  0.3471
 1523SOL    HW216206   0.777   1.823  12.228  0.6620  0.2362 -0.5042
 1524SOL     OW16207   3.762   1.261   1.499 -0.7055  0.3471 -0.4688
 1524SOL    HW116208   3.722   1.212   1.570 -0.7501  2.7777  1.1932
 1524SOL    HW216209   3.850   1.279   1.531 -1.0274 -0.6995  1.0161
 1525SOL     OW16210   2.515   3.638   5.264 -0.3798 -1.0738  0.0311
 1525SOL    HW116211   2.461   3.627   5.185 -0.0971 -1.8260 -0.0538
 1525SOL    HW216212   2.523   3.733   5.259  0.4483 -1.1840 -0.8872
 1526SOL     OW16213   0.427   1.338   3.660  0.1727 -0.0821  0.4055
 1526SOL    HW116214   0.346   1.308   3.619  1.4190 -0.4212 -1.8408
 1526SOL    HW216215   0.495   1.322   3.594 -1.9512 -1.3895 -1.4297
 1527SOL     OW16216   2.053   1.847   4.649  1.1133 -0.1758  0.3902
 1527SOL    HW116217   1.971   1.802   4.629  1.6390 -1.6234  1.5502
 1527SOL    HW216218   2.123   1.798   4.606  1.6868  0.3175  0.7590
 1528SOL     OW16219   4.091   2.655   1.402 -0.2548 -0.1331 -0.0097
 1528SOL    HW116220   4.039   2.604   1.464  1.2652 -0.3365  1.0901
 1528SOL    HW216221   4.086   2.739   1.449  1.5561  0.0549 -0.1865
 1529SOL     OW16222   1.279   0.299  13.565  0.8234  0.5570  0.1121
 1529SOL    HW116223   1.333   0.367  13.603  0.4342  0.1408  1.4021
 1529SOL    HW216224   1.194   0.341  13.582  0.1174 -1.2209  1.0150
 1530SOL     OW16225   2.148   3.050   1.332  0.3451  0.1887 -0.0212
 1530SOL    HW116226   2.152   3.118   1.399 -0.3835  0.1577  0.0451
 1530SOL    HW216227   2.067   3.080   1.291  0.9342 -0.8464 -1.9404
 1531SOL     OW16228   3.590   1.413   4.673 -0.8844 -0.0108  0.6987
 1531SOL    HW116229   3.602   1.507   4.656 -1.3282 -0.2310 -0.8032
 1531SOL    HW216230   3.678   1.397   4.706 -0.4911  0.5569 -0.0712
 1532SOL     OW16231   1.535   0.880  10.356  0.4634 -0.0298 -0.3772
 1532SOL    HW116232   1.564   0.818  10.290  1.2827 -0.2651  0.2016
 1532SOL    HW216233   1.475   0.820  10.400 -1.5426  1.1755 -1.4588
 1533SOL     OW16234   1.488   0.515   5.255  0.1997  0.2352 -0.1897
 1533SOL    HW116235   1.565   0.459   5.265  0.3927  0.4559 -0.4037
 1533SOL    HW216236   1.505   0.584   5.319  1.9206 -0.1353 -0.2568
 1534SOL     OW16237   1.762   4.489   3.467  0.4619  0.2447  0.3123
 1534SOL    HW116238   1.686   4.480   3.409  0.5820  0.8484  0.0680
 1534SOL    HW216239   1.724   4.482   3.555 -1.9977 -0.9960 -0.8316
 1535SOL     OW16240   2.204   3.667   3.592  0.3584  0.4292 -0.3977
 1535SOL    HW116241   2.281   3.627   3.550  0.4996 -0.0792  0.3457
 1535SOL    HW216242   2.250   3.707   3.666  1.2940  1.5688 -1.5792
 1536SOL     OW16243   4.609   0.312   6.805  0.3774  0.0848  0.1239
 1536SOL    HW116244   4.552   0.361   6.865  1.6656  0.8531  0.7249
 1536SOL    HW216245   4.674   0.381   6.790  0.7626  0.0108  1.4948
 1537SOL     OW16246   1.368   1.615   6.894  0.2407  0.9281 -0.1551
 1537SOL    HW116247   1.355   1.705   6.862  0.3829  0.6551 -0.9940
 1537SOL    HW216248   1.281   1.600   6.932  0.0657  1.1474 -0.4674
 1538SOL     OW16249   3.807   0.273   7.688  0.2006  0.4676  0.2555
 1538SOL    HW116250   3.871   0.344   7.681  1.6823 -0.9328 -0.2165
 1538SOL    HW216251   3.816   0.265   7.783 -0.8757 -1.3025  0.2075
 1539SOL     OW16252   2.144   1.512   5.918 -0.2969 -0.1844  0.7011
 1539SOL    HW116253   2.090   1.443   5.957 -3.7141  0.4980 -2.7997
 1539SOL    HW216254   2.220   1.454   5.916 -0.7784 -0.8137  0.3329
 1540SOL     OW16255   4.306   1.158  14.081 -0.1219  0.5624 -0.1644
 1540SOL    HW116256   4.355   1.190  14.156 -0.2559 -0.5920  0.4135
 1540SOL    HW216257   4.217   1.180  14.106  0.1484  0.5573  0.8038
 1541SOL     OW16258   0.644   3.432   0.283  0.1219  0.4078 -0.0011
 1541SOL    HW116259   0.619   3.490   0.210  3.5609  1.6648 -0.2164
 1541SOL    HW216260   0.603   3.481   0.354 -0.0711 -0.7228  0.6606
 1542SOL     OW16261   4.528   1.563   8.734  0.3750  1.0680  0.4090
 1542SOL    HW116262   4.590   1.529   8.799 -3.0658 -4.6418  0.7358
 1542SOL    HW216263   4.497   1.646   8.769 -1.2015  1.0049 -0.8616
 1543SOL     OW16264   1.430   2.617   1.692 -0.2929 -0.0114 -0.1918
 1543SOL    HW116265   1.483   2.587   1.766 -0.3048  0.3249 -0.0464
 1543SOL    HW216266   1.448   2.711   1.697 -2.2246  0.2608  1.5616
 1544SOL     OW16267   2.309   0.074   3.715 -0.1039 -0.7660  0.0445
 1544SOL    HW116268   2.303   0.169   3.727 -0.0480 -0.8067  0.3822
 1544SOL    HW216269   2.403   0.067   3.694  0.0111  1.2468 -0.1568
 1545SOL     OW16270   2.365   0.565   6.060  0.3239 -0.2179  0.0143
 1545SOL    HW116271   2.330   0.615   5.986  1.3388  2.1052  1.0868
 1545SOL    HW216272   2.397   0.638   6.114  0.0924 -0.2871  0.2412
 1546SOL     OW16273   4.634   2.895   3.697 -0.6106  0.3958 -0.7330
 1546SOL    HW116274   4.612   2.915   3.788  1.3677  0.9113 -0.3650
 1546SOL    HW216275   4.728   2.913   3.693 -0.7219  1.0268 -0.6039
 1547SOL     OW16276   3.200   0.258   6.292 -0.0198 -0.7146  0.1218
 1547SOL    HW116277   3.158   0.192   6.236  1.0475 -1.1523 -0.1691
 1547SOL    HW216278   3.285   0.215   6.303 -0.3096 -1.5078 -0.6750
 1548SOL     OW16279   0.472   3.001   5.292  0.1413 -0.0201 -0.0226
 1548SOL    HW116280   0.414   2.962   5.358  0.5305  1.0530  0.9477
 1548SOL    HW216281   0.481   2.934   5.224  2.4119 -0.2463  0.4951
 1549SOL     OW16282   3.158   3.926   9.065  0.0000  0.5030  0.2838
 1549SOL    HW116283   3.222   3.859   9.088 -1.0758  0.8053  4.1990
 1549SOL    HW216284   3.201   3.985   9.003 -0.1014 -2.1429 -2.2873
 1550SOL     OW16285   4.245   1.904   6.115 -0.2581  0.2454 -0.0287
 1550SOL    HW116286   4.188   1.978   6.138 -1.9592 -1.2500  0.5331
 1550SOL    HW216287   4.273   1.926   6.026  0.7415 -1.5991 -0.1670
 1551SOL     OW16288   3.365   4.005   2.376  0.1718  0.1707 -0.2775
 1551SOL    HW116289   3.369   4.030   2.284  0.5590 -0.1145 -0.3414
 1551SOL    HW216290   3.341   3.912   2.368  0.9037 -0.0465  0.0156
 1552SOL     OW16291   3.341   2.353   2.122  0.9904  0.3862 -1.0144
 1552SOL    HW116292   3.339   2.380   2.031 -0.2286 -1.0884 -1.4350
 1552SOL    HW216293   3.384   2.423   2.170  1.5565 -1.0188  0.5597
 1553SOL     OW16294   4.677   1.689   0.049  0.3587  0.1435  0.2680
 1553SOL    HW116295   0.032   1.715   0.069 -0.4385  2.4367  0.8736
 1553SOL    HW216296   4.670   1.681  17.692 -2.7230  0.7376  0.4453
 1554SOL     OW16297   0.071   3.016   1.688  0.0182  0.3269  0.1549
 1554SOL    HW116298   0.118   2.957   1.629  0.2984 -1.1826  1.8897
 1554SOL    HW216299   4.713   2.996   1.673  0.3755 -0.1513 -1.4099
 1555SOL     OW16300   0.497   1.036   5.205  0.5236  0.3038 -0.2167
 1555SOL    HW116301   0.456   1.035   5.119  0.3554 -1.0172 -0.1205
 1555SOL    HW216302   0.549   1.113   5.185  0.6002  0.1253 -0.7091
 1556SOL     OW16303   1.039   3.917   5.365  0.2629  0.2006 -0.0744
 1556SOL    HW116304   1.059   3.900   5.273  1.5703 -1.3338  0.5043
 1556SOL    HW216305   0.959   3.970   5.361 -0.4020 -0.7292  0.8247
 1557SOL     OW16306   4.322   3.004   5.675  0.0810  0.7470 -0.3754
 1557SOL    HW116307   4.292   3.056   5.749 -0.2034 -1.3336  0.9775
 1557SOL    HW216308   4.235   2.976   5.646  0.4696 -0.9540  0.0882
 1558SOL     OW16309   1.084   4.563   4.819  0.5286 -0.3904  0.1304
 1558SOL    HW116310   1.042   4.634   4.868  2.1094 -0.5535  1.7159
 1558SOL    HW216311   1.148   4.616   4.772 -0.4657  1.7295  1.1438
 1559SOL     OW16312   1.363   0.466   8.270 -0.3642  0.3228 -0.1025
 1559SOL    HW116313   1.355   0.559   8.288  0.2692 -0.0836  2.2332
 1559SOL    HW216314   1.296   0.452   8.202  0.6469  0.4153 -1.1131
 1560SOL     OW16315   3.317   2.174   8.483 -0.2260 -0.1112  0.2692
 1560SOL    HW116316   3.373   2.110   8.438 -1.3622 -1.4649  0.7862
 1560SOL    HW216317   3.379   2.209   8.548  1.9003 -2.0154 -0.7171
 1561SOL     OW16318   3.545   4.583   7.269 -0.1678  0.3313 -0.0399
 1561SOL    HW116319   3.511   4.649   7.330  1.2821  2.0515 -1.0757
 1561SOL    HW216320   3.530   4.500   7.314  1.3545  0.2149  0.2453
 1562SOL     OW16321   0.080   0.617   3.131 -0.6273 -0.1358  0.2615
 1562SOL    HW116322   0.118   0.661   3.208  1.3478  0.3081 -0.9650
 1562SOL    HW216323   0.164   0.585   3.099 -1.0044 -0.4797 -0.3626
 1563SOL     OW16324   0.811   0.894   8.085 -0.2703  0.4184 -1.0195
 1563SOL    HW116325   0.877   0.957   8.113  1.9641 -1.5473 -1.8450
 1563SOL    HW216326   0.819   0.915   7.992 -0.7585  0.1878 -1.1131
 1564SOL     OW16327   3.520   4.088   0.537 -0.5161  0.3346  0.1001
 1564SOL    HW116328   3.598   4.043   0.571  0.9498  0.3945 -3.1660
 1564SOL    HW216329   3.556   4.127   0.457  2.2053 -1.7904  0.2673
 1565SOL     OW16330   0.123   0.782   1.628  0.6858 -0.2657  0.1122
 1565SOL    HW116331   0.080   0.859   1.593  0.8183 -1.2446 -2.1942
 1565SOL    HW216332   0.193   0.826   1.676  1.1358 -0.7000 -0.1454
 1566SOL     OW16333   1.179   0.714   8.745 -0.2164 -0.5372 -0.0359
 1566SOL    HW116334   1.178   0.649   8.674 -0.2820  2.4883 -2.8432
 1566SOL    HW216335   1.096   0.758   8.727 -0.6361 -1.2901  0.0751
 1567SOL     OW16336   3.696   4.379  15.907 -0.1742 -0.6527 -0.1271
 1567SOL    HW116337   3.767   4.442  15.899 -0.5264  0.2341  3.7734
 1567SOL    HW216338   3.724   4.305  15.853 -2.6802 -1.1208 -0.7959
 1568SOL     OW16339   2.831   2.756   9.135  0.1734 -0.1284  0.4696
 1568SOL    HW116340   2.745   2.764   9.175  0.0675  1.5883 -0.1123
 1568SOL    HW216341   2.831   2.662   9.118  1.6365 -0.5958  3.0103
 1569SOL     OW16342   1.666   4.205   4.234  0.2616 -0.0495 -0.0669
 1569SOL    HW116343   1.698   4.279   4.181  1.7348 -0.8448 -0.2773
 1569SOL    HW216344   1.574   4.226   4.248  0.4432  0.1304  0.8153
 1570SOL     OW16345   1.754   1.063   2.632 -0.5574  0.5347  0.2730
 1570SOL    HW116346   1.752   1.087   2.724 -2.3386  0.8594  0.1562
 1570SOL    HW216347   1.661   1.047   2.615 -0.5738  0.3126  0.5590
 1571SOL     OW16348   0.089   2.311   2.862 -0.4165  0.2374  0.0106
 1571SOL    HW116349   0.147   2.308   2.938  0.9064 -1.1344 -1.0574
 1571SOL    HW216350   0.085   2.406   2.854 -0.5635  0.2767  0.5045
 1572SOL     OW16351   4.159   4.450   2.303  0.3847  0.1311  0.0765
 1572SOL    HW116352   4.216   4.472   2.376 -0.9958  0.9142  0.9276
 1572SOL    HW216353   4.078   4.497   2.323 -0.7359 -2.4243  1.4954
 1573SOL     OW16354   2.905   1.057   9.209 -0.4435 -0.2593 -0.0623
 1573SOL    HW116355   2.813   1.041   9.229  0.2249 -1.1074  2.3410
 1573SOL    HW216356   2.909   1.000   9.132 -2.2478 -0.3606 -0.0849
 1574SOL     OW16357   0.353   4.197   7.634  0.7413 -0.1170 -0.1081
 1574SOL    HW116358   0.357   4.110   7.594  0.6935  0.5922 -1.6600
 1574SOL    HW216359   0.356   4.172   7.726  0.0303 -0.6790 -0.2393
 1575SOL     OW16360   3.098   1.293   2.699  0.7294 -0.6097  0.1102
 1575SOL    HW116361   3.085   1.281   2.605 -0.0781 -1.3769  0.3171
 1575SOL    HW216362   3.192   1.310   2.697  0.6229  0.0104  0.4959
 1576SOL     OW16363   3.091   0.873   7.036 -0.0830 -0.6174 -0.0936
 1576SOL    HW116364   3.180   0.895   7.063 -0.6764  1.1768  0.4096
 1576SOL    HW216365   3.053   0.960   7.026 -0.1527 -0.7869 -1.2701
 1577SOL     OW16366   2.589   3.705  17.390 -0.0530  0.2309 -0.1621
 1577SOL    HW116367   2.570   3.799  17.393  1.5118  0.5735 -0.7851
 1577SOL    HW216368   2.505   3.674  17.424 -0.7623  1.1715 -1.0311
 1578SOL     OW16369   0.210   3.236   8.140  0.0551 -0.1902  0.2786
 1578SOL    HW116370   0.265   3.292   8.086  3.1269 -0.8702  2.6786
 1578SOL    HW216371   0.254   3.152   8.133  1.5010  0.5867 -0.0207
 1579SOL     OW16372   1.844   3.354  13.793  0.0179  0.3697 -0.2259
 1579SOL    HW116373   1.938   3.351  13.779 -0.1691  1.1670 -1.6232
 1579SOL    HW216374   1.836   3.358  13.889  1.2237  1.4378 -0.1745
 1580SOL     OW16375   2.075   4.119  15.609 -0.1147 -0.0858  0.1229
 1580SOL    HW116376   2.085   4.024  15.605 -0.0001 -0.0202 -0.9744
 1580SOL    HW216377   2.119   4.153  15.531  0.8616 -0.2477  0.5918
 1581SOL     OW16378   0.912   1.022   7.865  0.3031  0.1581  0.2607
 1581SOL    HW116379   0.985   1.025   7.803 -0.7644 -0.2606 -1.0215
 1581SOL    HW216380   0.916   1.112   7.896 -3.6862  0.3071  0.3294
 1582SOL     OW16381   2.262   0.420   2.424 -0.5799  0.0030  0.7934
 1582SOL    HW116382   2.282   0.385   2.511  0.1424 -0.9763  0.2288
 1582SOL    HW216383   2.349   0.406   2.387 -0.2190  0.5782  1.4442
 1583SOL     OW16384   2.307   4.352  14.627  0.2240 -0.4460 -0.0994
 1583SOL    HW116385   2.255   4.329  14.549  1.6022 -3.0519 -0.2467
 1583SOL    HW216386   2.240   4.387  14.686 -1.3008 -2.0165 -0.8998
 1584SOL     OW16387   0.887   0.643   5.115  0.0800 -0.1491 -0.2203
 1584SOL    HW116388   0.924   0.620   5.200 -0.4735  0.8938  0.3091
 1584SOL    HW216389   0.959   0.643   5.052  0.5429 -1.0669  0.3158
 1585SOL     OW16390   4.422   1.042   4.399 -0.1401 -0.6675  0.0377
 1585SOL    HW116391   4.402   0.969   4.458  1.4582 -0.4250  0.9129
 1585SOL    HW216392   4.518   1.041   4.405 -0.2681 -0.1442  2.3349
 1586SOL     OW16393   0.248   3.612   7.495 -0.2894  0.0158  0.9543
 1586SOL    HW116394   0.305   3.570   7.430 -1.3198  0.1935 -0.0637
 1586SOL    HW216395   0.161   3.596   7.458  0.2662  1.0954 -0.7995
 1587SOL     OW16396   4.614   4.348  14.866 -0.2493  0.2869  0.1840
 1587SOL    HW116397   4.647   4.328  14.954 -0.3902 -0.3889  0.0812
 1587SOL    HW216398   4.668   4.285  14.818 -0.5911 -1.6928  2.3493
 1588SOL     OW16399   3.201   0.914   6.678  0.2025 -0.1744  0.3055
 1588SOL    HW116400   3.191   1.002   6.641 -0.6010 -0.6441 -0.6008
 1588SOL    HW216401   3.111   0.902   6.710  0.0448  0.8046  0.2234
 1589SOL     OW16402   4.720   3.876  10.032  0.1247 -0.2332  0.1354
 1589SOL    HW116403   4.733   3.971  10.027 -0.3122 -0.1202  1.1016
 1589SOL    HW216404   0.074   3.840  10.023 -0.7494 -2.3308  0.1539
 1590SOL     OW16405   3.087   2.911  11.006 -0.4277 -0.6090  0.0359
 1590SOL    HW116406   3.105   2.995  10.964 -3.5846  0.3754  0.6557
 1590SOL    HW216407   3.039   2.861  10.940  0.3895 -1.9331  0.4534
 1591SOL     OW16408   2.937   0.546   4.453  0.7349 -0.1904  0.1377
 1591SOL    HW116409   2.967   0.541   4.362  1.5392  0.3499  0.3766
 1591SOL    HW216410   2.956   0.639   4.467  1.5243 -0.5650  1.5484
 1592SOL     OW16411   1.391   4.658   1.691  0.3404 -0.1942  0.1930
 1592SOL    HW116412   1.474   4.616   1.669  0.2217  0.2007 -0.9734
 1592SOL    HW216413   1.343   4.590   1.644  2.1769  0.5004 -2.6867
 1593SOL     OW16414   2.847   2.780   7.803  0.4748 -0.2702  0.5292
 1593SOL    HW116415   2.877   2.796   7.713  0.8709  2.7583  1.1952
 1593SOL    HW216416   2.759   2.748   7.782  0.2635  0.8533 -0.3127
 1594SOL     OW16417   2.664   3.554  14.061 -0.0839  0.1197 -0.1273
 1594SOL    HW116418   2.625   3.565  14.147  0.0139 -2.3087  0.2145
 1594SOL    HW216419   2.598   3.499  14.018  0.0048  0.0562 -0.1828
 1595SOL     OW16420   4.372   2.852   9.149  0.5370 -0.1199  0.0935
 1595SOL    HW116421   4.362   2.778   9.210 -0.6553  0.4229  0.5597
 1595SOL    HW216422   4.301   2.910   9.178  0.7124  1.9157 -3.6708
 1596SOL     OW16423   2.989   0.623   7.032 -0.2159 -0.5055  0.2336
 1596SOL    HW116424   2.908   0.659   7.068 -0.2642  0.0661 -0.4404
 1596SOL    HW216425   3.045   0.699   7.047 -0.5669 -0.2640  0.3271
 1597SOL     OW16426   3.032   3.671   6.401 -0.7669 -0.1412  0.5613
 1597SOL    HW116427   3.049   3.702   6.311 -0.3429 -1.4053  0.2095
 1597SOL    HW216428   3.111   3.701   6.447 -1.4219 -0.1878  1.7042
 1598SOL     OW16429   4.704   0.011   5.407 -0.9864  0.4987 -0.2072
 1598SOL    HW116430   4.725   0.042   5.319  1.5376  1.8107  0.8598
 1598SOL    HW216431   0.032   4.674   5.412  0.5337  1.6855 -2.2919
 1599SOL     OW16432   4.447   4.118   8.165  0.0405 -0.7190  0.0135
 1599SOL    HW116433   4.451   4.039   8.111 -1.4451 -0.5813 -0.3085
 1599SOL    HW216434   4.534   4.119   8.206  1.7754  1.7675 -3.7233
 1600SOL     OW16435   1.742   0.555   7.250 -0.4289 -0.0012 -0.3982
 1600SOL    HW116436   1.770   0.472   7.289  0.4174  0.4058 -0.1344
 1600SOL    HW216437   1.670   0.515   7.202 -0.9476 -0.0551  0.4163
 1601SOL     OW16438   2.332   4.387  14.210  0.0959 -0.0262  0.2100
 1601SOL    HW116439   2.355   4.389  14.117 -0.6093 -0.6607  0.0250
 1601SOL    HW216440   2.280   4.468  14.219  0.2471 -0.0506  1.3001
 1602SOL     OW16441   4.290   0.806   8.248  0.4537 -0.0269 -0.0186
 1602SOL    HW116442   4.215   0.864   8.236  2.0653  1.4865 -2.6930
 1602SOL    HW216443   4.276   0.779   8.339 -0.0938  0.3208 -0.0012
 1603SOL     OW16444   2.206   3.111   7.371 -0.0027 -0.3950  0.0935
 1603SOL    HW116445   2.273   3.169   7.409  3.0222 -2.0851 -2.6602
 1603SOL    HW216446   2.142   3.180   7.352  0.2125 -0.2471 -0.0965
 1604SOL     OW16447   2.749   1.773   1.034 -0.2804 -0.7472  0.3418
 1604SOL    HW116448   2.783   1.834   1.100  1.3103 -0.7617 -0.4725
 1604SOL    HW216449   2.802   1.697   1.057  0.0213 -0.2914  1.1332
 1605SOL     OW16450   2.178   3.502  14.869 -0.2654  0.0331 -0.3935
 1605SOL    HW116451   2.088   3.483  14.896 -0.5833  1.0552 -0.7414
 1605SOL    HW216452   2.162   3.573  14.807 -0.0066  1.5550  1.2847
 1606SOL     OW16453   0.535   3.646   0.548 -0.1129 -0.2899 -0.2428
 1606SOL    HW116454   0.556   3.561   0.586 -1.9057 -0.9530 -0.6985
 1606SOL    HW216455   0.491   3.704   0.610  0.4579  1.8783 -1.8845
 1607SOL     OW16456   1.474   3.114   2.545 -0.0119 -0.5835 -0.0377
 1607SOL    HW116457   1.431   3.029   2.538 -1.2907  0.0436  0.1998
 1607SOL    HW216458   1.420   3.149   2.616 -0.4130 -0.3541 -0.4576
 1608SOL     OW16459   3.674   3.365   3.947 -0.1905  0.1133 -0.3484
 1608SOL    HW116460   3.705   3.274   3.953 -0.7225 -0.0596 -0.2758
 1608SOL    HW216461   3.761   3.403   3.931  1.2980 -1.4829  3.8377
 1609SOL     OW16462   2.193   1.271   2.803  0.4548 -0.2322 -0.0368
 1609SOL    HW116463   2.147   1.355   2.802  1.9568  0.6063  0.7939
 1609SOL    HW216464   2.124   1.224   2.849 -1.0116  0.8056 -1.1752
 1610SOL     OW16465   0.122   3.089   2.273 -0.1291 -0.1586  0.2611
 1610SOL    HW116466   0.099   3.003   2.310  0.6265 -0.4131  0.1394
 1610SOL    HW216467   0.050   3.145   2.300 -0.3675  0.7517 -2.3651
 1611SOL     OW16468   1.609   3.217   3.688  0.7423  0.8093  0.3039
 1611SOL    HW116469   1.657   3.202   3.607  0.7639 -0.6981  0.5969
 1611SOL    HW216470   1.671   3.220   3.760  0.9613  0.2801  0.1369
 1612SOL     OW16471   0.856   1.112   1.270 -0.4660  0.0590 -0.3809
 1612SOL    HW116472   0.763   1.116   1.292  0.0086  0.2696  1.5307
 1612SOL    HW216473   0.849   1.091   1.177  1.8245 -0.4964 -0.4047
 1613SOL     OW16474   4.654   3.075  10.365 -0.5915 -0.3848  0.4490
 1613SOL    HW116475   4.598   3.117  10.430 -1.2672  0.9448 -0.9895
 1613SOL    HW216476   0.003   3.094  10.408 -0.5819 -0.5529  0.5055
 1614SOL     OW16477   0.776   3.145   4.000  0.0158 -0.4657 -0.1163
 1614SOL    HW116478   0.731   3.060   4.001 -0.5408 -0.1518  2.7778
 1614SOL    HW216479   0.806   3.155   3.910  1.4391 -0.5883  0.3516
 1615SOL     OW16480   2.297   3.846   5.401  0.5295  0.9075 -0.0424
 1615SOL    HW116481   2.318   3.887   5.485  2.4135  0.2800 -0.1911
 1615SOL    HW216482   2.375   3.864   5.347 -0.2853  0.6192 -1.3054
 1616SOL     OW16483   1.661   0.549  14.969  0.1139  0.1279  0.3190
 1616SOL    HW116484   1.625   0.509  14.889 -1.3908  0.4804  0.8243
 1616SOL    HW216485   1.707   0.470  14.999  0.6004  0.5730  0.7329
 1617SOL     OW16486   0.014   4.554   6.005 -0.2217  0.1451 -0.2034
 1617SOL    HW116487   0.015   4.622   6.073 -0.8736 -0.0233 -0.0237
 1617SOL    HW216488   0.103   4.520   6.015  0.5768  3.1967  2.9437
 1618SOL     OW16489   2.293   2.236   6.418  0.9180 -0.1657  0.4504
 1618SOL    HW116490   2.313   2.326   6.445 -0.0818 -0.1760  1.2452
 1618SOL    HW216491   2.381   2.209   6.394  0.7131 -0.1048 -0.3811
 1619SOL     OW16492   2.014   1.853   9.156 -0.3839 -0.2424  0.2860
 1619SOL    HW116493   1.990   1.932   9.203  1.6549  0.8045 -0.4203
 1619SOL    HW216494   1.939   1.852   9.098 -2.2727  1.9929  2.7121
 1620SOL     OW16495   3.975   3.642  14.503 -0.0909  0.0284 -0.1564
 1620SOL    HW116496   3.917   3.664  14.575 -0.2864  1.8428 -0.8571
 1620SOL    HW216497   4.004   3.559  14.539  0.0530  0.5291  0.8684
 1621SOL     OW16498   0.006   0.372   3.246  0.1257  0.1180  0.0245
 1621SOL    HW116499   4.647   0.389   3.236 -0.1204 -1.5639 -0.3632
 1621SOL    HW216500   0.046   0.451   3.210  0.3940  0.0265  0.1241
 1622SOL     OW16501   0.910   0.271   3.636 -0.8409 -0.2020  0.3564
 1622SOL    HW116502   0.861   0.304   3.561  0.8856 -0.3296 -0.8117
 1622SOL    HW216503   0.842   0.257   3.703 -0.9903  2.2690  0.6941
 1623SOL     OW16504   0.737   0.198  11.158  0.1380  0.2155  0.2310
 1623SOL    HW116505   0.786   0.127  11.199  2.0507 -0.3253 -3.0041
 1623SOL    HW216506   0.696   0.141  11.093 -0.1413 -0.5699  1.0866
 1624SOL     OW16507   0.091   1.730   9.332 -0.1859  0.4230  0.6432
 1624SOL    HW116508   0.138   1.809   9.306 -0.9941  1.4990  2.4428
 1624SOL    HW216509   0.000   1.757   9.321 -0.0167  0.4548 -0.6604
 1625SOL     OW16510   4.205   3.732  13.708 -0.1151 -0.2977 -0.0072
 1625SOL    HW116511   4.121   3.709  13.749 -0.7020  1.2591 -0.3151
 1625SOL    HW216512   4.243   3.781  13.781  1.3215 -1.0288 -0.2650
 1626SOL     OW16513   3.377   0.457   1.868  0.2275  0.4065 -0.7195
 1626SOL    HW116514   3.324   0.396   1.921  0.5498  0.5996 -0.1778
 1626SOL    HW216515   3.314   0.522   1.837  0.2689  1.0430  0.5513
 1627SOL     OW16516   1.253   4.410  12.776  0.5506 -0.5281  0.0068
 1627SOL    HW116517   1.311   4.337  12.758  1.1947  0.0999 -0.4686
 1627SOL    HW216518   1.322   4.476  12.787 -0.0065  0.1054 -0.2597
 1628SOL     OW16519   1.146   2.366   8.002 -0.0870 -0.1578  0.5578
 1628SOL    HW116520   1.235   2.348   8.030 -0.2274 -1.3697  0.2508
 1628SOL    HW216521   1.159   2.435   7.937 -0.4619  2.3521  3.1340
 1629SOL     OW16522   2.542   4.621   2.715  0.4584  0.5471  0.0844
 1629SOL    HW116523   2.520   4.659   2.629  0.8019 -1.7952 -1.0259
 1629SOL    HW216524   2.467   4.646   2.770 -1.6742 -1.1577 -2.0397
 1630SOL     OW16525   0.183   0.876  12.433  0.5632  0.0709 -0.6250
 1630SOL    HW116526   0.151   0.864  12.522 -0.1572 -1.5089 -1.0929
 1630SOL    HW216527   0.140   0.954  12.400  2.6500  0.0454 -3.4425
 1631SOL     OW16528   2.038   1.769   5.971  0.3758  0.5093 -0.0011
 1631SOL    HW116529   1.982   1.699   5.939 -0.8221  0.6709  1.7236
 1631SOL    HW216530   2.116   1.720   5.997 -0.3530 -0.5732  0.0905
 1632SOL     OW16531   0.443   1.875   2.336 -0.1237 -0.2389 -0.0049
 1632SOL    HW116532   0.395   1.808   2.384  0.0986 -0.9062 -0.7003
 1632SOL    HW216533   0.533   1.865   2.367 -0.8468 -1.3722  1.7366
 1633SOL     OW16534   0.617   3.210   8.843 -0.2677 -0.0418 -0.4456
 1633SOL    HW116535   0.665   3.128   8.832 -0.8834 -0.4980  0.3667
 1633SOL    HW216536   0.624   3.237   8.751  0.2334  0.9427 -0.1187
 1634SOL     OW16537   4.714   2.297  15.023  0.4455  0.8300 -0.4261
 1634SOL    HW116538   4.732   2.363  15.090  2.1376 -2.2780  2.2046
 1634SOL    HW216539   4.669   2.355  14.961  1.8908 -0.6761 -2.9016
 1635SOL     OW16540   3.881   3.444  15.502 -0.3488  0.3435 -0.3475
 1635SOL    HW116541   3.973   3.422  15.516  0.4747  4.2717  0.3868
 1635SOL    HW216542   3.872   3.425  15.408 -3.3666  1.4691 -0.2926
 1636SOL     OW16543   3.700   1.973   7.231 -0.1976 -0.4455  0.4039
 1636SOL    HW116544   3.773   2.028   7.260 -1.0700  0.7555  0.3162
 1636SOL    HW216545   3.660   2.027   7.163  0.7833 -0.3570 -0.1022
 1637SOL     OW16546   1.573   4.118   6.326  0.1391  0.2134  1.1686
 1637SOL    HW116547   1.529   4.204   6.327 -1.1690 -0.4415  0.2955
 1637SOL    HW216548   1.518   4.068   6.386  0.2862 -0.0405  1.0911
 1638SOL     OW16549   4.658   3.459  15.606  0.2253 -0.1070  0.0004
 1638SOL    HW116550   4.676   3.484  15.516  0.4885  0.4343  0.2054
 1638SOL    HW216551   0.007   3.423  15.635  0.6260  1.8361  1.2471
 1639SOL     OW16552   4.293   3.971   2.869 -0.1717  0.4392 -0.2605
 1639SOL    HW116553   4.282   4.023   2.949 -2.3930 -0.7716  0.2188
 1639SOL    HW216554   4.374   4.010   2.838  1.2414 -2.0572  0.2790
 1640SOL     OW16555   0.235   3.680  15.893  0.1344 -0.4390  0.1071
 1640SOL    HW116556   0.163   3.656  15.953 -1.0546  3.0650  0.1168
 1640SOL    HW216557   0.248   3.595  15.852 -0.4548  0.3084 -1.6278
 1641SOL     OW16558   4.316   2.622   1.871 -0.4472 -0.0437 -0.0186
 1641SOL    HW116559   4.400   2.618   1.917  1.1251 -1.9683 -3.0277
 1641SOL    HW216560   4.337   2.564   1.798 -0.8209 -0.5504  0.2847
 1642SOL     OW16561   3.881   1.135  11.009  0.1935  0.1934 -0.0411
 1642SOL    HW116562   3.964   1.149  10.963 -0.2013  3.7812  0.3068
 1642SOL    HW216563   3.881   1.202  11.077 -0.9223  1.5915 -1.3872
 1643SOL     OW16564   2.709   0.982   7.297  0.3679 -0.2007 -0.2330
 1643SOL    HW116565   2.748   1.054   7.347  2.2242 -0.6207 -1.0471
 1643SOL    HW216566   2.674   0.916   7.356  1.1737 -1.0739 -0.7258
 1644SOL     OW16567   1.496   2.451   5.675  0.0975 -0.1783  0.3444
 1644SOL    HW116568   1.496   2.464   5.770 -0.3998 -0.9466  0.4497
 1644SOL    HW216569   1.457   2.536   5.655 -0.3653 -0.8227 -1.4760
 1645SOL     OW16570   0.806   1.115   6.096 -0.6636  0.4801 -0.3871
 1645SOL    HW116571   0.816   1.197   6.144  0.5756  0.3797 -0.4737
 1645SOL    HW216572   0.875   1.124   6.030  0.1533 -2.1525  0.0858
 1646SOL     OW16573   2.930   1.137   9.669  0.2555  0.2209 -0.5411
 1646SOL    HW116574   2.860   1.177   9.617  0.0505 -1.2463 -1.3922
 1646SOL    HW216575   2.874   1.070   9.709 -1.2527  1.6333 -0.2782
 1647SOL     OW16576   3.272   1.074   2.479 -0.4715 -0.6261 -0.1594
 1647SOL    HW116577   3.241   1.095   2.567  1.5849 -0.7167  0.5928
 1647SOL    HW216578   3.190   1.059   2.431  0.0146  0.6679 -1.4281
 1648SOL     OW16579   0.942   3.308   1.433  0.5274 -1.0308  0.5258
 1648SOL    HW116580   0.977   3.396   1.426 -0.8984 -0.4634  0.4756
 1648SOL    HW216581   0.908   3.313   1.522 -2.0667 -3.9258 -0.2963
 1649SOL     OW16582   0.913   4.452   3.519 -0.2088 -0.2396  0.1776
 1649SOL    HW116583   0.957   4.414   3.443  1.9292  1.2960  0.6524
 1649SOL    HW216584   0.988   4.436   3.577 -0.4219  1.0072  0.7954
 1650SOL     OW16585   2.762   0.881   3.724 -0.7202 -0.3656 -0.0375
 1650SOL    HW116586   2.843   0.830   3.735 -1.0702 -1.1033 -0.8217
 1650SOL    HW216587   2.701   0.821   3.768  1.5526 -0.4611  2.9480
 1651SOL     OW16588   4.513   1.934   0.174 -0.5814  0.1785 -0.0910
 1651SOL    HW116589   4.565   1.862   0.138  0.2176  0.4068  0.6115
 1651SOL    HW216590   4.510   1.997   0.103  1.0626 -0.2243 -0.5118
 1652SOL     OW16591   1.773   3.586  13.606 -0.0594 -0.3363 -0.2097
 1652SOL    HW116592   1.854   3.589  13.556  0.4241 -0.6893  0.5623
 1652SOL    HW216593   1.803   3.543  13.686 -0.0809 -0.7392 -0.4220
 1653SOL     OW16594   2.104   3.063   5.917 -0.1153 -0.0938 -0.1630
 1653SOL    HW116595   2.178   3.026   5.966 -2.0519 -2.4853  0.9349
 1653SOL    HW216596   2.052   2.983   5.913  1.7822 -1.1922 -3.7484
 1654SOL     OW16597   2.474   0.624   8.207 -0.4563 -0.2881 -0.0593
 1654SOL    HW116598   2.431   0.561   8.150 -0.2840 -0.7386  0.3094
 1654SOL    HW216599   2.561   0.632   8.167 -0.5778 -0.9356 -0.4513
 1655SOL     OW16600   2.939   1.651  14.440 -0.0028  0.5884 -0.0297
 1655SOL    HW116601   2.984   1.720  14.488 -0.1558 -1.8370  3.5709
 1655SOL    HW216602   2.857   1.687  14.474  0.8522  0.5754  1.9976
 1656SOL     OW16603   2.629   0.972   6.359 -0.2858 -0.4424 -0.3187
 1656SOL    HW116604   2.623   1.067   6.374 -3.4097 -0.6802 -0.2427
 1656SOL    HW216605   2.719   0.975   6.324 -0.3313  0.9423 -0.3300
 1657SOL     OW16606   4.161   3.032   9.179 -0.0663  0.2694  0.1351
 1657SOL    HW116607   4.111   3.027   9.098  1.1658  2.6896 -0.7886
 1657SOL    HW216608   4.116   3.108   9.213 -1.7193 -1.1630  1.1503
 1658SOL     OW16609   2.463   1.989  13.280  0.3186  0.1097  0.0622
 1658SOL    HW116610   2.490   1.918  13.222 -0.6181 -0.3316  0.1644
 1658SOL    HW216611   2.498   2.062  13.229  1.0823 -3.1489 -4.0065
 1659SOL     OW16612   1.020   3.811   5.907 -0.3623 -0.2362  0.0077
 1659SOL    HW116613   0.956   3.761   5.856  0.7206 -0.2937 -1.3080
 1659SOL    HW216614   1.079   3.828   5.833  0.6757  2.7610  1.5275
 1660SOL     OW16615   3.505   1.872   4.451 -0.1877  0.0110  0.1235
 1660SOL    HW116616   3.501   1.786   4.409 -0.4523  1.0831 -2.0202
 1660SOL    HW216617   3.418   1.863   4.489 -0.6927 -0.2041 -1.0813
 1661SOL     OW16618   2.961   0.519   8.775 -0.4467 -0.6351 -0.3785
 1661SOL    HW116619   2.894   0.580   8.745 -1.4112 -0.4727  2.1850
 1661SOL    HW216620   3.018   0.511   8.698 -0.1795  0.2938 -0.2778
 1662SOL     OW16621   4.350   0.869   9.617 -0.4145 -0.1104 -0.0224
 1662SOL    HW116622   4.313   0.956   9.624 -3.2692 -1.4637  1.7284
 1662SOL    HW216623   4.266   0.823   9.622 -0.5887  0.1493 -0.5682
 1663SOL     OW16624   3.749   3.642   3.221  0.7089 -0.2876 -0.0228
 1663SOL    HW116625   3.666   3.667   3.181  1.4604  2.1034 -0.1211
 1663SOL    HW216626   3.759   3.563   3.169  0.6882 -2.9617  4.0606
 1664SOL     OW16627   3.381   2.910   4.745 -0.3593 -0.4294  0.3793
 1664SOL    HW116628   3.308   2.853   4.721  0.8018 -2.9655  2.9054
 1664SOL    HW216629   3.456   2.852   4.735  0.7831  1.3606 -1.2274
 1665SOL     OW16630   3.637   3.173   0.224 -0.0811  0.6816 -0.2103
 1665SOL    HW116631   3.643   3.234   0.297 -1.0907 -0.5058  0.8693
 1665SOL    HW216632   3.713   3.118   0.244 -1.4663 -1.1608  0.0298
 1666SOL     OW16633   0.001   4.281  11.447  0.2419 -0.1412 -0.3492
 1666SOL    HW116634   0.027   4.249  11.533  1.8672  2.5362  0.1596
 1666SOL    HW216635   4.653   4.233  11.437  1.0816 -1.5850 -0.2308
 1667SOL     OW16636   2.008   4.520   2.508 -0.0659  0.1132  0.3881
 1667SOL    HW116637   1.986   4.605   2.548 -1.7192  0.1734 -0.6717
 1667SOL    HW216638   2.015   4.464   2.585 -0.9783  1.6770  1.6086
 1668SOL     OW16639   0.935   2.518  11.557  0.3877 -0.4988  0.9578
 1668SOL    HW116640   0.919   2.478  11.471  1.0488 -2.3105  1.6690
 1668SOL    HW216641   1.027   2.543  11.547  0.4902 -1.3077 -0.2066
 1669SOL     OW16642   1.824   1.766   2.575  0.1337 -0.1806 -0.4443
 1669SOL    HW116643   1.813   1.859   2.554 -1.8216 -0.2421  0.3360
 1669SOL    HW216644   1.883   1.780   2.648 -0.0654 -0.0440 -0.3091
 1670SOL     OW16645   2.534   1.713  13.543  0.0348 -0.5901 -0.5242
 1670SOL    HW116646   2.524   1.699  13.637 -2.3677  3.4045 -0.1892
 1670SOL    HW216647   2.554   1.806  13.551  0.1568 -0.8191  1.7694
 1671SOL     OW16648   3.600   2.975   3.452 -0.4143 -0.2691 -0.3347
 1671SOL    HW116649   3.557   2.897   3.416  0.4030 -1.0454  0.3886
 1671SOL    HW216650   3.677   2.939   3.495  0.5399 -2.1357 -3.6168
 1672SOL     OW16651   2.879   3.881   6.081  0.6794 -0.3683  0.2860
 1672SOL    HW116652   2.904   3.942   6.012  1.3907 -1.4905 -0.4524
 1672SOL    HW216653   2.811   3.835   6.031 -0.2591 -0.1989  1.4187
 1673SOL     OW16654   4.258   3.678   5.065 -0.3470 -0.4553 -0.7338
 1673SOL    HW116655   4.196   3.723   5.009  0.1645 -2.0092 -2.5214
 1673SOL    HW216656   4.303   3.633   4.993 -0.5346  0.3232 -1.3382
 1674SOL     OW16657   4.332   1.795   2.688  0.2743  0.2655 -0.1507
 1674SOL    HW116658   4.238   1.809   2.681  0.1567 -0.1192  0.5585
 1674SOL    HW216659   4.352   1.734   2.617 -1.1627 -0.5786  0.1701
 1675SOL     OW16660   0.469   3.300   4.597 -0.5413  0.2175  0.5361
 1675SOL    HW116661   0.535   3.352   4.551  1.1828 -0.4475  2.2562
 1675SOL    HW216662   0.422   3.282   4.516  3.7100 -1.5597 -1.5676
 1676SOL     OW16663   3.626   2.634   8.214  0.0451 -0.3154 -0.2047
 1676SOL    HW116664   3.594   2.698   8.278  0.6486  1.0776 -1.2940
 1676SOL    HW216665   3.577   2.558   8.244 -1.1929 -0.6574 -3.1412
 1677SOL     OW16666   4.598   1.853   3.747  0.2679  0.0196 -0.1548
 1677SOL    HW116667   4.641   1.898   3.819 -1.6409 -0.6989  1.4416
 1677SOL    HW216668   4.506   1.872   3.765  0.4283  0.6281  0.0081
 1678SOL     OW16669   4.683   3.092   3.241  0.3080 -0.2030  0.6916
 1678SOL    HW116670   0.031   3.054   3.272  1.3068 -0.3976 -2.2562
 1678SOL    HW216671   4.628   3.044   3.303 -1.5543  1.0630  0.0272
 1679SOL     OW16672   3.301   1.711   5.943  0.4810  0.6629  0.3867
 1679SOL    HW116673   3.281   1.621   5.916 -0.0236  1.6786 -2.5762
 1679SOL    HW216674   3.393   1.689   5.960  0.0831 -0.8806  0.4923
 1680SOL     OW16675   4.542   1.460   8.491  0.0881 -0.0138  0.9419
 1680SOL    HW116676   4.531   1.491   8.581 -1.3663 -2.1504  1.5173
 1680SOL    HW216677   4.467   1.400   8.493  0.4594 -0.4917  0.7624
 1681SOL     OW16678   1.100   0.858   2.891  0.1651  0.1242 -0.5881
 1681SOL    HW116679   1.016   0.898   2.910  0.5465  1.3944 -1.5650
 1681SOL    HW216680   1.100   0.834   2.799 -1.7167 -0.7110 -0.3483
 1682SOL     OW16681   2.788   2.674  11.533 -0.1053 -0.1166  0.0034
 1682SOL    HW116682   2.848   2.608  11.497 -0.7590 -0.6471 -0.0955
 1682SOL    HW216683   2.780   2.746  11.470  2.1962  0.3468  0.2154
 1683SOL     OW16684   2.267   3.004   6.350  0.5172 -0.0344 -0.0247
 1683SOL    HW116685   2.354   3.037   6.372 -0.3290  2.4658 -0.3748
 1683SOL    HW216686   2.209   3.077   6.373 -1.0762 -1.0267 -0.8751
 1684SOL     OW16687   1.681   0.539   7.570  0.2876 -0.1233  0.3913
 1684SOL    HW116688   1.699   0.576   7.484  0.3751 -1.7723 -0.2973
 1684SOL    HW216689   1.646   0.450   7.559 -1.6257  0.6978 -0.1672
 1685SOL     OW16690   2.021   1.383  13.218 -0.1947 -0.0287  0.0610
 1685SOL    HW116691   2.115   1.388  13.238  0.4056  1.0669 -3.0578
 1685SOL    HW216692   2.026   1.294  13.183 -2.0415  0.4203 -1.3078
 1686SOL     OW16693   2.972   2.045   8.227  0.2349 -0.1185  0.0270
 1686SOL    HW116694   2.916   1.973   8.256 -1.0598  2.0206  2.8459
 1686SOL    HW216695   2.999   2.014   8.140  0.8467 -0.8193  0.4649
 1687SOL     OW16696   2.324   2.728   5.661 -0.5062 -0.1549 -0.6625
 1687SOL    HW116697   2.374   2.652   5.631  1.2913  0.6277  0.3291
 1687SOL    HW216698   2.337   2.734   5.756 -0.9193 -0.3686 -0.5945
 1688SOL     OW16699   0.019   2.299   8.782 -0.0795  0.0035  0.1294
 1688SOL    HW116700   4.722   2.386   8.760 -1.2436 -0.8491 -1.5942
 1688SOL    HW216701   0.030   2.311   8.876 -0.3187 -0.3230  0.1981
 1689SOL     OW16702   1.628   2.833   2.933 -0.7507  0.3269 -0.2840
 1689SOL    HW116703   1.673   2.749   2.949 -1.1165  0.0688 -0.6208
 1689SOL    HW216704   1.537   2.820   2.960 -1.0894 -0.2945 -1.7635
 1690SOL     OW16705   3.778   3.742   2.605  0.2650  0.1606  0.2724
 1690SOL    HW116706   3.701   3.795   2.581  1.1069  1.5149  0.5362
 1690SOL    HW216707   3.763   3.655   2.568  1.7275  0.2688 -0.5954
 1691SOL     OW16708   0.752   2.607  13.927 -0.0378 -0.8263 -0.2138
 1691SOL    HW116709   0.838   2.642  13.904  0.1292 -0.2311  1.2833
 1691SOL    HW216710   0.770   2.526  13.879  1.5124 -0.7433  0.2356
 1692SOL     OW16711   1.714   4.632  12.708 -0.4101 -0.0060 -0.3818
 1692SOL    HW116712   1.619   4.618  12.704 -0.3988 -0.8124  1.9424
 1692SOL    HW216713   1.733   4.679  12.790 -0.7536 -0.8034  0.1511
 1693SOL     OW16714   4.210   0.402   2.854  0.0869  0.4360  0.1815
 1693SOL    HW116715   4.130   0.402   2.800  1.6139  1.9353 -2.0693
 1693SOL    HW216716   4.175   0.441   2.933 -2.0478 -0.0845 -0.5038
 1694SOL     OW16717   3.156   0.182   9.929 -0.3673  0.1294  0.3088
 1694SOL    HW116718   3.170   0.234  10.008  0.4920  0.2526  0.0778
 1694SOL    HW216719   3.069   0.213   9.907 -0.2095 -0.9366 -1.8178
 1695SOL     OW16720   2.530   2.866   8.834  0.6683 -0.0735  0.0599
 1695SOL    HW116721   2.489   2.945   8.799  0.3857  1.3629  3.6256
 1695SOL    HW216722   2.611   2.907   8.867  0.7192 -1.5783  1.8477
 1696SOL     OW16723   3.693   1.356  16.983 -0.2823 -0.2547 -0.2181
 1696SOL    HW116724   3.784   1.351  16.953 -0.1421  0.3124  0.1166
 1696SOL    HW216725   3.651   1.306  16.913  0.0440 -1.4836  0.4536
 1697SOL     OW16726   0.786   2.962   8.797  0.1205  0.4127  0.5004
 1697SOL    HW116727   0.745   2.900   8.737 -0.4668  0.4984  0.8103
 1697SOL    HW216728   0.859   2.990   8.743  0.1858  0.4066  0.5860
 1698SOL     OW16729   0.659   1.895   7.994  0.2654  0.5003 -0.2264
 1698SOL    HW116730   0.626   1.857   8.075 -0.4800  0.8991 -0.3488
 1698SOL    HW216731   0.579   1.933   7.958  0.3321 -0.3172 -1.2410
 1699SOL     OW16732   3.876   1.606  11.547  0.5308 -0.3398  0.3707
 1699SOL    HW116733   3.830   1.525  11.566 -1.1071  0.7436  1.0731
 1699SOL    HW216734   3.925   1.614  11.629  0.1699  2.4070  0.3478
 1700SOL     OW16735   4.404   4.147   4.869  0.8058  0.5712 -0.0519
 1700SOL    HW116736   4.492   4.160   4.836  1.4919  1.2575  2.0113
 1700SOL    HW216737   4.412   4.144   4.965  1.4617 -0.1351 -0.1288
 1701SOL     OW16738   0.335   2.901   0.154  0.3560  0.2520  0.3540
 1701SOL    HW116739   0.414   2.902   0.100  0.1684 -0.0428  0.0808
 1701SOL    HW216740   0.360   2.860   0.237 -0.0324 -1.7094 -0.5109
 1702SOL     OW16741   1.524   4.176   0.047 -0.2191 -0.0227 -0.1614
 1702SOL    HW116742   1.431   4.197   0.062  0.0967  0.2183  1.4231
 1702SOL    HW216743   1.521   4.090   0.006 -0.7443 -0.3745  0.6101
 1703SOL     OW16744   1.310   2.920   2.909 -0.3024  0.4631 -0.3323
 1703SOL    HW116745   1.380   2.985   2.904  0.9710 -0.9824 -1.0629
 1703SOL    HW216746   1.264   2.963   2.982 -0.8944 -1.3210  0.3485
 1704SOL     OW16747   1.434   2.179   9.163 -0.1881  0.3701  0.6844
 1704SOL    HW116748   1.432   2.208   9.072 -1.4165  0.3120  0.6993
 1704SOL    HW216749   1.522   2.211   9.185  0.0978  0.9385 -1.2839
 1705SOL     OW16750   2.633   3.544   4.289  0.4601  0.0812 -0.1844
 1705SOL    HW116751   2.605   3.545   4.198 -0.6017  0.0032  0.1353
 1705SOL    HW216752   2.703   3.607   4.275 -1.6803  1.9653 -2.2810
 1706SOL     OW16753   2.969   2.949   5.226  0.0648  0.3280  0.5598
 1706SOL    HW116754   2.909   2.877   5.246 -1.0293  0.9553 -0.4738
 1706SOL    HW216755   2.967   2.952   5.131 -0.8939  0.0402  0.5722
 1707SOL     OW16756   2.102   0.019  11.945  0.7931  0.2477  0.1227
 1707SOL    HW116757   2.129   0.010  12.036 -1.2606 -0.4101  0.6600
 1707SOL    HW216758   2.169   0.081  11.915 -0.1674  0.4524 -1.6111
 1708SOL     OW16759   3.128   1.155  16.484 -0.4081  0.1093 -0.5568
 1708SOL    HW116760   3.216   1.121  16.471 -0.5410 -0.6019  0.3890
 1708SOL    HW216761   3.139   1.200  16.567 -0.5947 -0.3160 -0.3005
 1709SOL     OW16762   1.802   4.693   7.935  0.0661  0.3730  0.7417
 1709SOL    HW116763   1.836   4.612   7.971  0.0313 -0.8006 -1.8791
 1709SOL    HW216764   1.712   4.673   7.910  0.1136 -2.5608  2.9353
 1710SOL     OW16765   0.900   2.031   6.843  0.4740  0.0430 -0.0347
 1710SOL    HW116766   0.839   1.959   6.862 -0.3348  0.0278 -2.7178
 1710SOL    HW216767   0.926   1.997   6.757 -1.5775  0.2367 -0.7488
 1711SOL     OW16768   0.265   1.077   3.367 -0.0035  0.7083  0.0486
 1711SOL    HW116769   0.205   1.056   3.296  0.2441 -0.3006  0.1261
 1711SOL    HW216770   0.332   1.011   3.348 -1.6674 -0.6963 -0.9792
 1712SOL     OW16771   4.577   2.198  12.657 -0.0050  0.7063 -0.3321
 1712SOL    HW116772   4.497   2.154  12.626 -0.8084  3.2174 -1.8607
 1712SOL    HW216773   4.640   2.145  12.607 -1.0466 -0.1744 -0.7206
 1713SOL     OW16774   3.405   2.618   1.522 -0.4506 -0.1106 -0.1187
 1713SOL    HW116775   3.455   2.650   1.597 -1.5666  0.1802  0.5085
 1713SOL    HW216776   3.378   2.533   1.556  2.3524 -0.5502  0.9895
 1714SOL     OW16777   0.958   0.955   5.374  0.9209  0.5932  0.1324
 1714SOL    HW116778   1.040   1.003   5.382  1.2140 -0.0248  0.8703
 1714SOL    HW216779   0.964   0.882   5.435  1.2445  0.2940 -0.2547
 1715SOL     OW16780   2.999   3.279   4.644 -0.5857  0.1675 -0.2084
 1715SOL    HW116781   3.028   3.196   4.607 -0.3615 -0.5746  1.6290
 1715SOL    HW216782   3.078   3.333   4.640 -0.0036 -0.7879 -1.6416
 1716SOL     OW16783   3.741   2.362   2.406  0.0586  0.0433 -0.2957
 1716SOL    HW116784   3.769   2.407   2.326 -0.9616 -1.9850 -1.7964
 1716SOL    HW216785   3.693   2.437   2.442 -0.9754 -0.5238 -0.4989
 1717SOL     OW16786   1.763   1.099   5.567 -0.0014  0.2399  0.4474
 1717SOL    HW116787   1.792   1.035   5.503  2.6180 -0.2829  2.1490
 1717SOL    HW216788   1.677   1.063   5.587 -0.0799 -0.3514 -0.9754
 1718SOL     OW16789   2.346   4.430  15.521 -0.1709 -0.1575  0.2693
 1718SOL    HW116790   2.424   4.417  15.467 -0.6451 -1.4648 -0.0815
 1718SOL    HW216791   2.303   4.346  15.506 -0.9527  0.9512 -3.7760
 1719SOL     OW16792   1.387   4.231   4.317  0.3330  0.6131  0.0796
 1719SOL    HW116793   1.340   4.314   4.321  0.6422  0.8328 -0.8402
 1719SOL    HW216794   1.324   4.166   4.287  1.8690 -1.1431  0.6926
 1720SOL     OW16795   4.184   0.583  16.734  0.4183 -0.0268 -0.1997
 1720SOL    HW116796   4.187   0.489  16.755  0.4782 -0.5181 -2.3830
 1720SOL    HW216797   4.103   0.586  16.683  0.5754  1.1352 -0.3703
 1721SOL     OW16798   2.505   3.328   4.034 -0.2707  0.1418  0.6152
 1721SOL    HW116799   2.412   3.308   4.022 -0.6664  1.2894  1.8335
 1721SOL    HW216800   2.548   3.253   4.076 -2.4728 -1.0159  0.7729
 1722SOL     OW16801   4.412   2.488  11.469  0.5225 -0.1563 -0.2509
 1722SOL    HW116802   4.466   2.561  11.438  2.1132 -0.7903  1.0246
 1722SOL    HW216803   4.395   2.527  11.556  0.8657  2.9352 -1.5531
 1723SOL     OW16804   2.813   2.475  15.753 -0.3052  0.0736 -0.7101
 1723SOL    HW116805   2.823   2.416  15.678  0.8065 -1.2807  0.4966
 1723SOL    HW216806   2.731   2.515  15.725 -0.2626  0.8165  0.2297
 1724SOL     OW16807   0.466   3.254   4.943  0.7459 -0.4444  0.4123
 1724SOL    HW116808   0.374   3.278   4.936  1.5061  1.8758 -1.5600
 1724SOL    HW216809   0.487   3.317   5.011 -1.0544  0.3446  0.2394
 1725SOL     OW16810   0.484   1.343  10.210 -0.5560  0.3161 -0.0526
 1725SOL    HW116811   0.523   1.417  10.163  1.6485  0.1149  1.4653
 1725SOL    HW216812   0.527   1.356  10.294  0.5679 -0.2714 -0.5433
 1726SOL     OW16813   2.022   3.955   0.677 -0.1511 -0.2721 -0.9825
 1726SOL    HW116814   2.008   4.034   0.624 -0.9850 -0.0945 -0.4941
 1726SOL    HW216815   2.111   3.924   0.662  0.1465 -0.7239  1.6918
 1727SOL     OW16816   2.675   4.480   8.746  0.5526  0.3924  0.2551
 1727SOL    HW116817   2.711   4.393   8.725 -0.6812 -0.5923  2.1617
 1727SOL    HW216818   2.618   4.488   8.669 -0.3196 -0.4838  0.7999
 1728SOL     OW16819   3.105   3.712  14.266 -0.2822 -0.0428  0.0480
 1728SOL    HW116820   3.192   3.675  14.277 -0.3308  0.4379  2.1027
 1728SOL    HW216821   3.046   3.637  14.260 -0.8249  0.3164  0.7383
 1729SOL     OW16822   3.598   2.476   7.911  0.4436  0.1012  0.1618
 1729SOL    HW116823   3.511   2.508   7.935 -0.6355 -2.6470 -0.0988
 1729SOL    HW216824   3.610   2.407   7.976  2.0271 -0.7454 -1.0395
 1730SOL     OW16825   4.507   4.198   7.792  0.2594 -0.0920 -0.2056
 1730SOL    HW116826   4.525   4.235   7.706  0.0024  1.5377  0.4323
 1730SOL    HW216827   4.584   4.225   7.841  0.8266 -0.6070 -0.8280
 1731SOL     OW16828   2.514   3.016   3.861  0.1392  0.1731  0.2380
 1731SOL    HW116829   2.498   3.035   3.954 -1.5374  2.0143 -0.4325
 1731SOL    HW216830   2.430   2.975   3.839 -0.2529  1.6796 -1.0791
 1732SOL     OW16831   2.013   1.064   8.920  0.3782  0.5450 -0.2135
 1732SOL    HW116832   1.958   1.022   8.986  2.5716 -0.3117  1.0777
 1732SOL    HW216833   1.956   1.136   8.894 -0.2090 -0.6277 -2.2248
 1733SOL     OW16834   3.139   1.343   6.820  0.2584  0.3059 -0.8806
 1733SOL    HW116835   3.113   1.282   6.889 -2.5259  1.3072 -1.0490
 1733SOL    HW216836   3.069   1.320   6.760  0.2823 -0.5550 -0.5776
 1734SOL     OW16837   2.659   1.150   6.687  0.2967 -0.3014 -0.0246
 1734SOL    HW116838   2.624   1.238   6.699 -1.2939 -0.8157 -0.8817
 1734SOL    HW216839   2.572   1.110   6.681 -0.3266  0.8207  1.7793
 1735SOL     OW16840   2.960   1.140   0.775  0.1347 -0.2741 -0.2306
 1735SOL    HW116841   3.052   1.118   0.761  0.3056 -1.0293  2.0390
 1735SOL    HW216842   2.912   1.109   0.698  1.0274  2.1781 -1.7814
 1736SOL     OW16843   0.587   1.319   4.776 -0.2177  0.0397 -0.3160
 1736SOL    HW116844   0.578   1.340   4.869 -2.6776  0.1471 -0.5687
 1736SOL    HW216845   0.494   1.325   4.754 -0.3021 -0.9129 -0.2100
 1737SOL     OW16846   0.023   0.944  11.127  0.2057  0.7169  0.2036
 1737SOL    HW116847   4.666   0.918  11.128 -0.0364  1.6207  1.5111
 1737SOL    HW216848   0.070   0.864  11.148 -0.8153 -0.4245 -1.8606
 1738SOL     OW16849   3.416   0.810   4.138 -0.5671  0.1681  0.1260
 1738SOL    HW116850   3.459   0.775   4.060 -3.0231 -0.5171 -0.9230
 1738SOL    HW216851   3.476   0.812   4.213  0.9117 -0.4420 -1.0244
 1739SOL     OW16852   2.676   1.655   4.616 -0.5179  0.0316 -0.0746
 1739SOL    HW116853   2.658   1.748   4.629  1.8665  0.5260 -0.3127
 1739SOL    HW216854   2.762   1.648   4.656 -0.8483 -2.7300  0.1481
 1740SOL     OW16855   4.419   3.618  11.814 -0.1888  0.3052 -0.0003
 1740SOL    HW116856   4.418   3.611  11.909 -2.3668  1.5185  0.0771
 1740SOL    HW216857   4.421   3.713  11.805 -2.4237  0.0367 -3.3007
 1741SOL     OW16858   1.282   4.147  15.352  0.4928 -0.3226 -0.0196
 1741SOL    HW116859   1.216   4.161  15.285 -0.8041  1.0922  1.5540
 1741SOL    HW216860   1.248   4.070  15.398 -0.1571  0.1540  0.2922
 1742SOL     OW16861   1.406   4.083   7.761  0.2435  0.1837  0.0263
 1742SOL    HW116862   1.492   4.062   7.724 -0.9041 -0.3273 -2.3156
 1742SOL    HW216863   1.415   4.178   7.750 -1.2128  0.2360 -0.7323
 1743SOL     OW16864   3.719   4.425   1.313  0.0135  0.4598 -0.3753
 1743SOL    HW116865   3.807   4.389   1.325 -0.9045 -1.5287  0.3577
 1743SOL    HW216866   3.730   4.512   1.352  1.0059  0.7645 -1.3083
 1744SOL     OW16867   3.157   2.843   6.327 -0.5618  0.2205  0.4956
 1744SOL    HW116868   3.124   2.844   6.417  1.0501  2.2656  1.0850
 1744SOL    HW216869   3.166   2.937   6.309  1.0707 -0.0676 -0.1847
 1745SOL     OW16870   2.416   3.830   8.866 -0.4289 -0.0454  0.0877
 1745SOL    HW116871   2.363   3.822   8.787 -0.8160 -0.1371  0.3582
 1745SOL    HW216872   2.366   3.776   8.928  0.4670 -0.1309  0.7412
 1746SOL     OW16873   1.377   1.640  10.191  0.3312  0.3087 -0.2591
 1746SOL    HW116874   1.311   1.585  10.232  3.1487 -2.4076  0.6434
 1746SOL    HW216875   1.325   1.705  10.143  0.5590  0.9270  0.3333
 1747SOL     OW16876   4.263   4.242   8.011 -0.8553 -0.2746 -0.4684
 1747SOL    HW116877   4.343   4.291   8.030 -0.8276  0.0861 -1.4688
 1747SOL    HW216878   4.291   4.156   8.043 -2.1308 -0.3921  0.3247
 1748SOL     OW16879   2.638   2.119   6.035  0.2991  0.3153  0.4562
 1748SOL    HW116880   2.643   2.214   6.025 -0.4829  0.2023 -1.0530
 1748SOL    HW216881   2.622   2.078   5.950  2.1912  0.3730  0.0889
 1749SOL     OW16882   4.301   0.976   5.104 -0.6285  0.0206 -0.4165
 1749SOL    HW116883   4.354   0.920   5.047  0.9483  0.7633  0.3554
 1749SOL    HW216884   4.298   1.057   5.053 -0.8847  0.5344  0.4182
 1750SOL     OW16885   1.603   4.151   4.544 -0.6821 -0.4538  0.3985
 1750SOL    HW116886   1.555   4.144   4.462 -1.1053  1.3134  0.4916
 1750SOL    HW216887   1.669   4.220   4.535 -2.3317  1.3176  1.7562
 1751SOL     OW16888   0.520   1.422   6.791  0.0024 -0.4550 -0.4250
 1751SOL    HW116889   0.545   1.344   6.840  1.1027 -1.2097 -2.1520
 1751SOL    HW216890   0.456   1.382   6.732 -0.7498 -0.1680  0.2094
 1752SOL     OW16891   3.270   3.775   6.471 -0.0781 -0.0588  0.1379
 1752SOL    HW116892   3.314   3.725   6.403  0.6332 -0.3362  0.8024
 1752SOL    HW216893   3.340   3.802   6.530  0.3622  0.7831 -0.7694
 1753SOL     OW16894   0.516   0.475   9.528  0.7928  0.1040 -0.0561
 1753SOL    HW116895   0.513   0.541   9.597 -1.1365  0.8891 -0.8734
 1753SOL    HW216896   0.449   0.514   9.471 -0.2380 -0.3709  0.8367
 1754SOL     OW16897   4.480   1.704   9.312  0.1102  0.1693 -0.0498
 1754SOL    HW116898   4.507   1.703   9.220 -1.8519 -1.0026 -0.6123
 1754SOL    HW216899   4.441   1.791   9.308  2.6091  1.2988  0.2992
 1755SOL     OW16900   4.272   1.272   7.156 -0.1344  0.0167 -0.4880
 1755SOL    HW116901   4.201   1.244   7.099 -0.0025  1.2466 -1.2724
 1755SOL    HW216902   4.279   1.365   7.133  0.5650 -0.0298 -0.4807
 1756SOL     OW16903   3.226   1.536  12.263 -0.5024 -0.2048  0.2594
 1756SOL    HW116904   3.149   1.544  12.320 -0.7528 -0.9963  0.0321
 1756SOL    HW216905   3.263   1.624  12.256 -0.7037 -0.0662  0.9054
 1757SOL     OW16906   3.613   2.732   4.457 -0.0840 -0.0675  0.2433
 1757SOL    HW116907   3.668   2.781   4.395  0.7514 -0.2789  0.8265
 1757SOL    HW216908   3.527   2.769   4.437  0.4047  0.7181 -0.4115
 1758SOL     OW16909   2.089   3.274   3.571  0.8960 -0.4690 -1.0256
 1758SOL    HW116910   2.048   3.195   3.607  1.0426 -0.4507 -0.8223
 1758SOL    HW216911   2.066   3.339   3.637 -1.2152 -1.6888 -0.5350
 1759SOL     OW16912   4.594   2.696   2.750  0.1081  0.0381  0.2212
 1759SOL    HW116913   4.549   2.780   2.747 -0.2431 -0.0790  2.4679
 1759SOL    HW216914   4.536   2.641   2.696  0.7468 -0.9613  0.5565
 1760SOL     OW16915   0.927   0.046   8.427 -0.9473  0.5228 -0.2184
 1760SOL    HW116916   0.874   0.109   8.378 -0.6239 -0.0950 -1.3398
 1760SOL    HW216917   0.947   4.707   8.370  0.9912  1.5399 -0.8999
 1761SOL     OW16918   0.567   4.524  17.187  0.1801  0.0135  0.6132
 1761SOL    HW116919   0.511   4.569  17.124 -0.4534  0.5873  1.5798
 1761SOL    HW216920   0.643   4.503  17.133 -0.6977 -2.7353  0.4219
 1762SOL     OW16921   2.449   4.660   2.460  0.2342 -0.3693 -0.3743
 1762SOL    HW116922   2.402   4.577   2.466 -2.5705  1.2977  0.8698
 1762SOL    HW216923   2.415   4.709   2.385  0.9915  0.5964 -0.0907
 1763SOL     OW16924   3.569   1.377  15.187 -0.3891 -0.4011 -0.2988
 1763SOL    HW116925   3.572   1.313  15.116  4.2597  1.6479 -2.0002
 1763SOL    HW216926   3.548   1.325  15.264 -0.8464  0.8848  0.4515
 1764SOL     OW16927   0.742   0.098   5.215 -0.6332 -0.1844 -0.2062
 1764SOL    HW116928   0.673   0.141   5.164 -0.4234 -1.1327 -1.2956
 1764SOL    HW216929   0.734   0.154   5.292  1.1910 -1.2727  0.7653
 1765SOL     OW16930   3.887   0.261   2.394 -0.2688 -0.4052  0.1249
 1765SOL    HW116931   3.857   0.226   2.310  0.2199  0.0477 -0.2420
 1765SOL    HW216932   3.827   0.211   2.448 -0.5179 -0.4836 -0.2246
 1766SOL     OW16933   3.011   1.012  16.160 -0.1528 -0.4799 -0.0665
 1766SOL    HW116934   2.924   1.011  16.121  0.5419 -2.0813 -1.5606
 1766SOL    HW216935   3.077   0.998  16.092 -0.2475  4.3607 -1.1064
 1767SOL     OW16936   1.975   4.368   4.306  0.4610  0.4637  0.4232
 1767SOL    HW116937   2.042   4.327   4.251  0.8166  0.1384  1.1021
 1767SOL    HW216938   1.916   4.408   4.242 -0.2933 -1.6853 -0.2270
 1768SOL     OW16939   2.792   4.288   6.465  0.2128 -0.2949  0.6024
 1768SOL    HW116940   2.875   4.262   6.504  0.3783  0.8850  1.0326
 1768SOL    HW216941   2.772   4.367   6.516 -0.1807 -1.4261  2.2026
 1769SOL     OW16942   0.020   1.799   4.614 -0.1643  0.3675  0.4781
 1769SOL    HW116943   0.114   1.781   4.618 -0.4124 -1.1683 -0.6747
 1769SOL    HW216944   0.009   1.872   4.675  2.0712 -0.1136  1.4506
 1770SOL     OW16945   3.135   1.168   5.587 -0.3438  0.1328  0.1881
 1770SOL    HW116946   3.127   1.263   5.577  0.8649  0.0879 -1.2107
 1770SOL    HW216947   3.230   1.157   5.588 -0.1979  1.3919  0.6233
 1771SOL     OW16948   4.575   0.959   9.161 -0.1308 -0.5331 -0.2071
 1771SOL    HW116949   4.498   0.922   9.203  0.1335  0.8217  1.4644
 1771SOL    HW216950   4.532   1.004   9.088  0.4725 -1.5556 -1.2005
 1772SOL     OW16951   3.103   3.407   3.884  0.3675 -0.4289 -0.4194
 1772SOL    HW116952   3.135   3.447   3.803 -1.6544  1.2496 -0.4031
 1772SOL    HW216953   3.059   3.328   3.852 -0.3895 -0.8926  1.8175
 1773SOL     OW16954   4.143   3.577   8.937  0.1466  0.3243 -0.2410
 1773SOL    HW116955   4.048   3.582   8.940  0.2822  1.3715  1.7652
 1773SOL    HW216956   4.161   3.665   8.905  2.6177 -0.6106 -1.4807
 1774SOL     OW16957   1.623   1.223   3.150  0.0692  0.0671 -0.0841
 1774SOL    HW116958   1.540   1.260   3.120 -0.3321  0.0934  1.0340
 1774SOL    HW216959   1.594   1.140   3.187 -1.6373  0.8399  0.2992
 1775SOL     OW16960   0.056   4.019   4.991  0.2887  0.5009  0.6928
 1775SOL    HW116961   0.126   4.084   4.993  0.8857 -0.1543  0.6709
 1775SOL    HW216962   0.027   4.009   4.900  0.7442 -1.4305  0.7688
 1776SOL     OW16963   3.651   2.196   3.944  0.3368  0.0081 -0.6298
 1776SOL    HW116964   3.594   2.135   3.897  1.4921 -0.5503 -1.3022
 1776SOL    HW216965   3.588   2.226   4.010 -1.9391 -1.2897 -2.2444
 1777SOL     OW16966   3.807   0.667   4.491  0.5947  1.0212 -0.3852
 1777SOL    HW116967   3.835   0.754   4.461  1.0415  0.4568 -1.6414
 1777SOL    HW216968   3.757   0.697   4.566  1.9704 -0.7897  1.2404
 1778SOL     OW16969   1.472   3.462   8.184 -0.1024  0.9254  0.1896
 1778SOL    HW116970   1.543   3.436   8.243  0.7556  1.1297 -0.7501
 1778SOL    HW216971   1.401   3.423   8.234 -0.9472 -0.6398 -2.2060
 1779SOL     OW16972   0.065   0.007  12.446  0.3972  0.8243  0.4523
 1779SOL    HW116973   0.114   0.053  12.378 -1.7351  0.5774 -1.2461
 1779SOL    HW216974   4.734   0.075  12.463  0.1723  1.0058 -1.2009
 1780SOL     OW16975   2.182   4.127  12.609  0.8118 -0.1271 -0.0753
 1780SOL    HW116976   2.240   4.110  12.535 -2.4545  1.5419 -3.0056
 1780SOL    HW216977   2.104   4.105  12.558 -0.1838  1.0103  0.9711
 1781SOL     OW16978   1.992   3.986  17.085  0.0875 -0.0375 -0.2130
 1781SOL    HW116979   2.017   3.899  17.052  2.0768  0.7670 -0.7967
 1781SOL    HW216980   1.925   3.972  17.152  0.0466  1.6731  0.0984
 1782SOL     OW16981   1.090   1.931   7.730  0.2162  0.2234 -0.3381
 1782SOL    HW116982   1.175   1.908   7.766  0.3949  1.6973  0.1738
 1782SOL    HW216983   1.081   1.865   7.661  0.1466 -0.2673  0.1453
 1783SOL     OW16984   2.861   4.272   9.364 -0.4302  0.2009 -0.3345
 1783SOL    HW116985   2.817   4.210   9.423  1.8041 -0.8349  0.2170
 1783SOL    HW216986   2.926   4.229   9.308  1.1750  0.3266  1.4447
 1784SOL     OW16987   3.084   4.288   2.331  0.7703  0.0078 -0.2782
 1784SOL    HW116988   3.030   4.339   2.271  0.3568 -0.7674 -0.5572
 1784SOL    HW216989   3.066   4.200   2.298 -0.8941  0.2138  0.0643
 1785SOL     OW16990   3.647   3.643   4.912  0.4577 -0.0274 -0.2734
 1785SOL    HW116991   3.670   3.674   5.000  2.2804  0.0226 -0.7773
 1785SOL    HW216992   3.721   3.584   4.896 -0.2590 -1.4602  1.6197
 1786SOL     OW16993   4.635   0.704  13.910 -0.0816 -0.3524 -0.0538
 1786SOL    HW116994   4.627   0.650  13.832 -0.3082 -0.2639 -0.0919
 1786SOL    HW216995   4.726   0.683  13.931 -0.2538  0.5413  1.6207
 1787SOL     OW16996   3.564   1.997   6.519  1.0854 -0.1505  0.0600
 1787SOL    HW116997   3.637   1.995   6.456 -0.3551 -1.0511 -1.5936
 1787SOL    HW216998   3.552   1.908   6.552 -0.3220 -0.2983 -0.8569
 1788SOL     OW16999   2.025   0.384  12.696  0.0405  0.5236 -0.3158
 1788SOL    HW117000   2.018   0.389  12.792  0.9169  2.2069 -0.3411
 1788SOL    HW217001   2.120   0.377  12.686 -0.1869 -3.1267  0.1392
 1789SOL     OW17002   4.642   2.577   1.701 -0.0049 -0.3802 -0.1629
 1789SOL    HW117003   4.716   2.539   1.653  0.3482  1.4411 -1.0793
 1789SOL    HW217004   4.683   2.627   1.772  0.1089  1.4209 -1.5011
 1790SOL     OW17005   3.205   0.319  10.153 -0.0852  0.2486 -0.2002
 1790SOL    HW117006   3.287   0.278  10.182 -0.2681  1.0045  1.4235
 1790SOL    HW217007   3.161   0.338  10.236 -1.7213  0.2223 -1.0776
 1791SOL     OW17008   1.008   3.095   7.709  0.1769 -0.4838  0.1663
 1791SOL    HW117009   1.027   3.001   7.703  0.0070 -0.4418 -0.9702
 1791SOL    HW217010   1.084   3.125   7.660  0.0132  0.1552  0.2991
 1792SOL     OW17011   3.807   4.149   2.526 -0.6931  0.3804  0.2960
 1792SOL    HW117012   3.881   4.091   2.509 -0.8893  0.4425 -0.8125
 1792SOL    HW217013   3.778   4.172   2.437  0.5031  0.1710 -0.1506
 1793SOL     OW17014   3.489   3.359  16.106  0.3766  0.0159  0.5775
 1793SOL    HW117015   3.495   3.371  16.011  1.7019  1.6803  0.8793
 1793SOL    HW217016   3.408   3.311  16.125 -0.5025  0.7834 -1.3101
 1794SOL     OW17017   1.580   2.286   4.816  0.2154 -0.5450  0.0175
 1794SOL    HW117018   1.610   2.377   4.809 -0.4965 -0.2874  0.2728
 1794SOL    HW217019   1.515   2.282   4.746 -1.4694 -1.0033  1.6056
 1795SOL     OW17020   4.033   0.002   2.397 -0.3875  0.6117 -0.2029
 1795SOL    HW117021   3.985   0.052   2.463  0.0078 -0.0889  0.6127
 1795SOL    HW217022   3.978   4.658   2.395  0.9725 -0.3814  2.5996
 1796SOL     OW17023   0.734   3.022  17.623  0.0883 -0.0944 -0.3668
 1796SOL    HW117024   0.722   3.109  17.661  1.6923 -0.1517  0.2452
 1796SOL    HW217025   0.672   2.971  17.676 -0.4278  1.2153  0.3037
 1797SOL     OW17026   4.650   0.516   1.417 -0.3237  0.1966 -0.2926
 1797SOL    HW117027   4.696   0.524   1.500  0.5674  4.3160 -1.1897
 1797SOL    HW217028   4.621   0.607   1.413 -0.8325  0.0613  0.5162
 1798SOL     OW17029   4.299   4.626   1.832  0.2635  0.4239 -0.6388
 1798SOL    HW117030   4.228   4.688   1.819 -0.8016 -0.5388  0.5957
 1798SOL    HW217031   4.265   4.575   1.906 -1.3797  0.0309 -1.6764
 1799SOL     OW17032   0.212   1.210   0.258  0.3400 -0.1880 -0.2759
 1799SOL    HW117033   0.219   1.149   0.331 -2.3561  1.4256  1.3415
 1799SOL    HW217034   0.284   1.180   0.203  0.2579  1.9123 -1.5359
 1800SOL     OW17035   0.701   4.457   7.931 -0.0507 -0.1523  0.0574
 1800SOL    HW117036   0.778   4.427   7.980  1.2807  3.0294 -0.0668
 1800SOL    HW217037   0.664   4.371   7.911  0.2045 -0.3800  0.5706
 1801SOL     OW17038   0.282   2.003   4.167 -0.3239 -0.0958  0.5802
 1801SOL    HW117039   0.318   2.008   4.079  0.6816  1.0168  1.0572
 1801SOL    HW217040   0.213   2.070   4.167 -1.3729 -1.1656 -1.7827
 1802SOL     OW17041   1.455   3.959   8.225  0.0459  0.1500 -0.9824
 1802SOL    HW117042   1.468   4.046   8.262 -1.0712 -1.0023  2.1774
 1802SOL    HW217043   1.451   3.907   8.305 -1.6616 -1.3895 -2.0727
 1803SOL     OW17044   4.564   3.344  14.451  0.0306  0.0494  0.1531
 1803SOL    HW117045   4.616   3.284  14.504  0.9584  0.0568 -0.7291
 1803SOL    HW217046   4.488   3.374  14.501  1.4874  0.1892  2.2922
 1804SOL     OW17047   0.626   0.760   7.913 -0.0837  0.0007 -0.0914
 1804SOL    HW117048   0.659   0.731   7.998 -1.1617 -0.2923  0.2279
 1804SOL    HW217049   0.565   0.830   7.936  0.0098 -0.8894  2.9060
 1805SOL     OW17050   1.561   1.957   5.538  0.4360 -0.5263 -0.0301
 1805SOL    HW117051   1.636   2.015   5.554 -0.4128  0.9774 -1.4269
 1805SOL    HW217052   1.492   2.020   5.560  0.5993 -0.3220 -0.1014
 1806SOL     OW17053   3.372   4.203   4.451  0.5411  0.7178  0.3835
 1806SOL    HW117054   3.465   4.202   4.474  0.7326  0.4118 -0.4214
 1806SOL    HW217055   3.343   4.243   4.534 -0.3593  0.6256  0.1082
 1807SOL     OW17056   2.512   3.221  15.389 -0.4328  0.0532 -0.1998
 1807SOL    HW117057   2.437   3.250  15.441 -0.9322  0.1985 -1.0057
 1807SOL    HW217058   2.474   3.203  15.303  0.8644 -0.7113 -0.6218
 1808SOL     OW17059   2.490   2.886  13.338 -0.4470  0.1789  0.3546
 1808SOL    HW117060   2.452   2.919  13.419 -0.2990 -1.0562  0.9310
 1808SOL    HW217061   2.581   2.891  13.367 -1.4176  2.5692  2.9526
 1809SOL     OW17062   2.326   0.013  14.206  0.2472  0.0935  0.2080
 1809SOL    HW117063   2.281   0.021  14.122  0.1321  0.0203  0.2621
 1809SOL    HW217064   2.252   0.032  14.263 -0.6422  0.7458 -1.1675
 1810SOL     OW17065   2.976   4.402   2.100 -0.6516  0.2355  0.2118
 1810SOL    HW117066   2.885   4.409   2.070 -0.3155 -0.9941 -1.0997
 1810SOL    HW217067   3.016   4.478   2.057  4.6237 -1.2366  2.4762
 1811SOL     OW17068   1.197   2.337   8.945  0.1032 -0.4435 -0.4340
 1811SOL    HW117069   1.166   2.418   8.905  0.3193 -0.1452 -0.0003
 1811SOL    HW217070   1.189   2.276   8.871 -0.9980 -1.0273  0.1579
 1812SOL     OW17071   4.268   0.480   4.141  0.6748  0.5602  0.4526
 1812SOL    HW117072   4.256   0.439   4.056 -0.0779  2.4628 -0.3565
 1812SOL    HW217073   4.252   0.405   4.198  0.7556 -0.7330 -1.2459
 1813SOL     OW17074   4.648   3.383   5.074  0.5900  0.3645  0.4018
 1813SOL    HW117075   4.661   3.460   5.018  1.0039  0.7369  1.0106
 1813SOL    HW217076   4.720   3.371   5.136  0.7640  1.8461  0.4888
 1814SOL     OW17077   3.717   3.042   6.777  0.1018  0.1597  0.3617
 1814SOL    HW117078   3.660   3.036   6.701  2.2161 -0.5371 -1.1755
 1814SOL    HW217079   3.761   2.957   6.776 -1.5051 -0.6403 -1.9704
 1815SOL     OW17080   1.185   0.617  14.580 -0.3075 -0.1213  0.1643
 1815SOL    HW117081   1.112   0.574  14.623 -0.1634 -0.5643 -0.0364
 1815SOL    HW217082   1.209   0.677  14.651 -1.0245 -0.1677  0.4456
 1816SOL     OW17083   4.120   1.490   5.665  0.1408 -0.4960  0.3285
 1816SOL    HW117084   4.130   1.395   5.673 -0.8445 -0.5634  0.8146
 1816SOL    HW217085   4.092   1.507   5.575  1.3825  4.0561  0.8056
 1817SOL     OW17086   3.214   2.946   0.477 -0.1822  0.4959  0.0361
 1817SOL    HW117087   3.301   2.951   0.437 -0.2518  0.5842 -0.1047
 1817SOL    HW217088   3.177   3.029   0.448  0.0888  0.3642 -0.7017
 1818SOL     OW17089   1.246   4.395  14.753 -0.5490  0.5713 -0.2924
 1818SOL    HW117090   1.290   4.465  14.704 -0.0484  0.2432 -0.3123
 1818SOL    HW217091   1.301   4.389  14.831 -1.0952  0.1970  0.0665
 1819SOL     OW17092   0.779   2.000   3.356 -0.2580 -0.1923  0.0132
 1819SOL    HW117093   0.707   2.041   3.309  0.2805 -1.2177 -1.7235
 1819SOL    HW217094   0.749   1.911   3.373  1.1195 -1.0907 -2.1776
 1820SOL     OW17095   3.750   0.434   9.319 -0.0034  0.0282  0.0380
 1820SOL    HW117096   3.742   0.490   9.396 -2.7189  0.1480 -0.3350
 1820SOL    HW217097   3.821   0.379   9.353  0.0875 -0.0169 -0.2244
 1821SOL     OW17098   2.582   0.654   9.911  0.7348 -0.7786  0.1368
 1821SOL    HW117099   2.488   0.636   9.906  1.0138 -2.4530  1.0722
 1821SOL    HW217100   2.574   0.740   9.953  0.9323  0.1285 -1.6937
 1822SOL     OW17101   1.182   2.408  11.181 -0.0117 -0.0884 -0.1202
 1822SOL    HW117102   1.258   2.359  11.212  0.1125 -0.0484 -0.3626
 1822SOL    HW217103   1.220   2.470  11.120  0.0360  0.9433  0.9646
 1823SOL     OW17104   2.250   4.053   4.247  0.1035 -0.1543 -0.0023
 1823SOL    HW117105   2.254   4.134   4.299 -0.1114  0.2131 -0.5519
 1823SOL    HW217106   2.212   3.992   4.309 -0.4314 -0.9025 -1.0712
 1824SOL     OW17107   2.807   2.091   9.709 -0.6808 -1.0885 -0.4613
 1824SOL    HW117108   2.847   2.021   9.760  1.7029  2.0061  1.9558
 1824SOL    HW217109   2.830   2.059   9.622  1.0102  3.6655 -1.7538
 1825SOL     OW17110   2.951   0.101  11.281  0.3143 -0.8444 -0.7120
 1825SOL    HW117111   2.879   0.146  11.325  1.1481  2.9593 -3.1750
 1825SOL    HW217112   2.911   0.015  11.291 -1.7795 -0.4295 -5.5238
 1826SOL     OW17113   0.705   4.374  10.200 -0.1307  0.1281 -0.3782
 1826SOL    HW117114   0.786   4.390  10.151  0.6993 -2.5052  0.0914
 1826SOL    HW217115   0.646   4.375  10.125 -0.7440 -3.0631  0.0686
 1827SOL     OW17116   4.319   4.313   6.639 -0.2874  0.4492  0.2114
 1827SOL    HW117117   4.380   4.343   6.572  0.2146 -1.7889 -0.3291
 1827SOL    HW217118   4.309   4.222   6.611 -1.0658  0.7222 -0.3933
 1828SOL     OW17119   3.927   2.879   6.104 -0.0999  0.1948 -0.5479
 1828SOL    HW117120   3.858   2.932   6.064 -0.2083  0.6728  0.2721
 1828SOL    HW217121   3.881   2.807   6.148  0.4547  0.7066  0.8817
 1829SOL     OW17122   0.426   2.818  10.054  0.3520 -0.3993 -0.2955
 1829SOL    HW117123   0.477   2.835   9.975  2.0449 -1.1541  0.6450
 1829SOL    HW217124   0.366   2.893  10.050 -0.3106 -0.8615  0.8068
 1830SOL     OW17125   4.042   2.975   0.735  0.1300 -0.1015  0.0240
 1830SOL    HW117126   4.077   2.913   0.799  0.6205 -0.7749 -0.8866
 1830SOL    HW217127   4.007   3.046   0.788 -1.2805 -1.0436  0.3496
 1831SOL     OW17128   3.910   2.248   3.618  0.2416 -0.6092 -0.5621
 1831SOL    HW117129   3.820   2.246   3.585 -0.3000  0.3166  0.8228
 1831SOL    HW217130   3.944   2.180   3.561  1.2648 -1.6629  1.2974
 1832SOL     OW17131   0.880   1.382   6.187 -0.8342 -0.2054 -0.4570
 1832SOL    HW117132   0.968   1.409   6.210 -0.8807  0.8935 -1.5405
 1832SOL    HW217133   0.857   1.350   6.274  3.0597 -0.6227  0.4216
 1833SOL     OW17134   4.132   1.414   4.025  0.3277  0.4328  0.4861
 1833SOL    HW117135   4.143   1.509   4.028  1.7981  0.2194  2.1850
 1833SOL    HW217136   4.161   1.399   4.115  2.3938  2.2491  0.1396
 1834SOL     OW17137   3.796   3.221   6.186 -0.0534  0.0041  0.0339
 1834SOL    HW117138   3.770   3.188   6.100  1.9403  0.9264 -0.9330
 1834SOL    HW217139   3.725   3.201   6.247 -0.7275  0.3093 -0.6605
 1835SOL     OW17140   0.347   2.354   9.078  0.4034 -0.7402  0.0367
 1835SOL    HW117141   0.392   2.289   9.024  2.2683  1.7179 -1.3948
 1835SOL    HW217142   0.357   2.310   9.162 -1.7761 -0.7800  0.2563
 1836SOL     OW17143   4.179   3.899   2.012  0.3609  0.6730 -0.1337
 1836SOL    HW117144   4.191   3.985   1.971  0.9772  0.7128  0.1290
 1836SOL    HW217145   4.196   3.929   2.101 -0.0931 -0.3044  0.2827
 1837SOL     OW17146   3.154   3.454   7.064 -0.4618  0.8687 -0.0987
 1837SOL    HW117147   3.106   3.534   7.044 -0.7259 -0.1570 -3.6610
 1837SOL    HW217148   3.226   3.456   7.001  0.7869  2.7592  1.3867
 1838SOL     OW17149   3.864   1.993   3.836 -0.3031  0.0075 -0.1959
 1838SOL    HW117150   3.799   1.948   3.782 -0.1210 -3.5270  2.5119
 1838SOL    HW217151   3.858   2.082   3.803  0.8272  0.4076  0.6854
 1839SOL     OW17152   0.398   1.041   5.981 -0.2735  0.5262  0.0185
 1839SOL    HW117153   0.306   1.031   6.008  0.4336 -0.5969  2.0009
 1839SOL    HW217154   0.398   1.026   5.887 -1.5874 -2.5201  0.5024
 1840SOL     OW17155   1.121   0.402  10.698  0.3527 -0.3509  0.1152
 1840SOL    HW117156   1.033   0.380  10.666  0.2955 -1.1120  0.7853
 1840SOL    HW217157   1.171   0.339  10.646 -0.5563 -3.0609  2.5410
 1841SOL     OW17158   4.000   1.245  16.285 -0.3629  0.4533  0.0134
 1841SOL    HW117159   4.066   1.298  16.241 -3.1071  2.4034 -1.7357
 1841SOL    HW217160   3.920   1.281  16.248 -0.2943 -0.4426 -1.0003
 1842SOL     OW17161   1.391   2.353  10.237 -0.0095  0.4271  0.3371
 1842SOL    HW117162   1.379   2.277  10.293  0.5991  0.3548  0.3700
 1842SOL    HW217163   1.398   2.316  10.150 -1.7843  3.0268 -0.9039
 1843SOL     OW17164   0.170   2.692   4.402 -0.3732  0.3114 -0.5866
 1843SOL    HW117165   0.195   2.783   4.413 -0.6771  0.3762 -0.4271
 1843SOL    HW217166   0.201   2.665   4.316  3.7543 -0.5478  1.1663
 1844SOL     OW17167   4.123   2.336   6.031  0.0201 -0.4736  0.0001
 1844SOL    HW117168   4.186   2.407   6.043  0.5545 -0.7275 -1.2710
 1844SOL    HW217169   4.162   2.280   5.964 -1.4552 -0.2055 -1.0750
 1845SOL     OW17170   4.076   2.966   4.906  0.0985 -0.0304 -0.2472
 1845SOL    HW117171   4.033   2.926   4.981 -1.6138  1.9539 -0.1613
 1845SOL    HW217172   4.016   3.026   4.859 -0.0125  0.9652  1.1684
 1846SOL     OW17173   3.464   4.116   7.593  0.7477  0.2896  0.0707
 1846SOL    HW117174   3.550   4.141   7.627 -0.0789 -1.1860  3.3248
 1846SOL    HW217175   3.469   4.156   7.506  1.5841  2.3569  1.0823
 1847SOL     OW17176   1.271   3.493  17.653 -0.0890  0.1520 -0.4806
 1847SOL    HW117177   1.293   3.582  17.625 -0.6508 -0.4087 -2.6998
 1847SOL    HW217178   1.301   3.476   0.004 -1.6612  1.1155  0.2406
 1848SOL     OW17179   3.785   2.960   4.831 -0.1918  0.1133 -0.4541
 1848SOL    HW117180   3.718   3.023   4.806 -0.5641 -0.9809 -2.1955
 1848SOL    HW217181   3.759   2.878   4.790  0.8070 -0.6165  0.3731
 1849SOL     OW17182   0.535   2.739   2.637  0.2736 -0.8398 -0.4787
 1849SOL    HW117183   0.615   2.747   2.688 -0.7003  1.0325  0.7383
 1849SOL    HW217184   0.524   2.826   2.599 -1.0146 -0.4305  0.8152
 1850SOL     OW17185   1.411   0.147   6.186 -1.3738  0.0503  0.2155
 1850SOL    HW117186   1.481   0.210   6.196 -0.3876 -1.3664  2.3432
 1850SOL    HW217187   1.459   0.070   6.155  0.9260  1.5237  0.1464
 1851SOL     OW17188   3.353   3.065   2.757  0.2483 -0.1554 -0.2971
 1851SOL    HW117189   3.345   3.154   2.793  0.0990 -1.0597  1.8798
 1851SOL    HW217190   3.445   3.048   2.772 -0.0386 -0.4662  1.0455
 1852SOL     OW17191   3.026   1.926   1.578  0.6328  0.3020  0.2824
 1852SOL    HW117192   2.960   1.921   1.648  2.1592  0.5310  1.7452
 1852SOL    HW217193   3.079   1.995   1.618 -0.7362  2.1851 -1.2090
 1853SOL     OW17194   0.268   2.412   4.502  0.2583 -0.2668 -0.5922
 1853SOL    HW117195   0.288   2.423   4.595  0.9167  2.5376 -1.0903
 1853SOL    HW217196   0.258   2.504   4.479  1.2344 -0.1728 -0.6161
 1854SOL     OW17197   3.383   2.094   1.761 -0.2693 -0.2683  0.5309
 1854SOL    HW117198   3.316   2.027   1.771 -0.5591 -0.2949 -1.7301
 1854SOL    HW217199   3.392   2.109   1.855  0.8339 -3.0372  0.8560
 1855SOL     OW17200   3.780   2.567   5.294 -0.1036  0.2155  0.1143
 1855SOL    HW117201   3.848   2.599   5.234  0.1164  1.0182  0.7825
 1855SOL    HW217202   3.810   2.477   5.306  1.6471  0.8754  0.6603
 1856SOL     OW17203   3.881   0.226   8.156  0.1034 -0.3817  0.5497
 1856SOL    HW117204   3.939   0.170   8.207  1.3821  0.5153  0.0933
 1856SOL    HW217205   3.895   0.308   8.204 -3.0408  1.4131 -1.5864
 1857SOL     OW17206   3.623   0.631   8.217 -0.0275 -0.1003 -0.1118
 1857SOL    HW117207   3.643   0.610   8.308 -0.9673 -0.5811 -0.0234
 1857SOL    HW217208   3.538   0.672   8.231 -0.6941 -1.7026  0.4872
 1858SOL     OW17209   3.955   0.979   9.490 -0.0029  0.1606 -0.2892
 1858SOL    HW117210   3.903   1.040   9.438  0.2071  1.8973  1.5402
 1858SOL    HW217211   4.042   1.016   9.474  0.2621 -0.3060  0.0723
 1859SOL     OW17212   0.995   1.680   6.349 -0.0776  0.3154  0.2552
 1859SOL    HW117213   0.967   1.706   6.261 -3.0605  1.8051  1.6665
 1859SOL    HW217214   1.087   1.663   6.328 -0.4839 -2.2132  0.6120
 1860SOL     OW17215   2.581   1.650   7.502  0.2979  0.3026 -0.7737
 1860SOL    HW117216   2.658   1.623   7.451 -0.6223  1.5953 -2.8262
 1860SOL    HW217217   2.564   1.731   7.455 -1.3712  1.7430  2.3851
 1861SOL     OW17218   3.471   2.073   7.641 -0.5316  0.3659 -0.4332
 1861SOL    HW117219   3.422   2.038   7.567 -3.5769  1.4847  1.0157
 1861SOL    HW217220   3.402   2.130   7.678 -0.0532  0.3660  0.4663
 1862SOL     OW17221   0.990   4.262  12.119 -0.4917  0.2363  0.2238
 1862SOL    HW117222   0.961   4.216  12.040  0.7386 -1.8634  1.0028
 1862SOL    HW217223   1.076   4.298  12.094  0.5456 -2.5354 -0.2422
 1863SOL     OW17224   3.514   2.291   5.930 -0.1338  0.0431 -0.6593
 1863SOL    HW117225   3.558   2.294   6.015 -1.3640  1.5019 -0.0901
 1863SOL    HW217226   3.501   2.383   5.907  3.6845  0.4816 -1.1083
 1864SOL     OW17227   1.576   1.558   8.235  0.1126 -0.0809 -0.6586
 1864SOL    HW117228   1.659   1.512   8.221  1.3043  1.7790  0.3379
 1864SOL    HW217229   1.614   1.644   8.254  0.2867 -0.2094 -0.4266
 1865SOL     OW17230   0.726   0.616   5.617 -0.7530 -0.0122 -0.0570
 1865SOL    HW117231   0.772   0.569   5.547 -1.5078 -0.3339 -0.3359
 1865SOL    HW217232   0.646   0.563   5.620 -1.4827  1.1367  0.8360
 1866SOL     OW17233   1.858   4.552   1.702  0.2164 -0.4569 -0.4467
 1866SOL    HW117234   1.911   4.472   1.693 -1.1617 -1.2701 -1.3552
 1866SOL    HW217235   1.917   4.626   1.718  0.2396 -0.2061 -1.6224
 1867SOL     OW17236   1.868   2.795  17.596 -0.2397  0.7158  0.1472
 1867SOL    HW117237   1.802   2.862  17.575 -0.6047  1.1092  2.5332
 1867SOL    HW217238   1.939   2.829  17.542  0.5504  1.1192  1.4375
 1868SOL     OW17239   1.304   0.837   4.166  0.2158  0.5152  0.9702
 1868SOL    HW117240   1.239   0.767   4.169  1.3721 -0.5638  0.2051
 1868SOL    HW217241   1.259   0.912   4.126  2.5069  0.7726 -1.1275
 1869SOL     OW17242   3.671   4.283   3.713 -0.1303  0.1584  0.4401
 1869SOL    HW117243   3.620   4.327   3.781 -0.6311  0.3600 -0.0750
 1869SOL    HW217244   3.674   4.194   3.748 -2.2406 -0.0376  0.1328
 1870SOL     OW17245   2.123   4.036   1.942  0.2620 -0.0339  0.5388
 1870SOL    HW117246   2.176   4.111   1.971  0.3879  0.0398  0.1231
 1870SOL    HW217247   2.101   3.997   2.026  1.2363 -0.4069  0.6198
 1871SOL     OW17248   2.961   0.375   2.947  0.2919 -0.4449 -0.3506
 1871SOL    HW117249   3.031   0.432   2.979 -1.0077 -0.1832  1.9991
 1871SOL    HW217250   2.910   0.444   2.904 -1.0480 -1.5448 -0.5141
 1872SOL     OW17251   1.413   2.916   5.765 -0.4677  0.3395 -0.4013
 1872SOL    HW117252   1.443   3.007   5.758 -0.8976  0.5370  0.4265
 1872SOL    HW217253   1.320   2.937   5.765 -0.7371 -0.9003  0.4885
 1873SOL     OW17254   3.282   1.629   2.684  0.2358  0.3698  0.0638
 1873SOL    HW117255   3.201   1.679   2.691 -0.6002 -0.9267 -0.3700
 1873SOL    HW217256   3.269   1.578   2.604  0.7811 -0.5153  0.5421
 1874SOL     OW17257   1.821   4.678   7.223  0.2750 -0.3003  0.0323
 1874SOL    HW117258   1.859   4.727   7.150 -1.6603 -0.8409 -1.3132
 1874SOL    HW217259   1.895   4.634   7.267  1.8784  1.4888 -0.8854
 1875SOL     OW17260   3.266   2.173  10.557 -0.4270  0.2257  0.6312
 1875SOL    HW117261   3.305   2.125  10.483 -2.8911 -0.8805  0.0665
 1875SOL    HW217262   3.328   2.245  10.552 -0.2692  0.2283  2.8064
 1876SOL     OW17263   1.277   0.736  15.107 -0.0631  0.1100  0.1827
 1876SOL    HW117264   1.275   0.668  15.040 -0.5459  0.2124  0.0965
 1876SOL    HW217265   1.319   0.688  15.178  0.9158 -0.9360 -1.0991
 1877SOL     OW17266   2.158   1.434   0.520  0.1701 -0.1530  0.4107
 1877SOL    HW117267   2.192   1.362   0.467  0.1883 -1.1302  1.7469
 1877SOL    HW217268   2.221   1.429   0.592  0.5121 -1.2902  0.0320
 1878SOL     OW17269   1.158   3.659   2.123 -0.0661  0.4179 -0.0129
 1878SOL    HW117270   1.157   3.700   2.037  1.5324  1.2892  0.3864
 1878SOL    HW217271   1.167   3.742   2.170  0.1731  0.4698 -0.1507
 1879SOL     OW17272   3.092   4.655  14.930 -0.2874 -0.4084  0.2845
 1879SOL    HW117273   3.071   4.685  14.841  2.5650 -0.2920 -0.3288
 1879SOL    HW217274   2.999   4.652  14.955 -1.1065  4.2455 -2.0823
 1880SOL     OW17275   2.541   0.921   9.536 -0.2480  0.1929  0.1856
 1880SOL    HW117276   2.470   0.860   9.519  1.3181 -1.6181  0.0435
 1880SOL    HW217277   2.526   0.991   9.473 -1.0910  0.9739  1.2358
 1881SOL     OW17278   1.007   2.076   3.483  0.1296  0.4373  0.0332
 1881SOL    HW117279   0.935   2.045   3.428 -0.4137  1.2246  0.3007
 1881SOL    HW217280   1.083   2.052   3.430 -2.4248 -1.2797 -2.8523
 1882SOL     OW17281   0.271   1.350   1.823 -0.0562  0.6320 -0.0485
 1882SOL    HW117282   0.295   1.436   1.860  1.3677  0.0013  0.5081
 1882SOL    HW217283   0.335   1.292   1.865 -3.0574 -3.9101 -1.7780
 1883SOL     OW17284   2.225   1.214   0.384 -0.8660  0.5954 -0.3135
 1883SOL    HW117285   2.190   1.148   0.324  0.1117 -1.0695  0.9474
 1883SOL    HW217286   2.319   1.211   0.370 -0.6181 -0.8259  1.5914
 1884SOL     OW17287   4.061   1.536   5.400 -0.2739  0.2686  0.2327
 1884SOL    HW117288   3.977   1.495   5.381  0.6947 -0.5715 -2.2250
 1884SOL    HW217289   4.038   1.625   5.371 -0.6361  1.0456  2.8970
 1885SOL     OW17290   2.328   1.878   2.661  0.4118 -0.3003  0.0305
 1885SOL    HW117291   2.262   1.863   2.728  0.7576  1.8118  0.8452
 1885SOL    HW217292   2.338   1.972   2.675 -0.6751 -0.2538  0.4803
 1886SOL     OW17293   0.710   3.605  15.487 -0.3863 -0.5257  0.1130
 1886SOL    HW117294   0.705   3.671  15.419 -3.2490 -0.9810 -0.1415
 1886SOL    HW217295   0.802   3.620  15.509 -0.4844  1.4619 -0.8329
 1887SOL     OW17296   2.422   2.582  11.843 -0.2851 -0.3657 -0.3270
 1887SOL    HW117297   2.410   2.508  11.785 -1.5029 -0.2646 -0.2019
 1887SOL    HW217298   2.500   2.611  11.796  0.4815  0.1571  1.2502
 1888SOL     OW17299   3.789   1.999   6.891  0.2844 -0.6765  0.9313
 1888SOL    HW117300   3.735   1.919   6.893  2.0681 -1.8963 -0.8077
 1888SOL    HW217301   3.828   1.984   6.977 -2.0401 -1.1916  1.9045
 1889SOL     OW17302   1.553   2.539   1.184 -0.2876  0.1831 -0.0918
 1889SOL    HW117303   1.599   2.480   1.125 -0.3206  0.2335 -0.1691
 1889SOL    HW217304   1.544   2.494   1.268 -0.2637  3.5742  1.7043
 1890SOL     OW17305   0.548   4.645   3.576 -0.0388  0.3219 -0.5027
 1890SOL    HW117306   0.623   4.694   3.610 -1.2787  0.8229  1.4983
 1890SOL    HW217307   0.479   4.706   3.602  0.4440  0.7995 -0.3424
 1891SOL     OW17308   0.748   0.093  15.373 -0.0839  0.3897  0.0648
 1891SOL    HW117309   0.771   0.116  15.282 -0.5511  2.5457  0.4919
 1891SOL    HW217310   0.695   0.169  15.398  0.5569  0.1171  2.1821
 1892SOL     OW17311   0.427   4.203   2.480  0.1027  0.3441 -0.1714
 1892SOL    HW117312   0.395   4.177   2.567 -1.4631  2.0513 -0.2337
 1892SOL    HW217313   0.410   4.297   2.488  0.3227  0.4363 -0.7778
 1893SOL     OW17314   0.803   2.458   4.329 -0.1136  0.0144 -0.2092
 1893SOL    HW117315   0.776   2.525   4.391  1.3843  0.5312 -0.0977
 1893SOL    HW217316   0.785   2.371   4.364 -1.7819  0.5039  0.1287
 1894SOL     OW17317   3.327   2.866  14.890 -0.1219  0.3608 -0.5212
 1894SOL    HW117318   3.362   2.781  14.863  0.1407  0.1826  0.3852
 1894SOL    HW217319   3.269   2.843  14.963 -1.2338  1.2379 -1.1416
 1895SOL     OW17320   4.066   2.867   6.443  0.4952 -0.2127  0.4203
 1895SOL    HW117321   4.028   2.946   6.406 -1.2755 -0.3334  1.9599
 1895SOL    HW217322   3.999   2.840   6.506 -0.1129  2.3002  0.8330
 1896SOL     OW17323   3.855   1.602   4.868 -0.2198 -0.8429 -0.5495
 1896SOL    HW117324   3.854   1.647   4.784 -1.6296  1.6423  0.7794
 1896SOL    HW217325   3.864   1.681   4.922 -2.8132 -1.4672  0.7646
 1897SOL     OW17326   0.098   3.520   3.850  0.2067 -0.2854  0.6064
 1897SOL    HW117327   0.157   3.556   3.916  0.4816 -0.9857  0.7459
 1897SOL    HW217328   0.057   3.598   3.813  0.8966 -0.0316  0.3852
 1898SOL     OW17329   0.941   0.479  15.047 -0.1490 -0.6253  0.4130
 1898SOL    HW117330   0.904   0.494  14.960  1.9013  0.0070 -0.3403
 1898SOL    HW217331   0.940   0.384  15.052  0.5136 -0.6060  0.9022
 1899SOL     OW17332   3.054   2.319  12.104  0.1099 -0.4465 -0.4442
 1899SOL    HW117333   2.973   2.304  12.153  0.0761 -0.4331 -0.4965
 1899SOL    HW217334   3.102   2.356  12.178  0.0678  1.6304 -1.4563
 1900SOL     OW17335   1.037   3.924  12.164 -0.0710 -0.4591 -0.4512
 1900SOL    HW117336   0.993   3.957  12.085 -0.1001 -0.0634 -0.2718
 1900SOL    HW217337   1.057   3.837  12.132  3.3771 -0.1636  0.9393
 1901SOL     OW17338   2.811   4.539   4.767 -0.1615  0.0223  0.2493
 1901SOL    HW117339   2.810   4.474   4.697 -2.0924  0.3225 -0.0022
 1901SOL    HW217340   2.876   4.494   4.822 -0.5288 -1.0441 -0.1869
 1902SOL     OW17341   4.319   4.652  13.184  0.6293  0.4673 -0.2405
 1902SOL    HW117342   4.315   4.704  13.264  1.1020  0.5115 -0.2480
 1902SOL    HW217343   4.282   4.721  13.129 -0.4749 -1.1977 -1.5889
 1903SOL     OW17344   3.432   1.344   1.431 -0.1014  0.2539 -0.1661
 1903SOL    HW117345   3.374   1.412   1.395 -0.3827  0.8924  1.4992
 1903SOL    HW217346   3.505   1.349   1.369 -0.4783 -0.7002 -0.6934
 1904SOL     OW17347   3.987   3.101   8.356  0.1837 -0.0122  0.4616
 1904SOL    HW117348   4.027   3.186   8.340 -0.3971 -0.0187 -0.9796
 1904SOL    HW217349   4.022   3.042   8.290 -0.8725 -1.0763  0.8481
 1905SOL     OW17350   0.737   2.823   2.133 -0.5056 -0.1487  0.6822
 1905SOL    HW117351   0.831   2.839   2.126 -0.4836 -1.3246 -1.6629
 1905SOL    HW217352   0.724   2.746   2.078 -2.0356 -0.2289  1.1650
 1906SOL     OW17353   4.424   2.335   1.402  0.3303  0.0325 -0.0305
 1906SOL    HW117354   4.343   2.291   1.376  1.1363 -1.8382  0.5538
 1906SOL    HW217355   4.456   2.353   1.314 -0.1274  0.1834 -0.1597
 1907SOL     OW17356   4.041   1.492   8.767 -0.3212 -0.1138 -0.0139
 1907SOL    HW117357   3.985   1.491   8.844 -0.7719  1.0368 -0.3352
 1907SOL    HW217358   4.041   1.401   8.737 -1.1299 -0.6261  1.5470
 1908SOL     OW17359   2.883   3.939   9.851  0.5038  0.2899 -0.2588
 1908SOL    HW117360   2.801   3.938   9.800  0.3078 -1.7414  0.0892
 1908SOL    HW217361   2.890   3.851   9.888 -0.7117 -0.2830 -1.3755
 1909SOL     OW17362   0.293   3.573   8.543 -0.4719  0.0898 -0.1928
 1909SOL    HW117363   0.297   3.622   8.461  0.5261  1.0427  0.4175
 1909SOL    HW217364   0.386   3.580   8.568 -0.3400 -0.0644 -0.6542
 1910SOL     OW17365   0.479   3.078   4.748  0.0341 -0.0484  0.0115
 1910SOL    HW117366   0.490   3.146   4.814 -3.4764  0.5385  0.0254
 1910SOL    HW217367   0.465   3.141   4.677  0.6036  1.1290  0.9500
 1911SOL     OW17368   1.115   0.372   9.078 -0.2446 -0.0282  0.6066
 1911SOL    HW117369   1.194   0.366   9.025  0.3324  0.9883  1.3506
 1911SOL    HW217370   1.160   0.416   9.151 -0.0176  2.6944 -1.1680
 1912SOL     OW17371   1.772   1.533   6.803  0.0519 -0.0297  0.1555
 1912SOL    HW117372   1.806   1.617   6.772  1.8003 -0.1119  1.8580
 1912SOL    HW217373   1.745   1.559   6.891  1.8487 -1.2891  1.0844
 1913SOL     OW17374   2.988   1.342   4.840  0.1478  0.5581  0.3090
 1913SOL    HW117375   3.082   1.364   4.838  0.3897 -0.7376 -2.6549
 1913SOL    HW217376   2.988   1.249   4.860  2.2003  0.1930 -1.2608
 1914SOL     OW17377   3.094   1.302   7.773 -0.1062  0.2211 -0.1618
 1914SOL    HW117378   3.069   1.342   7.857  0.0625  0.9976 -0.4802
 1914SOL    HW217379   3.186   1.305   7.798 -0.5785 -0.8331  1.6931
 1915SOL     OW17380   3.995   0.027   2.074 -0.4975  0.1370 -0.3561
 1915SOL    HW117381   3.922   0.049   2.131 -1.6435 -2.8149 -0.6757
 1915SOL    HW217382   4.039   0.108   2.049 -0.1196  0.5134  1.5235
 1916SOL     OW17383   0.813   2.996   7.941 -0.2545  0.2738  0.1032
 1916SOL    HW117384   0.907   2.979   7.943 -0.8903 -3.0466  2.0247
 1916SOL    HW217385   0.787   2.931   7.876 -2.0087  1.4974 -0.4336
 1917SOL     OW17386   4.099   0.818  11.530  0.6489 -0.1183 -0.0243
 1917SOL    HW117387   4.104   0.824  11.435  1.8876  1.8915  0.1742
 1917SOL    HW217388   4.119   0.725  11.533 -1.3003 -0.5157  0.8240
 1918SOL     OW17389   1.805   1.035   5.036 -0.5134 -0.2439 -0.3117
 1918SOL    HW117390   1.787   1.124   5.004 -0.5805 -0.6399 -1.3602
 1918SOL    HW217391   1.889   1.048   5.081 -0.3712  3.2260 -1.5392
 1919SOL     OW17392   3.449   3.134  10.359  0.0528  0.3116 -0.4095
 1919SOL    HW117393   3.430   3.054  10.310 -2.1373  0.0464  0.8701
 1919SOL    HW217394   3.539   3.117  10.387 -0.3976 -0.0645  0.8278
 1920SOL     OW17395   0.512   0.939   3.296 -0.3554 -0.0694  0.4884
 1920SOL    HW117396   0.575   0.873   3.267  0.0757  0.6570 -0.2169
 1920SOL    HW217397   0.554   0.975   3.374  0.0281 -0.6663  0.5594
 1921SOL     OW17398   0.535   2.318   5.627 -0.4540 -0.1523  0.3971
 1921SOL    HW117399   0.531   2.244   5.688 -0.1218 -0.5834 -0.0935
 1921SOL    HW217400   0.475   2.382   5.666  1.0969  1.8651 -0.5684
 1922SOL     OW17401   4.025   4.278  14.480  0.4705 -0.4995 -0.2352
 1922SOL    HW117402   4.115   4.249  14.491  0.7478  0.2853 -0.4541
 1922SOL    HW217403   4.033   4.345  14.412  0.1000  1.2255  1.4214
 1923SOL     OW17404   4.061   2.343   3.127  0.1147  0.1037 -0.3004
 1923SOL    HW117405   4.088   2.403   3.197  0.3082 -1.0318  0.5900
 1923SOL    HW217406   4.139   2.328   3.074 -0.4976  1.2734 -1.5445
 1924SOL     OW17407   1.921   1.964   4.963 -0.3881  0.5795 -0.2188
 1924SOL    HW117408   1.997   2.021   4.947  2.6795 -3.1274  1.0058
 1924SOL    HW217409   1.941   1.951   5.056 -4.4008 -0.2252  0.5089
 1925SOL     OW17410   0.360   3.202  14.074  0.5200  0.0085 -0.2319
 1925SOL    HW117411   0.437   3.147  14.066  0.4133 -0.0733 -0.6920
 1925SOL    HW217412   0.285   3.147  14.094  1.3187 -0.9737  0.0222
 1926SOL     OW17413   1.020   1.026   3.616 -0.2177  0.1175  0.2686
 1926SOL    HW117414   0.991   1.114   3.592  1.4135  0.7237  0.5288
 1926SOL    HW217415   1.055   0.990   3.535  2.5975 -0.0551  1.5632
 1927SOL     OW17416   3.116   1.017  10.245  0.2444 -0.2729 -0.0654
 1927SOL    HW117417   3.033   0.994  10.286  0.4522  1.0814  1.0984
 1927SOL    HW217418   3.176   1.056  10.308 -0.9445 -0.1619  0.9802
 1928SOL     OW17419   0.853   1.410   1.555  0.0993  0.5958  0.2711
 1928SOL    HW117420   0.908   1.428   1.478  1.0252  0.0004  0.8039
 1928SOL    HW217421   0.831   1.501   1.575  0.0547  0.2055  1.9388
 1929SOL     OW17422   3.902   2.427   5.644 -0.3294 -0.6238 -0.4356
 1929SOL    HW117423   3.905   2.336   5.673  2.4764 -0.4103 -0.0863
 1929SOL    HW217424   3.855   2.422   5.561  1.4173 -2.0801 -1.3060
 1930SOL     OW17425   3.327   4.725   8.516  0.1425  0.3767 -0.2910
 1930SOL    HW117426   3.330   0.081   8.486  0.2009  0.6204  0.4819
 1930SOL    HW217427   3.335   4.675   8.434 -0.6545 -1.3079  0.6501
 1931SOL     OW17428   3.237   2.125   1.359 -0.1573 -0.0030 -0.3195
 1931SOL    HW117429   3.169   2.186   1.329 -0.0521  0.3277  0.1274
 1931SOL    HW217430   3.304   2.123   1.290 -0.6960 -1.5076 -0.7886
 1932SOL     OW17431   0.544   0.866   6.679  0.0879  0.7688  0.2001
 1932SOL    HW117432   0.491   0.918   6.620 -2.0673 -0.6224  0.9149
 1932SOL    HW217433   0.482   0.823   6.738  0.4872 -3.2398 -2.3262
 1933SOL     OW17434   0.060   4.476   7.092 -0.2223 -0.2227 -0.1617
 1933SOL    HW117435   0.153   4.494   7.105 -0.6477 -0.1607  2.7906
 1933SOL    HW217436   0.055   4.486   6.997  2.3144 -0.2595 -0.3005
 1934SOL     OW17437   3.988   4.404   1.339  0.2483 -0.6109 -0.1163
 1934SOL    HW117438   4.082   4.388   1.333  0.2903 -0.3335 -0.1767
 1934SOL    HW217439   3.995   4.490   1.381 -2.0940 -0.1075 -0.7339
 1935SOL     OW17440   0.866   2.924   7.360  0.1243 -1.0619  0.0762
 1935SOL    HW117441   0.845   3.014   7.382 -0.8986 -1.4536  0.7052
 1935SOL    HW217442   0.934   2.938   7.294  0.3171  0.3625  0.5866
 1936SOL     OW17443   0.652   1.359   8.948  0.0311  0.4492  0.3483
 1936SOL    HW117444   0.596   1.283   8.930  2.5077 -0.8152 -2.0424
 1936SOL    HW217445   0.623   1.370   9.038 -0.1119  1.2606  0.1962
 1937SOL     OW17446   1.074   3.305   2.730  0.3458 -0.3238  0.8681
 1937SOL    HW117447   1.008   3.371   2.709 -0.4040 -1.3194  0.0676
 1937SOL    HW217448   1.115   3.283   2.646 -0.0803  1.3318  0.2316
 1938SOL     OW17449   1.435   0.095   8.304 -0.1078  0.0455 -0.5897
 1938SOL    HW117450   1.370   0.031   8.278  0.7246 -1.1830  0.3424
 1938SOL    HW217451   1.470   0.125   8.220 -0.9365 -0.1792 -1.0095
 1939SOL     OW17452   3.254   4.238   7.746 -0.7818 -0.1791  0.0884
 1939SOL    HW117453   3.297   4.323   7.749  2.5125 -1.8160  0.0398
 1939SOL    HW217454   3.309   4.195   7.680 -1.1665 -0.0481 -0.3155
 1940SOL     OW17455   0.328   2.690  10.791 -0.3176 -0.4450 -0.2052
 1940SOL    HW117456   0.252   2.737  10.827 -1.0498 -1.6998 -0.1117
 1940SOL    HW217457   0.387   2.693  10.867  0.4519 -0.4920 -0.8044
 1941SOL     OW17458   2.016   4.403   5.549 -0.1721 -0.2674 -0.1662
 1941SOL    HW117459   2.109   4.412   5.530 -0.1354 -1.0385 -0.3613
 1941SOL    HW217460   2.020   4.310   5.572  1.5903  0.2240  1.4639
 1942SOL     OW17461   0.325   0.089   2.541  0.2987 -0.0563  0.2612
 1942SOL    HW117462   0.419   0.098   2.523  0.0913  0.9684 -0.2911
 1942SOL    HW217463   0.322   0.082   2.637  1.7754  0.6090  0.3554
 1943SOL     OW17464   3.537   3.990  16.617  0.0231  0.6557 -0.1267
 1943SOL    HW117465   3.508   4.065  16.670  0.8621  1.0832 -0.2834
 1943SOL    HW217466   3.463   3.929  16.611  1.0626 -0.5917 -0.2457
 1944SOL     OW17467   1.191   2.771   6.067  0.3350 -0.2209  0.3575
 1944SOL    HW117468   1.131   2.842   6.087 -0.0434  0.6281 -3.7446
 1944SOL    HW217469   1.274   2.813   6.089  1.2796 -1.1264 -1.4779
 1945SOL     OW17470   2.043   4.187   4.493 -0.1098  0.2985  0.0579
 1945SOL    HW117471   1.975   4.209   4.556  0.1039 -1.1946  0.7853
 1945SOL    HW217472   2.027   4.258   4.430 -1.4575  0.7184  0.8845
 1946SOL     OW17473   0.262   1.465   5.301  0.1553  0.3844 -0.3990
 1946SOL    HW117474   0.213   1.513   5.369 -0.3752 -0.4392 -0.2042
 1946SOL    HW217475   0.201   1.395   5.277  2.4550 -1.4530 -0.7749
 1947SOL     OW17476   2.608   1.169   2.149 -0.1296  0.2447 -0.3361
 1947SOL    HW117477   2.583   1.095   2.094  1.2924 -1.5701  1.4213
 1947SOL    HW217478   2.534   1.171   2.209 -0.3613  1.6218 -0.6704
 1948SOL     OW17479   3.174   3.606   4.829  0.0519 -0.1603 -0.4771
 1948SOL    HW117480   3.169   3.533   4.768  1.9875  0.4614 -1.3727
 1948SOL    HW217481   3.099   3.587   4.887  0.2005 -1.3713 -0.6977
 1949SOL     OW17482   1.248   2.375   4.725  0.1617  0.0678 -0.4302
 1949SOL    HW117483   1.273   2.384   4.633  0.7251 -0.6372 -0.3437
 1949SOL    HW217484   1.222   2.283   4.725 -2.3967  0.7747 -3.6902
 1950SOL     OW17485   2.118   0.803   6.277  0.4813  0.3892 -0.0861
 1950SOL    HW117486   2.119   0.874   6.341  2.6624 -0.3442  0.7070
 1950SOL    HW217487   2.183   0.831   6.212 -0.1853 -1.6942 -1.6454
 1951SOL     OW17488   3.652   0.452  12.106  0.3539 -0.2701 -0.7775
 1951SOL    HW117489   3.660   0.544  12.130  2.8827 -0.7616  0.2203
 1951SOL    HW217490   3.724   0.401  12.143 -0.2352 -0.7347 -0.2745
 1952SOL     OW17491   3.907   4.155   6.687  0.4140  0.0359 -0.2634
 1952SOL    HW117492   3.966   4.229   6.675 -2.5204  2.5944  1.2652
 1952SOL    HW217493   3.838   4.212   6.721  0.8136  1.2682 -1.5551
 1953SOL     OW17494   1.195   0.041   1.855  0.6453  0.1633 -0.6475
 1953SOL    HW117495   1.268   0.019   1.797  1.1067 -0.3323  0.1200
 1953SOL    HW217496   1.235   0.108   1.911 -1.3663  0.5315  0.3357
 1954SOL     OW17497   1.830   1.541  17.374 -0.2753  0.1749 -0.3074
 1954SOL    HW117498   1.768   1.515  17.305 -0.1889  0.1851 -0.3899
 1954SOL    HW217499   1.769   1.604  17.413 -0.8332 -0.3803 -0.2775
 1955SOL     OW17500   0.090   2.378   5.130  0.3777  0.1283 -0.6447
 1955SOL    HW117501   0.186   2.380   5.132  0.3320  0.6839  1.1256
 1955SOL    HW217502   0.068   2.333   5.212  2.3389  1.1579  0.4401
 1956SOL     OW17503   1.552   4.615   4.823  0.3976  0.4404  0.4549
 1956SOL    HW117504   1.633   4.658   4.795  1.7177 -1.3208  1.6456
 1956SOL    HW217505   1.540   4.557   4.747  0.8845  1.5122 -0.4480
 1957SOL     OW17506   2.532   2.633   0.381  0.1148  0.1691  0.3547
 1957SOL    HW117507   2.606   2.582   0.347 -0.3242 -1.2161  1.4606
 1957SOL    HW217508   2.477   2.555   0.389 -2.0697  1.3865 -2.8434
 1958SOL     OW17509   2.454   3.714   5.753 -0.0530 -0.2193  0.1719
 1958SOL    HW117510   2.456   3.694   5.660 -1.8074  2.4714 -0.4733
 1958SOL    HW217511   2.362   3.738   5.766  0.5447  1.9690  0.4492
 1959SOL     OW17512   2.279   2.038   5.704 -0.2197 -0.6274 -0.2402
 1959SOL    HW117513   2.226   2.034   5.784  0.9987  1.1790  0.6455
 1959SOL    HW217514   2.230   2.100   5.650  2.6276  1.9273  0.1314
 1960SOL     OW17515   1.755   2.133   6.735  0.8317  0.5213  0.0011
 1960SOL    HW117516   1.769   2.079   6.657  0.0070 -0.6611  0.6768
 1960SOL    HW217517   1.843   2.117   6.771  0.7318 -0.9461 -0.4272
 1961SOL     OW17518   4.302   4.188   4.329 -0.2249  0.1646  0.1545
 1961SOL    HW117519   4.372   4.125   4.312 -3.3884 -3.4049  0.2677
 1961SOL    HW217520   4.338   4.244   4.397 -0.3080  0.0029  0.3310
 1962SOL     OW17521   3.386   3.512   7.441  0.3615 -0.0915 -0.7110
 1962SOL    HW117522   3.464   3.489   7.492  0.7052  1.4764 -0.5193
 1962SOL    HW217523   3.331   3.444   7.478  1.7848 -0.8553 -0.0150
 1963SOL     OW17524   4.065   0.638   2.053  0.1147 -0.0764  0.1023
 1963SOL    HW117525   4.146   0.591   2.075  0.1751 -0.3693 -0.7163
 1963SOL    HW217526   4.111   0.722   2.045 -0.6868  0.2705 -0.8513
 1964SOL     OW17527   0.725   0.376   0.030  0.0453  0.6292 -0.2166
 1964SOL    HW117528   0.683   0.362  17.683  0.1939  0.6333 -0.2904
 1964SOL    HW217529   0.766   0.291   0.046  0.2445  0.7150 -0.2788
 1965SOL     OW17530   3.358   1.056  10.018 -0.1251  0.0235  0.1341
 1965SOL    HW117531   3.384   1.040   9.927  0.8636 -1.1960  0.6451
 1965SOL    HW217532   3.283   0.999  10.037  0.2549 -0.0797  1.2855
 1966SOL     OW17533   1.874   4.394   6.223  0.0166 -0.2171  0.0335
 1966SOL    HW117534   1.900   4.304   6.244  1.6971  0.2250 -0.1083
 1966SOL    HW217535   1.796   4.402   6.278 -0.9776  0.8443 -1.5601
 1967SOL     OW17536   0.567   2.051   9.164  0.4716 -0.4638  0.0356
 1967SOL    HW117537   0.522   2.098   9.095  0.0134 -3.3112 -1.6025
 1967SOL    HW217538   0.607   1.979   9.115  2.0240  0.9779 -0.8221
 1968SOL     OW17539   3.047   4.417   1.157 -0.0480  0.7464 -0.0411
 1968SOL    HW117540   3.081   4.332   1.185  2.1493  2.0799  1.3331
 1968SOL    HW217541   3.066   4.414   1.064  0.8556  0.4392  0.1573
 1969SOL     OW17542   3.991   0.887   4.667 -0.3961  0.4506 -0.1233
 1969SOL    HW117543   3.970   0.877   4.575 -3.0423  0.7551  0.4525
 1969SOL    HW217544   3.906   0.908   4.707 -0.0286 -0.8902  1.3996
 1970SOL     OW17545   4.642   1.542   9.772  0.4859  0.0226  0.7721
 1970SOL    HW117546   4.600   1.512   9.691 -0.5913  0.8724  1.0049
 1970SOL    HW217547   4.731   1.524   9.744  0.9628  0.3230  2.1150
 1971SOL     OW17548   1.511   3.606   1.471 -0.3218  0.5462 -0.7873
 1971SOL    HW117549   1.417   3.623   1.465 -0.1809  0.7983 -2.3160
 1971SOL    HW217550   1.509   3.511   1.479  2.7130  0.5685  0.4506
 1972SOL     OW17551   0.733   1.704   2.967 -0.6372 -0.3546 -0.1592
 1972SOL    HW117552   0.803   1.640   2.964  0.1100  0.5162 -1.6180
 1972SOL    HW217553   0.769   1.761   2.899  1.3974  0.2158  1.4364
 1973SOL     OW17554   4.167   4.025   8.994  0.2283 -0.2422 -0.5327
 1973SOL    HW117555   4.133   4.062   9.076  1.7351  1.4035 -0.6309
 1973SOL    HW217556   4.239   4.087   8.979  1.1820 -1.0704  0.6301
 1974SOL     OW17557   3.332   2.089   6.428  0.0001  0.2247  0.3074
 1974SOL    HW117558   3.273   2.016   6.410  2.1028 -0.9837 -1.6110
 1974SOL    HW217559   3.416   2.045   6.438 -0.7089 -1.3546 -0.5823
 1975SOL     OW17560   2.489   4.259  15.320 -0.1884 -0.0302  0.1122
 1975SOL    HW117561   2.560   4.292  15.265  1.0524  1.5347  2.6263
 1975SOL    HW217562   2.535   4.250  15.403 -0.8544  3.4848  0.8745
 1976SOL     OW17563   2.892   2.653  11.932  0.2041 -0.6599  0.2230
 1976SOL    HW117564   2.986   2.651  11.918 -0.0637  0.6821 -1.8312
 1976SOL    HW217565   2.890   2.724  11.996  2.2274 -0.2791 -0.1568
 1977SOL     OW17566   1.322   0.587   8.016 -0.1396  0.3083 -0.4164
 1977SOL    HW117567   1.340   0.658   8.078  1.2343  0.5016 -1.0227
 1977SOL    HW217568   1.259   0.631   7.958  1.7980  1.7792 -1.4124
 1978SOL     OW17569   0.606   4.386   6.492  0.0506 -0.7438 -0.0274
 1978SOL    HW117570   0.667   4.312   6.492 -0.8574 -1.4890 -0.3372
 1978SOL    HW217571   0.527   4.344   6.458 -0.3987  0.6453 -0.6733
 1979SOL     OW17572   0.723   2.979   4.309 -0.1809 -0.2057  0.0099
 1979SOL    HW117573   0.781   3.055   4.317 -0.2042 -0.4149  2.3558
 1979SOL    HW217574   0.664   2.991   4.234  0.4160 -0.6578 -0.5265
 1980SOL     OW17575   0.406   1.926   2.077 -0.1368 -0.3781 -0.7200
 1980SOL    HW117576   0.388   2.020   2.077  1.6165 -0.0398 -0.1147
 1980SOL    HW217577   0.415   1.922   2.172  3.1930  1.5849 -0.9443
 1981SOL     OW17578   0.403   2.556   9.303 -0.2536 -0.3585  0.2461
 1981SOL    HW117579   0.308   2.544   9.300 -0.4832  2.4061 -4.0289
 1981SOL    HW217580   0.410   2.550   9.208 -1.8440 -1.0810  0.1619
 1982SOL     OW17581   0.352   0.713   6.794  0.4551 -0.0330 -0.5353
 1982SOL    HW117582   0.339   0.687   6.703 -1.7591 -0.6447 -0.0666
 1982SOL    HW217583   0.266   0.754   6.805 -0.0039 -0.7694 -1.3315
 1983SOL     OW17584   3.490   2.655  11.326 -0.0603  0.0492 -0.3099
 1983SOL    HW117585   3.457   2.627  11.241  4.2521 -1.6961 -1.3843
 1983SOL    HW217586   3.464   2.747  11.321 -1.7823 -0.4646 -0.8879
 1984SOL     OW17587   2.411   0.240   2.637  0.6545  0.2897 -0.0398
 1984SOL    HW117588   2.505   0.251   2.651  0.5085  2.7969 -1.1290
 1984SOL    HW217589   2.405   0.165   2.577 -1.9934  1.1561 -0.8802
 1985SOL     OW17590   4.049   0.724   3.048  0.2658 -0.0236  0.5438
 1985SOL    HW117591   3.957   0.710   3.072 -0.3885  1.0492 -1.3531
 1985SOL    HW217592   4.038   0.798   2.988 -2.8226 -1.7909 -1.0192
 1986SOL     OW17593   3.956   4.126  16.565 -0.3649  0.3344  0.4673
 1986SOL    HW117594   3.908   4.044  16.557  0.6449 -0.2047 -0.0549
 1986SOL    HW217595   3.884   4.188  16.558 -0.4886  0.0752 -0.6314
 1987SOL     OW17596   0.001   1.493   4.466  0.1900 -0.5728  0.1263
 1987SOL    HW117597   0.006   1.436   4.543  2.7717  2.0682  1.9499
 1987SOL    HW217598   4.667   1.553   4.496 -0.9003 -0.4509 -2.6708
 1988SOL     OW17599   2.417   3.255   6.022  0.3256  0.1179  0.4896
 1988SOL    HW117600   2.448   3.244   5.932  1.1159  0.7470  0.6816
 1988SOL    HW217601   2.504   3.279   6.054  0.3075  1.4646 -0.4852
 1989SOL     OW17602   2.642   4.416  14.916  0.0611 -0.2036 -0.5721
 1989SOL    HW117603   2.584   4.374  14.853 -1.6700  1.0686  0.1580
 1989SOL    HW217604   2.583   4.484  14.948 -2.1972 -2.2805 -0.3239
 1990SOL     OW17605   0.776   2.629   9.127 -0.0438 -0.0860 -0.3134
 1990SOL    HW117606   0.731   2.712   9.141 -1.2982 -0.7871 -0.1513
 1990SOL    HW217607   0.856   2.654   9.173 -0.6612 -0.0360  0.7471
 1991SOL     OW17608   3.090   2.362   5.086 -0.4312 -0.4496  0.0167
 1991SOL    HW117609   3.049   2.403   5.010 -1.7804 -2.1307 -0.1656
 1991SOL    HW217610   3.071   2.418   5.162  2.7518  2.8156 -1.6502
 1992SOL     OW17611   0.484   1.130   7.784 -0.0878 -0.0089  0.0290
 1992SOL    HW117612   0.550   1.193   7.813 -0.9386  0.8768  0.0135
 1992SOL    HW217613   0.399   1.170   7.800  0.1005 -0.0999  1.2970
 1993SOL     OW17614   1.007   1.807   3.211 -0.2064  0.5515  0.1050
 1993SOL    HW117615   0.918   1.801   3.246 -0.7105 -0.3559 -1.3587
 1993SOL    HW217616   1.048   1.862   3.278 -0.7859 -1.7394  2.3177
 1994SOL     OW17617   1.523   1.588   4.867 -0.6756 -0.1001  0.2529
 1994SOL    HW117618   1.536   1.682   4.884 -0.6990 -0.0975  0.2565
 1994SOL    HW217619   1.538   1.549   4.953  0.2786  0.6383  0.4272
 1995SOL     OW17620   0.769   4.650   4.840 -0.0786 -0.1852 -0.2011
 1995SOL    HW117621   0.743   4.724   4.785 -0.2528  0.6166  0.9545
 1995SOL    HW217622   0.799   4.586   4.775  2.6799 -1.0816  1.9911
 1996SOL     OW17623   3.243   0.380   9.529 -0.2314 -0.1780 -0.5089
 1996SOL    HW117624   3.306   0.390   9.601  0.4808  0.8856 -1.2789
 1996SOL    HW217625   3.229   0.474   9.519 -2.7954 -0.4143  0.9161
 1997SOL     OW17626   2.931   0.959   1.874  0.2396 -0.0260 -0.2230
 1997SOL    HW117627   2.998   0.996   1.932 -1.9235  1.1436  1.5123
 1997SOL    HW217628   2.958   0.985   1.786 -0.1987  1.8958  0.2164
 1998SOL     OW17629   3.956   1.864   4.940  0.0111  0.4480  0.0076
 1998SOL    HW117630   3.960   1.861   4.844 -2.9409  0.0225 -0.1197
 1998SOL    HW217631   3.899   1.940   4.944 -0.6287 -0.1159  1.5190
 1999SOL     OW17632   3.470   3.596   6.790 -0.4332 -0.2816  0.4722
 1999SOL    HW117633   3.388   3.642   6.771 -2.1112 -2.9954  1.1228
 1999SOL    HW217634   3.437   3.509   6.810  0.0357 -0.4675  0.4305
 2000SOL     OW17635   2.155   2.459   9.216 -0.1403 -0.1158 -0.2982
 2000SOL    HW117636   2.077   2.469   9.160  1.0560 -2.3512 -2.3506
 2000SOL    HW217637   2.191   2.384   9.170 -0.3351  1.0027 -2.2826
 2001SOL     OW17638   2.460   0.503   4.266  0.3574  0.0151 -0.1032
 2001SOL    HW117639   2.496   0.540   4.185 -0.2281  0.2996 -0.2338
 2001SOL    HW217640   2.524   0.435   4.285 -0.8176 -1.3229 -0.9723
 2002SOL     OW17641   1.717   2.111  14.699 -0.2798  0.0118 -0.0810
 2002SOL    HW117642   1.684   2.145  14.616 -2.4888 -1.4385  0.2129
 2002SOL    HW217643   1.644   2.106  14.761 -0.9243 -0.7770 -0.9200
 2003SOL     OW17644   1.044   2.791  11.105 -0.1098  0.3522 -0.4409
 2003SOL    HW117645   1.124   2.739  11.097 -0.1659  0.4518 -1.6355
 2003SOL    HW217646   1.018   2.773  11.195 -1.4457 -0.0517 -0.8989
 2004SOL     OW17647   1.814   3.085  15.442 -0.3493 -0.6017 -0.1499
 2004SOL    HW117648   1.733   3.092  15.391  1.0373 -1.0017 -2.4212
 2004SOL    HW217649   1.873   3.045  15.378  0.2453  1.2339 -0.7487
 2005SOL     OW17650   2.704   3.424  15.022  0.1123 -0.4202  0.0523
 2005SOL    HW117651   2.761   3.389  14.954  0.2092  0.2845 -0.2303
 2005SOL    HW217652   2.758   3.429  15.101 -0.0173  1.2685  0.0498
 2006SOL     OW17653   3.568   2.216   1.437  0.5801 -0.7195  0.3768
 2006SOL    HW117654   3.597   2.230   1.527 -3.3021  3.1703  1.0440
 2006SOL    HW217655   3.592   2.300   1.397 -4.0253 -0.4012 -1.6513
 2007SOL     OW17656   2.541   3.530  16.773  0.4039  0.1671  0.5806
 2007SOL    HW117657   2.540   3.449  16.824 -0.9833 -0.3678 -0.3046
 2007SOL    HW217658   2.635   3.540  16.758  0.5357 -1.0889  0.6253
 2008SOL     OW17659   2.155   3.758   7.355  0.4632 -0.2107 -0.8101
 2008SOL    HW117660   2.149   3.732   7.448  2.6018  0.5347 -0.4743
 2008SOL    HW217661   2.065   3.782   7.331  0.3040 -1.2679 -1.2750
 2009SOL     OW17662   1.842   4.450  12.189  0.0740 -0.0042  0.0657
 2009SOL    HW117663   1.919   4.507  12.187  0.1623 -0.0923  1.0109
 2009SOL    HW217664   1.879   4.388  12.252  1.1654  1.0030  0.4246
 2010SOL     OW17665   4.538   2.562  17.158 -0.5642 -0.3724 -0.6879
 2010SOL    HW117666   4.512   2.521  17.241 -0.1196  0.7547  0.0100
 2010SOL    HW217667   4.456   2.571  17.110 -0.5895 -2.4628 -1.0579
 2011SOL     OW17668   0.810   1.947   7.335 -0.4216  0.7186 -0.2924
 2011SOL    HW117669   0.726   1.992   7.331  0.5485  2.4071 -1.8184
 2011SOL    HW217670   0.786   1.858   7.310  0.5222  0.7673 -1.4008
 2012SOL     OW17671   1.321   3.969   1.301  0.5824 -0.2668  0.7225
 2012SOL    HW117672   1.243   3.913   1.294 -0.5776  1.4097  0.0739
 2012SOL    HW217673   1.336   3.996   1.210 -0.1468 -2.9210 -0.1919
 2013SOL     OW17674   2.877   2.569   5.921  0.0146  1.2288  0.4219
 2013SOL    HW117675   2.896   2.627   5.995 -0.7533 -0.2349  1.7566
 2013SOL    HW217676   2.935   2.604   5.854  0.5540 -4.2335 -1.9522
 2014SOL     OW17677   1.277   3.720   3.634  0.3115  0.0348  0.6474
 2014SOL    HW117678   1.347   3.687   3.689 -1.8096 -1.1309  2.6540
 2014SOL    HW217679   1.209   3.751   3.695 -0.1374 -1.1585  0.7586
 2015SOL     OW17680   3.242   0.490  13.255 -0.2164 -0.0071  0.6589
 2015SOL    HW117681   3.149   0.474  13.237  0.1154 -0.2409 -0.7790
 2015SOL    HW217682   3.276   0.471  13.168 -1.1499 -1.5381  0.6289
 2016SOL     OW17683   0.200   2.113   5.831  0.2931  0.6183  0.6116
 2016SOL    HW117684   0.164   2.036   5.876  3.4408  0.4214  2.8099
 2016SOL    HW217685   0.125   2.149   5.784 -1.6388 -1.7847  1.8572
 2017SOL     OW17686   3.258   4.408  13.550  0.5461  0.2095 -0.1368
 2017SOL    HW117687   3.292   4.467  13.617  1.2658  0.5867 -0.8399
 2017SOL    HW217688   3.271   4.464  13.474 -3.6517  0.9693 -0.2608
 2018SOL     OW17689   4.297   4.147  17.120  0.1243  0.5227  0.1275
 2018SOL    HW117690   4.357   4.096  17.066  0.5208  0.4815  0.6031
 2018SOL    HW217691   4.210   4.130  17.084  1.4676  1.1696 -3.3457
 2019SOL     OW17692   0.141   1.135   7.220 -0.3128  0.1335  0.4943
 2019SOL    HW117693   0.187   1.068   7.270  1.9116  2.2570  1.2741
 2019SOL    HW217694   0.123   1.206   7.280 -0.1695  1.1561 -0.6688
 2020SOL     OW17695   0.531   4.308   1.989 -0.2433  0.4948  0.0253
 2020SOL    HW117696   0.451   4.361   1.985 -0.2578  0.3373 -1.4408
 2020SOL    HW217697   0.602   4.370   1.977 -0.0860  0.1956 -0.5756
 2021SOL     OW17698   3.942   0.454   4.249  0.0382 -0.3958  0.1160
 2021SOL    HW117699   3.955   0.455   4.344 -0.0653 -0.0038  0.1232
 2021SOL    HW217700   3.997   0.528   4.228  0.6229 -0.9364 -0.2593
 2022SOL     OW17701   1.995   2.528  10.277 -0.1821 -0.1174  0.7234
 2022SOL    HW117702   1.995   2.494  10.188 -1.6256 -0.1015  0.7188
 2022SOL    HW217703   1.907   2.499  10.302 -0.6444  0.0349 -0.7232
 2023SOL     OW17704   2.748   3.207  12.534  0.0405 -0.4033  0.6963
 2023SOL    HW117705   2.834   3.237  12.504 -0.0608 -1.2479 -0.4457
 2023SOL    HW217706   2.729   3.280  12.592 -1.2529 -0.8047  0.7807
 2024SOL     OW17707   0.703   3.154   6.025  0.3921  0.6684  0.5568
 2024SOL    HW117708   0.758   3.212   5.971 -0.0368  0.5148 -0.0392
 2024SOL    HW217709   0.739   3.066   6.020 -0.5126  0.2830  0.9253
 2025SOL     OW17710   1.769   3.304  15.595 -0.2768  0.6775  0.0108
 2025SOL    HW117711   1.797   3.226  15.546  1.2121  1.1637  0.0937
 2025SOL    HW217712   1.678   3.281  15.614 -0.2798  2.2324  1.8633
 2026SOL     OW17713   1.532   3.351   7.449  0.0482 -0.9210  0.2609
 2026SOL    HW117714   1.607   3.351   7.389 -1.1230  1.3010 -1.1993
 2026SOL    HW217715   1.545   3.272   7.502  1.7494 -0.1407  1.0200
 2027SOL     OW17716   4.618   3.651   5.000 -0.7304 -1.1164 -0.1171
 2027SOL    HW117717   4.599   3.687   5.087 -3.1990 -0.1497 -1.0741
 2027SOL    HW217718   4.532   3.647   4.960  0.3249  1.0898 -2.6223
 2028SOL     OW17719   0.477   3.730   7.616  0.2071  0.3454  0.2191
 2028SOL    HW117720   0.556   3.736   7.562  1.5469 -1.3312  1.9842
 2028SOL    HW217721   0.418   3.680   7.559 -1.1274  2.2004 -0.0194
 2029SOL     OW17722   3.394   1.608   5.498  0.1349  0.2957 -0.7159
 2029SOL    HW117723   3.377   1.652   5.415 -3.6916  2.7265  1.3741
 2029SOL    HW217724   3.476   1.562   5.479 -0.1107 -0.2654 -0.4176
 2030SOL     OW17725   4.239   2.722   7.022  0.0560 -0.0065 -0.1033
 2030SOL    HW117726   4.328   2.745   7.046  0.9522 -2.6187 -0.9159
 2030SOL    HW217727   4.188   2.720   7.103 -1.3569  0.8402 -0.9763
 2031SOL     OW17728   0.535   3.651   6.036 -0.7005 -0.2328 -0.4004
 2031SOL    HW117729   0.598   3.705   5.987 -0.5182 -0.9004 -0.8964
 2031SOL    HW217730   0.460   3.696   5.998 -1.8181 -0.7162  1.2450
 2032SOL     OW17731   3.598   2.324   3.623  0.2287  0.2983  0.0369
 2032SOL    HW117732   3.561   2.279   3.699  2.8452 -0.4417  0.8682
 2032SOL    HW217733   3.562   2.289   3.541  1.8471  0.3227 -0.6765
 2033SOL     OW17734   3.593   0.612  11.842  0.0197  0.0377 -0.1463
 2033SOL    HW117735   3.685   0.594  11.861 -0.4698  0.5503  2.7725
 2033SOL    HW217736   3.553   0.594  11.927 -2.0939  1.8606 -0.7647
 2034SOL     OW17737   4.505   2.837   6.036  0.4516  0.1317 -0.7280
 2034SOL    HW117738   4.597   2.819   6.052 -0.2318 -0.4106  2.6431
 2034SOL    HW217739   4.483   2.789   5.956 -1.7060  1.6642 -1.0369
 2035SOL     OW17740   1.524   2.587   7.365  0.2945 -0.6107 -0.3822
 2035SOL    HW117741   1.471   2.660   7.335  1.8372  1.1568  1.1559
 2035SOL    HW217742   1.474   2.510   7.338 -1.1769  0.6821 -1.2879
 2036SOL     OW17743   0.867   0.877   9.289 -0.2649 -0.0775 -0.4810
 2036SOL    HW117744   0.842   0.809   9.351  0.5063 -0.4251 -0.5392
 2036SOL    HW217745   0.782   0.915   9.268  1.1791  1.9185 -2.7058
 2037SOL     OW17746   3.479   0.630   3.059  0.1341 -0.1184  0.0782
 2037SOL    HW117747   3.484   0.722   3.033  1.2635 -0.3861 -0.6375
 2037SOL    HW217748   3.486   0.652   3.153 -1.6178  1.3931 -0.1430
 2038SOL     OW17749   1.030   3.796   2.776 -0.1786  0.0706  0.1588
 2038SOL    HW117750   1.076   3.724   2.734 -1.4472 -1.0083  0.5955
 2038SOL    HW217751   1.100   3.855   2.805 -0.7610  0.2127  1.2868
 2039SOL     OW17752   3.693   3.285   6.955 -0.6930  0.6647 -0.8643
 2039SOL    HW117753   3.686   3.207   6.900 -1.4779 -0.3421  0.6920
 2039SOL    HW217754   3.680   3.255   7.044 -2.8391  1.5023 -0.8917
 2040SOL     OW17755   4.395   2.426   8.429  0.4049 -0.1968  0.3363
 2040SOL    HW117756   4.382   2.336   8.398  0.2610 -0.2923  0.6748
 2040SOL    HW217757   4.376   2.418   8.522 -1.6176 -0.6508 -0.1047
 2041SOL     OW17758   1.470   0.603  12.209  0.1511  0.0954 -0.3384
 2041SOL    HW117759   1.423   0.533  12.255  0.5318  1.0098  1.4542
 2041SOL    HW217760   1.476   0.571  12.119  1.2758 -2.1255  0.5233
 2042SOL     OW17761   1.282   3.394   6.408 -0.3352  0.0411  0.1633
 2042SOL    HW117762   1.338   3.457   6.363 -1.7734  2.0662  1.1728
 2042SOL    HW217763   1.208   3.448   6.436 -0.4407 -0.2954  0.5414
 2043SOL     OW17764   2.577   4.214  14.121  0.3907 -0.1297  0.2353
 2043SOL    HW117765   2.498   4.224  14.174  0.5730  1.1168  0.2699
 2043SOL    HW217766   2.545   4.263  14.045 -1.9406 -0.8392  0.7539
 2044SOL     OW17767   3.665   3.564  15.073 -0.4526 -0.3305  0.1527
 2044SOL    HW117768   3.614   3.511  15.134  0.1556  2.0797  2.7169
 2044SOL    HW217769   3.617   3.646  15.075  1.4818  0.7266  2.6855
 2045SOL     OW17770   1.422   2.753   6.786 -0.1924  0.0997  0.5589
 2045SOL    HW117771   1.467   2.815   6.729 -0.3263  0.0420  0.3898
 2045SOL    HW217772   1.454   2.666   6.762  0.0066  0.6256 -1.0899
 2046SOL     OW17773   2.874   2.229   2.495 -0.1782 -0.1919 -0.0027
 2046SOL    HW117774   2.805   2.189   2.548 -1.9827 -0.4986 -2.5648
 2046SOL    HW217775   2.912   2.151   2.455 -0.1493 -0.7362  1.0758
 2047SOL     OW17776   0.410   0.688   8.380 -0.5216 -0.2824 -0.3444
 2047SOL    HW117777   0.372   0.738   8.452 -0.5727 -1.3692  0.3646
 2047SOL    HW217778   0.496   0.730   8.369  1.0439 -2.7079  2.7812
 2048SOL     OW17779   2.122   2.011  16.982  0.1236  0.0208  0.8751
 2048SOL    HW117780   2.148   1.919  16.979  1.6409  0.4322  1.3254
 2048SOL    HW217781   2.081   2.021  16.896 -0.9948 -0.3122  1.3738
 2049SOL     OW17782   1.116   3.506   7.334 -0.2521  0.1210  0.6331
 2049SOL    HW117783   1.077   3.539   7.254 -2.0905  1.2238  1.9890
 2049SOL    HW217784   1.085   3.557   7.409 -1.7024  1.5441 -0.9693
 2050SOL     OW17785   1.350   1.983  13.968  0.0522  0.4914 -0.5659
 2050SOL    HW117786   1.398   1.990  13.885  0.3162 -1.2975 -0.5682
 2050SOL    HW217787   1.262   1.962  13.936 -0.0989  0.0065  0.1680
 2051SOL     OW17788   2.878   2.030  16.538 -0.1296 -0.2179 -0.2706
 2051SOL    HW117789   2.971   2.037  16.514 -0.2454  0.7924 -0.4344
 2051SOL    HW217790   2.848   2.103  16.483  0.1447  0.1543  0.0728
 2052SOL     OW17791   4.104   1.477   7.485 -0.5522 -0.2054 -0.3383
 2052SOL    HW117792   4.079   1.559   7.528 -0.3452 -0.5047  0.3395
 2052SOL    HW217793   4.035   1.424   7.524 -1.0278 -0.9171 -2.1259
 2053SOL     OW17794   3.638   1.267   1.834 -0.0308 -0.9848  0.1101
 2053SOL    HW117795   3.602   1.266   1.746  1.8701  2.3644 -0.6884
 2053SOL    HW217796   3.638   1.358   1.866  1.5765 -1.1867  0.6727
 2054SOL     OW17797   2.516   1.702   7.759  0.6787  0.1749  0.0889
 2054SOL    HW117798   2.572   1.625   7.750  0.6152  0.0450  0.8056
 2054SOL    HW217799   2.496   1.719   7.667 -2.4232  0.2582  0.7781
 2055SOL     OW17800   4.534   3.027   7.372  0.2957  0.3799 -0.7871
 2055SOL    HW117801   4.508   2.952   7.426  0.5783  0.6706 -0.2414
 2055SOL    HW217802   4.451   3.039   7.327  0.3603  1.3353 -0.6417
 2056SOL     OW17803   1.130   1.940   9.720  0.0663  0.1009  0.2663
 2056SOL    HW117804   1.128   2.030   9.688  0.1889 -0.0589 -0.1908
 2056SOL    HW217805   1.222   1.925   9.741  0.4505 -0.9367 -2.0839
 2057SOL     OW17806   4.602   2.511   9.152  0.4518 -0.0165  0.4025
 2057SOL    HW117807   4.596   2.416   9.142 -1.4293 -0.0210  1.7047
 2057SOL    HW217808   4.605   2.521   9.057  0.3630  0.3257  0.4357
 2058SOL     OW17809   4.479   4.309   9.178 -0.3467 -0.1396 -0.7645
 2058SOL    HW117810   4.480   4.404   9.173 -0.6110 -0.0869  0.2090
 2058SOL    HW217811   4.410   4.296   9.243  1.4673  0.3089  1.2288
 2059SOL     OW17812   0.922   2.212   8.598  0.5369 -0.3292 -0.3484
 2059SOL    HW117813   0.915   2.270   8.674  0.4336 -0.4807 -0.2433
 2059SOL    HW217814   0.833   2.210   8.565  0.0109 -0.4906  1.0907
 2060SOL     OW17815   2.380   1.992   6.140 -0.3371  0.6147  0.1012
 2060SOL    HW117816   2.357   2.072   6.187 -1.5055 -0.9019  2.1152
 2060SOL    HW217817   2.457   2.019   6.090  0.8577 -0.6350  1.2386
 2061SOL     OW17818   1.305   2.539   2.313 -0.1512 -0.1697  0.2488
 2061SOL    HW117819   1.230   2.480   2.324  1.4642 -2.3780 -0.5664
 2061SOL    HW217820   1.369   2.513   2.379  0.6952 -0.0217 -0.5224
 2062SOL     OW17821   2.670   4.258   9.106 -0.6216 -0.1727 -0.5225
 2062SOL    HW117822   2.681   4.245   9.200  0.8007 -0.3751 -0.7145
 2062SOL    HW217823   2.688   4.166   9.090 -1.0384 -0.6893  1.9940
 2063SOL     OW17824   0.091   1.957   7.243 -0.4998  0.0467  0.4833
 2063SOL    HW117825   0.076   1.863   7.248 -0.3385 -0.0532 -0.7558
 2063SOL    HW217826   0.010   1.986   7.285 -0.8052 -0.5739  0.3161
 2064SOL     OW17827   0.521   1.016   6.215 -0.2527  0.5167 -0.0700
 2064SOL    HW117828   0.607   1.055   6.198  0.0751 -0.2843 -0.2467
 2064SOL    HW217829   0.480   1.026   6.130 -2.5344 -0.5707  0.8981
 2065SOL     OW17830   4.366   3.193   9.641 -0.1888 -0.4806 -0.0518
 2065SOL    HW117831   4.362   3.288   9.624  1.0258 -0.4125  0.0719
 2065SOL    HW217832   4.380   3.188   9.735 -0.0080 -0.7767 -0.0981
 2066SOL     OW17833   4.292   0.548  12.284 -0.3081  0.1600  0.2432
 2066SOL    HW117834   4.328   0.461  12.299 -1.4579 -0.8051 -2.5569
 2066SOL    HW217835   4.369   0.603  12.300 -0.0276 -0.1572 -0.0078
 2067SOL     OW17836   0.225   0.910   6.205  0.0216  0.6835  0.3781
 2067SOL    HW117837   0.178   0.942   6.282 -1.4936 -3.1347  0.9918
 2067SOL    HW217838   0.185   0.966   6.138  0.0858  0.1361 -0.1104
 2068SOL     OW17839   4.049   2.650   1.992 -0.6804 -0.4623 -0.1901
 2068SOL    HW117840   4.047   2.639   2.087 -2.3493 -2.3251 -0.4203
 2068SOL    HW217841   4.137   2.630   1.961 -0.6710  0.5437 -0.8197
 2069SOL     OW17842   3.921   3.857   4.372  0.1554 -0.1887 -0.4623
 2069SOL    HW117843   3.945   3.949   4.382  0.0629 -0.0870 -1.2263
 2069SOL    HW217844   3.832   3.860   4.407  0.3281  1.1299 -0.1481
 2070SOL     OW17845   2.429   2.982   9.167  0.2491 -0.3595  0.3591
 2070SOL    HW117846   2.517   3.001   9.134 -0.1374 -0.1841 -0.5758
 2070SOL    HW217847   2.406   2.907   9.112  1.7703 -0.2233 -0.4712
 2071SOL     OW17848   2.600   2.491  12.122 -0.5971 -0.0057  0.3908
 2071SOL    HW117849   2.588   2.578  12.160  0.1250  0.3262 -0.1317
 2071SOL    HW217850   2.556   2.501  12.038 -2.6651 -3.2640  1.0646
 2072SOL     OW17851   4.535   1.145   5.693 -0.4945  0.3240 -0.0658
 2072SOL    HW117852   4.568   1.055   5.697  0.1020  0.5975  1.2277
 2072SOL    HW217853   4.548   1.174   5.783 -1.0252  0.6202 -0.0816
 2073SOL     OW17854   3.049   3.626  15.254 -1.0744  0.5783  0.1760
 2073SOL    HW117855   3.033   3.697  15.192 -0.6072  2.4513  2.1953
 2073SOL    HW217856   3.013   3.552  15.205 -1.7792  0.9526  0.1412
 2074SOL     OW17857   3.283   1.463  17.346 -0.9020  0.0221  0.5680
 2074SOL    HW117858   3.291   1.533  17.281  1.2110  0.5419  1.3631
 2074SOL    HW217859   3.369   1.463  17.389  0.3092  1.0823 -1.8899
 2075SOL     OW17860   3.626   1.508   5.383 -0.2076  0.3301  0.1249
 2075SOL    HW117861   3.693   1.453   5.423  0.6438  1.0192 -0.3516
 2075SOL    HW217862   3.669   1.547   5.307  0.3565 -1.2697 -0.3627
 2076SOL     OW17863   3.321   4.076  13.991  0.1022 -0.0360 -0.2314
 2076SOL    HW117864   3.292   4.034  14.072  2.2633  2.4939  1.8586
 2076SOL    HW217865   3.295   4.168  14.003  0.9000  0.6073 -3.5252
 2077SOL     OW17866   2.138   4.347   4.879  0.0503  0.0663  0.3916
 2077SOL    HW117867   2.045   4.371   4.870 -0.4905 -2.3494 -0.5082
 2077SOL    HW217868   2.120   4.254   4.894 -1.1152  0.0819 -0.9656
 2078SOL     OW17869   3.760   0.266   7.426 -0.4824 -0.2838  0.4925
 2078SOL    HW117870   3.766   0.357   7.398  1.1855 -0.4519  0.2876
 2078SOL    HW217871   3.779   0.276   7.519 -0.4536 -1.8167  0.6536
 2079SOL     OW17872   4.622   4.117   5.434  0.1131 -1.2924 -0.1238
 2079SOL    HW117873   4.605   4.149   5.523 -0.9949 -1.1883 -0.3652
 2079SOL    HW217874   4.615   4.201   5.390  0.4598 -0.7216  0.8956
 2080SOL     OW17875   2.097   1.063   6.417 -0.2797 -0.7750 -0.2027
 2080SOL    HW117876   2.174   1.069   6.361 -1.0440 -2.2229 -1.4081
 2080SOL    HW217877   2.076   1.156   6.411  0.7258 -0.5797 -0.6604
 2081SOL     OW17878   1.854   0.271   6.922  0.0290  0.0931  0.2663
 2081SOL    HW117879   1.809   0.252   6.840 -1.6519 -1.0558  1.4517
 2081SOL    HW217880   1.907   0.346   6.894  0.6109  0.2161  1.7031
 2082SOL     OW17881   0.007   2.471   2.036 -0.0558  0.0997 -0.0008
 2082SOL    HW117882   0.017   2.549   1.982 -0.5549 -0.1831 -0.4963
 2082SOL    HW217883   4.677   2.417   1.990  0.2795 -0.4385  0.1493
 2083SOL     OW17884   1.468   3.760   5.235 -0.3439  0.3635 -0.3937
 2083SOL    HW117885   1.442   3.680   5.190  0.2381  0.1345 -0.3289
 2083SOL    HW217886   1.522   3.714   5.300  1.7087  0.9572 -1.6579
 2084SOL     OW17887   1.506   3.998  15.290 -0.3247 -0.1412  0.4946
 2084SOL    HW117888   1.473   3.927  15.346 -0.8733  0.6448  1.1694
 2084SOL    HW217889   1.429   4.050  15.268  0.0474 -1.0388 -2.8692
 2085SOL     OW17890   0.250   3.436  11.428 -0.1206 -0.3773  0.5639
 2085SOL    HW117891   0.213   3.402  11.346 -0.2242 -0.7733  0.7777
 2085SOL    HW217892   0.206   3.385  11.496  0.0673  0.2523  1.1507
 2086SOL     OW17893   4.558   3.349   2.928 -0.4683 -0.1556 -0.5348
 2086SOL    HW117894   4.614   3.393   2.992 -2.3042 -0.4282  1.2390
 2086SOL    HW217895   4.513   3.286   2.983 -0.6600 -2.5086 -3.3895
 2087SOL     OW17896   2.935   3.608   9.092  0.2563  0.3784 -0.0291
 2087SOL    HW117897   3.000   3.588   9.159 -1.6751 -1.3505  1.3285
 2087SOL    HW217898   2.895   3.524   9.068 -3.1804  1.4011  2.0771
 2088SOL     OW17899   2.005   1.068   3.426  0.0065 -0.5205  0.2819
 2088SOL    HW117900   1.935   1.021   3.472  0.5470  0.4464  2.1048
 2088SOL    HW217901   1.989   1.161   3.442  2.2202  0.0286 -0.6100
 2089SOL     OW17902   0.166   3.369   8.384 -0.6061  0.0412  0.0898
 2089SOL    HW117903   0.166   3.282   8.424 -0.8198 -0.2506 -0.5551
 2089SOL    HW217904   0.185   3.352   8.292 -1.4262 -0.7887  0.0716
 2090SOL     OW17905   2.593   3.173   2.238 -0.4032 -0.0777 -0.1548
 2090SOL    HW117906   2.538   3.244   2.207  1.5905  1.5870  0.1036
 2090SOL    HW217907   2.670   3.218   2.273  1.9088 -3.9932 -0.2455
 2091SOL     OW17908   3.100   4.486   6.880 -0.2294 -0.2360  0.3850
 2091SOL    HW117909   3.087   4.394   6.856 -1.0925  0.9036 -3.5149
 2091SOL    HW217910   3.105   4.482   6.975 -0.7493 -0.0811  0.4157
 2092SOL     OW17911   1.286   2.814  12.902  0.1502  0.1802 -0.1769
 2092SOL    HW117912   1.361   2.775  12.949 -0.1816 -2.0320 -1.4812
 2092SOL    HW217913   1.262   2.758  12.829 -1.2568 -1.2235  1.3561
 2093SOL     OW17914   2.202   2.272   3.149 -0.1150 -0.3861 -0.2625
 2093SOL    HW117915   2.280   2.295   3.097 -1.6061  2.2378 -1.2992
 2093SOL    HW217916   2.193   2.182   3.116  0.3017 -0.8754  0.9668
 2094SOL     OW17917   0.009   2.711   6.061 -0.3622  0.0967  1.1781
 2094SOL    HW117918   4.695   2.632   6.084  0.6906 -0.8845  0.0635
 2094SOL    HW217919   0.078   2.677   6.004  0.9620  1.7006  1.8271
 2095SOL     OW17920   0.272   1.919  11.151 -0.1278  0.4181  0.5800
 2095SOL    HW117921   0.299   1.900  11.240  2.6914 -0.3418 -0.4400
 2095SOL    HW217922   0.235   2.007  11.151 -0.9005  0.0979  0.5033
 2096SOL     OW17923   2.374   1.876   7.235  0.3183  0.0311 -1.4747
 2096SOL    HW117924   2.438   1.871   7.307 -1.4834 -2.7739 -0.0501
 2096SOL    HW217925   2.302   1.827   7.275  0.8270 -0.8458 -1.6396
 2097SOL     OW17926   3.577   3.488   1.341  0.1300 -0.1146 -0.0290
 2097SOL    HW117927   3.538   3.528   1.419 -2.1010 -0.8524 -0.7443
 2097SOL    HW217928   3.647   3.551   1.327  1.5139 -1.7628 -0.5820
 2098SOL     OW17929   0.551   0.168   2.928  0.1950 -0.5242 -0.1313
 2098SOL    HW117930   0.641   0.140   2.945  0.6106  0.7250 -0.2408
 2098SOL    HW217931   0.555   0.195   2.836 -0.6255 -2.2454 -0.6735
 2099SOL     OW17932   1.345   3.458   3.308 -0.0721  0.0760 -0.5845
 2099SOL    HW117933   1.424   3.469   3.362 -0.1830  1.2110 -0.6573
 2099SOL    HW217934   1.331   3.547   3.275 -1.2977  0.7391  1.6637
 2100SOL     OW17935   1.059   3.512   3.703  0.0421  0.5786 -0.9227
 2100SOL    HW117936   0.995   3.497   3.633 -2.7643  3.1826  1.1123
 2100SOL    HW217937   1.127   3.574   3.675  1.5887 -1.1468 -0.9910
 2101SOL     OW17938   0.980   2.583  16.884 -0.2744  0.0993  0.4990
 2101SOL    HW117939   0.904   2.570  16.827 -0.1007  1.0040  0.0654
 2101SOL    HW217940   1.038   2.631  16.826 -1.3262  0.0856 -0.5642
 2102SOL     OW17941   1.219   0.402   1.036 -0.3407  0.0951  0.1526
 2102SOL    HW117942   1.234   0.417   0.943  2.5499 -2.1059  0.2826
 2102SOL    HW217943   1.126   0.419   1.054  0.1193  3.0153 -0.2602
 2103SOL     OW17944   3.954   2.568   9.928 -0.1039 -0.1374 -0.6124
 2103SOL    HW117945   3.982   2.510   9.999 -0.6956  0.9078  0.4683
 2103SOL    HW217946   3.944   2.649   9.977  1.7115  1.3141 -2.6303
 2104SOL     OW17947   3.315   2.542   7.883 -0.1131 -0.4797  0.1818
 2104SOL    HW117948   3.236   2.584   7.918 -0.4389 -1.3331  0.4513
 2104SOL    HW217949   3.286   2.544   7.791 -0.1696  0.7286  0.2221
 2105SOL     OW17950   4.411   4.305  16.683  0.5115 -0.2226  0.2383
 2105SOL    HW117951   4.389   4.356  16.605 -0.4996 -1.1346 -0.0827
 2105SOL    HW217952   4.322   4.280  16.710  0.6096 -0.3058  0.4829
 2106SOL     OW17953   2.799   2.970   8.355 -0.2917  0.4625  1.0069
 2106SOL    HW117954   2.814   2.911   8.429 -0.6595 -0.3357  0.4438
 2106SOL    HW217955   2.868   2.947   8.293 -1.4462 -1.6982  0.5373
 2107SOL     OW17956   2.591   2.551   9.731  0.0674  0.3650 -0.7396
 2107SOL    HW117957   2.643   2.548   9.811 -1.0472 -1.2488 -0.0889
 2107SOL    HW217958   2.503   2.573   9.762 -0.5735  0.5011 -2.6414
 2108SOL     OW17959   1.083   0.976  11.392  0.1157  0.3386  0.1988
 2108SOL    HW117960   1.091   1.064  11.354  1.3733 -1.3155 -3.3830
 2108SOL    HW217961   1.165   0.934  11.365  1.3556  0.8902  3.1647
 2109SOL     OW17962   1.607   3.965   3.774 -0.6895 -0.0795 -0.6328
 2109SOL    HW117963   1.631   3.916   3.852  2.8659  3.0372  0.2174
 2109SOL    HW217964   1.698   3.982   3.748 -0.9815  1.1527 -0.8493
 2110SOL     OW17965   0.398   0.760  15.389  0.3791 -0.2555 -0.4111
 2110SOL    HW117966   0.406   0.671  15.356 -2.4489 -1.6722  2.6750
 2110SOL    HW217967   0.447   0.821  15.334 -0.8773  1.5107  0.4178
 2111SOL     OW17968   3.257   2.391   4.436  0.8433  0.2778 -0.0151
 2111SOL    HW117969   3.286   2.454   4.503  0.8370 -1.0633  1.2598
 2111SOL    HW217970   3.166   2.378   4.462  1.0445  1.3121  1.2135
 2112SOL     OW17971   4.261   0.506   2.150 -0.1471 -0.7221  0.6380
 2112SOL    HW117972   4.337   0.554   2.185 -1.1278  0.7830  0.6932
 2112SOL    HW217973   4.226   0.461   2.227  2.3340  0.1875  2.3178
 2113SOL     OW17974   2.478   0.350   8.399 -0.6772 -0.5170  0.5980
 2113SOL    HW117975   2.440   0.435   8.375  0.6845 -0.1110 -0.1136
 2113SOL    HW217976   2.526   0.382   8.475 -0.5733  1.2099 -0.1874
 2114SOL     OW17977   0.464   2.444   3.441  0.4552  0.2801 -0.5500
 2114SOL    HW117978   0.375   2.464   3.412  2.3056  4.8010 -2.9462
 2114SOL    HW217979   0.478   2.496   3.520  0.1943 -1.2817  0.5230
 2115SOL     OW17980   3.711   3.240  12.261  0.1486  0.3319 -0.3060
 2115SOL    HW117981   3.746   3.226  12.173  0.9560 -1.9097  0.3790
 2115SOL    HW217982   3.766   3.189  12.320  3.1956  3.3570 -0.5569
 2116SOL     OW17983   2.418   0.091   5.373  0.0941  0.1925  0.1140
 2116SOL    HW117984   2.332   0.051   5.377 -0.3971  1.2184 -0.2668
 2116SOL    HW217985   2.462   0.025   5.320 -0.0078 -1.2856  1.8918
 2117SOL     OW17986   0.822   0.965  10.835  0.3017  0.5550  0.1864
 2117SOL    HW117987   0.737   0.927  10.816  0.7007 -0.6786  0.8867
 2117SOL    HW217988   0.809   1.023  10.910 -0.4948  0.7280 -0.0898
 2118SOL     OW17989   2.654   0.348   6.018 -0.0171  0.4825  0.2684
 2118SOL    HW117990   2.637   0.399   5.940  1.7972 -1.3263 -1.3244
 2118SOL    HW217991   2.574   0.295   6.017 -0.2096  0.7884 -0.2968
 2119SOL     OW17992   2.157   1.079   5.915 -0.2369  0.4766  0.2179
 2119SOL    HW117993   2.109   1.009   5.872  2.7406 -0.5117 -1.4429
 2119SOL    HW217994   2.200   1.129   5.846 -0.1991  0.6959  0.3994
 2120SOL     OW17995   3.856   3.669   3.766  0.1265 -0.9815  0.1716
 2120SOL    HW117996   3.774   3.693   3.809 -0.8183  0.2340 -2.3432
 2120SOL    HW217997   3.817   3.640   3.683  1.0666  1.0404 -0.9541
 2121SOL     OW17998   4.092   0.910  10.534  0.5220 -0.0007 -0.3447
 2121SOL    HW117999   4.080   0.998  10.569 -0.7187 -0.1273 -0.4437
 2121SOL    HW218000   4.131   0.926  10.449  2.4782 -1.4556  0.2639
 2122SOL     OW18001   1.859   2.476   9.145  0.0067 -0.2803 -0.0214
 2122SOL    HW118002   1.815   2.553   9.181 -0.8740  0.6889 -3.1175
 2122SOL    HW218003   1.863   2.470   9.049  1.9240 -3.0408  0.2505
 2123SOL     OW18004   3.542   1.171   8.077  0.2692 -0.0569  0.0903
 2123SOL    HW118005   3.578   1.247   8.032  0.9699 -0.4225  0.0385
 2123SOL    HW218006   3.472   1.215   8.125  0.4985  0.2213  0.1670
 2124SOL     OW18007   1.727   2.120  13.511  0.0266  0.1078  0.2173
 2124SOL    HW118008   1.738   2.107  13.417 -0.4773  1.6168 -0.0452
 2124SOL    HW218009   1.657   2.184  13.502  1.3233  1.7739  2.0260
 2125SOL     OW18010   4.611   3.299   0.413 -0.3038  0.0554 -0.4968
 2125SOL    HW118011   4.680   3.238   0.439 -1.7507 -0.1707  2.7916
 2125SOL    HW218012   4.636   3.320   0.323  4.6110  0.8954  1.0441
 2126SOL     OW18013   4.550   3.483   1.337 -0.0801  0.0628 -0.3563
 2126SOL    HW118014   4.460   3.454   1.323  0.1187 -0.5475 -0.3531
 2126SOL    HW218015   4.598   3.401   1.327  1.4284  0.7418  1.0802
 2127SOL     OW18016   0.423   2.144   8.124  0.2357  0.1992  0.1295
 2127SOL    HW118017   0.511   2.107   8.110  0.2790  0.7596 -1.1187
 2127SOL    HW218018   0.434   2.238   8.112 -3.6735  0.2886 -2.5778
 2128SOL     OW18019   1.904   3.773   3.235 -0.0836  0.2003  0.3933
 2128SOL    HW118020   1.934   3.778   3.326  0.6393 -2.9051  0.3501
 2128SOL    HW218021   1.867   3.861   3.228 -0.9110  0.0641  3.0041
 2129SOL     OW18022   1.440   4.555   2.851  0.0838 -0.5324  0.7029
 2129SOL    HW118023   1.476   4.597   2.774 -1.9508 -0.3743 -0.1602
 2129SOL    HW218024   1.373   4.498   2.814  0.3224  0.4554 -1.2586
 2130SOL     OW18025   0.077   1.319   5.672 -0.6938  0.3150  0.1038
 2130SOL    HW118026   4.731   1.360   5.642 -1.5449  0.4158  2.4961
 2130SOL    HW218027   0.081   1.346   5.764  0.0573 -2.0450  0.7721
 2131SOL     OW18028   3.901   4.692   1.588 -0.2368 -0.1492 -0.7028
 2131SOL    HW118029   3.914   4.701   1.494  2.3023  1.2758 -0.2063
 2131SOL    HW218030   3.903   0.048   1.618  2.4903 -1.0584  1.8680
 2132SOL     OW18031   1.334   1.590   6.130  0.2261 -0.2316 -0.2436
 2132SOL    HW118032   1.274   1.547   6.191 -0.6816  0.0673 -0.9288
 2132SOL    HW218033   1.295   1.540   6.058  1.7968  0.4134 -1.5356
 2133SOL     OW18034   4.294   3.083   7.618  0.2060 -0.5397 -0.2463
 2133SOL    HW118035   4.333   3.170   7.615 -3.6522  1.1852  0.0153
 2133SOL    HW218036   4.244   3.100   7.697 -1.5422 -1.3354 -1.1801
 2134SOL     OW18037   2.629   0.756   5.932  0.1341 -0.7516  0.6601
 2134SOL    HW118038   2.643   0.818   6.003  0.5958  0.8853 -0.8486
 2134SOL    HW218039   2.535   0.762   5.917  0.4331  0.0540 -0.9152
 2135SOL     OW18040   2.080   2.450   7.473 -0.2229  0.2103  0.5111
 2135SOL    HW118041   1.999   2.456   7.421 -0.2325 -1.1537  0.3543
 2135SOL    HW218042   2.101   2.543   7.477 -1.0305  0.5015 -1.7363
 2136SOL     OW18043   3.284   1.478   4.621  0.0313  0.3246  0.3801
 2136SOL    HW118044   3.321   1.495   4.534 -0.0160 -1.0409  0.0957
 2136SOL    HW218045   3.357   1.453   4.678 -1.1423 -0.6720  1.4504
 2137SOL     OW18046   4.391   3.443   8.480 -0.2462 -0.4462  0.5185
 2137SOL    HW118047   4.390   3.504   8.555 -1.0778 -0.8438  0.8306
 2137SOL    HW218048   4.446   3.498   8.424  0.2676 -1.6807 -0.1659
 2138SOL     OW18049   1.219   1.458   6.495  0.2400  0.5596 -0.0820
 2138SOL    HW118050   1.301   1.431   6.536 -0.1209 -0.4536 -0.0144
 2138SOL    HW218051   1.190   1.511   6.569 -2.1828 -3.0649  1.5363
 2139SOL     OW18052   3.628   0.862  10.717 -0.5221  0.3986  0.0516
 2139SOL    HW118053   3.629   0.883  10.624  2.3008 -1.2828 -0.2784
 2139SOL    HW218054   3.629   0.767  10.711  0.5856  0.4286 -0.1877
 2140SOL     OW18055   4.252   2.375   4.398  0.0526 -0.4321 -0.3106
 2140SOL    HW118056   4.305   2.303   4.431 -0.7627 -1.7339 -1.7988
 2140SOL    HW218057   4.319   2.416   4.342  0.5949  1.4784  1.7219
 2141SOL     OW18058   3.354   4.339  13.877  0.4209  0.2430 -0.3564
 2141SOL    HW118059   3.441   4.303  13.862  0.9906  0.8919  1.4020
 2141SOL    HW218060   3.345   4.391  13.797 -3.7994  1.4286  0.8848
 2142SOL     OW18061   2.068   2.598   2.518  0.3133 -0.3268 -0.2028
 2142SOL    HW118062   2.115   2.674   2.553 -2.5049  1.1353  0.3988
 2142SOL    HW218063   2.000   2.574   2.580  1.3218 -4.3232 -0.6637
 2143SOL     OW18064   0.080   1.846   8.548  0.5068 -0.2030 -0.0879
 2143SOL    HW118065   0.088   1.939   8.530  0.3122 -0.4240 -1.3353
 2143SOL    HW218066   0.045   1.850   8.637 -1.0281 -3.2002 -0.5330
 2144SOL     OW18067   1.925   0.738   2.050 -1.0276  0.0512 -0.3723
 2144SOL    HW118068   1.920   0.704   1.960  3.2570  1.1823 -1.0372
 2144SOL    HW218069   1.947   0.830   2.036 -0.6797  0.2128  1.2162
 2145SOL     OW18070   1.828   3.726  15.518 -0.1488 -0.0115 -0.4705
 2145SOL    HW118071   1.856   3.708  15.608 -2.9799  0.2404  0.4418
 2145SOL    HW218072   1.773   3.803  15.533  2.7810  1.4700  2.6057
 2146SOL     OW18073   3.515   0.546   9.206 -0.3894 -0.6537 -0.8654
 2146SOL    HW118074   3.457   0.495   9.150 -0.0892  0.4888 -2.2324
 2146SOL    HW218075   3.589   0.494   9.239 -1.1712 -0.4395  1.2264
 2147SOL     OW18076   0.549   1.279   5.887 -0.0161 -1.2382 -0.4119
 2147SOL    HW118077   0.535   1.185   5.901 -0.2400 -1.5216 -2.4891
 2147SOL    HW218078   0.631   1.295   5.935 -0.4119 -2.2639  0.5992
 2148SOL     OW18079   2.500   0.871   5.474 -0.0720  0.8831 -0.1299
 2148SOL    HW118080   2.444   0.812   5.525 -0.9876  0.6140 -1.4523
 2148SOL    HW218081   2.546   0.910   5.549 -1.2976 -1.7793  2.0323
 2149SOL     OW18082   1.305   3.831   0.288 -0.4283 -0.2649  0.1872
 2149SOL    HW118083   1.251   3.869   0.358 -3.2282 -5.5771  0.8698
 2149SOL    HW218084   1.384   3.812   0.339 -1.2895  1.4574  2.2205
 2150SOL     OW18085   1.259   3.649  17.162 -0.0826  0.1459 -0.0085
 2150SOL    HW118086   1.296   3.573  17.207 -0.7095 -1.4029 -2.0909
 2150SOL    HW218087   1.169   3.625  17.138  0.7133 -2.7340 -0.0668
 2151SOL     OW18088   0.126   3.291  15.725  0.0104  0.0933  0.0817
 2151SOL    HW118089   0.182   3.285  15.802 -1.0913 -1.2117  0.7963
 2151SOL    HW218090   0.144   3.206  15.684  1.0405  0.2570  0.1978
 2152SOL     OW18091   1.881   1.821   9.765 -0.6080 -0.5768  0.2783
 2152SOL    HW118092   1.955   1.858   9.717 -1.3908  1.6387  0.7599
 2152SOL    HW218093   1.929   1.771   9.830  2.5143  1.6385 -0.3173
 2153SOL     OW18094   3.388   1.628   0.029 -0.8412 -0.1306 -1.0487
 2153SOL    HW118095   3.400   1.675   0.112  0.5276 -0.9912 -0.7628
 2153SOL    HW218096   3.325   1.558   0.045  0.9505 -1.9161 -1.9777
 2154SOL     OW18097   0.196   0.616   6.265 -0.1900  0.2021  0.8099
 2154SOL    HW118098   0.128   0.595   6.201  1.9149 -1.0353 -1.0016
 2154SOL    HW218099   0.204   0.710   6.251  1.1200  0.0041  0.2432
 2155SOL     OW18100   3.684   2.700   4.079 -0.3824 -0.1116 -0.0098
 2155SOL    HW118101   3.736   2.714   4.000  0.8518 -1.4198  0.5594
 2155SOL    HW218102   3.635   2.621   4.056 -1.2438  0.2189  0.6512
 2156SOL     OW18103   0.925   1.662  14.407 -0.2863 -0.3578  0.0786
 2156SOL    HW118104   1.001   1.684  14.462  0.6077  0.9270 -1.6435
 2156SOL    HW218105   0.863   1.622  14.467 -0.2292 -0.4543  0.0740
 2157SOL     OW18106   3.191   3.473   8.644 -0.0507  0.2167 -0.3852
 2157SOL    HW118107   3.113   3.476   8.700  0.4855  0.6901  0.3372
 2157SOL    HW218108   3.164   3.414   8.574 -0.4429 -1.3391  1.0472
 2158SOL     OW18109   1.509   3.003   5.166  0.8576 -0.1982 -0.2900
 2158SOL    HW118110   1.464   3.070   5.114 -0.5130 -2.0667 -1.5223
 2158SOL    HW218111   1.427   2.961   5.191  1.2292 -0.0219  1.2176
 2159SOL     OW18112   0.492   0.796   5.351 -0.8446 -0.0797 -0.6957
 2159SOL    HW118113   0.560   0.831   5.408 -0.8600 -0.5388 -0.3978
 2159SOL    HW218114   0.502   0.865   5.285  0.6434 -1.7234 -2.1923
 2160SOL     OW18115   0.182   4.458   0.384  0.6411 -0.3817 -0.2047
 2160SOL    HW118116   0.198   4.385   0.444 -1.0997  0.7947  1.6944
 2160SOL    HW218117   0.263   4.507   0.375  0.3808 -0.0166 -0.5784
 2161SOL     OW18118   1.794   4.359  10.320  0.3905 -0.6936 -0.3762
 2161SOL    HW118119   1.854   4.377  10.248 -1.7602 -0.5354 -2.1371
 2161SOL    HW218120   1.847   4.373  10.399 -0.6636 -2.5925  0.6772
 2162SOL     OW18121   0.366   3.212   2.199  0.6220 -0.5734 -0.3367
 2162SOL    HW118122   0.409   3.128   2.187 -0.8001 -1.2511 -0.7619
 2162SOL    HW218123   0.279   3.180   2.223  0.0354  0.7393 -0.7057
 2163SOL     OW18124   1.801   0.213  14.777 -0.0740 -0.1252 -0.3118
 2163SOL    HW118125   1.728   0.272  14.759 -0.1154  0.0050  0.2760
 2163SOL    HW218126   1.854   0.233  14.700  0.4585  0.5884  0.2382
 2164SOL     OW18127   2.284   4.225  16.085 -0.2454 -0.4875 -0.3421
 2164SOL    HW118128   2.208   4.204  16.029  0.7924  1.3085 -2.4284
 2164SOL    HW218129   2.241   4.213  16.170  0.5326  0.4907  0.1799
 2165SOL     OW18130   3.728   3.873   2.984  0.0510 -0.1812 -0.2071
 2165SOL    HW118131   3.676   3.843   3.059 -1.6581  0.2270 -1.2090
 2165SOL    HW218132   3.660   3.913   2.930 -1.2676  0.2055  1.7189
 2166SOL     OW18133   0.967   4.221   6.330 -0.4620 -0.0613 -0.0640
 2166SOL    HW118134   1.021   4.279   6.277 -0.2112 -1.1380 -0.9739
 2166SOL    HW218135   1.038   4.159   6.343  0.0959  0.4609 -0.6138
 2167SOL     OW18136   0.583   3.239   5.613  0.0201  0.2704 -0.0698
 2167SOL    HW118137   0.506   3.255   5.559  0.2846  2.2927  0.1344
 2167SOL    HW218138   0.632   3.321   5.603  1.4726 -0.7053 -0.7239
 2168SOL     OW18139   3.739   0.642  13.926 -0.2686 -0.0347  0.1348
 2168SOL    HW118140   3.797   0.662  13.852  3.6784 -0.8141  3.0814
 2168SOL    HW218141   3.800   0.654  13.998  0.8642  0.8976 -0.9752
 2169SOL     OW18142   4.321   2.357   4.024  0.1522 -0.1731 -0.0013
 2169SOL    HW118143   4.238   2.347   3.977  0.2459  0.2710 -0.2570
 2169SOL    HW218144   4.305   2.292   4.093 -0.2550  0.4386  0.4705
 2170SOL     OW18145   4.322   3.401   0.168 -0.1447 -0.3090 -0.0754
 2170SOL    HW118146   4.311   3.392   0.262 -1.0986  1.8975  0.0317
 2170SOL    HW218147   4.291   3.487   0.138  0.6200  0.2082  0.6308
 2171SOL     OW18148   0.795   1.468   4.620  0.6613  0.1696 -0.3170
 2171SOL    HW118149   0.739   1.434   4.690  1.1464  0.9551  0.4548
 2171SOL    HW218150   0.755   1.553   4.600 -1.5773 -0.8707 -0.2398
 2172SOL     OW18151   1.393   4.530   8.389 -0.0256  0.0789 -0.0088
 2172SOL    HW118152   1.348   4.547   8.473  0.4550  1.1197  0.0368
 2172SOL    HW218153   1.335   4.566   8.322  1.5326 -1.8769 -2.3753
 2173SOL     OW18154   1.066   3.961   1.636 -0.5938 -0.0631  0.1815
 2173SOL    HW118155   1.018   3.920   1.564 -1.4044 -0.9798  1.2478
 2173SOL    HW218156   1.116   4.027   1.588 -1.5022  0.1415 -0.4929
 2174SOL     OW18157   4.076   3.430   3.250 -0.2496 -0.2373  0.2992
 2174SOL    HW118158   4.109   3.466   3.332  1.3228 -0.4355 -0.2569
 2174SOL    HW218159   4.054   3.338   3.267  1.3505 -0.5192  0.8237
 2175SOL     OW18160   2.908   4.355   3.485 -0.3806  0.4804  0.8397
 2175SOL    HW118161   2.911   4.346   3.580  2.0163  2.0582  0.8809
 2175SOL    HW218162   2.834   4.416   3.487  0.4706  1.4785  1.2244
 2176SOL     OW18163   2.687   4.549  14.233 -0.0441  0.5301  0.9738
 2176SOL    HW118164   2.770   4.591  14.254  0.6081 -0.8141  1.0785
 2176SOL    HW218165   2.705   4.525  14.142 -2.9939  1.2810  0.1768
 2177SOL     OW18166   2.193   1.935   2.371 -0.3480  0.0455 -0.5817
 2177SOL    HW118167   2.223   1.927   2.461  0.7396  2.9884 -0.6803
 2177SOL    HW218168   2.275   1.974   2.339 -1.7801  3.0219 -0.5713
 2178SOL     OW18169   3.342   1.058  12.726  0.0499  0.0281  0.3208
 2178SOL    HW118170   3.429   1.041  12.692 -0.1395  0.2475 -0.2664
 2178SOL    HW218171   3.292   1.082  12.648 -0.4877  1.6605  1.1597
 2179SOL     OW18172   3.394   2.902   5.443 -0.3644  0.4720 -0.4061
 2179SOL    HW118173   3.482   2.864   5.454 -0.6467 -0.1146 -0.1582
 2179SOL    HW218174   3.389   2.931   5.352  0.8845 -1.0901 -0.9716
 2180SOL     OW18175   4.635   1.181  16.820  0.2688  0.1560 -0.0388
 2180SOL    HW118176   4.675   1.257  16.778  0.2247  0.5949  0.7070
 2180SOL    HW218177   4.547   1.199  16.786  0.5752  2.0558  0.1972
 2181SOL     OW18178   2.816   0.560   8.334  0.0914  0.4808  0.0950
 2181SOL    HW118179   2.824   0.613   8.255  1.4538  2.1759  1.3648
 2181SOL    HW218180   2.847   0.476   8.300  0.8143  1.1134 -0.7985
 2182SOL     OW18181   0.850   1.815  10.552  0.0871 -0.5965 -0.4072
 2182SOL    HW118182   0.881   1.807  10.462  0.2531  0.5822 -0.4471
 2182SOL    HW218183   0.759   1.784  10.556 -0.1033 -0.0793 -0.8847
 2183SOL     OW18184   1.020   4.050  12.394  0.4835 -0.6516 -0.2567
 2183SOL    HW118185   1.025   4.143  12.371  1.4724 -0.7564 -0.4516
 2183SOL    HW218186   1.023   4.000  12.312  0.5648  0.1100 -0.7206
 2184SOL     OW18187   2.913   3.044   7.468 -0.1829 -0.3538  0.3620
 2184SOL    HW118188   2.942   3.111   7.406  0.4126 -0.2469  0.7546
 2184SOL    HW218189   2.990   2.992   7.489  0.4110 -0.1585 -1.3423
 2185SOL     OW18190   2.687   4.655   5.480 -0.7793  0.2457 -0.0906
 2185SOL    HW118191   2.729   4.710   5.413  0.2309 -0.7323 -0.2706
 2185SOL    HW218192   2.750   4.583   5.474 -0.5691  0.4769 -0.6491
 2186SOL     OW18193   1.947   1.868  12.620  0.6070  0.1255 -0.6157
 2186SOL    HW118194   1.972   1.783  12.584  0.3440 -0.2129  0.0061
 2186SOL    HW218195   2.031   1.916  12.623  0.2836  0.7299 -1.0733
 2187SOL     OW18196   3.659   0.855   5.713  0.5058 -0.2651  0.8840
 2187SOL    HW118197   3.608   0.820   5.786 -2.9304  2.2810 -0.3470
 2187SOL    HW218198   3.601   0.848   5.637  1.8328  2.5429 -0.3887
 2188SOL     OW18199   3.115   2.490   0.597 -0.0004 -0.1747 -0.3319
 2188SOL    HW118200   3.031   2.445   0.592 -1.7870  3.3253 -1.2806
 2188SOL    HW218201   3.102   2.543   0.676  2.1594  1.2532 -0.9363
 2189SOL     OW18202   2.485   0.331   1.264  0.0219 -0.1321 -0.0569
 2189SOL    HW118203   2.447   0.365   1.345  0.9521 -1.2265  0.8322
 2189SOL    HW218204   2.564   0.385   1.258 -1.3395  1.9678  0.7826
 2190SOL     OW18205   2.681   2.698   1.862  0.7148  0.6810 -0.0716
 2190SOL    HW118206   2.682   2.603   1.847  1.5568  0.8680 -1.1828
 2190SOL    HW218207   2.605   2.732   1.815 -0.1303 -3.0073 -1.4413
 2191SOL     OW18208   4.552   3.582   4.018 -0.0701  0.1308  0.1748
 2191SOL    HW118209   4.551   3.668   3.975  2.2843 -0.4857 -1.1003
 2191SOL    HW218210   4.464   3.588   4.055  0.1108 -0.1656  0.6425
 2192SOL     OW18211   3.897   4.212   3.394  0.3892 -0.6347 -0.3330
 2192SOL    HW118212   3.835   4.188   3.325  0.2608  1.9165 -1.0918
 2192SOL    HW218213   3.831   4.252   3.452  0.8880 -0.8493  0.3851
 2193SOL     OW18214   1.544   0.969   7.961 -0.3421  0.5913 -0.0380
 2193SOL    HW118215   1.614   0.914   7.996  0.6817  2.6044  1.0375
 2193SOL    HW218216   1.518   0.913   7.887  1.5377  0.8300 -0.8615
 2194SOL     OW18217   2.263   0.961   4.622 -0.7234  0.0886 -0.0685
 2194SOL    HW118218   2.194   0.979   4.686 -0.7971  2.2433 -0.7449
 2194SOL    HW218219   2.261   0.868   4.645  2.7511 -0.3199 -1.3090
 2195SOL     OW18220   3.103   4.470   0.609  0.0267 -0.3138 -0.2328
 2195SOL    HW118221   3.058   4.554   0.608 -2.2592 -1.5220  0.4748
 2195SOL    HW218222   3.196   4.487   0.625 -0.0452 -2.2561  2.2235
 2196SOL     OW18223   3.733   1.119  16.642 -0.0267  0.9685 -0.1715
 2196SOL    HW118224   3.799   1.189  16.644  1.6327 -0.6009 -0.2559
 2196SOL    HW218225   3.780   1.042  16.610 -1.5638 -0.8972  2.0961
 2197SOL     OW18226   3.860   1.776   4.107 -0.3310  0.6234 -0.2002
 2197SOL    HW118227   3.790   1.748   4.048 -0.1381  5.1109 -2.5802
 2197SOL    HW218228   3.923   1.791   4.036  0.6160  0.4192  0.5950
 2198SOL     OW18229   2.912   3.846   9.181 -0.5429 -0.2932 -0.3452
 2198SOL    HW118230   2.908   3.760   9.138 -2.8634 -0.3025 -0.1109
 2198SOL    HW218231   2.980   3.881   9.124 -1.1859 -0.4624 -1.2262
 2199SOL     OW18232   4.732   1.716   5.113  0.3912  0.0455  0.3335
 2199SOL    HW118233   0.071   1.749   5.165  1.4253 -1.8156  0.0358
 2199SOL    HW218234   4.670   1.789   5.115  2.2387  1.6151  0.6171
 2200SOL     OW18235   1.167   3.355   3.925  0.0184  0.8044  0.4122
 2200SOL    HW118236   1.252   3.373   3.885  0.7626 -0.9222  1.2155
 2200SOL    HW218237   1.117   3.370   3.845 -0.4460 -0.9320  0.3806
 2201SOL     OW18238   1.475   0.906   7.326 -0.2833  0.2454  0.1118
 2201SOL    HW118239   1.477   0.938   7.416 -0.3516 -1.0954  0.5890
 2201SOL    HW218240   1.561   0.938   7.300  1.2345 -2.6770  1.5286
 2202SOL     OW18241   3.687   1.895   2.207  0.0281 -0.0605  0.0270
 2202SOL    HW118242   3.685   1.820   2.148 -2.3375 -0.2910  0.3922
 2202SOL    HW218243   3.741   1.962   2.165  2.1199 -1.3027  0.7438
 2203SOL     OW18244   2.363   3.564   2.355  0.0988  0.0615  0.2530
 2203SOL    HW118245   2.276   3.571   2.316  0.1790  0.6984  0.1944
 2203SOL    HW218246   2.402   3.489   2.309 -1.6326 -1.1317  0.7220
 2204SOL     OW18247   3.351   1.478   1.014  0.0774  0.0061 -0.3303
 2204SOL    HW118248   3.262   1.465   0.979 -1.3707 -0.7952  3.6789
 2204SOL    HW218249   3.403   1.481   0.934  0.7176 -1.4367  0.0457
 2205SOL     OW18250   2.158   1.803   7.913  0.2788 -0.2834  0.3054
 2205SOL    HW118251   2.075   1.849   7.898  0.5978 -0.3684 -1.7553
 2205SOL    HW218252   2.121   1.715   7.901  0.3634 -0.0008 -1.9398
 2206SOL     OW18253   0.369   3.724   2.465  0.2140 -0.3179 -0.2081
 2206SOL    HW118254   0.368   3.645   2.520  1.0666  0.2957  0.6889
 2206SOL    HW218255   0.432   3.778   2.512  0.8309  0.7176 -2.2296
 2207SOL     OW18256   3.815   1.041   0.897 -0.5023  0.0926 -0.3622
 2207SOL    HW118257   3.828   1.038   0.992 -1.1491 -2.1317 -0.3430
 2207SOL    HW218258   3.903   1.058   0.863 -0.9630  1.7587 -0.7369
 2208SOL     OW18259   1.937   0.520   6.649  0.4600  0.1916  0.5169
 2208SOL    HW118260   1.964   0.491   6.736 -1.9175 -0.4972  1.0110
 2208SOL    HW218261   1.844   0.534   6.668  0.3187  0.7431 -0.5788
 2209SOL     OW18262   1.719   2.795   6.954  0.1695 -0.0701 -0.0578
 2209SOL    HW118263   1.712   2.882   6.914  2.1273  0.3332  0.4868
 2209SOL    HW218264   1.758   2.745   6.882  0.6455 -2.1283  1.6472
 2210SOL     OW18265   3.461   1.740  13.928 -0.4002  0.1242 -1.0348
 2210SOL    HW118266   3.544   1.693  13.941 -0.8139 -0.1929  0.4578
 2210SOL    HW218267   3.465   1.824  13.973  1.0391 -1.7707  2.3852
 2211SOL     OW18268   4.387   1.514   7.024 -0.7432  0.9929  0.3714
 2211SOL    HW118269   4.455   1.581   7.023 -0.6565  0.9083  0.6922
 2211SOL    HW218270   4.317   1.548   7.079 -0.3376  2.2217  0.1151
 2212SOL     OW18271   0.925   0.657   0.730 -0.1536 -0.4414 -0.0088
 2212SOL    HW118272   0.918   0.666   0.825  3.1024  0.5662  0.1420
 2212SOL    HW218273   1.006   0.607   0.729  0.2769  0.2751 -1.0687
 2213SOL     OW18274   1.712   1.606   3.793 -0.2321  0.2138 -0.4969
 2213SOL    HW118275   1.686   1.611   3.885 -0.6174  0.7657 -0.6383
 2213SOL    HW218276   1.807   1.617   3.800 -0.0792 -1.4810  0.1873
 2214SOL     OW18277   2.674   2.381   8.579  0.1194 -0.0832  0.0906
 2214SOL    HW118278   2.710   2.452   8.631 -0.2930  1.4093 -1.6319
 2214SOL    HW218279   2.715   2.309   8.626  1.4293  2.1672  2.3684
 2215SOL     OW18280   0.479   3.306   7.883  0.0937 -0.4900  0.1796
 2215SOL    HW118281   0.520   3.224   7.913 -0.0692 -0.5159  0.3293
 2215SOL    HW218282   0.450   3.349   7.963  0.8015  1.3113 -0.5341
 2216SOL     OW18283   1.467   0.459   3.962 -0.0056 -0.0821  0.5942
 2216SOL    HW118284   1.532   0.483   4.028  1.0779 -1.1900 -0.0633
 2216SOL    HW218285   1.424   0.538   3.930  0.3376 -0.4873 -0.8512
 2217SOL     OW18286   2.290   4.672   2.174  0.0165  0.6192  0.0307
 2217SOL    HW118287   2.199   4.654   2.150 -0.0598 -1.9279  2.3027
 2217SOL    HW218288   2.329   4.589   2.149 -2.0061  0.6194 -3.1341
 2218SOL     OW18289   2.684   0.914   0.074 -0.0747  0.5410 -0.1898
 2218SOL    HW118290   2.751   0.875   0.131 -0.6446 -0.2705 -0.0755
 2218SOL    HW218291   2.694   0.854  17.738  2.2648  3.1676 -1.9707
 2219SOL     OW18292   0.478   0.936   8.695 -0.5334  0.4687 -0.9193
 2219SOL    HW118293   0.573   0.943   8.685 -0.4546  0.4581 -0.1830
 2219SOL    HW218294   0.466   0.848   8.731  1.0559 -0.5365 -2.8421
 2220SOL     OW18295   3.977   3.092  13.301 -0.0254 -0.0572 -0.3052
 2220SOL    HW118296   4.006   3.071  13.389 -0.5182 -0.5221 -0.2511
 2220SOL    HW218297   3.926   3.170  13.325 -0.9666 -0.5038 -0.8598
 2221SOL     OW18298   0.348   3.222   3.261  0.5369  0.1070  0.2928
 2221SOL    HW118299   0.319   3.310   3.237 -0.7656 -0.1637  0.8671
 2221SOL    HW218300   0.414   3.203   3.194  0.2291  1.1912 -0.3178
 2222SOL     OW18301   2.284   4.230   2.063 -0.0286  0.4699 -0.6082
 2222SOL    HW118302   2.359   4.219   2.120  1.4975  0.8540 -2.5343
 2222SOL    HW218303   2.223   4.206   2.133  0.2444  0.8617 -0.2352
 2223SOL     OW18304   3.515   1.277   9.818 -0.0492  0.1727  0.2676
 2223SOL    HW118305   3.482   1.189   9.801 -1.3487  0.1683  2.8400
 2223SOL    HW218306   3.599   1.254   9.857  1.3336  0.1538 -2.7452
 2224SOL     OW18307   1.958   2.664   3.496 -0.6450 -0.1189  0.0671
 2224SOL    HW118308   2.015   2.606   3.446 -0.7759 -2.2024  2.3575
 2224SOL    HW218309   1.921   2.609   3.565  3.3495 -0.7271  1.6879
 2225SOL     OW18310   1.358   0.315   1.946 -0.0949  0.8201  0.0110
 2225SOL    HW118311   1.369   0.395   1.893  3.4824  1.5338  1.8717
 2225SOL    HW218312   1.268   0.327   1.978  0.3843  0.2007  1.5652
 2226SOL     OW18313   0.408   4.132   7.881  0.0130 -0.4333  0.5017
 2226SOL    HW118314   0.462   4.053   7.871 -0.2259 -0.2714 -2.1582
 2226SOL    HW218315   0.463   4.171   7.949 -0.1387  0.1526  0.2907
 2227SOL     OW18316   3.823   1.569   8.548  0.1751 -0.5110  0.4547
 2227SOL    HW118317   3.798   1.507   8.617  1.3728 -1.8489 -0.3247
 2227SOL    HW218318   3.873   1.636   8.594  1.1420  0.0037 -1.3621
 2228SOL     OW18319   3.081   2.438   6.282 -0.0837  0.0190 -0.4910
 2228SOL    HW118320   3.079   2.351   6.243 -0.2657 -0.4483  0.5671
 2228SOL    HW218321   3.120   2.485   6.208  1.5180  2.3151  1.7800
 2229SOL     OW18322   2.404   0.310  15.388 -0.8040  0.0421  0.1961
 2229SOL    HW118323   2.372   0.223  15.413 -3.4287  0.5010 -1.4948
 2229SOL    HW218324   2.434   0.289  15.299 -2.9521  0.1233 -0.5514
 2230SOL     OW18325   2.975   1.428   3.705 -0.3178  0.0464  0.6567
 2230SOL    HW118326   2.950   1.380   3.784  1.2883  0.0527  1.1550
 2230SOL    HW218327   2.993   1.351   3.650 -1.4172 -0.1788  0.6066
 2231SOL     OW18328   2.996   3.553   4.161 -0.7822 -0.1459  0.0532
 2231SOL    HW118329   3.086   3.519   4.158 -0.2116  1.3607 -0.2236
 2231SOL    HW218330   2.983   3.548   4.066 -1.9366 -1.3523  0.2895
 2232SOL     OW18331   4.290   4.681   8.000 -0.0134  0.2345  0.2639
 2232SOL    HW118332   4.251   4.709   7.917 -1.7803  0.9056  1.3061
 2232SOL    HW218333   4.214   4.681   8.058  1.0957  0.1363  1.7172
 2233SOL     OW18334   3.435   3.783   8.510 -0.3365 -0.4788 -0.1664
 2233SOL    HW118335   3.353   3.771   8.462 -1.7160 -0.5154  2.2166
 2233SOL    HW218336   3.457   3.690   8.506 -0.8784 -0.4898 -2.7759
 2234SOL     OW18337   3.401   1.011  16.719  0.0869 -0.0584 -0.4987
 2234SOL    HW118338   3.397   1.064  16.639  0.1562  1.6967  0.6696
 2234SOL    HW218339   3.471   0.948  16.703 -1.2697 -1.4765 -0.9082
 2235SOL     OW18340   1.908   3.209   7.270 -0.1235  0.0632  0.3530
 2235SOL    HW118341   1.819   3.235   7.244 -1.0432 -2.6803  0.7399
 2235SOL    HW218342   1.908   3.116   7.248  1.4285  0.1658 -0.0154
 2236SOL     OW18343   0.202   0.855  16.467  0.1494 -0.5529  0.4772
 2236SOL    HW118344   0.280   0.817  16.507 -0.7658  1.8651  4.5574
 2236SOL    HW218345   0.127   0.809  16.505  0.2275 -0.4241  0.7856
 2237SOL     OW18346   2.308   4.013   7.978 -0.3166 -0.0291  0.4064
 2237SOL    HW118347   2.387   3.991   8.027  0.6232  0.7555 -0.7623
 2237SOL    HW218348   2.325   3.955   7.904 -1.6869 -4.4601  3.5535
 2238SOL     OW18349   3.618   4.703   1.989  0.1532 -0.6825 -0.0681
 2238SOL    HW118350   3.587   4.627   2.039  1.1768  0.1584  1.8239
 2238SOL    HW218351   3.569   4.697   1.907  0.0397  0.2859 -0.0615
 2239SOL     OW18352   0.743   3.076   0.845  0.1680  0.0455 -0.1679
 2239SOL    HW118353   0.766   3.062   0.753  2.1566  0.4167  0.2539
 2239SOL    HW218354   0.821   3.110   0.889 -0.1468 -1.3148  1.4504
 2240SOL     OW18355   1.158   0.749   7.334 -0.2666  0.0775  0.4687
 2240SOL    HW118356   1.122   0.750   7.423  1.4245  0.2992  1.1540
 2240SOL    HW218357   1.086   0.788   7.286 -1.5043 -0.2173  2.0648
 2241SOL     OW18358   1.437   2.938  16.971  0.2369 -0.5858  0.4337
 2241SOL    HW118359   1.435   2.980  16.885  1.3771 -2.1243 -0.3468
 2241SOL    HW218360   1.523   2.971  16.996 -0.8384  2.2565  0.3604
 2242SOL     OW18361   2.521   0.320   7.947 -0.1567  0.4739 -0.0723
 2242SOL    HW118362   2.553   0.236   7.980  0.4506  0.9023  0.4160
 2242SOL    HW218363   2.457   0.341   8.015  0.4650  1.0490  0.3332
 2243SOL     OW18364   3.954   1.988   3.514 -0.5562 -0.7106  0.0401
 2243SOL    HW118365   3.872   1.944   3.533  0.1723 -2.2701 -0.4515
 2243SOL    HW218366   4.010   1.920   3.477 -2.7225 -0.3788 -3.7346
 2244SOL     OW18367   1.082   2.980   6.220  0.8634 -0.3740  0.4120
 2244SOL    HW118368   1.095   3.075   6.220  0.2193 -0.2905 -0.6628
 2244SOL    HW218369   1.151   2.948   6.279 -0.5605 -0.6567  1.9122
 2245SOL     OW18370   3.248   2.406  11.682  0.0178 -0.0501 -0.0373
 2245SOL    HW118371   3.242   2.499  11.704  0.5079 -0.2823  1.0620
 2245SOL    HW218372   3.316   2.407  11.615  0.0259 -2.7914 -0.0555
 2246SOL     OW18373   0.456   4.454   2.589 -0.3359 -0.2992 -0.0048
 2246SOL    HW118374   0.419   4.523   2.643  1.0649 -0.6487  1.3812
 2246SOL    HW218375   0.542   4.442   2.628 -1.2100  0.4192  2.1339
 2247SOL     OW18376   1.762   3.631   6.125 -0.0576 -0.1694  0.2514
 2247SOL    HW118377   1.765   3.573   6.049 -0.0840  0.4279 -0.2020
 2247SOL    HW218378   1.835   3.590   6.173 -0.9573 -0.9924  0.9269
 2248SOL     OW18379   0.867   3.883   6.741 -0.0791  0.2650 -0.2507
 2248SOL    HW118380   0.949   3.889   6.692 -1.2371  0.6638 -2.1434
 2248SOL    HW218381   0.866   3.974   6.771 -1.6780  0.4659 -0.8978
 2249SOL     OW18382   4.659   1.271   1.742 -0.1388  0.1703  0.9036
 2249SOL    HW118383   4.660   1.315   1.828 -2.1157 -2.7020  2.3718
 2249SOL    HW218384   4.716   1.199   1.767  0.1611  0.1666  0.1883
 2250SOL     OW18385   2.146   0.400   6.029 -0.2585 -0.3966 -0.3382
 2250SOL    HW118386   2.124   0.381   6.120 -1.9168  1.8741 -0.2751
 2250SOL    HW218387   2.216   0.464   6.041  1.0855 -1.2138 -3.6841
 2251SOL     OW18388   1.987   3.078   9.741  0.3700  0.4992  0.1071
 2251SOL    HW118389   2.021   3.116   9.660 -1.1722  2.2799  0.3005
 2251SOL    HW218390   1.895   3.062   9.725  0.0687  1.4199  0.8953
 2252SOL     OW18391   0.156   1.845   1.481 -0.9855 -0.3224  0.2370
 2252SOL    HW118392   0.103   1.778   1.436 -0.9474  0.2950 -0.7152
 2252SOL    HW218393   0.110   1.841   1.565  1.9182 -0.0497  1.8440
 2253SOL     OW18394   4.289   1.383   6.647 -0.0601  0.1886  0.0936
 2253SOL    HW118395   4.371   1.408   6.691 -1.3608  0.2873  2.4760
 2253SOL    HW218396   4.287   1.289   6.668 -0.4429  0.0979 -0.3591
 2254SOL     OW18397   2.314   1.503   1.563 -0.5655 -0.0670  0.2623
 2254SOL    HW118398   2.231   1.482   1.605  1.0394 -3.5041  1.6559
 2254SOL    HW218399   2.364   1.422   1.557 -1.3226 -0.5886  1.1170
 2255SOL     OW18400   3.712   2.269  16.279  0.2757  0.4156 -0.1635
 2255SOL    HW118401   3.768   2.204  16.236 -0.3466 -1.2414  1.5440
 2255SOL    HW218402   3.687   2.324  16.205 -1.2640 -1.0455 -0.7200
 2256SOL     OW18403   1.392   2.277   2.709 -0.1953 -0.5057 -0.3409
 2256SOL    HW118404   1.435   2.312   2.631  0.2639  0.7867  0.4845
 2256SOL    HW218405   1.352   2.351   2.756 -1.1639 -1.1811 -0.0893
 2257SOL     OW18406   1.214   2.854  14.649  0.0664  0.1042 -0.7251
 2257SOL    HW118407   1.273   2.910  14.700  1.9546 -0.7778 -1.9316
 2257SOL    HW218408   1.136   2.846  14.704 -0.5637 -1.8354 -1.8919
 2258SOL     OW18409   1.140   3.005   7.289  1.0910  0.0713  0.7074
 2258SOL    HW118410   1.200   2.934   7.316  0.8065 -0.4826 -0.1209
 2258SOL    HW218411   1.165   3.079   7.344  0.0074 -0.7438  2.3270
 2259SOL     OW18412   3.820   0.985   1.167 -0.0950  0.1846  0.5873
 2259SOL    HW118413   3.866   0.975   1.251  1.2205 -1.7770 -0.3864
 2259SOL    HW218414   3.748   1.042   1.196 -0.2759 -0.7181  1.9193
 2260SOL     OW18415   0.460   3.702  17.543 -0.1541  0.2519 -0.0061
 2260SOL    HW118416   0.542   3.745  17.521 -1.4474  2.0352 -1.4090
 2260SOL    HW218417   0.409   3.775  17.576 -3.2533 -1.2647 -1.3859
 2261SOL     OW18418   1.977   3.487   2.600 -0.1650  0.8471  0.2449
 2261SOL    HW118419   1.909   3.465   2.664 -0.7846  3.0494  0.3260
 2261SOL    HW218420   2.060   3.470   2.645 -0.9807 -0.2431  1.3347
 2262SOL     OW18421   3.541   0.070   2.421  0.6108 -0.1522  0.2676
 2262SOL    HW118422   3.513   4.714   2.429 -1.0511  0.2070 -1.4982
 2262SOL    HW218423   3.519   0.103   2.509 -0.9300  1.7781 -0.8404
 2263SOL     OW18424   1.133   4.651   3.622 -0.1448  0.6268  0.0636
 2263SOL    HW118425   1.038   4.663   3.630 -0.0622 -0.3062  2.3781
 2263SOL    HW218426   1.166   4.647   3.711  1.0440  4.5021 -0.2161
 2264SOL     OW18427   3.547   0.895   9.357  0.2821  0.2172 -0.0382
 2264SOL    HW118428   3.487   0.889   9.431  2.2957 -1.1957  1.4955
 2264SOL    HW218429   3.484   0.933   9.295  0.7674  0.8811 -0.1335
 2265SOL     OW18430   0.294   2.227   1.714  0.4853  0.8249 -0.7248
 2265SOL    HW118431   0.224   2.221   1.779  0.1894  0.9492 -1.0386
 2265SOL    HW218432   0.319   2.137   1.696  0.3344  0.3219  1.5029
 2266SOL     OW18433   1.195   3.976   7.393 -0.1619  0.1800 -0.3453
 2266SOL    HW118434   1.260   3.907   7.404 -0.8506 -0.6101 -1.1845
 2266SOL    HW218435   1.193   3.982   7.298  0.7412 -2.1821 -0.5008
 2267SOL     OW18436   3.053   0.161   7.888 -0.0284 -0.5233  0.1545
 2267SOL    HW118437   3.066   0.223   7.816 -2.5196 -0.6286 -0.3734
 2267SOL    HW218438   3.142   0.170   7.923  0.0641 -0.2657 -0.1459
 2268SOL     OW18439   2.481   1.925   5.149 -0.5631  0.3114  0.2771
 2268SOL    HW118440   2.563   1.882   5.124 -1.0252  0.1776 -1.0222
 2268SOL    HW218441   2.473   1.912   5.243 -3.2933  1.6059  0.2210
 2269SOL     OW18442   2.006   2.102  16.012 -0.1766 -0.2204 -0.0310
 2269SOL    HW118443   2.045   2.020  15.980 -0.6668 -0.8208  0.8883
 2269SOL    HW218444   2.020   2.162  15.939 -2.1919  2.0730  1.4851
 2270SOL     OW18445   0.690   4.300   2.877 -0.3507  0.1757 -0.0152
 2270SOL    HW118446   0.686   4.389   2.840  1.9791 -0.5414 -1.9801
 2270SOL    HW218447   0.770   4.271   2.834 -1.3064  0.1426 -1.7681
 2271SOL     OW18448   1.666   1.947  11.501 -0.3300  0.0503  0.7781
 2271SOL    HW118449   1.671   1.941  11.596 -1.0642  1.5565  0.9117
 2271SOL    HW218450   1.744   2.002  11.494  0.9051 -1.4904  2.4296
 2272SOL     OW18451   0.039   4.204   7.905 -0.1972 -0.0497  0.0567
 2272SOL    HW118452   0.107   4.271   7.904 -1.5550  1.3712  1.6763
 2272SOL    HW218453   0.053   4.163   7.820  1.8852  0.1824  0.2740
 2273SOL     OW18454   2.547   4.238   0.993  0.1419  0.3453  0.7188
 2273SOL    HW118455   2.555   4.202   1.081  2.6070  1.5403  0.9962
 2273SOL    HW218456   2.637   4.267   0.977 -0.6456  0.7545 -2.9939
 2274SOL     OW18457   0.972   4.560   5.529 -0.0226 -0.1595  0.1548
 2274SOL    HW118458   0.943   4.651   5.533  2.1229  0.4742  0.7567
 2274SOL    HW218459   0.994   4.556   5.436 -0.0878 -0.6495  0.1599
 2275SOL     OW18460   2.333   2.968  15.570 -0.0441 -1.4374 -0.5456
 2275SOL    HW118461   2.352   3.026  15.644 -0.2551 -0.3559 -1.3395
 2275SOL    HW218462   2.384   3.009  15.500  0.6615 -0.3734  0.5821
 2276SOL     OW18463   0.291   3.196   5.537  0.5860 -0.4331 -0.1686
 2276SOL    HW118464   0.208   3.182   5.492  1.2199 -0.2450 -1.3745
 2276SOL    HW218465   0.271   3.165   5.625  0.9665 -0.1981  0.0031
 2277SOL     OW18466   2.111   4.082  14.083 -0.6848 -0.3415 -0.1735
 2277SOL    HW118467   2.120   4.155  14.023  2.4372  1.8441  2.9665
 2277SOL    HW218468   2.159   4.019  14.029  1.1616 -0.6270  1.8001
 2278SOL     OW18469   1.581   2.305  17.467  0.1818  0.5476  0.5924
 2278SOL    HW118470   1.617   2.222  17.499 -2.5323 -0.8998 -0.1768
 2278SOL    HW218471   1.557   2.350  17.548  1.0144 -0.1439  1.2303
 2279SOL     OW18472   0.558   3.779   5.665  0.0047  0.1700 -0.2813
 2279SOL    HW118473   0.596   3.838   5.600  0.4597 -0.0633 -0.2255
 2279SOL    HW218474   0.614   3.809   5.737 -0.5839  1.3023 -0.2962
 2280SOL     OW18475   3.418   0.104   2.154 -0.5988  0.1241 -0.0806
 2280SOL    HW118476   3.455   0.115   2.241  1.3657 -0.6069 -0.8293
 2280SOL    HW218477   3.429   0.015   2.119  1.1477  0.0394  0.7072
 2281SOL     OW18478   4.066   0.531   8.124 -0.0843  0.2413  0.0072
 2281SOL    HW118479   4.017   0.481   8.190  2.7502 -0.3655  1.6284
 2281SOL    HW218480   4.003   0.602   8.111 -0.5421 -0.2485 -0.4609
 2282SOL     OW18481   3.910   2.822   3.475 -0.7388 -0.2890 -0.0260
 2282SOL    HW118482   3.968   2.852   3.405  0.7551  0.8064  1.6554
 2282SOL    HW218483   3.856   2.756   3.433 -1.4053 -0.4601  1.0921
 2283SOL     OW18484   3.286   3.315   3.387 -0.1824 -0.0609  0.5015
 2283SOL    HW118485   3.238   3.249   3.336  0.6697  0.0221 -0.4161
 2283SOL    HW218486   3.350   3.342   3.320  0.7839 -0.5811  1.2086
 2284SOL     OW18487   2.701   2.042   8.435  0.7083 -0.1804  0.4212
 2284SOL    HW118488   2.649   2.073   8.361  1.0664  1.2496  0.7717
 2284SOL    HW218489   2.729   2.124   8.477 -0.0782  1.4348 -2.2009
 2285SOL     OW18490   4.198   3.952   7.900  0.2665  0.7139  0.0806
 2285SOL    HW118491   4.158   4.019   7.845 -1.0031  0.5278  0.7907
 2285SOL    HW218492   4.290   3.978   7.889  0.1190  0.9526 -0.5899
 2286SOL     OW18493   4.389   4.232   6.909 -0.3336 -0.5116  0.3416
 2286SOL    HW118494   4.353   4.306   6.957 -0.1114  0.3694 -0.8425
 2286SOL    HW218495   4.373   4.261   6.819  2.2432 -3.9127 -1.2088
 2287SOL     OW18496   0.696   2.543   5.539  0.1787 -0.5877  0.2305
 2287SOL    HW118497   0.646   2.477   5.491 -0.2328 -0.3196  0.2827
 2287SOL    HW218498   0.770   2.488   5.563  1.1242  0.6811  0.1932
 2288SOL     OW18499   0.059   1.900  17.459 -0.9118 -0.1401 -0.4699
 2288SOL    HW118500   0.008   1.977  17.484 -0.2273  0.1851 -0.0675
 2288SOL    HW218501   4.717   1.842  17.454 -1.9200  1.3079 -1.7578
 2289SOL     OW18502   3.374   0.935   0.414  0.3984  0.1391  0.1971
 2289SOL    HW118503   3.428   0.868   0.456 -0.5384  0.1440  1.4104
 2289SOL    HW218504   3.430   1.011   0.430  0.9045  0.5568 -3.4867
 2290SOL     OW18505   4.497   2.208   2.360  0.6116 -0.1548 -0.0950
 2290SOL    HW118506   4.464   2.150   2.429  1.5380  0.2386  0.6778
 2290SOL    HW218507   4.556   2.264   2.410  0.3201 -2.1784  2.5109
 2291SOL     OW18508   0.903   2.672   7.142  0.1174 -0.4493 -0.0017
 2291SOL    HW118509   0.919   2.599   7.081  0.6685 -0.5838  0.3032
 2291SOL    HW218510   0.924   2.750   7.091 -1.9185 -0.1585 -0.3972
 2292SOL     OW18511   3.427   3.478   8.969 -0.2582  0.8681 -0.4353
 2292SOL    HW118512   3.335   3.465   8.946 -0.6351 -1.5779  2.4318
 2292SOL    HW218513   3.436   3.416   9.041 -1.3588 -1.3931 -2.2425
 2293SOL     OW18514   2.947   3.208   5.740  0.3019  0.2046  0.0607
 2293SOL    HW118515   2.955   3.113   5.726  0.6481  0.2988 -0.4070
 2293SOL    HW218516   2.985   3.243   5.659  0.1639  1.0032  0.3415
 2294SOL     OW18517   1.179   2.662  12.532  0.1910  0.0835  0.0900
 2294SOL    HW118518   1.094   2.705  12.532  0.0900 -0.0950 -0.9696
 2294SOL    HW218519   1.179   2.635  12.623  0.0616 -0.7965 -0.1692
 2295SOL     OW18520   2.336   3.514   7.914 -0.4317  0.0079  0.1957
 2295SOL    HW118521   2.269   3.460   7.957 -1.5379  0.8207 -0.5031
 2295SOL    HW218522   2.408   3.467   7.955 -1.1748 -1.8586 -0.6401
 2296SOL     OW18523   3.811   4.671   8.050 -0.5000 -0.7868  0.6191
 2296SOL    HW118524   3.813   0.029   8.072  0.3921 -0.3431 -1.3109
 2296SOL    HW218525   3.813   4.636   8.139 -2.6742  1.6004  1.5811
 2297SOL     OW18526   2.671   0.218   7.049 -0.2081  0.0171 -0.3587
 2297SOL    HW118527   2.763   0.203   7.074 -0.2943 -1.0401 -0.6608
 2297SOL    HW218528   2.664   0.301   7.096  0.7596 -0.2673  0.3033
 2298SOL     OW18529   0.133   0.889   2.514 -0.0419  0.1499  0.0744
 2298SOL    HW118530   0.227   0.906   2.521 -0.4650  2.0822  1.1359
 2298SOL    HW218531   0.103   0.858   2.599  0.8121 -0.9684 -0.0383
 2299SOL     OW18532   2.061   0.571   3.308 -0.4698  0.2465 -0.0913
 2299SOL    HW118533   1.971   0.585   3.279 -1.0798 -0.7558  1.3087
 2299SOL    HW218534   2.110   0.547   3.230  0.8585  0.5275  0.6548
 2300SOL     OW18535   2.533   2.145  10.040 -1.0929  0.3063  0.9661
 2300SOL    HW118536   2.600   2.149  10.108  1.4432 -0.4623 -1.5015
 2300SOL    HW218537   2.464   2.188  10.091 -0.6797  0.3574  1.4803
 2301SOL     OW18538   0.872   2.234   2.826  0.3967  0.4864  0.0719
 2301SOL    HW118539   0.786   2.196   2.845  0.1012  0.7733 -0.6818
 2301SOL    HW218540   0.920   2.182   2.891  0.2655  0.0527 -0.1764
 2302SOL     OW18541   1.888   4.110   5.242 -0.0024  0.2808  0.2978
 2302SOL    HW118542   1.910   4.203   5.243 -1.3841  0.6033  0.8081
 2302SOL    HW218543   1.911   4.085   5.331 -1.0671  1.3150  0.8563
 2303SOL     OW18544   4.265   2.197   9.502 -0.2878 -0.4587  0.2391
 2303SOL    HW118545   4.350   2.186   9.544 -1.1338 -0.8261  1.8404
 2303SOL    HW218546   4.282   2.263   9.435  0.4627  0.4975  1.3772
 2304SOL     OW18547   3.095   1.637   7.866 -0.1672  0.0212 -0.1093
 2304SOL    HW118548   3.184   1.609   7.889 -0.2228 -1.0667 -1.2511
 2304SOL    HW218549   3.043   1.607   7.941 -1.9169  0.7886 -1.0177
 2305SOL     OW18550   3.044   3.508   2.969  0.3888  0.6368 -0.1321
 2305SOL    HW118551   3.037   3.423   3.011 -1.4198 -0.0739 -1.8904
 2305SOL    HW218552   2.970   3.560   3.002  1.7543  2.3850  0.1590
 2306SOL     OW18553   0.431   2.304   4.308  0.3558  0.2591  0.5315
 2306SOL    HW118554   0.378   2.346   4.375 -0.2613  1.3113 -0.6247
 2306SOL    HW218555   0.428   2.212   4.333 -0.2304  0.1559  0.0588
 2307SOL     OW18556   0.388   4.519   8.470  0.2590  0.4114  0.0118
 2307SOL    HW118557   0.303   4.552   8.442  0.8131  1.2112 -0.7423
 2307SOL    HW218558   0.402   4.580   8.542  0.6044  0.6886 -0.2866
 2308SOL     OW18559   3.230   0.310   7.439  0.5377 -0.0162  0.0232
 2308SOL    HW118560   3.206   0.279   7.352  0.2132  0.0856  0.0774
 2308SOL    HW218561   3.287   0.385   7.426  1.0991  0.0868  3.1156
 2309SOL     OW18562   2.998   4.569   2.420 -0.5545  0.1764  0.2564
 2309SOL    HW118563   3.049   4.647   2.443 -0.9590  0.5443 -0.1070
 2309SOL    HW218564   3.062   4.505   2.452 -0.6262 -1.7431 -3.4146
 2310SOL     OW18565   3.928   0.739   3.601 -0.0285 -0.6276 -0.3803
 2310SOL    HW118566   3.966   0.716   3.516  3.9138 -1.7277  1.7006
 2310SOL    HW218567   4.009   0.719   3.646  0.1699  2.3166  0.6121
 2311SOL     OW18568   2.662   1.700   5.097  0.7016  0.6508  0.2844
 2311SOL    HW118569   2.709   1.619   5.120  1.1943  1.1231  0.9407
 2311SOL    HW218570   2.606   1.662   5.029 -0.0748 -0.7600  1.7086
 2312SOL     OW18571   0.602   2.145   4.102 -0.1971 -0.8516  0.3862
 2312SOL    HW118572   0.648   2.228   4.116  1.0333 -1.0427 -2.5436
 2312SOL    HW218573   0.525   2.187   4.062 -0.4166 -0.8822  0.7806
 2313SOL     OW18574   0.584   0.848   4.130 -0.0405  0.4053  0.5106
 2313SOL    HW118575   0.680   0.849   4.134  0.0292  1.9012 -1.1756
 2313SOL    HW218576   0.575   0.786   4.058 -0.1715 -0.8627  1.6413
 2314SOL     OW18577   3.596   0.800   7.310  0.8015  0.7511 -0.7112
 2314SOL    HW118578   3.675   0.772   7.356 -0.3004  1.1376  1.3981
 2314SOL    HW218579   3.581   0.890   7.338 -2.4751 -0.7914  2.4898
 2315SOL     OW18580   3.860   0.656   6.336  0.1329  0.1655  0.0181
 2315SOL    HW118581   3.834   0.565   6.317  0.0886 -0.0929  1.3006
 2315SOL    HW218582   3.951   0.636   6.359 -0.3959 -0.2598  1.6866
 2316SOL     OW18583   3.243   2.696  11.709  0.1468 -0.1360  0.2289
 2316SOL    HW118584   3.220   2.718  11.619  2.6843 -0.0318 -0.4081
 2316SOL    HW218585   3.315   2.756  11.727 -1.0326  1.2838  0.1860
 2317SOL     OW18586   0.700   0.950   4.950  0.5795 -0.9658 -0.2515
 2317SOL    HW118587   0.705   0.966   4.856  0.5262 -0.0306 -0.1024
 2317SOL    HW218588   0.791   0.947   4.980  1.2922  0.5352 -2.2887
 2318SOL     OW18589   2.750   2.256   2.203 -0.4550 -0.4056  0.2063
 2318SOL    HW118590   2.756   2.166   2.170 -2.0627  1.0488 -4.0749
 2318SOL    HW218591   2.670   2.246   2.254 -1.9053 -2.5290 -2.4814
 2319SOL     OW18592   0.635   2.879   8.580 -0.0277  0.1740 -0.3209
 2319SOL    HW118593   0.655   2.795   8.538  2.5380  0.2893  0.7271
 2319SOL    HW218594   0.540   2.878   8.595 -0.4760 -0.2577 -3.0437
 2320SOL     OW18595   3.507   1.218   3.399  0.0815 -0.1050  0.1993
 2320SOL    HW118596   3.489   1.269   3.319  2.0966  0.5037  0.1423
 2320SOL    HW218597   3.438   1.152   3.406  0.9547 -0.9752  0.5017
 2321SOL     OW18598   0.424   3.013   6.381  0.5242 -0.6322  0.0009
 2321SOL    HW118599   0.519   3.020   6.394  0.0439 -0.6384  3.3777
 2321SOL    HW218600   0.399   3.083   6.440  0.8575 -1.0941  0.6980
 2322SOL     OW18601   3.821   3.738   8.504 -0.4480 -0.6511 -0.6860
 2322SOL    HW118602   3.779   3.677   8.443 -1.0610  0.6433 -1.5604
 2322SOL    HW218603   3.830   3.684   8.582 -1.1579 -1.6447 -1.2826
 2323SOL     OW18604   2.967   4.500  15.217  0.1777 -0.0502  0.6287
 2323SOL    HW118605   2.920   4.417  15.230 -0.3765 -0.1541 -2.1199
 2323SOL    HW218606   3.041   4.468  15.166  0.0246 -0.0868  0.4289
 2324SOL     OW18607   2.614   1.338  10.835  0.0107 -0.1951  0.2477
 2324SOL    HW118608   2.557   1.397  10.787  0.8966  0.9790  0.6475
 2324SOL    HW218609   2.685   1.395  10.863 -0.5714 -0.1061  1.5555
 2325SOL     OW18610   2.020   3.544   0.308 -0.4798 -0.1905  0.3116
 2325SOL    HW118611   2.046   3.635   0.292 -2.2275  0.7758  2.9511
 2325SOL    HW218612   2.005   3.541   0.402 -1.8088  4.2144  0.2264
 2326SOL     OW18613   0.805   4.049   7.529  0.9640 -0.3012  0.0447
 2326SOL    HW118614   0.758   4.017   7.452  0.4663  2.3931 -0.7768
 2326SOL    HW218615   0.804   3.969   7.581 -2.3769 -0.8355 -0.8603
 2327SOL     OW18616   3.000   1.413   5.626  0.2843  0.1661 -0.3018
 2327SOL    HW118617   2.929   1.471   5.652  0.6045  1.0171 -1.3073
 2327SOL    HW218618   2.979   1.400   5.534  2.3119  0.5861 -0.8374
 2328SOL     OW18619   3.664   2.898   5.084  0.2155 -0.1028 -0.1255
 2328SOL    HW118620   3.704   2.912   4.998 -2.1332 -0.4719 -1.2769
 2328SOL    HW218621   3.614   2.818   5.067  0.7136 -0.5863  0.6793
 2329SOL     OW18622   1.493   3.183   4.702 -0.1646  0.2393  0.4199
 2329SOL    HW118623   1.411   3.167   4.748 -0.3304 -0.2992 -0.0643
 2329SOL    HW218624   1.454   3.253   4.650  0.0071  1.9692  2.6047
 2330SOL     OW18625   3.335   2.307   9.664 -0.3159 -0.4824  0.2378
 2330SOL    HW118626   3.427   2.280   9.665 -0.6180 -1.5678 -1.6396
 2330SOL    HW218627   3.342   2.382   9.724 -0.9257 -0.0080 -0.2757
 2331SOL     OW18628   4.136   2.475   8.065 -0.1179  0.2890  0.3548
 2331SOL    HW118629   4.157   2.446   7.976 -0.2958  1.6229 -0.1170
 2331SOL    HW218630   4.044   2.503   8.060 -0.1268  0.3617  0.9758
 2332SOL     OW18631   4.045   1.925   9.374 -0.4056 -0.8510  0.1409
 2332SOL    HW118632   4.117   1.913   9.311 -1.1373 -2.6048 -0.3578
 2332SOL    HW218633   4.016   1.834   9.381 -0.6120 -0.7751  0.2865
 2333SOL     OW18634   2.667   2.604   0.026  0.1081 -0.1935  0.1411
 2333SOL    HW118635   2.599   2.641  17.708 -1.0515  1.2780  2.5136
 2333SOL    HW218636   2.673   2.519  17.721 -0.5773  0.9630 -2.2716
 2334SOL     OW18637   2.937   3.654  12.417 -0.1943 -0.1363  0.3640
 2334SOL    HW118638   2.849   3.684  12.441  0.3508  1.2111  0.6641
 2334SOL    HW218639   2.941   3.716  12.344  0.5181  0.7068  1.1247
 2335SOL     OW18640   2.537   3.862   1.290 -0.5469 -0.0884  0.2970
 2335SOL    HW118641   2.467   3.915   1.253  1.8039  2.7351 -0.1468
 2335SOL    HW218642   2.566   3.809   1.216 -1.3076  0.0236 -0.0730
 2336SOL     OW18643   0.700   3.537   8.003 -0.4270 -0.0022 -0.8232
 2336SOL    HW118644   0.712   3.460   8.059 -0.2502  1.9740  1.8557
 2336SOL    HW218645   0.620   3.572   8.043 -0.2187 -1.4741  0.9222
 2337SOL     OW18646   1.575   1.344   9.640 -0.2291  0.1447 -0.4129
 2337SOL    HW118647   1.643   1.411   9.638  2.0640 -2.3157 -3.2252
 2337SOL    HW218648   1.529   1.359   9.723  0.1783  0.6898 -0.2886
 2338SOL     OW18649   1.161   4.354   9.728  0.4201 -0.0468  0.1580
 2338SOL    HW118650   1.147   4.446   9.747 -0.3102  0.1357 -1.3018
 2338SOL    HW218651   1.213   4.321   9.802  1.1704 -1.6148 -1.0762
 2339SOL     OW18652   3.564   0.627   5.249  0.7839 -0.5737 -0.1145
 2339SOL    HW118653   3.478   0.638   5.210  0.5801  1.8543  1.0530
 2339SOL    HW218654   3.606   0.713   5.257 -0.1003 -0.1526 -0.0602
 2340SOL     OW18655   4.624   2.565   8.369 -0.6506 -0.0809  0.6540
 2340SOL    HW118656   4.531   2.561   8.388 -1.0265 -0.9986 -1.4592
 2340SOL    HW218657   4.647   2.619   8.445  1.0043  0.7293 -0.4056
 2341SOL     OW18658   4.553   2.832  10.352  0.0128  0.0234 -0.5503
 2341SOL    HW118659   4.546   2.828  10.257  0.0125 -0.0766 -0.5457
 2341SOL    HW218660   4.609   2.909  10.352 -0.2607  0.2310  0.0787
 2342SOL     OW18661   1.510   3.061   2.086  0.3581  0.7458 -0.1693
 2342SOL    HW118662   1.511   3.126   2.155  0.9645 -1.2308  1.6914
 2342SOL    HW218663   1.419   3.032   2.100  0.2412  0.4776 -1.4771
 2343SOL     OW18664   0.537   0.439  12.268 -0.1000  0.1777  0.6272
 2343SOL    HW118665   0.575   0.527  12.268 -0.7345  0.4480  1.4359
 2343SOL    HW218666   0.604   0.391  12.317  1.1008 -0.0658 -1.2679
 2344SOL     OW18667   2.123   2.819   9.648  0.7120 -0.0056  0.0088
 2344SOL    HW118668   2.176   2.896   9.629  1.9632 -0.7794  0.3264
 2344SOL    HW218669   2.150   2.745   9.593  2.9526  0.1367  0.9185
 2345SOL     OW18670   1.691   3.984   8.710  0.0359 -0.5297 -0.3810
 2345SOL    HW118671   1.782   3.956   8.702 -0.1099 -0.8169 -1.0397
 2345SOL    HW218672   1.667   3.954   8.798 -1.6487  0.8345 -0.3717
 2346SOL     OW18673   0.642   2.697   4.176  0.2830  0.0356  0.7957
 2346SOL    HW118674   0.667   2.709   4.267  1.5675  2.0492  0.1892
 2346SOL    HW218675   0.646   2.785   4.138 -2.1314  1.1517  3.1267
 2347SOL     OW18676   1.803   3.601  15.273 -0.4679 -0.1892  0.3657
 2347SOL    HW118677   1.745   3.645  15.211  0.9101 -0.2971 -0.9925
 2347SOL    HW218678   1.799   3.663  15.346 -0.2453  0.0414  0.1848
 2348SOL     OW18679   4.204   0.648   7.023 -0.2243  0.0809  0.1029
 2348SOL    HW118680   4.209   0.589   7.098  2.8858 -1.5723 -1.3902
 2348SOL    HW218681   4.153   0.722   7.054 -0.1223 -0.1758  0.8703
 2349SOL     OW18682   3.176   2.794   1.527 -0.0714  0.2608  0.5472
 2349SOL    HW118683   3.153   2.823   1.439 -1.9722  1.8049  1.5530
 2349SOL    HW218684   3.261   2.752   1.512 -0.0059  0.3492  0.6648
 2350SOL     OW18685   3.316   4.715   2.903 -0.5375 -0.1599 -0.1264
 2350SOL    HW118686   3.368   4.635   2.887  1.2395  1.5758 -3.0444
 2350SOL    HW218687   3.335   0.027   2.821 -2.0472 -0.7030 -0.7862
 2351SOL     OW18688   1.389   4.096   2.631 -0.4128 -0.1325 -0.1066
 2351SOL    HW118689   1.298   4.068   2.623 -0.6375  0.5627  0.0099
 2351SOL    HW218690   1.393   4.166   2.565 -1.6633  0.5138  0.4949
 2352SOL     OW18691   0.086   3.353   3.034  0.0228 -0.2524 -0.1043
 2352SOL    HW118692   0.084   3.261   3.006 -0.2317 -0.0087 -0.8714
 2352SOL    HW218693   0.109   3.401   2.955 -1.1058 -0.2110 -0.4054
 2353SOL     OW18694   3.188   4.389   5.845 -0.4444  0.7403 -0.7464
 2353SOL    HW118695   3.215   4.444   5.771 -0.0155  1.6172  0.0705
 2353SOL    HW218696   3.151   4.457   5.902 -1.6777 -2.0588  1.8096
 2354SOL     OW18697   0.492   0.910   2.011  0.1618  0.1708  0.1478
 2354SOL    HW118698   0.407   0.878   1.981 -0.2570 -0.9686  2.5414
 2354SOL    HW218699   0.542   0.919   1.930  0.6906  2.3861  0.7273
 2355SOL     OW18700   2.098   4.228   3.300  0.5594 -0.1878  0.0359
 2355SOL    HW118701   2.060   4.315   3.284 -0.6743 -0.8647 -0.7072
 2355SOL    HW218702   2.095   4.185   3.214 -0.2863 -2.8058  1.3760
 2356SOL     OW18703   1.294   1.828   6.762 -0.2777  0.4485  0.4993
 2356SOL    HW118704   1.213   1.780   6.747 -0.3781  0.0076  2.3799
 2356SOL    HW218705   1.298   1.889   6.689  0.0815 -1.8815 -1.4143
 2357SOL     OW18706   3.569   4.167   5.379 -0.3540  0.4921  0.0388
 2357SOL    HW118707   3.612   4.216   5.449  1.9527  1.2683 -1.9024
 2357SOL    HW218708   3.540   4.237   5.320 -2.5734  0.9750  1.7218
 2358SOL     OW18709   3.109   1.807   8.737  0.8945  0.2309 -0.0935
 2358SOL    HW118710   3.019   1.839   8.732  1.2500  1.2138 -0.3156
 2358SOL    HW218711   3.126   1.791   8.644  1.2452  0.6226 -0.0980
 2359SOL     OW18712   1.744   0.175   0.666 -0.1391  0.3720  0.2786
 2359SOL    HW118713   1.746   0.260   0.622  0.3934  0.6294  0.8084
 2359SOL    HW218714   1.729   0.121   0.588  0.8112 -3.2814  2.6592
 2360SOL     OW18715   2.282   4.444   2.483  0.5464  0.0747  0.8797
 2360SOL    HW118716   2.282   4.424   2.576 -0.6389 -1.0938  0.6436
 2360SOL    HW218717   2.194   4.478   2.466  0.8610  0.6161  0.3223
 2361SOL     OW18718   2.043   0.718  15.609 -0.0114 -0.1407 -0.2946
 2361SOL    HW118719   2.032   0.771  15.530  1.5672 -1.4053 -1.3649
 2361SOL    HW218720   2.129   0.677  15.599  0.0159 -0.2589  0.4385
 2362SOL     OW18721   1.697   3.833   7.538  0.5887 -0.2173  0.0483
 2362SOL    HW118722   1.732   3.769   7.600  1.1425 -1.1229 -1.1863
 2362SOL    HW218723   1.735   3.914   7.572  0.2707  0.4094 -1.0705
 2363SOL     OW18724   0.974   4.618   8.184 -0.0347  0.1267 -0.2042
 2363SOL    HW118725   0.960   4.532   8.144  1.0230  0.1336 -0.6139
 2363SOL    HW218726   0.906   4.669   8.140 -1.6484 -0.5867  1.4839
 2364SOL     OW18727   4.698   4.399   0.934 -0.3692 -0.7421 -0.3815
 2364SOL    HW118728   4.636   4.462   0.897  0.4143 -0.3569 -1.0359
 2364SOL    HW218729   4.726   4.452   1.008  0.7432  0.1779 -1.4647
 2365SOL     OW18730   3.290   2.306   5.396  0.8756  0.1089  0.3255
 2365SOL    HW118731   3.287   2.399   5.370  2.0798  0.6087  1.9711
 2365SOL    HW218732   3.366   2.296   5.453  1.8613  3.6867 -0.3690
 2366SOL     OW18733   1.268   2.050   7.258 -0.1704 -0.1650 -0.9591
 2366SOL    HW118734   1.314   2.051   7.175 -0.5242 -1.0965 -1.1638
 2366SOL    HW218735   1.230   2.138   7.261  0.5772  0.0936  0.9864
 2367SOL     OW18736   0.010   1.003   7.004 -0.2500  0.0257 -0.1161
 2367SOL    HW118737   4.662   1.046   7.026 -0.3022  0.6795 -1.5429
 2367SOL    HW218738   0.067   1.038   7.073 -0.2976  0.1009 -0.1149
 2368SOL     OW18739   3.149   4.003  14.323  0.2510 -0.0971  0.3112
 2368SOL    HW118740   3.133   3.911  14.301  0.7628 -0.8663  3.1080
 2368SOL    HW218741   3.140   4.007  14.418 -0.1081  0.4563  0.2525
 2369SOL     OW18742   1.958   3.707   2.971  0.4848 -0.3085  0.1694
 2369SOL    HW118743   1.945   3.707   3.066 -0.5972  1.0855  0.0280
 2369SOL    HW218744   1.909   3.787   2.952  0.4519 -0.0308  1.3882
 2370SOL     OW18745   3.708   1.245   3.694  0.1927  0.4762 -0.0568
 2370SOL    HW118746   3.778   1.288   3.646  1.4563  0.2248  1.5428
 2370SOL    HW218747   3.703   1.165   3.641  0.4593  2.6093 -3.2880
 2371SOL     OW18748   3.733   4.720   6.785  0.0973  0.1674  0.1928
 2371SOL    HW118749   3.698   0.015   6.869  3.9596 -0.2022  1.9440
 2371SOL    HW218750   3.652   4.733   6.736 -1.2831 -1.3739  2.1186
 2372SOL     OW18751   4.288   3.744   3.772  0.3836  0.1997  0.3391
 2372SOL    HW118752   4.302   3.700   3.688  0.1774 -0.4829  0.6616
 2372SOL    HW218753   4.281   3.671   3.834 -1.9439 -1.1604 -1.5285
 2373SOL     OW18754   4.221   2.997   8.691 -0.1082 -0.1371 -0.7587
 2373SOL    HW118755   4.268   3.069   8.649  0.6178  0.5578  1.2686
 2373SOL    HW218756   4.279   2.988   8.767 -0.0585  0.6702 -0.7048
 2374SOL     OW18757   1.831   1.405   1.578 -0.2644 -0.3803  0.3034
 2374SOL    HW118758   1.830   1.311   1.560  0.3308  0.0073 -1.7206
 2374SOL    HW218759   1.737   1.424   1.572  0.4357  3.6368  1.7527
 2375SOL     OW18760   0.679   3.540   7.054  0.0373  0.5360 -0.1261
 2375SOL    HW118761   0.609   3.560   6.991  0.6868  1.4613 -0.5562
 2375SOL    HW218762   0.746   3.584   7.003  0.5177  1.1411  1.0281
 2376SOL     OW18763   3.643   0.815   4.305 -0.0858  0.3408 -0.5603
 2376SOL    HW118764   3.716   0.876   4.298  0.5388 -0.5577 -1.7211
 2376SOL    HW218765   3.677   0.726   4.302  1.3748  0.9587 -2.4507
 2377SOL     OW18766   2.837   3.227   7.688  0.6520 -0.5735 -0.2606
 2377SOL    HW118767   2.865   3.224   7.597 -0.5923 -0.3034 -0.6441
 2377SOL    HW218768   2.787   3.307   7.676 -0.8389 -1.7597 -1.9466
 2378SOL     OW18769   1.341   3.343  11.266 -0.8027 -0.4496 -0.3656
 2378SOL    HW118770   1.336   3.294  11.348 -3.7526 -0.2706 -0.4500
 2378SOL    HW218771   1.426   3.386  11.276  0.0277 -2.2013  0.2991
 2379SOL     OW18772   2.710   4.578   3.425  0.2895 -0.3497  0.5483
 2379SOL    HW118773   2.643   4.580   3.357  2.5229 -0.3516 -1.6659
 2379SOL    HW218774   2.744   4.668   3.428 -1.0895  0.2424 -2.2397
 2380SOL     OW18775   0.358   3.075   3.810  0.3019 -0.1069  0.0732
 2380SOL    HW118776   0.371   3.138   3.881 -2.6021 -0.5576  1.0106
 2380SOL    HW218777   0.402   3.125   3.742  0.2953  0.1839  0.2852
 2381SOL     OW18778   4.183   2.696   5.376  0.6149 -0.6253 -0.5505
 2381SOL    HW118779   4.101   2.744   5.364  0.9158 -0.0420 -0.3070
 2381SOL    HW218780   4.247   2.761   5.345 -0.4881  1.0694  0.7302
 2382SOL     OW18781   1.283   2.971   6.882 -0.2978  0.9445 -0.1276
 2382SOL    HW118782   1.195   2.937   6.895  0.0230  0.5648  1.0692
 2382SOL    HW218783   1.322   2.897   6.835  0.3273 -0.5009  2.6855
 2383SOL     OW18784   4.297   2.467   8.704  0.0668 -0.3234 -0.4336
 2383SOL    HW118785   4.360   2.525   8.746  0.6547  0.1598 -1.9780
 2383SOL    HW218786   4.228   2.463   8.771  1.7072 -3.0954  1.0951
 2384SOL     OW18787   1.216   0.455   6.190 -0.4644 -0.1315  0.2694
 2384SOL    HW118788   1.197   0.541   6.227  0.5915  0.6340 -0.9996
 2384SOL    HW218789   1.131   0.425   6.157 -1.1409 -0.6990  2.5044
 2385SOL     OW18790   3.672   4.299   6.745 -0.1287  0.7482 -0.0296
 2385SOL    HW118791   3.672   4.378   6.800 -1.0721  1.7458 -1.4750
 2385SOL    HW218792   3.605   4.248   6.791 -0.7350  0.6026 -1.0975
 2386SOL     OW18793   0.833   4.019   5.048 -0.7333 -0.6034 -0.4610
 2386SOL    HW118794   0.761   4.071   5.014 -1.1045 -1.7948 -1.5097
 2386SOL    HW218795   0.899   4.033   4.980  0.3052 -2.6111  0.1044
 2387SOL     OW18796   0.296   2.171   3.290 -0.4237 -0.1800  0.1563
 2387SOL    HW118797   0.247   2.192   3.369 -1.0954  0.5600 -0.4461
 2387SOL    HW218798   0.284   2.077   3.292 -2.6287  0.1405  1.6256
 2388SOL     OW18799   2.347   2.650  13.384  0.1208  0.1341  0.7925
 2388SOL    HW118800   2.370   2.743  13.373 -1.9026  0.8473  2.4877
 2388SOL    HW218801   2.278   2.652  13.450 -1.3076 -0.1970 -0.6869
 2389SOL     OW18802   1.421   1.296   2.961  0.2724 -0.1508  0.3670
 2389SOL    HW118803   1.424   1.346   2.879 -0.0750 -1.5171 -0.4728
 2389SOL    HW218804   1.330   1.311   2.987  0.6748 -0.0855  1.7315
 2390SOL     OW18805   2.005   2.532   2.222  0.5727 -0.0254  0.0821
 2390SOL    HW118806   1.952   2.530   2.302  0.9032  0.7723  0.3165
 2390SOL    HW218807   2.086   2.483   2.238  0.6699  0.2662  0.5005
 2391SOL     OW18808   2.859   0.753   0.183 -0.2323  0.8609 -0.5195
 2391SOL    HW118809   2.881   0.714   0.268  1.5992  1.9751 -0.4833
 2391SOL    HW218810   2.949   0.764   0.152 -0.1726 -0.1493 -0.7173
 2392SOL     OW18811   4.100   3.628   5.288 -0.5282 -0.0878  0.2624
 2392SOL    HW118812   4.013   3.667   5.274 -0.1481  0.9406  0.7676
 2392SOL    HW218813   4.149   3.636   5.206  0.1678 -0.8573  0.6053
 2393SOL     OW18814   2.992   0.392  13.168 -0.0763 -0.2137 -0.0240
 2393SOL    HW118815   3.004   0.399  13.073 -0.8946 -0.9667 -0.1874
 2393SOL    HW218816   2.957   0.302  13.163  4.6784 -2.0841  0.5457
 2394SOL     OW18817   3.660   1.738   5.740 -0.1160 -0.1737  0.4840
 2394SOL    HW118818   3.720   1.810   5.760 -0.2732 -0.2807  1.2978
 2394SOL    HW218819   3.637   1.694   5.821 -0.3405 -0.9537 -0.0075
 2395SOL     OW18820   0.062   2.946  10.563 -0.2649  0.4166 -0.2927
 2395SOL    HW118821   0.029   2.965  10.651  2.0288 -2.1403  1.1237
 2395SOL    HW218822   0.147   2.990  10.557  1.3080 -2.5256  0.1168
 2396SOL     OW18823   4.710   0.162  13.897 -0.0989  0.3406 -0.0997
 2396SOL    HW118824   0.039   0.118  13.841 -0.8689  1.2776 -1.7361
 2396SOL    HW218825   0.026   0.230  13.942  0.8367 -1.2670  1.2598
 2397SOL     OW18826   4.408   0.897   5.514  0.4536 -0.3807  0.3770
 2397SOL    HW118827   4.457   0.962   5.464  0.7431  0.4749  1.7854
 2397SOL    HW218828   4.319   0.933   5.516  0.7036  0.3468 -1.5157
 2398SOL     OW18829   1.053   2.390   5.497 -0.2664  0.5120  0.1105
 2398SOL    HW118830   0.999   2.315   5.475 -1.3799  0.5716  2.7370
 2398SOL    HW218831   1.121   2.376   5.431 -0.0100 -1.5344  0.8122
 2399SOL     OW18832   1.804   1.523   9.373 -0.6257 -0.0610  0.0411
 2399SOL    HW118833   1.895   1.533   9.347 -0.8609 -3.4338 -2.1011
 2399SOL    HW218834   1.764   1.599   9.330  1.1991  0.3843 -0.8428
 2400SOL     OW18835   3.031   0.074   2.199 -0.1451  0.3213  0.0375
 2400SOL    HW118836   2.981   0.151   2.227 -2.9736 -1.4364 -0.1494
 2400SOL    HW218837   3.111   0.083   2.250 -0.4882 -1.6476  0.9266
 2401SOL     OW18838   0.530   2.113  12.624 -0.1182  0.5310  0.3425
 2401SOL    HW118839   0.436   2.094  12.623 -0.0505  0.2081 -0.0511
 2401SOL    HW218840   0.558   2.109  12.715  0.5706 -0.1765  0.0982
 2402SOL     OW18841   3.146   1.896   2.012  0.1439  1.0216  0.2401
 2402SOL    HW118842   3.174   1.962   2.075 -0.1495  2.7911 -1.4731
 2402SOL    HW218843   3.053   1.915   2.000  0.3190  2.2062  0.7413
 2403SOL     OW18844   3.959   0.457   4.531 -0.1927  0.4629 -0.2070
 2403SOL    HW118845   3.896   0.529   4.524 -1.4966 -0.5221  1.4114
 2403SOL    HW218846   3.979   0.444   4.624  0.2795 -0.5894 -0.4659
 2404SOL     OW18847   3.178   4.508   3.845  0.5890 -0.1821 -0.1620
 2404SOL    HW118848   3.226   4.544   3.920  0.8683 -0.5218 -0.1801
 2404SOL    HW218849   3.124   4.585   3.826  0.6319  0.1810  1.1550
 2405SOL     OW18850   4.418   1.401   4.723 -0.4117 -0.0413  0.6469
 2405SOL    HW118851   4.405   1.423   4.815  3.6097  0.5878  1.0387
 2405SOL    HW218852   4.436   1.307   4.732  0.6032 -0.2312 -3.2584
 2406SOL     OW18853   0.507   1.449   6.266  0.3934  0.1201 -0.0652
 2406SOL    HW118854   0.562   1.519   6.301 -0.1481  0.0392  0.9275
 2406SOL    HW218855   0.556   1.371   6.289  1.1452  0.7755  0.5299
 2407SOL     OW18856   3.407   1.461   2.063  0.6767  0.1816  0.2222
 2407SOL    HW118857   3.335   1.456   2.127  0.0576 -0.3730 -0.5144
 2407SOL    HW218858   3.404   1.378   2.017  0.4062  0.3118 -0.0008
 2408SOL     OW18859   2.045   0.667   0.884  0.7451  0.1029 -0.1114
 2408SOL    HW118860   2.124   0.647   0.935  0.1712  1.5705  1.3489
 2408SOL    HW218861   1.994   0.725   0.940  0.1594 -2.5249  2.0795
 2409SOL     OW18862   2.726   4.511  17.248 -0.3217 -0.0727  0.4708
 2409SOL    HW118863   2.736   4.514  17.343  2.5840 -1.1771  0.2041
 2409SOL    HW218864   2.811   4.479  17.219 -0.4594  1.5136 -1.7164
 2410SOL     OW18865   2.274   2.708   6.288 -0.2867 -0.1709 -0.2059
 2410SOL    HW118866   2.296   2.796   6.317  0.8238 -0.7063  0.5729
 2410SOL    HW218867   2.182   2.722   6.264 -0.3926  1.3881  1.1238
 2411SOL     OW18868   0.960   4.093   3.759 -0.0249 -0.4456  0.4834
 2411SOL    HW118869   0.895   4.074   3.826 -0.8220  0.1138 -0.1304
 2411SOL    HW218870   1.014   4.156   3.807  2.0315 -2.1895  0.4852
 2412SOL     OW18871   2.945   0.745   6.296 -0.9009  0.0814  0.0286
 2412SOL    HW118872   3.034   0.715   6.277 -1.4660 -1.3365 -0.4609
 2412SOL    HW218873   2.899   0.671   6.337  1.3358  0.7259  3.6368
 2413SOL     OW18874   0.057   0.393   5.566  0.4026 -0.1958 -0.2430
 2413SOL    HW118875   0.123   0.331   5.535  0.2081 -0.6839  0.3050
 2413SOL    HW218876   0.078   0.470   5.514  2.0823  0.0262  0.7630
 2414SOL     OW18877   2.583   2.348   1.124 -0.2990 -0.7772 -0.1070
 2414SOL    HW118878   2.666   2.301   1.121 -0.8119 -1.8252  2.1175
 2414SOL    HW218879   2.518   2.289   1.086 -0.2536 -0.4589 -0.6776
 2415SOL     OW18880   3.786   1.704   8.307  0.0352 -0.1572 -0.5322
 2415SOL    HW118881   3.869   1.745   8.282  0.9806 -0.9110  1.3565
 2415SOL    HW218882   3.799   1.675   8.398 -1.1448 -0.1046 -0.3537
 2416SOL     OW18883   1.862   1.370   7.402 -0.5556 -0.0186 -0.7192
 2416SOL    HW118884   1.842   1.408   7.317  0.1438 -2.4219 -1.9498
 2416SOL    HW218885   1.954   1.344   7.394 -0.4560 -1.0059  3.4750
 2417SOL     OW18886   1.004   4.701   4.578  0.1111  0.1689 -0.5840
 2417SOL    HW118887   1.094   4.691   4.547  0.8518 -1.4912  2.1021
 2417SOL    HW218888   1.024   0.033   4.644  0.3806  0.0068 -0.4985
 2418SOL     OW18889   0.762   3.443   2.208 -0.0254 -0.0540  0.0823
 2418SOL    HW118890   0.715   3.364   2.178 -1.0651 -0.2209  2.1893
 2418SOL    HW218891   0.803   3.467   2.125 -1.6805  0.1842 -0.6648
 2419SOL     OW18892   3.279   2.985   3.435  0.7482  0.4400  0.0928
 2419SOL    HW118893   3.358   3.018   3.478 -0.4891  1.7659  1.3705
 2419SOL    HW218894   3.236   2.928   3.500 -2.1168 -0.0704 -2.2451
 2420SOL     OW18895   2.004   2.742   9.897 -0.4929 -0.1066 -0.1635
 2420SOL    HW118896   2.056   2.759   9.818 -0.7094 -1.3040 -0.5595
 2420SOL    HW218897   2.046   2.813   9.947 -0.4447  0.3540 -0.8484
 2421SOL     OW18898   4.211   4.566   9.181  0.0359 -0.2804 -0.1232
 2421SOL    HW118899   4.239   4.609   9.262 -1.8974  1.6687 -0.4790
 2421SOL    HW218900   4.290   4.559   9.129  1.0828  0.2250  1.4039
 2422SOL     OW18901   4.195   3.676   7.930  0.2302 -0.0327 -0.2691
 2422SOL    HW118902   4.196   3.771   7.945 -1.1253  0.1612 -1.4335
 2422SOL    HW218903   4.268   3.650   7.986 -0.0568 -1.8275 -0.7573
 2423SOL     OW18904   4.335   4.055  15.133 -0.6770  0.2802 -0.2211
 2423SOL    HW118905   4.313   4.140  15.094 -4.2599  0.5615  2.4422
 2423SOL    HW218906   4.405   4.080  15.194 -0.8801 -1.8752  0.8829
 2424SOL     OW18907   1.423   2.298  11.313 -0.0552 -0.1146 -0.3029
 2424SOL    HW118908   1.516   2.317  11.296 -0.0612  0.7985  0.7050
 2424SOL    HW218909   1.412   2.350  11.393  0.5474  1.2080 -1.0641
 2425SOL     OW18910   0.980   2.531   1.705  0.4719 -0.3579  0.2006
 2425SOL    HW118911   1.068   2.494   1.692  1.1439  1.8803 -1.4498
 2425SOL    HW218912   0.990   2.601   1.770  3.1780 -1.0404  0.5537
 2426SOL     OW18913   4.442   1.602   4.255  0.1251  0.0618  0.5268
 2426SOL    HW118914   4.500   1.629   4.327  1.2091 -3.3398  0.9208
 2426SOL    HW218915   4.420   1.513   4.282 -1.1542  0.6901  1.5584
 2427SOL     OW18916   1.392   0.248   4.691  0.9020 -0.3548 -0.3946
 2427SOL    HW118917   1.390   0.312   4.762  1.7310 -2.1918  1.2637
 2427SOL    HW218918   1.357   0.300   4.619 -0.4829 -2.3546 -1.1715
 2428SOL     OW18919   4.448   2.818   6.689 -0.5036  0.2794  0.1350
 2428SOL    HW118920   4.422   2.728   6.672  2.4799 -0.3651 -1.0731
 2428SOL    HW218921   4.395   2.857   6.619 -1.7395 -2.1292 -0.2718
 2429SOL     OW18922   4.484   1.933   5.035  0.1576  0.1546  0.2930
 2429SOL    HW118923   4.399   1.933   5.080  0.2201  1.3085  0.3978
 2429SOL    HW218924   4.513   2.020   5.062  1.2221  0.1967 -0.9943
 2430SOL     OW18925   4.454   3.237  15.088 -0.7791 -0.0579 -0.8126
 2430SOL    HW118926   4.391   3.253  15.018 -1.8506 -1.6468 -0.2101
 2430SOL    HW218927   4.407   3.163  15.127 -1.3158  0.7599  0.1033
 2431SOL     OW18928   3.794   2.361   6.257  0.1581  0.6388  0.0274
 2431SOL    HW118929   3.836   2.413   6.189 -0.4210 -0.3793 -1.0980
 2431SOL    HW218930   3.746   2.290   6.216  0.9960 -0.1577  0.4387
 2432SOL     OW18931   3.557   2.895   7.074 -0.6415 -0.3649  0.5248
 2432SOL    HW118932   3.466   2.926   7.075 -0.1999  0.8895  2.3089
 2432SOL    HW218933   3.549   2.842   6.995 -2.1466  3.0643 -1.6412
 2433SOL     OW18934   1.743   1.487   5.435 -0.0791 -0.1461  0.1123
 2433SOL    HW118935   1.757   1.443   5.519  0.4310  2.9287  1.6452
 2433SOL    HW218936   1.739   1.577   5.468 -2.2173 -0.2805  0.1898
 2434SOL     OW18937   3.817   1.096  10.748 -0.3137 -0.7542 -0.0361
 2434SOL    HW118938   3.835   1.113  10.840  0.7529  0.2718 -0.4366
 2434SOL    HW218939   3.738   1.043  10.739 -0.9337 -0.1443  1.8832
 2435SOL     OW18940   2.539   4.086  14.676 -0.8992  0.0502  0.1561
 2435SOL    HW118941   2.552   4.090  14.581 -1.3129 -2.0283  0.0114
 2435SOL    HW218942   2.447   4.062  14.666 -0.8927 -0.5719  1.6083
 2436SOL     OW18943   1.901   1.242   3.168  0.0252 -0.1265  0.3992
 2436SOL    HW118944   1.929   1.259   3.258 -1.8013 -0.9547  1.1089
 2436SOL    HW218945   1.808   1.230   3.183 -0.1482 -1.3208 -1.6533
 2437SOL     OW18946   3.398   2.529   3.321  0.0528  0.2690 -0.4957
 2437SOL    HW118947   3.316   2.499   3.282 -1.1269  0.3399  1.9229
 2437SOL    HW218948   3.424   2.447   3.363 -2.1282  0.7770  1.8396
 2438SOL     OW18949   3.834   0.707   5.574  0.2544 -0.1769 -0.2276
 2438SOL    HW118950   3.884   0.770   5.522  2.1929 -1.4937  0.0548
 2438SOL    HW218951   3.759   0.761   5.598 -0.5771 -1.2683 -0.4012
 2439SOL     OW18952   4.116   3.310   8.250 -0.5212  0.2826  0.4032
 2439SOL    HW118953   4.094   3.377   8.314 -1.5834 -0.0809  0.4145
 2439SOL    HW218954   4.062   3.333   8.174  0.6504  0.4407 -0.3958
 2440SOL     OW18955   3.372   4.577  13.717  0.0538 -0.2344 -0.2599
 2440SOL    HW118956   3.431   4.652  13.727  0.0140  0.1639 -3.0390
 2440SOL    HW218957   3.315   4.598  13.791 -1.3918  0.1536 -1.4597
 2441SOL     OW18958   3.893   1.236  12.669  0.1736 -0.0395  0.3569
 2441SOL    HW118959   3.929   1.287  12.597 -0.1876  0.4166  0.4988
 2441SOL    HW218960   3.804   1.271  12.666  0.4277  0.5326 -0.5753
 2442SOL     OW18961   4.335   0.650   2.785  0.2788 -0.4773 -0.1185
 2442SOL    HW118962   4.260   0.642   2.844  0.7806  0.1355  0.5980
 2442SOL    HW218963   4.352   0.559   2.760  1.5042 -0.0666 -0.7757
 2443SOL     OW18964   2.743   2.472   9.372 -0.4000 -0.6109  0.2053
 2443SOL    HW118965   2.736   2.492   9.279 -2.5914  0.1085  0.5230
 2443SOL    HW218966   2.793   2.390   9.370 -0.3993 -0.6874  2.6833
 2444SOL     OW18967   3.277   3.514  11.431 -0.5509 -0.2726 -0.5018
 2444SOL    HW118968   3.352   3.572  11.446 -0.6872 -0.8022  2.2198
 2444SOL    HW218969   3.218   3.574  11.385  1.2293  2.8244  1.2496
 2445SOL     OW18970   3.762   4.373   9.107  0.1219  0.1086 -0.1855
 2445SOL    HW118971   3.791   4.460   9.082  0.1187  0.0861 -0.2705
 2445SOL    HW218972   3.814   4.316   9.049 -1.5919  0.0707 -1.6948
 2446SOL     OW18973   2.485   0.168   1.930 -0.0088  0.0486 -0.0248
 2446SOL    HW118974   2.528   0.127   2.005 -0.8807 -1.5323 -0.3676
 2446SOL    HW218975   2.482   0.257   1.964  0.4066 -0.3585  1.0794
 2447SOL     OW18976   2.841   1.768   5.817 -0.5926  0.1339  0.5047
 2447SOL    HW118977   2.796   1.830   5.759  0.9422 -0.1412 -0.9919
 2447SOL    HW218978   2.928   1.772   5.776 -0.7502 -0.8831  0.0894
 2448SOL     OW18979   1.877   2.998   7.103 -0.7159 -0.0216 -0.5113
 2448SOL    HW118980   1.816   2.927   7.085 -1.3407  0.5865 -0.8066
 2448SOL    HW218981   1.956   2.982   7.053  0.4484 -0.5588  1.5072
 2449SOL     OW18982   4.006   3.950  16.310  0.0578  0.4422 -0.0341
 2449SOL    HW118983   4.084   3.904  16.341 -0.1830  1.3457  1.9283
 2449SOL    HW218984   3.991   4.013  16.381  0.5393 -0.3104  0.7307
 2450SOL     OW18985   2.172   0.442  15.343  0.9947  0.4162  0.3261
 2450SOL    HW118986   2.256   0.398  15.354  0.0441 -1.3217  0.6875
 2450SOL    HW218987   2.135   0.429  15.430 -0.2879  1.5279 -0.0634
 2451SOL     OW18988   1.215   2.443   7.546  0.5114 -0.3327  0.2205
 2451SOL    HW118989   1.174   2.506   7.487 -0.1252  0.0590  1.0775
 2451SOL    HW218990   1.224   2.371   7.483 -0.5096  0.9592 -1.3946
 2452SOL     OW18991   1.572   3.497   7.677 -0.4440  0.2005  0.4285
 2452SOL    HW118992   1.546   3.511   7.586 -3.9381  0.0948  1.3920
 2452SOL    HW218993   1.583   3.402   7.680 -0.6626  0.1624  0.0351
 2453SOL     OW18994   1.121   2.289  15.436  0.0257  0.0286  0.1748
 2453SOL    HW118995   1.159   2.215  15.483 -1.1267  1.2732  3.0904
 2453SOL    HW218996   1.186   2.294  15.366 -0.4803 -0.3935 -0.3334
 2454SOL     OW18997   4.517   2.382   6.821  0.5107  0.4103  0.3278
 2454SOL    HW118998   4.526   2.342   6.908  2.3655 -3.0913 -1.4977
 2454SOL    HW218999   4.584   2.451   6.826 -0.6222  1.4622  1.0015
 2455SOL     OW19000   2.457   4.108  12.167  0.3097  0.1278  0.4583
 2455SOL    HW119001   2.448   4.019  12.134  0.0964  0.6347 -0.8691
 2455SOL    HW219002   2.458   4.164  12.089 -1.1263 -1.4485 -0.6837
 2456SOL     OW19003   0.138   3.460   2.794  0.6791  0.6545 -0.0626
 2456SOL    HW119004   0.074   3.485   2.728  2.9336  1.4803 -1.9542
 2456SOL    HW219005   0.222   3.485   2.755 -0.0341  0.2379 -1.8708
 2457SOL     OW19006   1.235   1.102   7.226 -0.1481  0.0421 -0.3726
 2457SOL    HW119007   1.289   1.172   7.190 -0.2479 -0.2553 -1.1037
 2457SOL    HW219008   1.301   1.034   7.242 -0.7499 -0.5504 -0.4140
 2458SOL     OW19009   3.197   0.595  13.998  0.0227  0.0687  0.3912
 2458SOL    HW119010   3.110   0.561  14.021 -0.8184  1.4534 -0.7597
 2458SOL    HW219011   3.192   0.691  13.998  0.0530  0.0746  1.3131
 2459SOL     OW19012   1.872   4.407   4.896 -0.1610 -0.5030 -0.3563
 2459SOL    HW119013   1.809   4.464   4.939  0.1397 -0.7593  0.4247
 2459SOL    HW219014   1.841   4.326   4.936  1.8016  0.7241  3.6199
 2460SOL     OW19015   0.480   1.033   3.008 -0.0596  0.2989  0.4894
 2460SOL    HW119016   0.489   0.997   3.097  0.5045 -0.0369  0.2975
 2460SOL    HW219017   0.534   0.976   2.953  1.3437  0.7045  1.4245
 2461SOL     OW19018   1.634   3.299  17.678  0.0918 -0.5522 -0.1135
 2461SOL    HW119019   1.590   3.333   0.018 -0.8467  0.7228 -1.2258
 2461SOL    HW219020   1.571   3.319  17.610 -0.3599  0.3464  0.5684
 2462SOL     OW19021   3.032   3.159   8.071  0.0513  0.2564  0.0573
 2462SOL    HW119022   2.992   3.075   8.053 -2.3302  1.7777 -1.6395
 2462SOL    HW219023   3.059   3.141   8.161 -1.0146 -1.4431  0.0216
 2463SOL     OW19024   1.998   2.220   3.956  0.1873  0.5468 -0.3026
 2463SOL    HW119025   1.986   2.315   3.956  1.5227  0.7232 -0.0908
 2463SOL    HW219026   2.076   2.214   4.011  0.5524  2.8705 -0.5593
 2464SOL     OW19027   0.439   1.250   7.261  0.4184  0.2181 -0.0962
 2464SOL    HW119028   0.458   1.160   7.238 -1.0008 -0.0116 -0.3782
 2464SOL    HW219029   0.412   1.248   7.353  1.5134 -0.6033  0.2021
 2465SOL     OW19030   1.443   0.885   6.878  0.4407 -0.5963 -0.5126
 2465SOL    HW119031   1.436   0.816   6.944  1.7552 -1.8297 -1.6795
 2465SOL    HW219032   1.366   0.941   6.891 -0.2895 -1.4598 -1.1597
 2466SOL     OW19033   0.532   0.529   1.149  0.0006  0.1145  0.0666
 2466SOL    HW119034   0.508   0.487   1.231 -1.1645 -0.2447 -0.4661
 2466SOL    HW219035   0.627   0.522   1.159 -0.2138 -1.5753  0.8704
 2467SOL     OW19036   1.168   1.369   2.948  0.0651 -0.2459  0.8941
 2467SOL    HW119037   1.100   1.350   3.013  0.5901  2.6036  2.2760
 2467SOL    HW219038   1.175   1.464   2.958  1.6400 -0.0722 -1.8466
 2468SOL     OW19039   4.238   1.220   7.421 -0.1762  0.3329  0.2516
 2468SOL    HW119040   4.251   1.226   7.326 -3.0199  2.0533 -0.0210
 2468SOL    HW219041   4.217   1.312   7.435  0.8065  0.3907  1.3299
 2469SOL     OW19042   4.543   3.924   7.045  0.1922  0.6129  0.2558
 2469SOL    HW119043   4.595   4.004   7.037  1.5921 -0.1591  1.6872
 2469SOL    HW219044   4.558   3.911   7.139 -1.1009 -2.0323  0.0881
 2470SOL     OW19045   2.751   1.865  10.696  0.1613 -0.4954 -0.4232
 2470SOL    HW119046   2.771   1.773  10.675 -2.4494 -1.3176  0.6797
 2470SOL    HW219047   2.696   1.858  10.774 -0.9361 -1.7298 -1.2927
 2471SOL     OW19048   3.150   0.433   8.582  0.5888  0.4637  0.6665
 2471SOL    HW119049   3.211   0.498   8.616 -3.0837  2.8967  2.5864
 2471SOL    HW219050   3.148   0.454   8.489 -1.4082 -0.8946  0.4038
 2472SOL     OW19051   1.743   2.768   9.784 -0.3651 -0.1353 -0.1404
 2472SOL    HW119052   1.830   2.779   9.822 -0.2020  0.5566 -0.7220
 2472SOL    HW219053   1.712   2.704   9.849 -0.1014 -1.1694 -1.0341
 2473SOL     OW19054   4.427   1.671   3.999 -0.2989 -0.5181 -0.2937
 2473SOL    HW119055   4.519   1.698   4.004 -0.7602  0.5554  2.4915
 2473SOL    HW219056   4.425   1.635   4.087 -1.2585 -0.0499 -0.1261
 2474SOL     OW19057   0.227   0.154   7.673 -0.1721  0.2251 -0.0719
 2474SOL    HW119058   0.261   0.160   7.763  0.7263  0.6230 -0.4348
 2474SOL    HW219059   0.278   0.080   7.639 -1.9749 -1.9550  1.9426
 2475SOL     OW19060   0.736   0.430   3.494 -0.1128  0.4278  0.8508
 2475SOL    HW119061   0.798   0.503   3.503 -0.4333  0.5966  1.7036
 2475SOL    HW219062   0.650   0.466   3.473 -0.1560 -0.7267 -0.9364
 2476SOL     OW19063   0.218   4.416   4.075  0.4082 -0.1508  0.0877
 2476SOL    HW119064   0.139   4.440   4.026  0.4805 -2.8190 -1.3135
 2476SOL    HW219065   0.218   4.491   4.135  1.2296 -1.1102  1.2859
 2477SOL     OW19066   2.593   1.274  12.926 -0.2393 -0.5099  0.3281
 2477SOL    HW119067   2.601   1.293  13.019 -0.1840  3.4303 -0.4661
 2477SOL    HW219068   2.675   1.224  12.923  0.4293  0.4827  2.3722
 2478SOL     OW19069   1.928   2.743   4.104 -0.0400 -0.6594 -0.2608
 2478SOL    HW119070   2.023   2.730   4.108 -0.0216 -0.6988 -0.8428
 2478SOL    HW219071   1.897   2.719   4.191  0.9942 -1.6402 -0.1499
 2479SOL     OW19072   3.524   0.433  12.609  0.3776 -0.2660  0.0279
 2479SOL    HW119073   3.514   0.472  12.522 -0.9038  1.1332  0.7950
 2479SOL    HW219074   3.522   0.511  12.665  2.3494 -1.3193  1.5351
 2480SOL     OW19075   3.025   4.456   8.663 -0.2055 -0.7498  0.2360
 2480SOL    HW119076   2.937   4.490   8.648  0.1831 -0.5193 -1.6125
 2480SOL    HW219077   3.061   4.453   8.574 -1.3774  0.0859 -0.2565
 2481SOL     OW19078   4.105   3.860   4.063 -0.1689 -0.6279 -0.3218
 2481SOL    HW119079   4.033   3.859   4.125  0.5800 -1.0712  0.5400
 2481SOL    HW219080   4.113   3.952   4.037 -2.7261 -0.2996  0.0620
 2482SOL     OW19081   1.082   1.960   8.761 -0.5019  0.7491  0.3539
 2482SOL    HW119082   1.045   1.995   8.842 -1.2784  2.0943 -0.5942
 2482SOL    HW219083   1.049   1.870   8.760 -1.6576  1.1930 -0.5335
 2483SOL     OW19084   0.743   3.683   4.113 -0.4010  0.8876 -0.2007
 2483SOL    HW119085   0.712   3.758   4.164 -1.5687 -0.5816  1.2372
 2483SOL    HW219086   0.741   3.717   4.024 -1.4769 -1.0840 -0.9416
 2484SOL     OW19087   1.899   3.652   2.382 -0.0539  0.2417 -0.1230
 2484SOL    HW119088   1.936   3.733   2.416 -0.6228  1.7776 -3.2085
 2484SOL    HW219089   1.938   3.587   2.441 -2.1335  0.5300  1.5810
 2485SOL     OW19090   1.879   4.635  16.143 -0.2471  0.1827 -0.0765
 2485SOL    HW119091   1.802   4.649  16.198 -1.2411 -0.8360 -1.1992
 2485SOL    HW219092   1.949   4.624  16.207  0.7210  0.7044 -1.0607
 2486SOL     OW19093   1.304   2.513  13.827 -0.7699 -0.2135  0.2673
 2486SOL    HW119094   1.251   2.466  13.891 -0.5827 -1.5577 -0.5626
 2486SOL    HW219095   1.302   2.599  13.868 -2.3374  0.1651 -0.6056
 2487SOL     OW19096   0.943   0.044  16.727  0.5435  0.6769 -0.1087
 2487SOL    HW119097   1.005   4.708  16.709 -0.3209  0.2391 -1.4327
 2487SOL    HW219098   0.993   0.125  16.721  1.3350  0.1021 -1.4065
 2488SOL     OW19099   1.940   1.131   9.382 -0.2790  0.2286 -0.7754
 2488SOL    HW119100   1.855   1.089   9.394 -0.1288 -0.2800 -1.4665
 2488SOL    HW219101   1.982   1.059   9.334  0.4048 -0.3949  0.7687
 2489SOL     OW19102   4.418   0.693   0.458  0.0893 -0.3753  0.2980
 2489SOL    HW119103   4.495   0.661   0.504  0.9822 -2.4281 -2.5906
 2489SOL    HW219104   4.436   0.638   0.382 -0.0601  0.6675 -0.5005
 2490SOL     OW19105   3.958   4.395   7.193  0.2900 -0.0580 -0.5668
 2490SOL    HW119106   3.931   4.463   7.131  1.5372 -0.7182 -1.8193
 2490SOL    HW219107   3.948   4.309   7.152 -1.8414  0.8506 -1.9504
 2491SOL     OW19108   1.415   2.095  10.330  0.0066 -0.3978  0.3126
 2491SOL    HW119109   1.483   2.054  10.276 -1.2930  0.8452 -2.2920
 2491SOL    HW219110   1.437   2.078  10.421  1.1074 -2.4553 -0.3363
 2492SOL     OW19111   0.380   1.084   0.055  0.5248  0.2175  0.3431
 2492SOL    HW119112   0.432   1.113  17.718  2.2594 -0.5651  1.2546
 2492SOL    HW219113   0.347   1.001   0.021  1.5814  0.5620 -1.5456
 2493SOL     OW19114   1.623   1.308   9.269 -0.5420 -0.2963  0.3133
 2493SOL    HW119115   1.678   1.366   9.322 -1.1926  1.6394 -1.1317
 2493SOL    HW219116   1.577   1.257   9.336 -0.3754 -0.6208  0.1848
 2494SOL     OW19117   2.912   0.529  10.963  0.2100  0.0336  1.1496
 2494SOL    HW119118   2.917   0.619  10.934  0.6120 -0.3903 -0.0851
 2494SOL    HW219119   2.966   0.540  11.042  0.8155 -1.7761  0.9849
 2495SOL     OW19120   4.525   3.031  10.118  0.3091 -0.1094  0.3457
 2495SOL    HW119121   4.576   3.030  10.200  2.1430  0.5779 -0.7940
 2495SOL    HW219122   4.580   3.078  10.055 -1.2845  0.7404 -0.3954
 2496SOL     OW19123   3.040   1.859  14.581 -0.0681 -0.5233 -0.0643
 2496SOL    HW119124   3.134   1.858  14.601 -0.0499  1.5945 -0.0400
 2496SOL    HW219125   3.008   1.931  14.636  2.7295  0.1050  0.7381
 2497SOL     OW19126   3.163   2.937   7.912 -0.1566 -0.8296 -0.0076
 2497SOL    HW119127   3.246   2.897   7.936 -0.1415 -1.0652 -0.4619
 2497SOL    HW219128   3.156   3.015   7.968  2.2044  0.5682 -1.7082
 2498SOL     OW19129   2.365   1.658   9.612 -0.9172 -0.2026  0.2362
 2498SOL    HW119130   2.386   1.743   9.650  1.9213  0.0479 -1.8853
 2498SOL    HW219131   2.354   1.695   9.524  0.5763 -0.0163  0.1272
 2499SOL     OW19132   1.735   3.436  17.261 -0.0817  0.0517  0.4955
 2499SOL    HW119133   1.821   3.424  17.302  0.7622  0.7703 -1.0517
 2499SOL    HW219134   1.687   3.355  17.275  0.4555 -0.4518 -0.5732
 2500SOL     OW19135   3.385   0.360  15.762 -0.6372  0.2399 -0.2278
 2500SOL    HW119136   3.290   0.366  15.762 -0.6509 -0.0007  0.9373
 2500SOL    HW219137   3.414   0.367  15.671  2.5821 -0.1734  0.7453
 2501SOL     OW19138   4.257   4.118  16.468  0.2623  0.4681  0.4306
 2501SOL    HW119139   4.234   4.027  16.450 -0.6704  0.5640  1.1299
 2501SOL    HW219140   4.219   4.131  16.555  1.3991  1.5682  0.7686
 2502SOL     OW19141   2.758   3.660   2.664  0.0928 -0.3289 -0.0304
 2502SOL    HW119142   2.774   3.751   2.691  1.3159 -1.1991  2.2343
 2502SOL    HW219143   2.700   3.642   2.738  1.9668  1.5187  1.9034
 2503SOL     OW19144   4.121   3.058  15.002  0.3294  0.1507 -0.2076
 2503SOL    HW119145   4.089   3.043  14.913 -0.6054  1.9225 -0.1580
 2503SOL    HW219146   4.173   3.136  14.983 -2.0841  2.1370  1.4307
 2504SOL     OW19147   3.509   0.809   5.500  1.1488 -0.6648 -0.4122
 2504SOL    HW119148   3.521   0.814   5.405  1.8473 -0.5900 -0.3205
 2504SOL    HW219149   3.414   0.802   5.504  0.8821  3.2117  0.3371
 2505SOL     OW19150   4.223   0.488   3.412  0.0608 -0.3000  0.0465
 2505SOL    HW119151   4.140   0.531   3.392  0.7896  0.0398 -2.2699
 2505SOL    HW219152   4.186   0.411   3.454  0.8345  0.3497  1.8988
 2506SOL     OW19153   2.351   0.349   7.184  0.0351 -0.2868  0.5378
 2506SOL    HW119154   2.335   0.266   7.229  2.4117 -1.6243 -1.0590
 2506SOL    HW219155   2.260   0.357   7.156 -0.1880 -0.3376  1.2407
 2507SOL     OW19156   0.254   0.117   6.587 -0.5009  0.0564 -0.7862
 2507SOL    HW119157   0.315   0.191   6.586  0.5212 -0.7837 -0.2277
 2507SOL    HW219158   0.290   0.068   6.661 -0.7368  1.1282  0.0319
 2508SOL     OW19159   0.023   1.976  16.110  0.5481  0.2667 -0.7580
 2508SOL    HW119160   0.032   2.049  16.171 -0.7000 -0.7706  0.6394
 2508SOL    HW219161   4.666   1.953  16.117 -0.2037  3.3903 -0.0588
 2509SOL     OW19162   2.307   1.175  14.070  0.4389  0.0370 -0.0145
 2509SOL    HW119163   2.315   1.129  13.986  1.2415 -0.5608  0.3813
 2509SOL    HW219164   2.383   1.233  14.064  0.9773 -0.6733 -0.1019
 2510SOL     OW19165   2.156   3.472   8.261  0.0402  0.4968  0.8464
 2510SOL    HW119166   2.151   3.505   8.351 -1.9191 -1.0136  1.2743
 2510SOL    HW219167   2.149   3.379   8.281  0.2906  0.1875 -0.5327
 2511SOL     OW19168   3.789   0.989  11.356  0.1046  0.0205  0.1585
 2511SOL    HW119169   3.843   1.062  11.325  0.7254 -0.5765 -0.1580
 2511SOL    HW219170   3.741   1.022  11.433 -2.0665  0.5573 -1.4434
 2512SOL     OW19171   1.892   3.285   5.855 -0.5817  0.6841  0.0120
 2512SOL    HW119172   1.962   3.227   5.886 -0.2235  0.8851 -0.4179
 2512SOL    HW219173   1.881   3.261   5.763  1.5430 -0.7512  0.1302
 2513SOL     OW19174   0.737   3.663   8.830 -0.1202 -0.1696 -0.5349
 2513SOL    HW119175   0.728   3.668   8.925  2.7827 -0.8644 -0.2219
 2513SOL    HW219176   0.830   3.644   8.817 -0.4320 -0.8807 -1.7640
 2514SOL     OW19177   4.054   0.049   7.854  0.0716 -0.0843  0.5084
 2514SOL    HW119178   4.073   0.009   7.769  0.1087 -1.0259  0.9623
 2514SOL    HW219179   3.966   0.018   7.873 -0.0846  0.1435  0.1434
 2515SOL     OW19180   3.158   2.131   2.143  0.5850 -0.1060  0.3354
 2515SOL    HW119181   3.106   2.206   2.116 -0.0170 -0.5159  0.3486
 2515SOL    HW219182   3.243   2.174   2.156 -0.5518  1.0056  4.2189
 2516SOL     OW19183   0.616   4.641   6.658  0.2744 -0.5068  0.3583
 2516SOL    HW119184   0.711   4.648   6.669  0.3148 -2.0921  1.0480
 2516SOL    HW219185   0.616   4.579   6.585  0.4499  0.0824 -0.1403
 2517SOL     OW19186   2.495   1.331   7.686  0.1159  0.3778 -0.1371
 2517SOL    HW119187   2.533   1.246   7.710 -0.7032 -0.1553 -0.6990
 2517SOL    HW219188   2.522   1.336   7.594 -3.7075 -2.8225 -1.4696
 2518SOL     OW19189   4.216   1.302  10.367  0.1178 -0.0855  0.4653
 2518SOL    HW119190   4.255   1.371  10.420  0.3415  0.5624 -0.5346
 2518SOL    HW219191   4.122   1.315  10.375 -0.2271 -2.6258  0.6238
 2519SOL     OW19192   4.450   3.116  12.211  0.0130  0.8587 -0.3936
 2519SOL    HW119193   4.410   3.193  12.252 -1.7213 -0.2588  0.0050
 2519SOL    HW219194   4.540   3.115  12.243 -0.0630  1.5694 -0.1521
 2520SOL     OW19195   3.736   4.583   8.309 -0.3224 -0.1637  0.1935
 2520SOL    HW119196   3.673   4.514   8.326 -2.0107  1.1927 -0.5530
 2520SOL    HW219197   3.785   4.562   8.388 -2.2653  0.5317  1.5701
 2521SOL     OW19198   4.269   1.446  10.856 -0.5323 -0.0673  0.7541
 2521SOL    HW119199   4.187   1.495  10.858 -0.6309 -0.1297 -1.8313
 2521SOL    HW219200   4.239   1.358  10.833  0.0822  0.2123 -1.1270
 2522SOL     OW19201   1.241   3.065   2.132 -0.1016  0.4175  0.7159
 2522SOL    HW119202   1.165   3.009   2.116  0.0859  0.3783 -0.0536
 2522SOL    HW219203   1.240   3.065   2.228  0.9387  1.9286  0.7383
 2523SOL     OW19204   3.107   1.917   6.010 -0.0969  0.1479 -0.0222
 2523SOL    HW119205   3.159   1.861   5.952 -1.9450 -1.0558 -0.5259
 2523SOL    HW219206   3.054   1.951   5.938 -0.7574  1.8839  1.2850
 2524SOL     OW19207   1.044   0.003  12.751 -0.2590  0.5717 -0.5138
 2524SOL    HW119208   1.032   4.655  12.798 -2.0130  1.0233 -0.1692
 2524SOL    HW219209   1.100   4.720  12.676 -0.4216 -0.6373 -0.3532
 2525SOL     OW19210   0.675   3.765   9.616 -0.1293 -0.1312  0.5404
 2525SOL    HW119211   0.582   3.787   9.619 -0.8649 -3.0375 -1.3603
 2525SOL    HW219212   0.706   3.855   9.602 -0.7385  0.2162  1.4363
 2526SOL     OW19213   0.266   0.875   8.529 -1.0770 -0.2910  0.0950
 2526SOL    HW119214   0.201   0.944   8.512 -2.4237 -1.0886  2.1410
 2526SOL    HW219215   0.333   0.930   8.570 -2.7536  1.7711  0.0491
 2527SOL     OW19216   0.493   3.149   4.180  0.5284 -0.2605 -0.2156
 2527SOL    HW119217   0.444   3.181   4.104 -0.0629 -0.2738  0.1570
 2527SOL    HW219218   0.436   3.075   4.204 -2.2290  1.5589 -1.1861
 2528SOL     OW19219   4.567   4.288   0.470  0.2425 -0.5578  0.1271
 2528SOL    HW119220   4.563   4.381   0.445  1.1677  0.6158  4.3714
 2528SOL    HW219221   4.599   4.253   0.386 -1.1904  2.0194 -1.4953
 2529SOL     OW19222   1.480   1.833  14.883 -0.3862  0.3488  0.5295
 2529SOL    HW119223   1.395   1.826  14.840  0.5087 -0.2262 -1.1291
 2529SOL    HW219224   1.495   1.927  14.874  0.2715  0.2900  0.9730
 2530SOL     OW19225   4.680   1.397   1.276  0.1613  0.6253  0.1041
 2530SOL    HW119226   0.026   1.369   1.233 -1.0551 -1.4457 -0.8283
 2530SOL    HW219227   4.609   1.382   1.215 -0.1212  1.0905  0.3131
 2531SOL     OW19228   0.473   2.714  15.697  0.1740 -0.1804  0.1802
 2531SOL    HW119229   0.473   2.769  15.619 -0.4125 -0.3397  0.0645
 2531SOL    HW219230   0.567   2.698  15.707  0.6893  1.5014 -1.9583
 2532SOL     OW19231   3.946   0.357   1.792 -0.2694  0.6481  0.0722
 2532SOL    HW119232   3.874   0.295   1.779  0.3733 -0.0254 -0.3388
 2532SOL    HW219233   3.930   0.394   1.705 -2.9260 -0.8237 -0.0701
 2533SOL     OW19234   2.510   2.120   7.037  0.1980  0.2138 -0.2692
 2533SOL    HW119235   2.425   2.076   7.037  0.9297 -1.2189 -0.2588
 2533SOL    HW219236   2.489   2.203   6.996  0.3371  1.0378  1.3341
 2534SOL     OW19237   4.397   0.285  13.562 -0.7546  0.5576  0.3127
 2534SOL    HW119238   4.332   0.347  13.531 -1.6391 -0.1894  0.6683
 2534SOL    HW219239   4.386   0.212  13.501 -0.4473 -0.2492  1.2097
 2535SOL     OW19240   3.255   3.672   5.790  0.1232 -0.0740 -0.2162
 2535SOL    HW119241   3.221   3.688   5.702 -1.2944  0.3415  0.3970
 2535SOL    HW219242   3.266   3.765   5.811  1.7097 -0.3449  0.0890
 2536SOL     OW19243   1.217   2.190  14.131  0.1497  0.3994  0.1037
 2536SOL    HW119244   1.229   2.279  14.098 -0.1341 -0.2397 -1.7122
 2536SOL    HW219245   1.257   2.134  14.066  1.8349  0.8991  0.7179
 2537SOL     OW19246   1.105   2.142   0.560  0.1879 -0.5381  0.3878
 2537SOL    HW119247   1.104   2.231   0.597  0.0338 -0.5018  0.2951
 2537SOL    HW219248   1.078   2.168   0.472  0.2376  0.6209  0.7100
 2538SOL     OW19249   1.749   2.464   8.830 -0.5022 -0.1516 -0.0513
 2538SOL    HW119250   1.663   2.439   8.865 -0.1545 -0.9038  0.2521
 2538SOL    HW219251   1.791   2.381   8.811 -0.4494 -0.4402  1.3133
 2539SOL     OW19252   2.510   2.475   1.685 -0.1658 -0.1946 -0.0244
 2539SOL    HW119253   2.582   2.505   1.740 -1.1685  0.2787  1.0294
 2539SOL    HW219254   2.427   2.511   1.718 -1.3864 -0.8205 -2.4012
 2540SOL     OW19255   4.464   2.928   2.851  0.0983  0.0854 -0.2583
 2540SOL    HW119256   4.498   2.983   2.922  0.9038 -1.9269  0.9085
 2540SOL    HW219257   4.405   2.871   2.901  1.1552 -2.1049 -1.5247
 2541SOL     OW19258   2.526   4.558   4.438  0.7130  0.1877  0.3930
 2541SOL    HW119259   2.520   4.546   4.533 -0.8199  0.3654  0.3270
 2541SOL    HW219260   2.576   4.639   4.447 -1.4530  1.4933  0.6065
 2542SOL     OW19261   1.010   2.941   2.038 -0.1711  0.1591  0.2098
 2542SOL    HW119262   0.969   2.936   1.952  0.7109 -0.0082 -0.2007
 2542SOL    HW219263   1.063   2.861   2.034 -2.5331 -1.3231 -1.4462
 2543SOL     OW19264   4.000   0.339  16.304 -0.0256  0.4545 -0.1435
 2543SOL    HW119265   3.974   0.310  16.391 -0.0047  0.2161 -0.2167
 2543SOL    HW219266   4.013   0.255  16.260  2.1114  0.7547 -0.0717
 2544SOL     OW19267   2.581   2.350   6.266  0.4508 -0.2100 -0.2017
 2544SOL    HW119268   2.541   2.435   6.247  0.1504 -0.6585 -1.5479
 2544SOL    HW219269   2.632   2.333   6.188 -1.5252  0.4984 -1.6575
 2545SOL     OW19270   4.500   4.445   4.705  0.4881  0.3560 -0.9897
 2545SOL    HW119271   4.519   4.515   4.643 -0.6234 -0.4770 -2.2527
 2545SOL    HW219272   4.426   4.475   4.757  1.6068 -0.7494  1.2758
 2546SOL     OW19273   2.288   2.704  15.627 -0.5397  0.3515 -0.0536
 2546SOL    HW119274   2.327   2.727  15.711 -0.0113 -0.2822 -0.1294
 2546SOL    HW219275   2.282   2.789  15.584 -3.2077  0.8171  1.2133
 2547SOL     OW19276   4.077   1.809   2.663  0.0501  0.2467 -0.3157
 2547SOL    HW119277   3.993   1.777   2.695 -0.6284  1.9793 -0.3394
 2547SOL    HW219278   4.057   1.835   2.573 -2.6055 -0.9694 -0.0804
 2548SOL     OW19279   3.076   2.483  10.854 -0.5242 -0.0024 -0.3177
 2548SOL    HW119280   3.170   2.463  10.853 -0.6611 -0.5606 -1.2800
 2548SOL    HW219281   3.079   2.563  10.801  1.7807  0.1366  0.0239
 2549SOL     OW19282   2.191   1.404   3.562  0.1628  0.1140  0.0589
 2549SOL    HW119283   2.245   1.447   3.495  0.9882  0.4673  0.9495
 2549SOL    HW219284   2.237   1.430   3.642  0.0432  1.0002 -0.1644
 2550SOL     OW19285   1.759   2.465   7.023 -0.2027  0.7437  0.2707
 2550SOL    HW119286   1.803   2.549   7.040  0.1985  0.3746  1.0764
 2550SOL    HW219287   1.747   2.467   6.928  1.1010  3.1910  0.1583
 2551SOL     OW19288   2.975   0.993   6.374  0.1691  0.5521  0.2045
 2551SOL    HW119289   2.935   0.988   6.461  1.4734 -1.0247  0.7232
 2551SOL    HW219290   2.977   0.903   6.343 -0.2346  0.0834  1.5388
 2552SOL     OW19291   0.745   4.297  13.838  0.2386  0.5008  0.2034
 2552SOL    HW119292   0.655   4.280  13.808  0.0448 -1.6536  1.9655
 2552SOL    HW219293   0.714   4.316  13.927  0.5771 -3.7191  1.2240
 2553SOL     OW19294   2.124   1.741   3.835 -0.2410 -0.0139  0.2884
 2553SOL    HW119295   2.099   1.832   3.815  1.3607  0.5331  0.8252
 2553SOL    HW219296   2.212   1.740   3.797 -0.0881  1.2305  0.6005
 2554SOL     OW19297   0.969   4.349   0.446  0.6403  0.4648 -0.7732
 2554SOL    HW119298   0.935   4.373   0.360  0.3867  2.4635 -0.1199
 2554SOL    HW219299   0.999   4.434   0.478 -1.1400  0.4720  0.8681
 2555SOL     OW19300   1.288   2.355   5.939  0.6253  0.4512  0.2693
 2555SOL    HW119301   1.302   2.280   5.881 -1.8504  2.7775 -3.3272
 2555SOL    HW219302   1.244   2.326   6.019  0.0593 -0.8486 -0.5016
 2556SOL     OW19303   2.032   0.263   2.539 -0.0847 -0.2807  0.0799
 2556SOL    HW119304   2.015   0.353   2.564  1.0017  0.4007 -1.6214
 2556SOL    HW219305   2.034   0.256   2.444 -3.4663  1.3643 -0.1007
 2557SOL     OW19306   2.701   3.101  13.250  0.9939 -0.5548  0.3924
 2557SOL    HW119307   2.644   3.152  13.308 -2.0499 -2.1972 -1.1224
 2557SOL    HW219308   2.675   3.141  13.167  0.2135  2.0138  1.8656
 2558SOL     OW19309   3.755   0.389  13.336 -0.2618 -0.7528  0.3472
 2558SOL    HW119310   3.794   0.390  13.423  1.3816 -0.1614 -0.3872
 2558SOL    HW219311   3.795   0.311  13.297 -0.4357 -0.4686 -0.4054
 2559SOL     OW19312   4.611   0.651   4.926  0.3448 -0.2617  0.1733
 2559SOL    HW119313   4.702   0.637   4.954  0.6547  3.4181  0.9295
 2559SOL    HW219314   4.591   0.563   4.893 -0.4281  0.1947 -0.5681
 2560SOL     OW19315   1.604   2.011   1.749  0.0959  0.5183 -0.2851
 2560SOL    HW119316   1.562   2.056   1.823 -0.2436 -3.0090  1.7042
 2560SOL    HW219317   1.692   1.991   1.781  0.8475 -0.4628 -3.0199
 2561SOL     OW19318   3.402   3.705   4.730 -0.0509 -0.5007 -0.9117
 2561SOL    HW119319   3.331   3.659   4.776  0.2887  0.9899  1.0962
 2561SOL    HW219320   3.472   3.640   4.734  0.4898  0.0182 -2.0981
 2562SOL     OW19321   0.399   0.387   6.377  0.2136  0.0371 -0.4487
 2562SOL    HW119322   0.326   0.348   6.329  0.6949 -2.3871  0.7681
 2562SOL    HW219323   0.359   0.401   6.463 -3.2626  1.6418 -2.3389
 2563SOL     OW19324   2.146   2.376   4.962  0.2154  0.2506  0.8539
 2563SOL    HW119325   2.219   2.331   4.920 -1.6233 -1.6152 -0.3457
 2563SOL    HW219326   2.078   2.375   4.894  1.6756  0.3785 -0.5938
 2564SOL     OW19327   2.460   1.370   6.791  0.4593  0.6250  0.2131
 2564SOL    HW119328   2.373   1.393   6.757  0.5168  0.9200  0.2671
 2564SOL    HW219329   2.493   1.453   6.826  1.4457  0.5941 -0.6587
 2565SOL     OW19330   4.241   1.606   1.366  0.2726  0.1544 -0.0481
 2565SOL    HW119331   4.232   1.629   1.274 -1.2796 -1.4014 -0.2855
 2565SOL    HW219332   4.237   1.510   1.365 -2.9390  0.2389  3.6152
 2566SOL     OW19333   1.080   3.617  16.345  0.7918  0.2602  0.0843
 2566SOL    HW119334   0.993   3.613  16.304  0.1348 -0.8002  1.5673
 2566SOL    HW219335   1.131   3.639  16.267  0.2820  0.2197 -0.2644
 2567SOL     OW19336   3.449   1.299   7.455 -0.3876 -0.2751 -0.5080
 2567SOL    HW119337   3.500   1.299   7.536  1.0224  0.5500 -1.3687
 2567SOL    HW219338   3.437   1.393   7.439  3.1461  0.3405  0.4584
 2568SOL     OW19339   3.890   1.545  16.508 -0.0200  0.0807 -0.4615
 2568SOL    HW119340   3.828   1.585  16.569  0.3826 -1.1943  0.7974
 2568SOL    HW219341   3.842   1.544  16.426  0.9557  2.0858 -1.0680
 2569SOL     OW19342   1.758   0.702   5.310  0.2284  0.3300 -0.7584
 2569SOL    HW119343   1.847   0.679   5.280  0.5978  2.1713 -1.1113
 2569SOL    HW219344   1.739   0.756   5.234 -0.5931  2.4656  0.9854
 2570SOL     OW19345   3.218   2.811   1.987 -0.1210  0.0361  0.0207
 2570SOL    HW119346   3.132   2.782   1.954  0.0427 -0.7920  0.3321
 2570SOL    HW219347   3.227   2.769   2.072 -2.2105  1.4825  0.9763
 2571SOL     OW19348   4.577   0.780   1.443  0.1696  0.0880  0.0887
 2571SOL    HW119349   4.487   0.806   1.425 -1.0517 -3.9671  0.3489
 2571SOL    HW219350   4.616   0.860   1.478  0.3510  0.4731 -0.9771
 2572SOL     OW19351   4.117   0.286   7.017 -0.1577  0.2245  0.4212
 2572SOL    HW119352   4.057   0.299   7.091  0.4587  3.0900  0.4001
 2572SOL    HW219353   4.084   0.203   6.983 -0.3897  0.4100  0.1910
 2573SOL     OW19354   4.176   2.144   5.824  0.2472 -0.1357  0.2467
 2573SOL    HW119355   4.269   2.125   5.838  0.4144  1.2936  1.1907
 2573SOL    HW219356   4.164   2.140   5.729 -2.2637 -3.0971  0.6938
 2574SOL     OW19357   1.113   1.834   7.253  0.6089 -0.6754 -0.3622
 2574SOL    HW119358   1.182   1.899   7.266  0.2876 -0.8555  2.1296
 2574SOL    HW219359   1.061   1.876   7.184  0.4403  1.4103  1.0471
 2575SOL     OW19360   4.107   3.512   4.182 -0.1374 -0.3145  0.2181
 2575SOL    HW119361   4.016   3.528   4.157 -0.1690  1.2110  1.2944
 2575SOL    HW219362   4.107   3.417   4.193 -0.1292 -0.4407 -0.8703
 2576SOL     OW19363   0.327   1.936  16.514 -0.1371  0.1685  0.0543
 2576SOL    HW119364   0.413   1.905  16.485 -1.9669 -1.2715 -3.9497
 2576SOL    HW219365   0.348   2.025  16.540 -0.4948  0.7756 -1.6872
 2577SOL     OW19366   2.283   0.026   8.218 -0.0971  0.1045 -0.1920
 2577SOL    HW119367   2.219   0.096   8.226  0.9819  1.0737 -0.1160
 2577SOL    HW219368   2.236   4.677   8.218 -1.2145  0.7281  1.4110
 2578SOL     OW19369   0.882   3.920   1.438 -0.2661  0.7390 -0.0873
 2578SOL    HW119370   0.821   3.847   1.432 -1.3408  1.4891  1.8005
 2578SOL    HW219371   0.843   3.977   1.372  1.3654  1.1363 -0.7046
 2579SOL     OW19372   3.115   0.396  15.708  0.0522  0.2500 -0.0821
 2579SOL    HW119373   3.041   0.410  15.649  0.1919 -1.1823 -0.6120
 2579SOL    HW219374   3.103   0.464  15.774 -0.4094 -0.4754  0.5896
 2580SOL     OW19375   1.873   0.484   8.664  0.3104 -0.0431  0.1087
 2580SOL    HW119376   1.794   0.538   8.673 -0.4619 -1.7222  3.2901
 2580SOL    HW219377   1.944   0.546   8.645  1.8686 -1.4699  1.3853
 2581SOL     OW19378   0.504   1.712  16.986  0.3667  0.4140  0.6108
 2581SOL    HW119379   0.497   1.785  16.925  2.2544 -0.0432 -0.1452
 2581SOL    HW219380   0.424   1.665  16.960  1.7050 -2.5018  1.6944
 2582SOL     OW19381   4.172   3.122   4.012  0.0505  0.4873  0.1942
 2582SOL    HW119382   4.255   3.170   4.003  0.6262 -0.2134  1.8001
 2582SOL    HW219383   4.191   3.049   4.071  0.8526  0.0852 -0.5575
 2583SOL     OW19384   4.493   0.820  14.135  0.0471  0.3017  0.3487
 2583SOL    HW119385   4.510   0.913  14.123  1.0382 -0.1718 -1.8213
 2583SOL    HW219386   4.541   0.782  14.062 -0.9565 -0.3467  0.0239
 2584SOL     OW19387   3.843   1.346   6.929 -0.0974  0.1367 -0.0187
 2584SOL    HW119388   3.832   1.271   6.870 -0.4191  1.0612 -1.1432
 2584SOL    HW219389   3.909   1.400   6.885 -1.0692  0.1644 -1.4480
 2585SOL     OW19390   4.096   4.358  13.271 -0.4182  0.3466 -0.6509
 2585SOL    HW119391   4.017   4.342  13.218 -2.3467  1.2794  1.9606
 2585SOL    HW219392   4.162   4.368  13.203 -0.4330  0.9552 -0.5713
 2586SOL     OW19393   2.095   1.991  12.019  0.0106  0.2371 -0.2401
 2586SOL    HW119394   2.069   2.058  12.082  0.8521 -0.4649  0.8354
 2586SOL    HW219395   2.088   1.910  12.070  0.0052  0.5869  0.3081
 2587SOL     OW19396   1.149   2.236   3.711  0.7339  0.0475 -0.0657
 2587SOL    HW119397   1.058   2.258   3.729  0.5490  0.1968 -1.2119
 2587SOL    HW219398   1.146   2.143   3.686 -0.2210  0.9626 -3.2736
 2588SOL     OW19399   1.882   4.404   5.961  0.0056  0.6721 -0.0712
 2588SOL    HW119400   1.896   4.400   6.056 -1.4661 -1.5610  0.0714
 2588SOL    HW219401   1.898   4.312   5.937  0.6155  0.7826 -0.0921
 2589SOL     OW19402   3.321   3.770   7.505  0.4892 -0.0915 -0.5936
 2589SOL    HW119403   3.373   3.693   7.485 -0.0042 -0.2406 -1.3069
 2589SOL    HW219404   3.239   3.742   7.464  0.4206 -1.2638  0.3774
 2590SOL     OW19405   0.900   1.894   5.307  0.4604 -0.2795  0.4108
 2590SOL    HW119406   0.897   1.799   5.300  0.7369 -0.2670  0.1199
 2590SOL    HW219407   0.811   1.921   5.331  0.2537 -1.2657  0.7464
 2591SOL     OW19408   4.248   1.373   5.261 -0.4514 -0.1749  0.0986
 2591SOL    HW119409   4.165   1.335   5.231  0.9577 -3.3085  0.1751
 2591SOL    HW219410   4.208   1.442   5.313 -0.0080  0.0591  0.1214
 2592SOL     OW19411   2.481   3.210   0.349  0.2720 -0.2982 -0.4300
 2592SOL    HW119412   2.435   3.292   0.365 -1.1104 -1.0397 -0.5229
 2592SOL    HW219413   2.447   3.141   0.407 -1.1553 -0.0133 -0.9239
 2593SOL     OW19414   3.360   0.951   4.740  0.1567  0.2048  0.6440
 2593SOL    HW119415   3.427   1.009   4.705  1.2228 -1.6240 -0.3869
 2593SOL    HW219416   3.386   0.865   4.705  1.1920  2.9142 -5.2431
 2594SOL     OW19417   2.401   2.577  16.686 -0.0603 -0.1436  0.4344
 2594SOL    HW119418   2.362   2.589  16.773  1.8690 -0.1338  1.2978
 2594SOL    HW219419   2.362   2.648  16.637 -0.6274 -1.1017 -0.4976
 2595SOL     OW19420   1.615   2.839   4.204 -0.0212  0.8600  0.0203
 2595SOL    HW119421   1.706   2.840   4.233  0.0119  2.0903 -0.1452
 2595SOL    HW219422   1.568   2.787   4.269 -0.7950 -0.4356 -1.5468
 2596SOL     OW19423   1.750   2.376   8.006 -0.3527  0.0308  0.5880
 2596SOL    HW119424   1.751   2.352   7.913 -0.5349  2.6684 -0.0924
 2596SOL    HW219425   1.671   2.428   8.004  0.7276  1.5745 -1.4475
 2597SOL     OW19426   2.839   2.317  16.728 -0.1491 -0.3635 -0.2281
 2597SOL    HW119427   2.755   2.315  16.681 -1.1069  0.5978  1.4715
 2597SOL    HW219428   2.840   2.243  16.789  0.5858 -0.1035  0.0605
 2598SOL     OW19429   3.286   1.794  10.699 -0.0932 -0.1848 -0.6854
 2598SOL    HW119430   3.284   1.703  10.728  0.9707  0.6851  2.1202
 2598SOL    HW219431   3.200   1.836  10.706  0.3101  0.2720  1.5755
 2599SOL     OW19432   3.023   0.051   3.259 -0.8128 -0.1986 -0.8598
 2599SOL    HW119433   3.070   4.705   3.282 -0.4992  0.2535  0.0831
 2599SOL    HW219434   3.029   0.040   3.164  0.5090 -0.4179 -0.7540
 2600SOL     OW19435   2.322   2.323   7.525 -0.5519 -0.1670  0.1136
 2600SOL    HW119436   2.335   2.381   7.600  1.7633  0.6178 -0.8985
 2600SOL    HW219437   2.236   2.358   7.501  1.0692  1.6213 -3.1525
 2601SOL     OW19438   2.323   4.644   8.530 -0.0911  0.1939 -0.4787
 2601SOL    HW119439   2.371   4.664   8.449 -0.6398 -0.5286 -0.9872
 2601SOL    HW219440   2.313   0.000   8.556 -1.8895 -0.4179  0.9640
 2602SOL     OW19441   4.685   2.597   6.851  0.0255  0.3318  0.2425
 2602SOL    HW119442   4.681   2.689   6.877 -2.1140  0.9659 -2.2465
 2602SOL    HW219443   4.721   2.563   6.933 -1.4025  0.9921  1.1573
 2603SOL     OW19444   0.061   2.574   8.650 -0.5057 -0.2628 -0.1775
 2603SOL    HW119445   0.061   2.665   8.620 -0.7607  0.3674  1.6898
 2603SOL    HW219446   0.008   2.579   8.730  0.0533  1.9614  0.0646
 2604SOL     OW19447   2.378   2.147   3.863  0.4214 -0.1594  0.0233
 2604SOL    HW119448   2.469   2.117   3.868  1.3427  2.7018  0.3379
 2604SOL    HW219449   2.387   2.241   3.849 -0.8300 -0.4451 -2.7774
 2605SOL     OW19450   0.879   0.797   8.438  0.1275  0.7616 -0.1128
 2605SOL    HW119451   0.808   0.846   8.396 -0.7847 -2.8841 -2.8184
 2605SOL    HW219452   0.955   0.831   8.391 -0.0974  0.5901 -0.6089
 2606SOL     OW19453   2.597   3.973  11.331  0.1971 -0.2521  0.0359
 2606SOL    HW119454   2.680   3.939  11.298  1.8743  2.5957  1.2463
 2606SOL    HW219455   2.593   3.951  11.424 -1.5626  0.6227  0.1606
 2607SOL     OW19456   1.552   2.739  11.027 -0.6243 -0.3926 -0.0441
 2607SOL    HW119457   1.643   2.723  11.002 -0.4143 -0.5785  0.8419
 2607SOL    HW219458   1.538   2.819  10.976 -2.1069 -0.7637 -0.2404
 2608SOL     OW19459   0.179   3.186   7.550 -0.1568 -0.3443 -0.1482
 2608SOL    HW119460   0.228   3.268   7.559 -0.1854 -0.5537  2.0360
 2608SOL    HW219461   0.140   3.178   7.637  1.1426 -0.6499  0.4161
 2609SOL     OW19462   0.263   1.923  15.073  0.1360 -0.0054  0.4531
 2609SOL    HW119463   0.267   2.018  15.084  0.5057  0.0642 -0.3075
 2609SOL    HW219464   0.173   1.899  15.098  0.2217 -0.4091  0.3791
 2610SOL     OW19465   4.587   2.929   3.444  0.8765 -0.0262 -0.0196
 2610SOL    HW119466   4.619   2.840   3.429 -2.0297 -0.7438 -1.9285
 2610SOL    HW219467   4.586   2.923   3.540  0.9709  0.9275  0.0413
 2611SOL     OW19468   3.754   1.070   9.342  0.2312  0.6824 -0.2540
 2611SOL    HW119469   3.709   0.986   9.342  1.1522  0.1843  0.5923
 2611SOL    HW219470   3.685   1.135   9.332 -1.0797 -0.4763  1.2701
 2612SOL     OW19471   3.506   3.318   7.809 -0.0767 -0.8284  0.0612
 2612SOL    HW119472   3.501   3.370   7.889  1.2097  1.5342 -1.3821
 2612SOL    HW219473   3.422   3.273   7.814  0.0320 -1.0243  0.1342
 2613SOL     OW19474   1.615   0.838   2.064 -0.1218 -0.2170  0.6881
 2613SOL    HW119475   1.697   0.885   2.082  0.3891 -1.0099  0.4088
 2613SOL    HW219476   1.582   0.891   1.991 -0.1368 -3.2841 -1.5489
 2614SOL     OW19477   3.067   3.762   5.079 -0.5330  1.2444 -0.2568
 2614SOL    HW119478   3.098   3.837   5.028  0.6398  0.8614 -0.1111
 2614SOL    HW219479   2.974   3.762   5.059 -0.6969 -0.9748  0.4952
 2615SOL     OW19480   4.262   2.530   7.508  0.3965 -0.0287 -0.3803
 2615SOL    HW119481   4.286   2.485   7.427  1.3119 -0.9416  0.4049
 2615SOL    HW219482   4.342   2.572   7.539  0.3475  0.6363 -1.1588
 2616SOL     OW19483   0.913   1.243   6.952 -0.6105  0.0701  0.1606
 2616SOL    HW119484   0.955   1.165   6.987  1.1749  0.3260 -1.3499
 2616SOL    HW219485   0.835   1.246   7.006  0.2770  1.9472  1.3457
 2617SOL     OW19486   0.480   1.767   2.715  0.2632 -0.1694 -0.2555
 2617SOL    HW119487   0.455   1.852   2.751 -0.9140 -0.3920 -0.5422
 2617SOL    HW219488   0.398   1.717   2.721 -0.6636  1.2516 -1.1635
 2618SOL     OW19489   0.080   1.412   5.936 -0.5492 -0.5202 -0.4843
 2618SOL    HW119490   0.157   1.377   5.983  0.7002  2.8197 -0.0849
 2618SOL    HW219491   0.047   1.471   6.003 -1.0140 -0.5475 -0.6932
 2619SOL     OW19492   3.962   1.553  13.361  0.1798 -0.3943 -0.1178
 2619SOL    HW119493   3.932   1.542  13.451  1.4166 -0.2381  0.3106
 2619SOL    HW219494   3.944   1.647  13.352  3.6556  0.2671 -0.1733
 2620SOL     OW19495   0.919   0.612  13.248 -0.2336 -0.4000 -0.0572
 2620SOL    HW119496   0.826   0.608  13.228 -0.1766 -0.7842 -0.2485
 2620SOL    HW219497   0.959   0.549  13.187  2.6556  1.1474  0.2362
 2621SOL     OW19498   1.498   3.190   5.725 -0.1582 -0.0958 -0.3718
 2621SOL    HW119499   1.528   3.227   5.642  2.7879  0.5456  0.9688
 2621SOL    HW219500   1.413   3.232   5.739  0.6224  1.7430 -1.2641
 2622SOL     OW19501   3.649   2.698   2.103 -0.0103  0.0138  0.3456
 2622SOL    HW119502   3.574   2.744   2.066  1.0815  2.1876  0.8320
 2622SOL    HW219503   3.722   2.701   2.041  0.4963 -1.4174  0.8550
 2623SOL     OW19504   1.601   3.933  11.736 -0.1300  0.0200  0.4055
 2623SOL    HW119505   1.568   3.989  11.806 -3.0611 -3.5121  1.8618
 2623SOL    HW219506   1.519   3.913  11.693 -0.8248 -0.0422  1.7585
 2624SOL     OW19507   2.037   0.694   3.016  0.0845 -0.4385 -0.3663
 2624SOL    HW119508   2.097   0.739   3.075  1.0654 -0.1253 -1.6102
 2624SOL    HW219509   1.968   0.761   3.012 -1.2052 -1.8611 -2.0265
 2625SOL     OW19510   1.851   1.671   5.103 -0.2985 -0.5786 -0.3106
 2625SOL    HW119511   1.862   1.735   5.172  1.5471 -1.5622  0.3168
 2625SOL    HW219512   1.756   1.663   5.110 -0.3618  0.9023  0.2924
 2626SOL     OW19513   1.374   1.773   7.657  0.1409 -0.3902  0.1941
 2626SOL    HW119514   1.410   1.798   7.572  1.0632  2.5863  1.4598
 2626SOL    HW219515   1.333   1.691   7.627 -0.7355  0.2101 -0.2605
 2627SOL     OW19516   2.059   2.357   0.904  0.0447 -0.6476 -0.1956
 2627SOL    HW119517   2.099   2.352   0.817 -1.5909 -2.1835 -0.8727
 2627SOL    HW219518   2.056   2.265   0.931 -0.8386 -0.8336 -0.9155
 2628SOL     OW19519   1.902   3.873   5.957  0.4033 -0.5398 -0.6708
 2628SOL    HW119520   1.827   3.880   6.016  0.4964 -1.4600 -0.4478
 2628SOL    HW219521   1.889   3.779   5.942 -1.5812 -0.2149 -0.9657
 2629SOL     OW19522   2.001   3.366  17.303  0.0196  0.6894  0.0131
 2629SOL    HW119523   1.995   3.294  17.367  0.2567 -0.1824 -0.9412
 2629SOL    HW219524   2.028   3.317  17.225 -0.3910 -0.5124  0.6151
 2630SOL     OW19525   1.099   3.594   6.470 -0.3817 -0.0307 -0.3328
 2630SOL    HW119526   1.114   3.550   6.554  0.3781  2.7163  0.9869
 2630SOL    HW219527   1.004   3.608   6.474 -0.4766 -0.9750  1.0071
 2631SOL     OW19528   3.353   2.558   5.362  0.4164  0.4149 -0.2217
 2631SOL    HW119529   3.419   2.624   5.340  3.4770 -2.1615  1.2433
 2631SOL    HW219530   3.290   2.598   5.301 -0.4314 -2.1927 -1.0679
 2632SOL     OW19531   0.900   0.808   7.197 -0.0999  0.7793  0.2535
 2632SOL    HW119532   0.835   0.765   7.252 -0.9933  0.6425 -0.9085
 2632SOL    HW219533   0.882   0.769   7.111 -0.4190  0.3673  0.5104
 2633SOL     OW19534   0.778   1.700   8.240  0.5720 -0.0755 -0.2536
 2633SOL    HW119535   0.826   1.777   8.212  0.1395 -0.0627 -0.9441
 2633SOL    HW219536   0.753   1.725   8.329 -0.8344 -0.5903 -0.5162
 2634SOL     OW19537   4.282   4.290  15.035  0.3107  0.3874 -0.0923
 2634SOL    HW119538   4.187   4.282  15.045  0.3510 -2.3402 -2.0242
 2634SOL    HW219539   4.290   4.316  14.943  0.3250 -2.3006 -0.8538
 2635SOL     OW19540   0.245   4.205  15.204 -0.1199 -0.2250 -0.2979
 2635SOL    HW119541   0.321   4.150  15.186  1.3435  2.1928 -1.4403
 2635SOL    HW219542   0.296   4.278  15.238 -0.2034  0.5119 -1.7608
 2636SOL     OW19543   0.766   2.476   2.773  0.7492 -0.2300  0.4767
 2636SOL    HW119544   0.677   2.443   2.758  0.1412  0.4855  2.4845
 2636SOL    HW219545   0.812   2.396   2.748 -0.2529 -0.8146  0.4891
 2637SOL     OW19546   3.915   1.868  12.044 -0.0673 -0.2810  0.2939
 2637SOL    HW119547   3.890   1.944  11.992  2.6667 -0.7523 -1.6819
 2637SOL    HW219548   4.009   1.885  12.046  0.4355 -2.8689 -1.3256
 2638SOL     OW19549   4.054   3.016   7.298  0.8626  0.3457  0.4414
 2638SOL    HW119550   3.996   2.954   7.252  0.0722  0.5546  1.1567
 2638SOL    HW219551   4.002   3.093   7.275  1.9121  1.7862  2.8674
 2639SOL     OW19552   2.411   4.465  16.069  0.5868  0.1048 -0.0060
 2639SOL    HW119553   2.390   4.485  15.978  0.2481  0.6006  0.1819
 2639SOL    HW219554   2.372   4.382  16.094  2.1575 -0.8569 -0.7443
 2640SOL     OW19555   0.745   3.621  11.605 -0.1482 -0.1538 -0.0635
 2640SOL    HW119556   0.715   3.681  11.673 -0.2583 -2.0361  1.5218
 2640SOL    HW219557   0.679   3.637  11.538 -0.0919  1.0848  0.1854
 2641SOL     OW19558   1.989   1.697  16.108  0.2962 -0.0515 -0.2004
 2641SOL    HW119559   2.047   1.743  16.048  0.9710  0.1420  0.6069
 2641SOL    HW219560   1.910   1.751  16.110 -0.7814 -1.6394 -0.0140
 2642SOL     OW19561   3.529   1.028  13.738  0.6081 -0.1346 -0.9248
 2642SOL    HW119562   3.500   1.050  13.649 -1.3607  0.2262 -0.1783
 2642SOL    HW219563   3.621   1.053  13.729  0.6196 -0.0805 -0.6600
 2643SOL     OW19564   4.072   2.859   4.336  0.0596 -0.5137 -0.3358
 2643SOL    HW119565   4.075   2.763   4.340  2.3660 -0.4266  0.5408
 2643SOL    HW219566   3.981   2.877   4.359  0.5995  1.3220  0.3715
 2644SOL     OW19567   1.565   3.589   3.423  0.4667  0.4101  0.7812
 2644SOL    HW119568   1.528   3.674   3.446  1.7752  0.8968  1.0977
 2644SOL    HW219569   1.650   3.591   3.468 -0.2574  1.9064  2.0715
 2645SOL     OW19570   3.747   1.585   5.150  0.5728 -0.0163  0.0723
 2645SOL    HW119571   3.663   1.596   5.106  0.1526  0.7803  1.0852
 2645SOL    HW219572   3.791   1.528   5.087  1.4857  1.0658 -0.2592
 2646SOL     OW19573   0.529   3.515   5.423 -0.2047  0.3414  0.9178
 2646SOL    HW119574   0.529   3.450   5.353 -0.9145  1.4263 -0.0894
 2646SOL    HW219575   0.506   3.597   5.380  2.2085  1.0543  1.0001
 2647SOL     OW19576   3.620   2.281   7.579  0.4203  0.5818 -0.2684
 2647SOL    HW119577   3.579   2.309   7.497  0.5834  2.3042  0.2290
 2647SOL    HW219578   3.573   2.202   7.605  0.6230  1.5242  3.0038
 2648SOL     OW19579   0.974   0.605   2.910 -0.1032 -0.1515  0.5780
 2648SOL    HW119580   1.026   0.646   2.979 -1.0833  0.6695  0.8202
 2648SOL    HW219581   1.036   0.557   2.856 -0.6370 -0.2989  0.0983
 2649SOL     OW19582   0.801   4.010   5.316 -0.1868 -0.2908  0.5344
 2649SOL    HW119583   0.734   4.079   5.314 -0.3626 -0.4810 -0.2382
 2649SOL    HW219584   0.813   4.002   5.221  3.0860  0.3116  0.9242
 2650SOL     OW19585   2.815   4.460   2.606  0.5243 -0.2786 -0.3402
 2650SOL    HW119586   2.775   4.522   2.667  1.5106 -2.5828  2.6575
 2650SOL    HW219587   2.842   4.525   2.541  1.0899  2.1885  2.3611
 2651SOL     OW19588   4.165   4.191   1.638 -0.1570  0.1654  0.1484
 2651SOL    HW119589   4.222   4.264   1.615  0.9549 -0.4140  1.0475
 2651SOL    HW219590   4.184   4.168   1.729 -0.3713 -0.0802  0.1312
 2652SOL     OW19591   0.543   3.876  13.569  0.1768  0.0674 -0.3752
 2652SOL    HW119592   0.458   3.913  13.545 -0.2872 -0.4971  0.3968
 2652SOL    HW219593   0.513   3.789  13.595 -1.4554  0.3622 -1.3191
 2653SOL     OW19594   2.848   4.204  14.262  0.5656  0.2876 -0.0521
 2653SOL    HW119595   2.850   4.288  14.309 -0.7745  0.6495 -0.6622
 2653SOL    HW219596   2.775   4.222  14.204 -0.0865 -1.2310  0.2987
 2654SOL     OW19597   2.354   0.471   4.980  0.5325 -0.3455  0.2142
 2654SOL    HW119598   2.265   0.438   4.986 -0.3876  1.9662 -0.9117
 2654SOL    HW219599   2.401   0.389   4.962  1.2487  0.2234 -0.5548
 2655SOL     OW19600   2.854   1.881   8.632 -0.2256 -0.0553 -0.2737
 2655SOL    HW119601   2.773   1.834   8.651 -0.3460  0.9215  1.7059
 2655SOL    HW219602   2.840   1.932   8.552 -1.4597  0.7912  0.4858
 2656SOL     OW19603   0.892   1.082  15.629 -0.2879  0.3374  0.4590
 2656SOL    HW119604   0.858   1.079  15.540  1.2324  0.7920 -0.1282
 2656SOL    HW219605   0.966   1.141  15.615 -0.3964 -0.2667 -2.5815
 2657SOL     OW19606   3.439   0.366   1.109 -0.1683 -0.0152 -0.1120
 2657SOL    HW119607   3.442   0.307   1.034 -0.8772 -2.1688  1.5746
 2657SOL    HW219608   3.384   0.435   1.071 -1.5494 -0.5199  0.9723
 2658SOL     OW19609   0.888   0.339   4.229  0.0632 -0.1431 -0.5267
 2658SOL    HW119610   0.886   0.306   4.319  2.3368  0.3545 -0.2995
 2658SOL    HW219611   0.886   0.252   4.189 -0.2052 -0.7328  0.7634
 2659SOL     OW19612   2.115   2.229   9.422  0.3148  0.3426 -0.0206
 2659SOL    HW119613   2.054   2.182   9.365 -0.0415  0.9819 -0.1624
 2659SOL    HW219614   2.093   2.321   9.413  1.4725  0.5170 -1.0563
 2660SOL     OW19615   2.536   1.179  13.241  0.5031 -0.5434 -0.1126
 2660SOL    HW119616   2.590   1.221  13.308  2.5939 -0.4253 -1.8718
 2660SOL    HW219617   2.551   1.086  13.256  0.0936 -0.8745 -1.7406
 2661SOL     OW19618   4.045   4.066   4.680  0.2242 -0.0221 -0.2908
 2661SOL    HW119619   4.027   4.104   4.594 -0.3562 -1.5292 -0.8313
 2661SOL    HW219620   3.954   4.041   4.695  0.0763 -0.0568 -1.2617
 2662SOL     OW19621   0.065   1.026   8.409  0.4132 -0.0573 -0.4017
 2662SOL    HW119622   0.061   1.122   8.409  0.2704 -0.0732  0.8625
 2662SOL    HW219623   4.711   1.000   8.385 -1.2325  0.6527  4.8855
 2663SOL     OW19624   2.182   4.238  14.393 -0.0715  0.2256 -0.3954
 2663SOL    HW119625   2.104   4.233  14.337 -0.1580 -0.7902 -0.1853
 2663SOL    HW219626   2.239   4.290  14.336 -0.6905 -0.5223 -1.6970
 2664SOL     OW19627   1.730   1.630  13.429 -0.0302  1.3502 -0.2681
 2664SOL    HW119628   1.766   1.616  13.341  1.8709 -1.0681  0.9201
 2664SOL    HW219629   1.798   1.589  13.481 -1.4771  0.5942  1.0249
 2665SOL     OW19630   4.713   2.764   7.564 -0.1339  0.0208  0.2017
 2665SOL    HW119631   0.038   2.759   7.639  0.9479 -0.5893 -0.7080
 2665SOL    HW219632   4.634   2.811   7.591 -0.1062  0.7775 -0.9986
 2666SOL     OW19633   1.317   1.814   4.011 -0.0786  0.4562 -0.6171
 2666SOL    HW119634   1.291   1.904   4.029 -0.3262  0.3441 -0.4071
 2666SOL    HW219635   1.400   1.814   4.060  1.1620  0.7952 -2.7486
 2667SOL     OW19636   0.728   4.486   2.649  0.3819 -0.1202 -0.3947
 2667SOL    HW119637   0.789   4.452   2.583 -0.2120 -2.5767  0.3334
 2667SOL    HW219638   0.763   4.574   2.664  0.2721 -0.0535 -0.5320
 2668SOL     OW19639   4.249   2.523  10.191 -0.3350 -0.5384  0.5683
 2668SOL    HW119640   4.175   2.469  10.165  2.4972 -3.4364 -1.4744
 2668SOL    HW219641   4.236   2.592  10.127 -1.5945 -1.2233  0.0973
 2669SOL     OW19642   0.361   3.141   6.677  0.4744 -0.3995  0.2116
 2669SOL    HW119643   0.375   3.060   6.727  1.1582  0.3454  1.2285
 2669SOL    HW219644   0.446   3.158   6.637  0.7088  2.0006  1.7565
 2670SOL     OW19645   2.367   1.377   0.658  0.0608  0.8098  0.2704
 2670SOL    HW119646   2.461   1.360   0.671 -0.6095 -3.5323 -0.4597
 2670SOL    HW219647   2.344   1.391   0.750 -1.7166  0.8919 -0.1892
 2671SOL     OW19648   1.858   0.660  12.116  0.3733 -0.1309  0.3174
 2671SOL    HW119649   1.850   0.621  12.202  1.9983 -0.2538  0.4051
 2671SOL    HW219650   1.875   0.579  12.068 -2.9748 -0.0123 -1.0655
 2672SOL     OW19651   2.860   3.987   9.398 -0.0182  0.1602 -0.5201
 2672SOL    HW119652   2.766   3.979   9.416  0.4197 -1.5973  0.9371
 2672SOL    HW219653   2.875   3.923   9.329  0.8639 -0.0809 -0.1016
 2673SOL     OW19654   3.107   0.445   7.194  0.0583  0.2758  0.2902
 2673SOL    HW119655   3.071   0.514   7.139  2.1799  0.1852 -1.2324
 2673SOL    HW219656   3.195   0.462   7.161  0.5229 -2.3942  0.0972
 2674SOL     OW19657   2.336   1.746  16.112 -0.4125  0.3227  0.0159
 2674SOL    HW119658   2.410   1.696  16.147 -0.3405  0.9002  0.6860
 2674SOL    HW219659   2.271   1.727  16.180  1.3018 -0.1467  1.5187
 2675SOL     OW19660   2.420   1.509  13.370  0.6128  0.3037  0.0458
 2675SOL    HW119661   2.455   1.576  13.429  3.4816 -0.1345 -1.1414
 2675SOL    HW219662   2.442   1.550  13.286  1.6721  1.5035  0.9095
 2676SOL     OW19663   3.654   0.495  14.846 -0.2345  0.0819 -0.1633
 2676SOL    HW119664   3.633   0.402  14.843  0.8568 -0.1458 -0.7937
 2676SOL    HW219665   3.743   0.502  14.810  0.4135 -1.6279  1.0950
 2677SOL     OW19666   1.890   0.373   9.817 -0.1091  0.0408  0.3098
 2677SOL    HW119667   1.889   0.429   9.740  0.8296  0.1769  0.3934
 2677SOL    HW219668   1.803   0.342   9.843 -0.0705  0.9426  1.5276
 2678SOL     OW19669   4.112   3.056  11.144  0.3279 -0.2586 -0.6093
 2678SOL    HW119670   4.091   2.964  11.161 -1.8031  0.6705  1.8985
 2678SOL    HW219671   4.025   3.079  11.111  0.0219  0.6520  0.8450
 2679SOL     OW19672   0.521   4.381   1.618 -0.3900  0.2869  0.1984
 2679SOL    HW119673   0.539   4.333   1.536  1.1072  0.2632  0.5330
 2679SOL    HW219674   0.505   4.305   1.673 -0.8404 -0.7061 -1.2914
 2680SOL     OW19675   1.766   4.559  13.334  0.6380  0.6346 -0.2074
 2680SOL    HW119676   1.708   4.633  13.317  2.0437  1.8632  0.3611
 2680SOL    HW219677   1.707   4.496  13.374 -2.3271  2.4119 -1.7546
 2681SOL     OW19678   2.146   1.164   6.843 -0.2804 -0.3488  0.6490
 2681SOL    HW119679   2.070   1.215   6.870  0.2579 -0.1771  1.8461
 2681SOL    HW219680   2.105   1.142   6.759  0.5720 -1.5454  0.5439
 2682SOL     OW19681   1.328   1.842   9.010  0.1447 -0.2245  0.4351
 2682SOL    HW119682   1.404   1.852   8.952 -1.2774 -1.0129 -1.5577
 2682SOL    HW219683   1.277   1.781   8.957 -0.7559  1.0546 -0.1821
 2683SOL     OW19684   1.759   3.650   3.593 -0.2504  0.0358  0.5810
 2683SOL    HW119685   1.775   3.566   3.636  0.9583 -0.8588 -1.5598
 2683SOL    HW219686   1.845   3.691   3.579 -0.5398  0.3030 -0.4450
 2684SOL     OW19687   2.691   1.911   6.832  0.5203 -0.5261  0.5495
 2684SOL    HW119688   2.645   1.877   6.909  1.5125 -2.0624  0.4472
 2684SOL    HW219689   2.622   1.974   6.809 -0.8004 -2.7730 -1.6188
 2685SOL     OW19690   4.019   1.306  16.601  0.2919  0.0804  0.4781
 2685SOL    HW119691   4.086   1.282  16.537  0.7837  0.4551  0.8490
 2685SOL    HW219692   3.985   1.384  16.557 -0.9604 -1.1746 -0.7332
 2686SOL     OW19693   2.434   0.682  13.643 -0.3307  0.8723  0.1272
 2686SOL    HW119694   2.447   0.766  13.599 -0.0912  1.6671  1.7214
 2686SOL    HW219695   2.486   0.626  13.585 -2.0005 -3.1274  2.4697
 2687SOL     OW19696   2.357   1.706   3.713  0.5282 -0.5254 -0.1664
 2687SOL    HW119697   2.449   1.703   3.740 -0.2986  1.0588  2.7485
 2687SOL    HW219698   2.363   1.652   3.634  1.4057 -1.3168  0.4443
 2688SOL     OW19699   2.810   1.950   9.465  0.4049 -0.4592  0.7287
 2688SOL    HW119700   2.872   1.904   9.409 -0.2554 -0.2300 -0.1940
 2688SOL    HW219701   2.778   1.878   9.520  0.2457  0.9114  2.4310
 2689SOL     OW19702   2.264   0.159   4.115 -0.2590 -0.0473  0.0522
 2689SOL    HW119703   2.352   0.136   4.084 -1.5043 -2.4303 -1.7855
 2689SOL    HW219704   2.264   0.251   4.091 -0.5350 -0.3309 -1.0208
 2690SOL     OW19705   1.455   2.496   5.048 -0.2730  1.0766  0.0184
 2690SOL    HW119706   1.499   2.523   5.128  0.9241  0.9446 -0.5943
 2690SOL    HW219707   1.474   2.404   5.062  0.8228  1.6786  2.5208
 2691SOL     OW19708   3.121   3.058   8.323  0.7393  0.1107 -0.3817
 2691SOL    HW119709   3.164   2.975   8.306  0.1611 -0.0497 -1.0285
 2691SOL    HW219710   3.140   3.062   8.417 -0.1439  0.3545 -0.2092
 2692SOL     OW19711   2.868   1.922   1.887 -0.5167  0.7693 -0.2347
 2692SOL    HW119712   2.829   1.909   1.974  0.5585  2.5138  0.4980
 2692SOL    HW219713   2.809   1.860   1.843 -1.0480  2.0921 -1.3768
 2693SOL     OW19714   3.460   1.715   5.101  0.7066  0.3617 -0.0815
 2693SOL    HW119715   3.389   1.715   5.165 -0.4301 -2.6518 -1.3171
 2693SOL    HW219716   3.482   1.808   5.106  0.3814  0.4156  0.3204
 2694SOL     OW19717   1.146   3.756  11.929  0.1173 -0.3194 -0.2619
 2694SOL    HW119718   1.231   3.748  11.886  1.0441 -2.2425  1.9055
 2694SOL    HW219719   1.099   3.683  11.887  0.8050 -1.0393  0.2109
 2695SOL     OW19720   3.142   0.923   2.166  0.0047  0.0120  0.0044
 2695SOL    HW119721   3.227   0.887   2.139 -0.7074  0.3976 -2.7528
 2695SOL    HW219722   3.120   0.853   2.227 -0.4868 -0.2356 -0.4584
 2696SOL     OW19723   4.721   1.228   0.725  0.3523 -0.3113  0.4625
 2696SOL    HW119724   4.645   1.191   0.680  1.3709 -0.9493 -0.7154
 2696SOL    HW219725   0.060   1.194   0.675 -0.1255  1.6819 -1.5494
 2697SOL     OW19726   0.713   4.631   4.513 -0.1381  0.0236  0.0713
 2697SOL    HW119727   0.807   4.646   4.500 -0.3638 -0.1594 -1.6485
 2697SOL    HW219728   0.671   4.715   4.498  1.5602  1.0146  0.8904
 2698SOL     OW19729   2.518   4.595  13.488 -0.7808 -0.1709 -0.2815
 2698SOL    HW119730   2.568   4.517  13.464 -1.3964 -0.4021 -0.8222
 2698SOL    HW219731   2.582   4.640  13.543 -0.4705  0.1170 -0.8735
 2699SOL     OW19732   0.892   3.538   5.418 -0.4246  0.2836 -0.3331
 2699SOL    HW119733   0.980   3.572   5.403 -1.2166  3.2302  1.7936
 2699SOL    HW219734   0.924   3.449   5.432 -2.2113 -0.0761  1.4818
 2700SOL     OW19735   3.649   4.587   1.662  0.5328  0.5431  0.4721
 2700SOL    HW119736   3.727   4.628   1.625 -0.7599 -0.3572 -3.2688
 2700SOL    HW219737   3.689   4.526   1.724 -0.4778 -0.9108 -0.3097
 2701SOL     OW19738   1.942   0.226   2.884 -0.3827  0.1017 -0.2976
 2701SOL    HW119739   1.932   0.236   2.790 -0.0779 -0.6674 -0.4140
 2701SOL    HW219740   2.019   0.169   2.891  0.8235  1.6324 -1.0045
 2702SOL     OW19741   3.147   3.349   5.578  0.6350  0.6616 -0.3017
 2702SOL    HW119742   3.148   3.302   5.494 -0.5075 -3.8232  2.2266
 2702SOL    HW219743   3.238   3.373   5.598  0.0131  1.3093  1.7559
 2703SOL     OW19744   4.302   0.274   5.868  0.3998 -0.1827 -0.3551
 2703SOL    HW119745   4.356   0.286   5.946  0.1237 -0.6157 -0.0984
 2703SOL    HW219746   4.265   0.361   5.852 -0.1793 -0.7682 -2.2142
 2704SOL     OW19747   1.096   2.853  15.105  0.3930  0.1538 -0.0048
 2704SOL    HW119748   1.019   2.870  15.159  0.6797  1.7023 -0.0877
 2704SOL    HW219749   1.174   2.847  15.160 -0.6600 -1.3704  1.3270
 2705SOL     OW19750   3.403   1.046  13.501 -0.3965 -0.1500  0.3653
 2705SOL    HW119751   3.338   0.976  13.501  0.9305 -1.3972 -2.0475
 2705SOL    HW219752   3.394   1.066  13.407 -0.1444  2.3308  0.8642
 2706SOL     OW19753   3.496   4.573   4.843  0.3349 -0.1163  0.3771
 2706SOL    HW119754   3.488   4.666   4.864 -0.5271 -0.0510 -0.2493
 2706SOL    HW219755   3.585   4.550   4.871  0.7392 -2.0597 -2.4769
 2707SOL     OW19756   1.980   1.538   3.732 -0.1127  0.2669  0.2833
 2707SOL    HW119757   2.041   1.600   3.770  0.4998  0.0828 -0.4172
 2707SOL    HW219758   2.036   1.490   3.671  0.0799 -0.7227  1.2298
 2708SOL     OW19759   3.123   2.832   6.594 -0.0443 -0.0540  0.4989
 2708SOL    HW119760   3.112   2.768   6.664 -1.2186  1.3525  1.5848
 2708SOL    HW219761   3.198   2.880   6.627  3.0010 -1.9926 -3.5541
 2709SOL     OW19762   3.833   3.569   4.411  0.0477  0.0065 -0.0910
 2709SOL    HW119763   3.869   3.597   4.327 -3.0337  1.0051 -1.0862
 2709SOL    HW219764   3.739   3.571   4.395 -0.0237  0.6495  0.4200
 2710SOL     OW19765   2.329   1.111  12.870  0.1884 -1.0223 -0.5725
 2710SOL    HW119766   2.400   1.104  12.934  1.6618  1.7247 -1.8689
 2710SOL    HW219767   2.318   1.024  12.834  2.2604 -1.3761 -0.3847
 2711SOL     OW19768   0.816   0.011   2.680  0.5743 -0.3567 -0.6094
 2711SOL    HW119769   0.834   4.720   2.770 -0.0312 -0.6161 -0.5569
 2711SOL    HW219770   0.901   0.053   2.667  0.2781  0.9200  1.5757
 2712SOL     OW19771   4.297   1.983   9.263 -0.4039 -0.6441 -0.8314
 2712SOL    HW119772   4.281   1.939   9.179 -0.5412 -0.8271 -0.7091
 2712SOL    HW219773   4.322   2.072   9.241 -2.8452  0.4095  0.7183
 2713SOL     OW19774   3.803   1.343   6.309 -0.0023  0.2827  0.2181
 2713SOL    HW119775   3.796   1.266   6.253  0.1659 -0.7048  1.5408
 2713SOL    HW219776   3.841   1.404   6.246  0.1897  1.2271  1.2494
 2714SOL     OW19777   3.754   0.147   3.276 -0.6695 -0.2751 -0.0522
 2714SOL    HW119778   3.728   0.073   3.221  4.5193 -0.6731 -1.9195
 2714SOL    HW219779   3.682   0.209   3.269 -0.7086 -0.2308  0.7918
 2715SOL     OW19780   1.372   4.527  12.334  1.0227 -0.3218  0.0696
 2715SOL    HW119781   1.459   4.488  12.328  1.0282 -0.3019  0.0202
 2715SOL    HW219782   1.387   4.590  12.264  1.8548 -1.7202 -1.0119
 2716SOL     OW19783   0.035   1.898   2.907 -0.1553 -0.2775  0.3795
 2716SOL    HW119784   0.070   1.820   2.864 -2.3019 -0.5205 -0.9080
 2716SOL    HW219785   0.110   1.910   2.965  0.2447  1.0513 -0.4008
 2717SOL     OW19786   0.098   2.946   6.218  0.2278 -0.0170  0.0771
 2717SOL    HW119787   0.182   2.933   6.174  0.6433 -0.9516  1.1485
 2717SOL    HW219788   0.042   2.883   6.172  0.1331 -0.1423  0.3574
 2718SOL     OW19789   3.617   2.705   6.796  0.3226 -0.4697 -0.2404
 2718SOL    HW119790   3.553   2.731   6.730 -0.2317 -0.7621  0.1785
 2718SOL    HW219791   3.695   2.732   6.748  1.4708 -0.5996  1.5618
 2719SOL     OW19792   3.089   4.097  11.952  0.0262  0.2998  0.1960
 2719SOL    HW119793   3.012   4.088  12.008  1.6481  2.6265  2.8513
 2719SOL    HW219794   3.149   4.141  12.012  1.0789 -1.2457  0.2972
 2720SOL     OW19795   0.384   1.152   6.459 -0.1095  0.2650  0.2707
 2720SOL    HW119796   0.332   1.093   6.515  1.9856 -1.6435  0.2274
 2720SOL    HW219797   0.347   1.127   6.374  1.1646 -2.0235  0.3806
 2721SOL     OW19798   4.146   2.715   9.711 -0.3890 -0.0986 -0.2817
 2721SOL    HW119799   4.201   2.752   9.642 -0.6485 -2.1664 -1.5762
 2721SOL    HW219800   4.070   2.773   9.708 -1.5157 -1.5947 -0.5410
 2722SOL     OW19801   3.483   1.939  10.857  0.0027  0.4190  0.0671
 2722SOL    HW119802   3.398   1.896  10.854 -0.6341  1.7414 -0.6385
 2722SOL    HW219803   3.526   1.940  10.771 -0.7340 -0.5778 -0.3199
 2723SOL     OW19804   0.021   2.166  10.468 -0.1336 -0.0106  0.2203
 2723SOL    HW119805   0.073   2.145  10.390  0.4488  0.3002  0.5235
 2723SOL    HW219806   0.025   2.261  10.475  1.6683 -0.0800  0.1914
 2724SOL     OW19807   1.645   0.455  10.086 -0.1035  0.0230  0.2654
 2724SOL    HW119808   1.639   0.367  10.048  2.2107 -0.4395  1.0281
 2724SOL    HW219809   1.565   0.455  10.139  0.0857  0.2206  0.5531
 2725SOL     OW19810   2.306   0.845   8.155 -0.7533 -0.1472 -0.1858
 2725SOL    HW119811   2.390   0.850   8.199 -1.1241  1.1560  0.3622
 2725SOL    HW219812   2.249   0.867   8.228 -0.4359 -0.3980  0.1378
 2726SOL     OW19813   3.180   1.438   7.234  0.2768  0.6435 -0.3228
 2726SOL    HW119814   3.130   1.424   7.314  0.4253  1.4699 -0.0808
 2726SOL    HW219815   3.191   1.533   7.229  0.2880  0.6401 -0.3730
 2727SOL     OW19816   2.825   0.618   2.374 -0.1376  0.7352  0.1645
 2727SOL    HW119817   2.832   0.714   2.376 -2.3880  0.9553 -3.0419
 2727SOL    HW219818   2.731   0.600   2.374 -0.1718  0.8581 -2.8310
 2728SOL     OW19819   3.531   4.191   3.971  0.2616  0.6491 -0.2989
 2728SOL    HW119820   3.574   4.263   4.016 -3.0546  0.5664  3.0742
 2728SOL    HW219821   3.605   4.137   3.944 -0.8199 -1.0847  0.1503
 2729SOL     OW19822   2.047   0.917   9.228  0.2604 -0.0470  0.3117
 2729SOL    HW119823   1.961   0.905   9.187 -0.7314  2.8300  1.4745
 2729SOL    HW219824   2.098   0.842   9.198  0.9106 -0.0349  1.3864
 2730SOL     OW19825   2.008   0.703   4.392  0.1247 -0.0658  0.3961
 2730SOL    HW119826   1.987   0.666   4.306  0.8492  0.1613  0.1201
 2730SOL    HW219827   2.097   0.739   4.380  0.6040 -1.3940 -0.0032
 2731SOL     OW19828   2.214   1.958   5.104 -0.2231 -0.0518  0.0989
 2731SOL    HW119829   2.305   1.938   5.129  0.0302  2.3382  0.9989
 2731SOL    HW219830   2.169   1.875   5.118 -0.5117  0.5181  2.4361
 2732SOL     OW19831   2.667   4.297   6.813 -0.3108 -0.2027 -0.0277
 2732SOL    HW119832   2.716   4.215   6.818 -0.7610 -0.5431 -1.1735
 2732SOL    HW219833   2.714   4.339   6.741  0.2224 -0.7130  0.0290
 2733SOL     OW19834   3.019   3.120   6.748 -0.0414  0.6476  0.3004
 2733SOL    HW119835   3.009   3.189   6.814 -0.4575 -0.6651  1.5971
 2733SOL    HW219836   2.998   3.180   6.676 -0.4951  0.8831  0.6313
 2734SOL     OW19837   2.560   3.014   4.674 -0.3154 -0.1989  0.3134
 2734SOL    HW119838   2.508   2.937   4.696  1.0789 -1.4819 -0.9337
 2734SOL    HW219839   2.645   2.979   4.649 -0.8332 -1.5120  0.4144
 2735SOL     OW19840   1.942   1.474   9.759  0.1433 -0.0999  0.3358
 2735SOL    HW119841   1.925   1.381   9.745  0.3433  0.0077 -0.6383
 2735SOL    HW219842   2.000   1.476   9.682  0.2777  0.3261  0.4468
 2736SOL     OW19843   0.935   0.574   3.322 -0.4601 -0.3232  0.2955
 2736SOL    HW119844   0.927   0.660   3.281 -0.8376 -0.1960  0.6282
 2736SOL    HW219845   0.995   0.533   3.260 -0.3428 -1.4088  1.1210
 2737SOL     OW19846   3.187   2.410   4.725  0.0245  0.0961  0.0631
 2737SOL    HW119847   3.094   2.393   4.707 -0.2098 -0.9875  2.2133
 2737SOL    HW219848   3.227   2.325   4.710  0.2810 -0.2314  2.5465
 2738SOL     OW19849   3.078   1.705   6.712 -0.0868 -0.0410 -0.1714
 2738SOL    HW119850   3.078   1.683   6.619  1.4997 -0.3106 -0.1194
 2738SOL    HW219851   3.056   1.798   6.714  0.5217  0.1432 -1.8856
 2739SOL     OW19852   1.938   2.250   5.702  0.5183 -0.3120 -0.2065
 2739SOL    HW119853   1.960   2.257   5.795 -0.7694  1.1254 -0.0074
 2739SOL    HW219854   1.943   2.343   5.679  1.0821 -0.7881 -1.9528
 2740SOL     OW19855   3.808   2.131   4.911  0.0873  0.2526 -0.1816
 2740SOL    HW119856   3.731   2.079   4.892 -1.3928  2.1211  0.6437
 2740SOL    HW219857   3.806   2.179   4.828  0.7117  1.3094  0.4097
 2741SOL     OW19858   1.811   2.197  11.208 -0.1524 -0.0236 -0.5861
 2741SOL    HW119859   1.811   2.118  11.154  0.7050  0.5138 -1.3775
 2741SOL    HW219860   1.850   2.162  11.288  0.2311 -0.0234 -0.7690
 2742SOL     OW19861   0.564   2.433   6.446 -0.2076  0.6340 -0.0715
 2742SOL    HW119862   0.658   2.414   6.455 -0.5725  0.1647  3.0187
 2742SOL    HW219863   0.549   2.481   6.528 -2.2850 -2.0866  1.1287
 2743SOL     OW19864   3.182   2.428   0.010 -0.1813  0.0888 -0.2870
 2743SOL    HW119865   3.150   2.501  17.694  0.8783  0.7803  0.0208
 2743SOL    HW219866   3.136   2.439   0.093 -0.6900 -0.5784 -0.4824
 2744SOL     OW19867   1.167   1.152   2.763  0.0284  0.3388  0.2255
 2744SOL    HW119868   1.188   1.221   2.827  1.7721 -0.5194  0.5863
 2744SOL    HW219869   1.074   1.157   2.739  0.4903  1.6901 -1.2693
 2745SOL     OW19870   1.931   2.440   9.594  0.1720 -0.4199 -0.3926
 2745SOL    HW119871   1.957   2.361   9.641 -0.0816  0.2953  0.9325
 2745SOL    HW219872   1.865   2.483   9.648  0.5994  1.2241 -1.1709
 2746SOL     OW19873   1.027   4.176   4.663 -0.5452 -0.4187 -0.4237
 2746SOL    HW119874   0.980   4.113   4.608 -2.0601  0.6854 -0.3761
 2746SOL    HW219875   0.968   4.251   4.672 -0.6389 -0.5413 -0.0454
 2747SOL     OW19876   0.204   0.630   1.412  0.1064 -0.9208  0.1527
 2747SOL    HW119877   0.167   0.675   1.488  1.7322  1.9187 -0.7455
 2747SOL    HW219878   0.127   0.595   1.368 -1.2958  0.3089  1.6224
 2748SOL     OW19879   2.812   3.070  12.948  0.5223  0.6833  1.0573
 2748SOL    HW119880   2.863   3.053  13.027  0.6445  0.2472  0.8871
 2748SOL    HW219881   2.768   3.149  12.977 -0.0094  0.3217  1.2482
 2749SOL     OW19882   1.006   2.618   1.340  0.3505  0.3532 -0.0575
 2749SOL    HW119883   0.967   2.663   1.265  1.8306  0.6263 -0.6527
 2749SOL    HW219884   0.934   2.594   1.398  1.9087  1.0340  2.1496
 2750SOL     OW19885   2.982   1.795   0.683  0.1022 -0.2610  0.0822
 2750SOL    HW119886   2.930   1.818   0.606  0.5911 -0.2345 -0.2488
 2750SOL    HW219887   3.022   1.879   0.706 -0.6703  0.4262 -1.0760
 2751SOL     OW19888   0.899   4.134   2.764  0.0649 -0.9915 -0.6552
 2751SOL    HW119889   0.816   4.097   2.737  0.1180 -0.6348 -1.3012
 2751SOL    HW219890   0.941   4.073   2.825 -0.9797  0.2468  1.3061
 2752SOL     OW19891   2.217   1.294   9.896 -0.3328 -0.0934 -0.7557
 2752SOL    HW119892   2.211   1.325   9.987 -0.0255  0.0869 -0.7998
 2752SOL    HW219893   2.151   1.345   9.849  1.4237  2.7092 -0.1959
 2753SOL     OW19894   2.033   2.192   8.052 -0.0387  0.2636 -0.1171
 2753SOL    HW119895   2.062   2.191   8.143 -1.9748  0.5471  0.5114
 2753SOL    HW219896   1.951   2.241   8.056 -1.2889 -1.7549 -0.7747
 2754SOL     OW19897   1.607   0.047  14.496 -0.3570  0.2175  0.2721
 2754SOL    HW119898   1.579   4.723  14.426  0.6470  0.0181  0.0385
 2754SOL    HW219899   1.626   0.132  14.457 -0.7779  0.2443  0.1226
 2755SOL     OW19900   2.096   0.277   6.612  0.4987 -0.2916 -0.0050
 2755SOL    HW119901   2.111   0.309   6.522  1.4530  0.4537  0.4155
 2755SOL    HW219902   2.044   0.354   6.636  0.8040 -1.1416  3.3628
 2756SOL     OW19903   4.202   2.047   6.464 -0.3706 -0.0235  0.2439
 2756SOL    HW119904   4.158   1.967   6.434  1.2629 -1.2903  1.2611
 2756SOL    HW219905   4.130   2.107   6.483 -1.5998 -0.1921 -3.8046
 2757SOL     OW19906   3.474   3.131   1.912  0.6433 -0.4674 -0.6692
 2757SOL    HW119907   3.536   3.127   1.984 -2.6125 -1.6077  2.1048
 2757SOL    HW219908   3.503   3.209   1.865  0.4761  0.0132  0.0356
 2758SOL     OW19909   2.049   2.876   1.992 -0.0734 -0.1349 -0.8554
 2758SOL    HW119910   2.144   2.874   1.994 -0.0796  0.6104 -0.0628
 2758SOL    HW219911   2.024   2.952   1.940  1.1474 -0.1083 -1.4007
 2759SOL     OW19912   4.453   2.243  10.857 -0.2198  0.2330  0.1623
 2759SOL    HW119913   4.507   2.318  10.833 -1.9592  1.6954  0.8189
 2759SOL    HW219914   4.394   2.267  10.929 -0.6427 -2.8121  0.8266
 2760SOL     OW19915   2.850   1.979   7.417 -0.0597  0.3164  0.0281
 2760SOL    HW119916   2.871   1.998   7.508 -0.0540  0.5853 -0.0298
 2760SOL    HW219917   2.934   1.985   7.370 -0.2294 -0.0232 -0.3255
 2761SOL     OW19918   3.839   1.470  15.237 -0.8556  0.0795  0.6154
 2761SOL    HW119919   3.754   1.431  15.214 -1.2505  1.5949 -0.5053
 2761SOL    HW219920   3.876   1.407  15.298  1.2417 -0.3859 -1.1398
 2762SOL     OW19921   0.950   0.882   3.192 -0.2475  0.0892  0.9024
 2762SOL    HW119922   0.927   0.938   3.118  1.7711  0.0131  0.2215
 2762SOL    HW219923   0.884   0.917   3.252  0.6108 -1.2449  2.6156
 2763SOL     OW19924   1.871   0.963   6.555 -0.2873  0.2195 -0.0316
 2763SOL    HW119925   1.938   0.990   6.492  0.4290  0.0939  0.6740
 2763SOL    HW219926   1.936   0.912   6.602  0.8701 -0.3723 -2.2793
 2764SOL     OW19927   4.184   3.113   2.143 -0.0393  0.0769  0.4469
 2764SOL    HW119928   4.098   3.132   2.105 -1.2859 -1.2560  2.5517
 2764SOL    HW219929   4.211   3.035   2.095 -2.5576 -0.5934  0.1076
 2765SOL     OW19930   3.240   0.289   2.042 -0.5032  0.0145  0.4185
 2765SOL    HW119931   3.235   0.356   2.110 -1.7523 -0.2459  0.5801
 2765SOL    HW219932   3.283   0.218   2.087  1.3799  0.0003 -1.4049
 2766SOL     OW19933   2.895   1.609  14.074 -0.0219 -0.2987  0.2277
 2766SOL    HW119934   2.898   1.666  13.997  4.4072 -0.1744  0.4521
 2766SOL    HW219935   2.985   1.579  14.092  0.1494  0.9290  1.4410
 2767SOL     OW19936   0.567   2.382   6.019  0.0695  0.3281  0.3925
 2767SOL    HW119937   0.535   2.346   5.936 -1.6554  1.1353  0.7180
 2767SOL    HW219938   0.645   2.334   6.049 -0.0931 -0.7177 -0.8499
 2768SOL     OW19939   1.153   1.619   8.207  0.2383 -0.3375  0.1022
 2768SOL    HW119940   1.239   1.607   8.166 -0.0290  0.6269 -0.7400
 2768SOL    HW219941   1.107   1.681   8.151 -0.1007 -0.6361  0.0525
 2769SOL     OW19942   2.319   4.016   5.856 -0.4195  0.0477  0.4523
 2769SOL    HW119943   2.262   3.941   5.839 -2.0810  1.8574 -1.9469
 2769SOL    HW219944   2.311   4.058   5.770 -0.4152 -2.4556 -0.7742
 2770SOL     OW19945   0.602   2.504   2.472 -0.2526 -0.3506 -0.0229
 2770SOL    HW119946   0.590   2.594   2.505  2.0024 -0.2304  0.4869
 2770SOL    HW219947   0.582   2.451   2.549 -0.5510 -0.1386  0.0490
 2771SOL     OW19948   3.455   2.218   4.958  0.6344  0.7490  0.1532
 2771SOL    HW119949   3.422   2.215   4.868  3.0956 -3.0670 -0.5685
 2771SOL    HW219950   3.444   2.311   4.980  0.6147  0.6993  0.3481
 2772SOL     OW19951   3.623   1.322   5.657  0.1668 -0.3463 -0.8963
 2772SOL    HW119952   3.676   1.273   5.718  0.6214 -0.4824 -1.4028
 2772SOL    HW219953   3.638   1.410   5.691 -0.1771  0.9054 -3.9278
 2773SOL     OW19954   3.817   4.184  17.219 -0.0898 -0.4447  0.1042
 2773SOL    HW119955   3.850   4.122  17.284  2.4338  2.1304  1.2510
 2773SOL    HW219956   3.893   4.241  17.210  0.3164 -0.9296  0.5586
 2774SOL     OW19957   3.099   3.034  10.653  0.5953 -0.3355 -0.2991
 2774SOL    HW119958   3.096   3.080  10.569 -0.8964  0.3955  0.1657
 2774SOL    HW219959   3.190   3.039  10.684  1.1980 -1.0058 -1.9645
 2775SOL     OW19960   3.186   2.368  14.768 -0.5387 -0.1340  0.4371
 2775SOL    HW119961   3.141   2.326  14.841  0.8788 -1.2024  0.7015
 2775SOL    HW219962   3.170   2.460  14.790 -0.5189  0.2377 -1.0485
 2776SOL     OW19963   3.450   3.769   7.007 -0.2106  0.0394  0.4004
 2776SOL    HW119964   3.478   3.717   7.081  1.4305  0.5432  0.1399
 2776SOL    HW219965   3.473   3.714   6.932  0.6553 -0.1468  0.8057
 2777SOL     OW19966   4.244   3.187  13.968  0.4455  0.3544  0.2117
 2777SOL    HW119967   4.286   3.234  13.897 -1.5619 -0.1508 -1.2943
 2777SOL    HW219968   4.276   3.224  14.051  1.0445 -1.7577  0.9477
 2778SOL     OW19969   0.868   2.270   6.148  0.5477  0.7158  0.4541
 2778SOL    HW119970   0.866   2.204   6.217 -0.0699 -1.8610 -2.0583
 2778SOL    HW219971   0.913   2.341   6.194  0.2872  0.5237  1.0060
 2779SOL     OW19972   1.457   2.547   2.709 -0.1004 -0.2655  0.2158
 2779SOL    HW119973   1.378   2.594   2.734 -0.2184 -0.6233  0.5155
 2779SOL    HW219974   1.484   2.515   2.795  1.7278 -2.2610 -1.1169
 2780SOL     OW19975   3.691   0.973   7.589 -0.4491 -0.1306  0.1107
 2780SOL    HW119976   3.616   0.955   7.646  0.3286  0.1689  1.2249
 2780SOL    HW219977   3.751   1.010   7.654 -0.5534 -0.4449  0.3863
 2781SOL     OW19978   3.661   2.496   1.397 -0.0899 -0.1017  0.2828
 2781SOL    HW119979   3.589   2.546   1.436  1.0795  2.0596 -0.3299
 2781SOL    HW219980   3.707   2.552   1.334 -2.7820  0.1144 -1.5113
 2782SOL     OW19981   3.659   2.462   4.660 -0.2791  0.2257  0.4394
 2782SOL    HW119982   3.693   2.373   4.663 -2.1955 -0.5769 -1.0953
 2782SOL    HW219983   3.667   2.479   4.566  0.0063  1.0341  0.6101
 2783SOL     OW19984   2.758   0.466   3.195  0.7348 -0.0776 -0.1875
 2783SOL    HW119985   2.811   0.518   3.135 -1.3426  1.2257 -0.8556
 2783SOL    HW219986   2.717   0.411   3.129  1.7002  0.2263 -1.0487
 2784SOL     OW19987   1.838   1.975   6.516  0.4464  0.6935  0.8869
 2784SOL    HW119988   1.915   2.026   6.493  0.6845 -0.2853 -0.5109
 2784SOL    HW219989   1.856   1.900   6.459  0.1830  0.0301  1.6761
 2785SOL     OW19990   1.307   3.248   6.944  0.1461  0.5923  0.3708
 2785SOL    HW119991   1.264   3.242   7.029  0.9112  1.6751  0.8310
 2785SOL    HW219992   1.326   3.156   6.928 -2.1711 -0.0622  1.4217
 2786SOL     OW19993   1.003   3.478   1.727 -0.2272 -0.1520 -0.2164
 2786SOL    HW119994   1.081   3.514   1.769 -0.3526 -1.0527  0.7805
 2786SOL    HW219995   0.959   3.538   1.667  1.8904  2.9444  1.3061
 2787SOL     OW19996   0.474   3.076   5.851  0.2130  0.1958 -0.1366
 2787SOL    HW119997   0.563   3.084   5.887 -0.6390 -0.5764  2.1195
 2787SOL    HW219998   0.495   3.039   5.766 -1.0115  1.7533 -1.1056
 2788SOL     OW19999   2.345   0.689   8.673 -0.2441 -0.3449 -0.1217
 2788SOL    HW120000   2.412   0.648   8.620 -1.4334 -1.9646 -0.3873
 2788SOL    HW220001   2.377   0.779   8.670  1.9222 -1.1378 -0.2322
 2789SOL     OW20002   2.909   2.177   1.839 -0.4197 -0.0376 -0.3096
 2789SOL    HW120003   2.897   2.083   1.854  1.6725  0.0432  1.8443
 2789SOL    HW220004   2.962   2.174   1.759 -0.1725 -2.4144 -0.0608
 2790SOL     OW20005   2.942   2.152   4.315  0.0479 -0.3951  0.8095
 2790SOL    HW120006   2.900   2.093   4.377 -1.5445 -0.1704 -0.0424
 2790SOL    HW220007   3.019   2.185   4.361  1.3129 -3.1166  0.5907
 2791SOL     OW20008   2.822   1.701   9.161  0.5548 -0.0901 -0.4101
 2791SOL    HW120009   2.890   1.650   9.204  1.0615  0.1990 -0.8679
 2791SOL    HW220010   2.760   1.633   9.133  0.6356 -0.9634  1.5601
 2792SOL     OW20011   0.586   2.072   2.660 -0.1355  0.2098  0.4177
 2792SOL    HW120012   0.577   1.999   2.599 -1.9068  1.2402 -0.5509
 2792SOL    HW220013   0.557   2.024   2.737 -1.0130 -2.3513 -1.5416
 2793SOL     OW20014   4.591   1.852   2.068 -0.6185 -0.1051  0.0410
 2793SOL    HW120015   4.502   1.835   2.037 -0.1636 -0.7153 -0.9412
 2793SOL    HW220016   4.634   1.780   2.020  0.7768  1.1856 -0.6482
 2794SOL     OW20017   4.056   4.303  16.291 -0.1737 -0.3240  0.1435
 2794SOL    HW120018   4.114   4.246  16.241  2.4120  1.0220  1.5594
 2794SOL    HW220019   3.970   4.298  16.251 -0.8306  1.3833  1.3430
 2795SOL     OW20020   2.665   2.103   2.649 -0.2816 -0.8432 -0.8540
 2795SOL    HW120021   2.671   2.007   2.655  1.2511 -0.6076  1.1344
 2795SOL    HW220022   2.627   2.135   2.730  0.2959 -0.5257 -0.7111
 2796SOL     OW20023   2.634   2.259   7.596 -0.0686 -0.1245  0.0997
 2796SOL    HW120024   2.580   2.184   7.620  0.9201 -0.2911  1.7852
 2796SOL    HW220025   2.588   2.306   7.527  0.1059 -1.4536 -0.9127
 2797SOL     OW20026   2.530   3.146   0.693  0.1783  0.3691 -0.7262
 2797SOL    HW120027   2.565   3.136   0.605  2.8037  2.1552  0.1208
 2797SOL    HW220028   2.487   3.061   0.699 -0.3017  0.6645  0.1128
 2798SOL     OW20029   2.211   1.375  17.005 -0.4221 -0.3407 -0.3138
 2798SOL    HW120030   2.174   1.287  17.003 -0.8086 -0.1992  0.5373
 2798SOL    HW220031   2.159   1.427  17.065  0.8266  0.2353  0.2670
 2799SOL     OW20032   1.964   0.558  17.454 -0.2666  0.1529  0.4472
 2799SOL    HW120033   2.055   0.588  17.452 -0.0448 -0.6091 -0.8167
 2799SOL    HW220034   1.955   0.485  17.393 -1.5690 -1.8651  3.0227
 2800SOL     OW20035   1.733   0.466   2.175  0.2379  0.0513 -0.2136
 2800SOL    HW120036   1.680   0.517   2.114 -0.3965 -2.3078 -1.6258
 2800SOL    HW220037   1.789   0.535   2.211 -1.0686  0.2848  1.3721
 2801SOL     OW20038   4.730   4.266  15.097 -0.3589 -0.2819 -0.2916
 2801SOL    HW120039   0.086   4.245  15.118 -0.3753 -0.1899 -0.1301
 2801SOL    HW220040   4.674   4.229  15.165  0.4338 -0.5170  0.2354
 2802SOL     OW20041   2.878   3.869   1.454 -0.5505  0.9388 -0.1606
 2802SOL    HW120042   2.826   3.790   1.471 -2.2020  1.8781 -0.7595
 2802SOL    HW220043   2.969   3.845   1.467 -0.3298  1.7975 -0.1414
 2803SOL     OW20044   4.077   1.487   3.145 -0.4529  0.2280  0.4497
 2803SOL    HW120045   4.121   1.480   3.060  0.2038 -3.3911  1.1221
 2803SOL    HW220046   4.116   1.412   3.189 -1.0078 -0.5082 -0.3353
 2804SOL     OW20047   1.331   0.603  14.354 -0.0972 -0.0502 -0.2278
 2804SOL    HW120048   1.280   0.611  14.435  1.0474 -1.4445  0.6325
 2804SOL    HW220049   1.360   0.694  14.340 -0.5564 -0.0466 -1.1553
 2805SOL     OW20050   1.459   2.132   2.949 -0.0512  0.3605 -0.6900
 2805SOL    HW120051   1.533   2.074   2.931  0.9386  1.8915 -1.4908
 2805SOL    HW220052   1.442   2.177   2.867 -1.3410  0.2575 -0.4836
 2806SOL     OW20053   2.189   3.442  12.810 -0.3565 -0.9800 -0.5725
 2806SOL    HW120054   2.279   3.474  12.818 -1.1201  1.1456 -0.4722
 2806SOL    HW220055   2.192   3.370  12.746 -2.0258  1.0701 -2.9823
 2807SOL     OW20056   0.620   0.465  12.889  0.1038  0.1378  0.3558
 2807SOL    HW120057   0.657   0.378  12.907 -1.4294 -0.5212  0.3089
 2807SOL    HW220058   0.546   0.441  12.833 -0.5670  1.5374  0.6545
 2808SOL     OW20059   2.361   0.063   7.314  0.4454  0.0217  0.1778
 2808SOL    HW120060   2.335   0.072   7.406 -0.2405 -3.1695  0.3045
 2808SOL    HW220061   2.452   0.091   7.322  0.1511  1.7004 -2.2914
 2809SOL     OW20062   1.587   3.845   8.005 -0.1246 -0.2047 -0.2596
 2809SOL    HW120063   1.530   3.877   8.075 -3.6804  0.2862 -3.3601
 2809SOL    HW220064   1.660   3.905   8.016 -1.0798  0.9994 -0.3844
 2810SOL     OW20065   3.629   0.176   6.999 -0.1849 -0.7413 -0.0330
 2810SOL    HW120066   3.551   0.199   7.049  0.7437  0.6212  0.7772
 2810SOL    HW220067   3.594   0.199   6.913 -0.1602 -1.6886 -0.2999
 2811SOL     OW20068   3.671   3.763   7.821 -0.0034  0.5861 -0.4247
 2811SOL    HW120069   3.760   3.792   7.802  0.0323 -0.1510 -1.4172
 2811SOL    HW220070   3.636   3.789   7.736 -0.0258  1.7740 -0.0428
 2812SOL     OW20071   0.215   3.995   8.099 -0.1429  0.0179 -0.4898
 2812SOL    HW120072   0.261   4.024   8.020 -2.9901  2.2883 -1.3295
 2812SOL    HW220073   0.287   3.984   8.160  1.0573  1.1899 -1.7007
 2813SOL     OW20074   2.724   0.443  11.157 -0.7129  0.5907 -0.7956
 2813SOL    HW120075   2.754   0.443  11.067  1.0950  0.2725 -0.1922
 2813SOL    HW220076   2.799   0.408  11.206 -0.0075  1.9988 -0.8758
 2814SOL     OW20077   2.981   3.569   2.521  0.3285  0.9337 -0.1057
 2814SOL    HW120078   3.046   3.592   2.588  1.6982 -1.3200 -0.6631
 2814SOL    HW220079   2.908   3.610   2.567  0.3452  0.2027  0.5698
 2815SOL     OW20080   2.537   1.162   5.698 -0.2738 -0.1197  0.1217
 2815SOL    HW120081   2.442   1.154   5.695 -0.3631  0.5011  1.3273
 2815SOL    HW220082   2.567   1.072   5.684 -2.1371 -0.3343 -2.4155
 2816SOL     OW20083   2.233   1.951   9.483  0.3589  0.1450 -0.5395
 2816SOL    HW120084   2.176   2.021   9.451 -1.4676 -0.4288  1.4829
 2816SOL    HW220085   2.322   1.986   9.476  1.0519 -1.4417  0.3245
 2817SOL     OW20086   4.092   2.307   9.144 -0.3352  0.8572 -0.0954
 2817SOL    HW120087   4.052   2.282   9.227 -2.3358  1.3485 -0.9216
 2817SOL    HW220088   4.025   2.274   9.085 -2.5322  2.8287  1.3270
 2818SOL     OW20089   3.205   3.612   6.704  0.2932  0.2639  0.0067
 2818SOL    HW120090   3.132   3.563   6.667  1.0361 -2.0084  1.5470
 2818SOL    HW220091   3.232   3.674   6.636  1.0774 -1.4437 -1.2211
 2819SOL     OW20092   3.479   3.927   7.263  0.2930 -0.3330 -0.3342
 2819SOL    HW120093   3.515   3.848   7.305 -2.0981 -0.8633  0.7008
 2819SOL    HW220094   3.504   3.916   7.171  1.8013  0.5003 -0.0181
 2820SOL     OW20095   3.061   2.316   1.263  0.1064 -0.0894  0.0173
 2820SOL    HW120096   2.988   2.302   1.203 -0.0127 -4.0525  1.0695
 2820SOL    HW220097   3.049   2.411   1.264 -1.8196 -0.3383 -0.1795
 2821SOL     OW20098   1.170   0.515   8.538 -0.6044 -0.4212  0.0455
 2821SOL    HW120099   1.226   0.562   8.476  0.8032  0.9394  2.3445
 2821SOL    HW220100   1.182   0.423   8.512  0.2822 -0.7187  1.5318
 2822SOL     OW20101   3.770   1.653   1.575  0.6001  0.3428  0.2449
 2822SOL    HW120102   3.700   1.630   1.636 -1.2643  0.6005 -1.8442
 2822SOL    HW220103   3.803   1.734   1.613  1.1319  0.8599 -1.3382
 2823SOL     OW20104   0.482   0.647   3.503 -0.3429 -0.1252  0.9311
 2823SOL    HW120105   0.494   0.601   3.586 -1.5594  0.1443  1.2637
 2823SOL    HW220106   0.532   0.723   3.530 -1.5976  0.8036  0.6653
 2824SOL     OW20107   2.235   2.847   4.616 -0.0080  0.0066 -0.1947
 2824SOL    HW120108   2.206   2.934   4.589 -1.6235 -0.8094 -1.0965
 2824SOL    HW220109   2.161   2.811   4.664  0.6754 -0.3655  0.5760
 2825SOL     OW20110   0.520   2.337   2.681 -0.3011 -0.4417  0.3432
 2825SOL    HW120111   0.528   2.242   2.685  0.4190 -0.4215 -0.5366
 2825SOL    HW220112   0.467   2.348   2.759  1.4183  3.8714  0.8905
 2826SOL     OW20113   2.344   4.134   4.772  0.3476 -0.0286  0.3681
 2826SOL    HW120114   2.410   4.192   4.735 -0.5876  0.4149 -0.5889
 2826SOL    HW220115   2.273   4.126   4.708 -0.7965 -0.9085  1.7522
 2827SOL     OW20116   3.976   1.177   5.634 -0.0164  0.7145 -0.5458
 2827SOL    HW120117   3.972   1.214   5.722  0.5572  1.5484 -0.8757
 2827SOL    HW220118   3.899   1.120   5.627  0.5823 -0.2164  0.2960
 2828SOL     OW20119   0.062   2.045   9.997 -0.1755  0.3404  0.6288
 2828SOL    HW120120   0.054   2.049  10.092  0.0961  2.2471  0.5695
 2828SOL    HW220121   0.128   1.978   9.980 -0.3874 -0.3710  2.6177
 2829SOL     OW20122   3.285   2.842   8.381 -0.3782 -0.2018 -0.5533
 2829SOL    HW120123   3.377   2.815   8.392 -0.6360 -1.1081 -0.6207
 2829SOL    HW220124   3.240   2.770   8.337 -2.7029  0.1037  1.3286
 2830SOL     OW20125   2.645   1.768   6.026  0.3953  0.2721  0.2272
 2830SOL    HW120126   2.711   1.759   5.957 -0.6030 -1.3787 -0.5150
 2830SOL    HW220127   2.594   1.842   5.994 -0.7148 -0.6038 -0.0350
 2831SOL     OW20128   1.914   4.351  13.614  0.4701  0.1423  0.0273
 2831SOL    HW120129   1.887   4.346  13.523  0.8302 -1.3483  0.0035
 2831SOL    HW220130   1.977   4.279  13.615 -0.5844 -0.7837  0.7187
 2832SOL     OW20131   3.089   2.677   7.079 -0.6482 -0.1722  0.2239
 2832SOL    HW120132   3.030   2.628   7.022 -0.2851  1.0718 -1.2255
 2832SOL    HW220133   3.170   2.666   7.030 -0.6278  0.9280  0.0116
 2833SOL     OW20134   1.688   0.170   2.992 -0.0278 -0.1243 -0.0379
 2833SOL    HW120135   1.625   0.216   2.937 -0.1989 -1.7149 -1.1659
 2833SOL    HW220136   1.775   0.194   2.960 -0.2118 -0.9560 -1.1706
 2834SOL     OW20137   2.394   3.793   4.723  0.7148 -0.2968  0.3745
 2834SOL    HW120138   2.415   3.745   4.643  0.0288  1.8224 -1.0817
 2834SOL    HW220139   2.314   3.839   4.697  1.3952  0.0878 -1.0383
 2835SOL     OW20140   1.401   3.874   4.927 -0.4310  0.0648  0.3927
 2835SOL    HW120141   1.461   3.869   4.853  0.9587 -0.0033  1.5346
 2835SOL    HW220142   1.331   3.818   4.892 -0.5504  2.1285 -2.6165
 2836SOL     OW20143   3.092   3.157   7.727 -0.1444  0.2677 -0.0069
 2836SOL    HW120144   2.997   3.159   7.739 -0.0952 -3.4879  0.9427
 2836SOL    HW220145   3.107   3.071   7.687  1.9017  1.2527 -1.4150
 2837SOL     OW20146   1.900   1.495   4.339 -0.6371  0.2091 -0.5755
 2837SOL    HW120147   1.830   1.560   4.336  1.5424  2.6616  0.7282
 2837SOL    HW220148   1.969   1.539   4.390 -0.4771 -1.9362  1.0684
 2838SOL     OW20149   0.287   2.464   6.007 -0.0547 -0.2511  0.0040
 2838SOL    HW120150   0.297   2.417   6.090 -0.5542 -1.4747 -0.6348
 2838SOL    HW220151   0.193   2.458   5.991 -0.4014 -0.2984  2.0267
 2839SOL     OW20152   4.398   1.960   3.474  0.7799  0.7518  0.0140
 2839SOL    HW120153   4.417   1.881   3.525 -0.2686 -0.5964 -1.6824
 2839SOL    HW220154   4.466   1.947   3.408 -0.7962 -0.1951 -1.4108
 2840SOL     OW20155   1.799   3.423   2.788  0.4686 -0.4812 -0.0291
 2840SOL    HW120156   1.841   3.404   2.872  0.9341  1.0685  0.0956
 2840SOL    HW220157   1.760   3.338   2.767  0.1219 -0.3259 -0.0237
 2841SOL     OW20158   1.716   2.782   3.356  0.1019 -0.6402  0.2176
 2841SOL    HW120159   1.778   2.722   3.397  0.8958  0.2241  0.2987
 2841SOL    HW220160   1.631   2.741   3.368 -0.3466  0.8468  2.1179
 2842SOL     OW20161   0.140   2.555   3.723  0.9137  0.0750 -0.3096
 2842SOL    HW120162   0.155   2.521   3.635  1.0041  0.9714 -0.6468
 2842SOL    HW220163   0.065   2.604   3.689 -0.4202 -1.2300  0.7794
 2843SOL     OW20164   1.078   1.790  12.559  0.3789  0.0876 -0.3111
 2843SOL    HW120165   1.083   1.851  12.633  0.4438  1.8452 -1.7663
 2843SOL    HW220166   1.081   1.708  12.607 -1.2143  1.1219  1.5411
 2844SOL     OW20167   3.151   1.382  14.037 -0.6368 -0.6418  0.0290
 2844SOL    HW120168   3.166   1.472  14.007 -1.5501 -0.2462  0.7620
 2844SOL    HW220169   3.166   1.415  14.125  1.6617  0.4047 -0.7304
 2845SOL     OW20170   1.933   0.027   2.576  0.1615 -0.2481 -0.0688
 2845SOL    HW120171   1.991   0.102   2.566 -0.0331 -0.1948 -0.7615
 2845SOL    HW220172   1.851   0.076   2.568 -0.5096 -1.5544 -1.2066
 2846SOL     OW20173   2.549   4.372  17.067 -0.0655 -0.5112 -0.4993
 2846SOL    HW120174   2.597   4.411  17.139 -1.7037  0.6116 -0.0137
 2846SOL    HW220175   2.618   4.338  17.010  0.5840  0.2561 -0.1476
 2847SOL     OW20176   4.491   3.592   1.841 -0.1697  0.2132 -0.0410
 2847SOL    HW120177   4.513   3.666   1.898 -0.5786 -0.7021  1.3038
 2847SOL    HW220178   4.547   3.628   1.773  1.7774 -0.2931  1.2978
 2848SOL     OW20179   4.135   0.311   1.172  0.6983 -0.2418 -0.0664
 2848SOL    HW120180   4.211   0.263   1.205  0.4041 -1.2117 -0.8479
 2848SOL    HW220181   4.187   0.380   1.130  0.6543 -0.1017  0.1060
 2849SOL     OW20182   3.665   2.803   9.161  0.0965 -0.4209 -0.0749
 2849SOL    HW120183   3.585   2.751   9.152  0.5819 -1.2619  0.3914
 2849SOL    HW220184   3.713   2.768   9.086  1.1882 -2.9491  1.7737
 2850SOL     OW20185   2.033   2.711  16.737 -0.1306 -0.5463  0.0648
 2850SOL    HW120186   1.948   2.705  16.693 -0.3053 -0.7602  0.4282
 2850SOL    HW220187   2.090   2.704  16.660 -0.9452 -1.2169 -0.4800
 2851SOL     OW20188   2.305   4.306   8.268 -0.4312 -0.1823 -0.6463
 2851SOL    HW120189   2.221   4.304   8.221 -0.1278  2.2737 -1.2768
 2851SOL    HW220190   2.355   4.357   8.203 -3.4028  0.7575 -2.1949
 2852SOL     OW20191   2.555   4.318   6.335 -0.3939 -0.0616  0.1554
 2852SOL    HW120192   2.647   4.315   6.360  1.1529 -0.3556 -5.5900
 2852SOL    HW220193   2.545   4.236   6.286  0.2716  0.2743 -0.5304
 2853SOL     OW20194   3.252   2.453  16.738 -0.0816  0.3507 -0.2835
 2853SOL    HW120195   3.221   2.446  16.648  2.2987 -0.9358 -1.0106
 2853SOL    HW220196   3.169   2.471  16.782 -0.7733  0.7022 -1.7195
 2854SOL     OW20197   0.276   1.618   3.731  0.0904 -0.1669  0.5753
 2854SOL    HW120198   0.332   1.656   3.664  1.9742 -1.2969  1.5076
 2854SOL    HW220199   0.324   1.535   3.735  0.1935 -0.3646 -5.3045
 2855SOL     OW20200   0.135   1.456  16.850  0.4185 -0.1869  0.0169
 2855SOL    HW120201   0.165   1.546  16.861  0.0148  0.0496 -0.7592
 2855SOL    HW220202   0.082   1.466  16.770  2.9446 -1.9487 -1.8824
 2856SOL     OW20203   2.867   0.071   9.347  0.1054 -0.2998 -0.4196
 2856SOL    HW120204   2.889   0.135   9.415 -1.8965 -0.2906  0.1986
 2856SOL    HW220205   2.837   0.126   9.276  0.1539 -0.2939 -0.4360
 2857SOL     OW20206   1.318   3.996  12.166 -0.4102 -0.0128 -0.5892
 2857SOL    HW120207   1.249   4.062  12.155 -1.2359 -0.3611  2.3841
 2857SOL    HW220208   1.384   4.057  12.198  0.2855 -1.4071  0.6482
 2858SOL     OW20209   3.740   3.078   5.959 -0.9455 -0.4306 -0.1900
 2858SOL    HW120210   3.655   3.043   5.985 -1.2084 -0.0657 -0.5744
 2858SOL    HW220211   3.709   3.110   5.874  1.7724  1.1297 -0.6227
 2859SOL     OW20212   3.689   0.540   6.076  0.9352 -0.2156  0.5159
 2859SOL    HW120213   3.629   0.524   6.003  0.3335  0.8982  0.7776
 2859SOL    HW220214   3.738   0.458   6.082  1.8099  0.0931 -2.2551
 2860SOL     OW20215   3.193   4.362   5.245  0.4277 -0.3254 -0.5251
 2860SOL    HW120216   3.194   4.417   5.167  0.3798  0.5953  0.1188
 2860SOL    HW220217   3.280   4.371   5.284  0.0203  2.1390 -0.1981
 2861SOL     OW20218   0.277   4.501  11.875 -0.4020  0.2103 -0.3537
 2861SOL    HW120219   0.228   4.517  11.794  2.5281 -1.4520 -2.4093
 2861SOL    HW220220   0.252   4.410  11.889  1.8753 -0.2187  0.9172
 2862SOL     OW20221   3.808   0.884   7.051  0.3550  0.1409 -0.0205
 2862SOL    HW120222   3.733   0.942   7.043 -1.1190 -1.8882 -1.2055
 2862SOL    HW220223   3.790   0.829   7.128 -0.0353  0.4075  0.0755
 2863SOL     OW20224   1.797   4.717   3.217  0.1407  0.1354  0.0269
 2863SOL    HW120225   1.725   4.704   3.279  1.2888 -3.5475  0.5777
 2863SOL    HW220226   1.766   0.061   3.172 -0.3527 -0.9085 -1.4436
 2864SOL     OW20227   4.445   4.498   3.680 -0.0479 -0.5438  0.0604
 2864SOL    HW120228   4.416   4.417   3.722  1.5824  0.0050  2.2466
 2864SOL    HW220229   4.376   4.551   3.721 -0.2296 -1.6441  1.2022
 2865SOL     OW20230   4.637   3.287   3.905  0.2482  0.4269 -0.2748
 2865SOL    HW120231   4.551   3.313   3.937  0.5707  0.2876  0.7181
 2865SOL    HW220232   4.685   3.367   3.926 -0.8950  1.1665 -0.5001
 2866SOL     OW20233   4.102   1.810   3.850 -0.2731 -0.1822 -0.5828
 2866SOL    HW120234   4.036   1.879   3.860 -1.4474 -0.9054 -3.3540
 2866SOL    HW220235   4.066   1.758   3.778  2.7045 -1.0339 -1.4618
 2867SOL     OW20236   4.108   1.581   0.735  0.4275 -0.6574 -0.9272
 2867SOL    HW120237   4.162   1.532   0.672  0.4253 -1.0244 -0.6442
 2867SOL    HW220238   4.027   1.532   0.748 -0.6365  0.6170 -2.6155
 2868SOL     OW20239   2.281   3.612   5.006  0.1191 -0.2187 -0.2769
 2868SOL    HW120240   2.275   3.634   4.913  0.9700 -1.2256 -0.5695
 2868SOL    HW220241   2.269   3.518   4.994  0.2522 -0.1538 -0.9552
 2869SOL     OW20242   1.278   4.108  16.056 -0.0624  0.1376 -0.0752
 2869SOL    HW120243   1.325   4.024  16.059  2.2076  1.4786  2.0273
 2869SOL    HW220244   1.289   4.141  15.967  2.1036 -0.2174  0.0677
 2870SOL     OW20245   2.550   1.536   3.068 -1.1024 -0.1954 -0.5576
 2870SOL    HW120246   2.622   1.507   3.011 -0.2723  2.6135 -0.9697
 2870SOL    HW220247   2.489   1.566   3.001  0.4648  0.9273 -1.4904
 2871SOL     OW20248   2.486   4.400   1.577 -0.3330  0.0626 -0.1763
 2871SOL    HW120249   2.430   4.422   1.503  0.9253 -0.8043 -1.3702
 2871SOL    HW220250   2.570   4.378   1.538  0.1714 -0.5940  1.2841
 2872SOL     OW20251   4.354   2.926   0.953 -0.6160  0.3318 -0.1532
 2872SOL    HW120252   4.339   2.971   1.036  1.4380  1.0617 -0.1718
 2872SOL    HW220253   4.268   2.892   0.928  0.0280  0.0046 -1.8876
 2873SOL     OW20254   3.299   0.624   3.689  0.1867 -0.5354 -0.2086
 2873SOL    HW120255   3.241   0.586   3.623  0.1072 -0.6180 -0.0925
 2873SOL    HW220256   3.384   0.582   3.680 -0.1702 -1.0676 -1.1389
 2874SOL     OW20257   0.164   3.154   8.813 -0.2324  0.3639  0.1565
 2874SOL    HW120258   0.106   3.096   8.763 -0.3958  1.5479 -1.0146
 2874SOL    HW220259   0.231   3.176   8.748 -1.2759 -1.6651 -1.6510
 2875SOL     OW20260   2.900   3.672   3.931  0.4131  0.2153 -0.1911
 2875SOL    HW120261   2.901   3.622   3.850  1.0203  0.6172 -0.4354
 2875SOL    HW220262   2.983   3.717   3.915 -0.5514  3.0050  2.6510
 2876SOL     OW20263   4.272   0.759   8.532 -0.1431  0.5018 -0.4832
 2876SOL    HW120264   4.332   0.695   8.494 -1.2240  0.2975 -1.8763
 2876SOL    HW220265   4.295   0.747   8.624  0.7458 -1.7595 -1.0116
 2877SOL     OW20266   1.414   3.394   6.053 -0.4864 -0.4372 -0.1574
 2877SOL    HW120267   1.445   3.457   6.119 -0.6417 -0.3166 -0.1995
 2877SOL    HW220268   1.483   3.410   5.990 -2.0315 -1.0980 -2.0086
 2878SOL     OW20269   1.395   0.343   1.634 -0.1862  0.1113 -0.1690
 2878SOL    HW120270   1.424   0.417   1.582  0.7463  1.1669  1.8386
 2878SOL    HW220271   1.308   0.378   1.655 -0.4428 -0.3675 -0.4572
 2879SOL     OW20272   1.272   2.619   3.567 -0.0678  0.2428 -0.0564
 2879SOL    HW120273   1.188   2.574   3.579  0.8232 -1.9539 -1.9578
 2879SOL    HW220274   1.292   2.645   3.657 -0.8405  3.6563 -0.8798
 2880SOL     OW20275   3.654   2.180   9.431  0.1640  0.4125  0.5631
 2880SOL    HW120276   3.623   2.232   9.505  1.1871  0.4595  0.9508
 2880SOL    HW220277   3.654   2.096   9.479 -2.6488  1.6040  2.6380
 2881SOL     OW20278   4.655   4.025  11.666 -0.2032  0.1739 -0.3346
 2881SOL    HW120279   4.707   4.105  11.675 -1.4540  0.8891  0.5513
 2881SOL    HW220280   4.727   3.969  11.639 -0.8568  0.1252 -1.9847
 2882SOL     OW20281   3.749   4.458  16.442 -0.0708 -0.2427  0.2115
 2882SOL    HW120282   3.714   4.371  16.461 -0.5276  0.1272  1.0479
 2882SOL    HW220283   3.781   4.487  16.527 -1.4012 -0.6947  0.8685
 2883SOL     OW20284   3.735   0.957  15.983  0.3369 -0.8071  0.1474
 2883SOL    HW120285   3.766   0.867  15.976  2.5438 -0.0309  0.2095
 2883SOL    HW220286   3.652   0.955  15.935  0.4283  0.8899 -0.0876
 2884SOL     OW20287   3.900   3.186   2.903 -0.0408 -0.1913  0.0593
 2884SOL    HW120288   3.994   3.185   2.921  0.0028 -0.5954 -0.1894
 2884SOL    HW220289   3.905   3.160   2.812 -1.5088 -0.5371  0.0738
 2885SOL     OW20290   4.171   1.841   2.263  0.3980  0.2781 -0.4116
 2885SOL    HW120291   4.151   1.915   2.320  2.4601 -0.4358  1.2542
 2885SOL    HW220292   4.100   1.779   2.279  0.9215 -0.2601 -0.1427
 2886SOL     OW20293   2.894   2.441  11.413  0.0925 -0.0721  0.0326
 2886SOL    HW120294   2.912   2.454  11.320 -2.6207  2.2564 -0.1839
 2886SOL    HW220295   2.946   2.366  11.439 -0.6034  0.0177  1.6992
 2887SOL     OW20296   4.642   0.659   6.428 -0.1099  0.4255  0.4949
 2887SOL    HW120297   4.714   0.723   6.425  0.1190  0.0438 -2.4267
 2887SOL    HW220298   4.560   0.705   6.409 -0.1580 -1.0432 -2.8637
 2888SOL     OW20299   1.332   0.281   8.476  0.1791  0.1011  0.0627
 2888SOL    HW120300   1.375   0.339   8.413  1.8934  0.5275  1.6459
 2888SOL    HW220301   1.345   0.198   8.431  1.2747 -0.3142  1.1686
 2889SOL     OW20302   3.443   3.767   0.628  0.7104 -0.6491 -0.3524
 2889SOL    HW120303   3.471   3.800   0.713 -1.2823 -0.7123  0.3382
 2889SOL    HW220304   3.394   3.841   0.593  0.3440 -0.7793 -0.1200
 2890SOL     OW20305   1.332   1.256   5.161 -0.1837 -0.0621  0.0014
 2890SOL    HW120306   1.380   1.213   5.091 -1.6063  0.3260 -1.2248
 2890SOL    HW220307   1.412   1.286   5.203 -2.4515  3.8006  1.5296
 2891SOL     OW20308   0.814   0.898   0.798 -0.5749 -0.6264  0.4868
 2891SOL    HW120309   0.836   0.821   0.745 -0.1393 -0.9926  1.1962
 2891SOL    HW220310   0.770   0.952   0.732 -0.1752 -0.6508  0.2037
 2892SOL     OW20311   2.385   3.312  17.174  0.4481 -0.3397 -0.2016
 2892SOL    HW120312   2.396   3.275  17.262 -0.0169  0.5534  0.2360
 2892SOL    HW220313   2.356   3.233  17.128 -0.2472  0.4054 -1.0340
 2893SOL     OW20314   0.074   3.697   8.810  0.8980  0.2747  0.2648
 2893SOL    HW120315   0.021   3.777   8.808 -0.1060 -0.3977 -0.0319
 2893SOL    HW220316   0.058   3.671   8.901  0.0561  1.0362  0.3311
 2894SOL     OW20317   3.701   3.219   3.307 -0.5377 -0.0144 -0.7724
 2894SOL    HW120318   3.647   3.142   3.326 -1.1356  0.1565 -1.7886
 2894SOL    HW220319   3.681   3.273   3.384 -0.2121 -1.2586  0.1937
 2895SOL     OW20320   4.078   0.837   6.119  0.1534 -0.7234  0.1424
 2895SOL    HW120321   4.034   0.895   6.182  1.0190  0.6135 -0.4825
 2895SOL    HW220322   4.003   0.821   6.062  0.0117  1.6935 -0.3605
 2896SOL     OW20323   1.643   3.103  17.018 -0.0378 -0.3608  0.1058
 2896SOL    HW120324   1.691   3.166  16.964 -0.3457  0.2097  0.5035
 2896SOL    HW220325   1.715   3.043  17.036 -0.1221  0.0925  1.9563
 2897SOL     OW20326   0.001   3.521   7.396  0.5704 -0.0608 -0.3789
 2897SOL    HW120327   4.701   3.432   7.389 -1.0086  0.3894  1.8500
 2897SOL    HW220328   4.655   3.572   7.397  0.7656  0.2056  1.4255
 2898SOL     OW20329   1.579   1.845   2.216 -0.6578  0.4096 -0.4147
 2898SOL    HW120330   1.628   1.914   2.172 -0.1270 -0.0114 -0.4856
 2898SOL    HW220331   1.649   1.781   2.229  0.4515  1.8861  0.9410
 2899SOL     OW20332   4.123   2.543  13.857 -0.6704  0.2326  0.1341
 2899SOL    HW120333   4.062   2.564  13.928 -0.3302 -0.3829  0.6082
 2899SOL    HW220334   4.125   2.447  13.867  0.3051  0.2918  0.5071
 2900SOL     OW20335   0.680   2.563   8.842  0.2987 -0.1092 -0.8116
 2900SOL    HW120336   0.750   2.605   8.892 -0.9801  1.9558 -0.7398
 2900SOL    HW220337   0.597   2.597   8.876  0.9611  0.8606 -0.1536
 2901SOL     OW20338   1.138   2.228   9.597 -0.2844 -0.4974 -0.7073
 2901SOL    HW120339   1.150   2.322   9.607  0.1918 -0.4001 -2.2188
 2901SOL    HW220340   1.196   2.198   9.527  0.2690  1.6258 -1.1693
 2902SOL     OW20341   3.449   1.057  10.964  0.2368 -0.1898  0.2945
 2902SOL    HW120342   3.394   0.978  10.964 -0.4583  0.2965  2.0915
 2902SOL    HW220343   3.505   1.035  11.038  1.3185 -0.4983 -0.6105
 2903SOL     OW20344   0.740   1.595   6.679 -0.3629 -0.6466  0.1833
 2903SOL    HW120345   0.748   1.667   6.741 -1.2102 -0.1774 -0.2550
 2903SOL    HW220346   0.670   1.547   6.723  1.0193 -0.5812  2.4644
 2904SOL     OW20347   0.458   3.359   0.614  0.1300 -0.3647 -0.3157
 2904SOL    HW120348   0.481   3.307   0.691 -0.1545 -0.7326 -0.4805
 2904SOL    HW220349   0.471   3.289   0.550 -0.6505  0.7386 -1.6717
 2905SOL     OW20350   1.386   1.999  12.075  0.6847 -0.6589  0.3330
 2905SOL    HW120351   1.295   1.972  12.070 -0.4987  2.6946  3.8779
 2905SOL    HW220352   1.415   1.961  11.992  1.6419  0.9819 -0.0943
 2906SOL     OW20353   3.150   0.078   2.463 -0.0432  0.7850  0.2154
 2906SOL    HW120354   3.094   0.148   2.494 -2.6519 -2.4834  2.8773
 2906SOL    HW220355   3.207   0.054   2.536  1.4533 -2.8830 -2.1458
 2907SOL     OW20356   2.919   4.648   6.784  0.3400  0.2992  0.0225
 2907SOL    HW120357   2.982   4.588   6.823  0.5975  1.3750  1.2919
 2907SOL    HW220358   2.885   4.696   6.859  0.6558 -2.6488  2.0256
 2908SOL     OW20359   3.925   2.866   7.749  0.3548 -0.2856  0.1650
 2908SOL    HW120360   3.947   2.941   7.693 -2.2583 -0.3730 -0.9889
 2908SOL    HW220361   3.997   2.804   7.736  1.4942  0.4085  3.3132
 2909SOL     OW20362   4.313   3.556  16.266  0.1193  0.2453 -0.9545
 2909SOL    HW120363   4.309   3.460  16.264 -0.2952  0.2314  0.2642
 2909SOL    HW220364   4.232   3.586  16.224 -0.4498  0.8705  0.6069
 2910SOL     OW20365   2.625   3.716  13.363 -0.0471 -0.0693 -0.1633
 2910SOL    HW120366   2.682   3.766  13.422 -1.9409 -0.2878  1.8448
 2910SOL    HW220367   2.561   3.782  13.339 -0.0205  0.1819  0.4538
 2911SOL     OW20368   3.179   0.430   8.288  0.1933  0.0294  0.0833
 2911SOL    HW120369   3.257   0.475   8.321  1.3201 -0.1361 -2.3011
 2911SOL    HW220370   3.210   0.342   8.266 -0.5883  0.2183 -1.7755
 2912SOL     OW20371   4.483   4.571   9.089 -0.4684 -0.2750  0.3629
 2912SOL    HW120372   4.492   4.557   8.994  0.3992  0.5249  0.3242
 2912SOL    HW220373   4.477   4.666   9.098  1.9550 -0.2356  1.5200
 2913SOL     OW20374   2.150   3.065   5.564  0.3734  0.1866  0.6979
 2913SOL    HW120375   2.221   3.034   5.619  0.1624 -0.5164  0.5894
 2913SOL    HW220376   2.202   3.102   5.493 -2.8886  3.0337 -0.1916
 2914SOL     OW20377   2.964   1.014  13.940  0.3170 -0.3765  0.4527
 2914SOL    HW120378   3.028   1.035  13.872 -2.1176  2.2923 -1.0057
 2914SOL    HW220379   3.013   1.039  14.018 -0.8193  1.4227  0.5952
 2915SOL     OW20380   2.972   2.209   8.463  0.1346 -0.5377 -0.1426
 2915SOL    HW120381   3.011   2.181   8.381  0.8529  1.7390 -0.5824
 2915SOL    HW220382   3.019   2.156   8.528 -0.0338  1.6032  1.7508
 2916SOL     OW20383   4.487   1.990  15.119  0.2328 -0.2167 -0.4067
 2916SOL    HW120384   4.468   1.908  15.073  1.3234  0.0296 -1.2845
 2916SOL    HW220385   4.493   1.957  15.209 -2.7245  1.1440  0.3032
 2917SOL     OW20386   4.600   0.873   3.674 -0.3073 -0.0974  0.1303
 2917SOL    HW120387   4.663   0.853   3.605 -0.6500 -0.0403 -0.1949
 2917SOL    HW220388   4.555   0.947   3.635 -2.3813 -2.2920 -1.6562
 2918SOL     OW20389   4.504   0.379   5.066  0.4560 -0.0428  0.0568
 2918SOL    HW120390   4.577   0.358   5.008 -0.1873 -1.0022 -0.4074
 2918SOL    HW220391   4.549   0.441   5.123  0.2410  0.0849  0.0876
 2919SOL     OW20392   0.003   1.478  12.227  0.1555  0.2300 -0.3795
 2919SOL    HW120393   4.710   1.566  12.252 -0.6431 -0.2996  0.5892
 2919SOL    HW220394   0.095   1.497  12.208 -0.7468  4.5102 -0.5285
 2920SOL     OW20395   3.715   4.026   7.016  0.2775  0.5391 -0.6305
 2920SOL    HW120396   3.739   3.958   6.953 -4.2630 -1.5389 -0.1094
 2920SOL    HW220397   3.631   4.059   6.984 -1.0568  0.1521  2.3913
 2921SOL     OW20398   4.477   1.135   4.131  0.3647 -0.0431 -0.3153
 2921SOL    HW120399   4.489   1.075   4.204  0.2526  0.4199  0.0811
 2921SOL    HW220400   4.520   1.078   4.067  1.5071  1.5212 -0.9805
 2922SOL     OW20401   3.841   2.776   6.649  0.2802 -0.2866  0.3815
 2922SOL    HW120402   3.917   2.757   6.704 -0.1480 -0.7303  0.8238
 2922SOL    HW220403   3.832   2.693   6.603  1.0281  0.7117 -1.5581
 2923SOL     OW20404   3.239   3.680   3.119  0.3007  1.0560  0.0983
 2923SOL    HW120405   3.157   3.695   3.073  0.3121  1.5092  0.2222
 2923SOL    HW220406   3.231   3.594   3.159  1.0820  1.8360  1.9612
 2924SOL     OW20407   0.036   1.921   3.513  0.0128  0.2053 -0.0393
 2924SOL    HW120408   0.083   1.991   3.558 -1.3358  0.7524  0.5387
 2924SOL    HW220409   0.005   1.862   3.582  0.6666  1.3093  1.1971
 2925SOL     OW20410   0.563   3.792   8.480 -0.1082 -0.9860 -0.3229
 2925SOL    HW120411   0.590   3.881   8.503 -1.3202 -0.0995 -2.3116
 2925SOL    HW220412   0.474   3.809   8.449  0.6453  0.5850 -1.6301
 2926SOL     OW20413   3.720   1.599  12.556 -0.3944 -0.2891  0.7073
 2926SOL    HW120414   3.810   1.599  12.588 -1.4993 -0.2537  3.8133
 2926SOL    HW220415   3.746   1.602  12.464 -0.2655  1.7182  0.7922
 2927SOL     OW20416   4.555   1.061  14.033 -0.7281  0.6354 -0.4815
 2927SOL    HW120417   4.582   1.101  13.950  2.2298 -0.6435 -0.1211
 2927SOL    HW220418   4.467   1.096  14.052  0.1986  2.3522  0.6812
 2928SOL     OW20419   3.853   4.607  10.801  0.3754 -0.1603 -0.4097
 2928SOL    HW120420   3.855   4.512  10.816  1.8282 -0.1773 -0.7314
 2928SOL    HW220421   3.762   4.599  10.774  0.2311 -1.2020  0.3401
 2929SOL     OW20422   3.173   3.137   2.084  0.3064  0.1936 -0.1868
 2929SOL    HW120423   3.079   3.117   2.081 -0.0371  2.0092 -1.1981
 2929SOL    HW220424   3.219   3.055   2.103  0.0604 -0.0575 -0.6630
 2930SOL     OW20425   3.318   2.597   2.718  0.1837  0.2948 -0.6850
 2930SOL    HW120426   3.357   2.550   2.792 -0.3448 -0.2703 -0.7618
 2930SOL    HW220427   3.227   2.569   2.733  0.1724  1.0890  0.6673
 2931SOL     OW20428   0.663   0.199   7.854  0.0942 -0.6111 -0.5596
 2931SOL    HW120429   0.620   0.115   7.840 -1.7322  0.2659 -0.2050
 2931SOL    HW220430   0.722   0.161   7.919 -1.2863 -2.0540 -0.1387
 2932SOL     OW20431   1.252   1.658   3.782  0.4023 -0.0456  0.1260
 2932SOL    HW120432   1.271   1.731   3.722 -0.6738 -0.4766 -0.7428
 2932SOL    HW220433   1.280   1.700   3.863 -0.3998  1.4170 -0.3419
 2933SOL     OW20434   3.087   0.603  14.793 -0.0317  0.2225 -0.0145
 2933SOL    HW120435   3.087   0.614  14.698 -0.0349  0.7663  0.0497
 2933SOL    HW220436   3.166   0.552  14.810  0.4921  0.3146 -2.1475
 2934SOL     OW20437   4.687   0.286  10.114  0.3449 -0.4487 -0.7464
 2934SOL    HW120438   0.041   0.251  10.108  0.8156  0.6228 -0.1197
 2934SOL    HW220439   4.686   0.258  10.206 -0.7226 -1.1205 -0.9699
 2935SOL     OW20440   1.457   4.565   3.633 -0.6388  0.3305 -0.0521
 2935SOL    HW120441   1.479   4.472   3.640  1.1343  0.5941 -2.2885
 2935SOL    HW220442   1.390   4.565   3.564 -1.9608  1.1517  1.2295
 2936SOL     OW20443   0.892   0.082   5.554  0.0498 -0.2299  0.5591
 2936SOL    HW120444   0.852   0.138   5.488  0.0960 -0.8310  0.0232
 2936SOL    HW220445   0.853   0.114   5.636 -1.5738  1.6964 -0.9849
 2937SOL     OW20446   3.898   3.127   8.660  0.1460  0.0069 -0.1973
 2937SOL    HW120447   3.940   3.064   8.601  0.0898  0.0128 -0.2429
 2937SOL    HW220448   3.970   3.178   8.697 -0.2931  1.0559 -0.8172
 2938SOL     OW20449   1.643   0.103   4.663 -0.6354  0.3020 -0.2776
 2938SOL    HW120450   1.557   0.141   4.683  0.6249  3.0306 -0.0033
 2938SOL    HW220451   1.647   0.095   4.567  0.9450  0.6680 -0.2395
 2939SOL     OW20452   1.050   2.624  17.128  0.8134 -0.2129 -0.5854
 2939SOL    HW120453   1.007   2.599  17.047 -0.4298 -0.3412  0.1101
 2939SOL    HW220454   1.110   2.691  17.097  3.2940 -1.7988  0.7535
 2940SOL     OW20455   3.083   2.661   2.368  0.1003  0.1602  0.0276
 2940SOL    HW120456   3.116   2.633   2.282 -1.9240 -1.0940 -0.3445
 2940SOL    HW220457   2.994   2.627   2.355  0.4736 -0.9882  0.4768
 2941SOL     OW20458   0.632   0.158  12.881  0.0870  0.0723  0.2762
 2941SOL    HW120459   0.560   0.106  12.916 -1.0824  0.9580 -0.7892
 2941SOL    HW220460   0.653   0.110  12.800  1.2671  1.1530 -0.0520
 2942SOL     OW20461   3.208   1.322   1.218 -0.0257  1.0524 -0.0446
 2942SOL    HW120462   3.149   1.369   1.276 -1.2588  0.0706 -0.4918
 2942SOL    HW220463   3.275   1.384   1.191 -0.4804  0.9583 -1.3973
 2943SOL     OW20464   0.127   2.217  13.564 -0.2511 -0.0281 -0.1660
 2943SOL    HW120465   0.181   2.178  13.496  2.1202 -2.2882  3.0122
 2943SOL    HW220466   0.056   2.153  13.567 -1.0196  0.8971  1.5429
 2944SOL     OW20467   1.678   2.081   4.960 -0.4545  0.6589  0.0102
 2944SOL    HW120468   1.772   2.065   4.963 -0.3434  1.2887  0.0621
 2944SOL    HW220469   1.668   2.149   4.892 -1.8484  2.4746  2.0308
 2945SOL     OW20470   1.428   1.791   1.825  0.4694 -0.0172  0.3184
 2945SOL    HW120471   1.504   1.734   1.809  0.3620  0.0275 -0.3514
 2945SOL    HW220472   1.459   1.865   1.773  1.1883 -0.0819  0.6452
 2946SOL     OW20473   1.403   0.121   1.499  0.4233  0.5010 -0.4229
 2946SOL    HW120474   1.418   0.204   1.544  2.2670 -0.7540  1.2828
 2946SOL    HW220475   1.421   0.064   1.574 -0.9230  1.5254  0.6666
 2947SOL     OW20476   4.041   0.102   8.324  0.2780 -0.3313 -0.3229
 2947SOL    HW120477   4.073   0.109   8.414 -0.7747 -0.4997  0.0636
 2947SOL    HW220478   4.047   0.008   8.308  0.1697 -0.4888  0.5758
 2948SOL     OW20479   1.532   2.442  15.224  0.3198  0.0678  0.0155
 2948SOL    HW120480   1.475   2.368  15.202  2.0809 -1.2779 -0.0481
 2948SOL    HW220481   1.614   2.406  15.192  0.0205 -0.7949  0.1955
 2949SOL     OW20482   2.019   2.018   6.209 -0.5871 -0.0941 -0.7157
 2949SOL    HW120483   2.061   1.950   6.158 -1.6512 -0.1876 -1.4807
 2949SOL    HW220484   1.931   2.008   6.172  0.0432 -0.7016 -2.0694
 2950SOL     OW20485   1.346   1.754   2.072 -0.1014 -0.3562  0.1937
 2950SOL    HW120486   1.338   1.789   1.983  1.0772 -3.4383 -1.1131
 2950SOL    HW220487   1.427   1.796   2.102  0.4739 -0.9605 -0.5047
 2951SOL     OW20488   1.395   4.389   8.755  0.3036  0.0661  0.3283
 2951SOL    HW120489   1.310   4.383   8.797 -0.5172  4.2017 -0.6905
 2951SOL    HW220490   1.372   4.460   8.695  1.6533 -1.4194 -1.9465
 2952SOL     OW20491   0.518   1.791   0.607  0.5311  0.2458  0.6755
 2952SOL    HW120492   0.584   1.859   0.614  0.5788  0.3074 -0.4281
 2952SOL    HW220493   0.443   1.850   0.603 -1.4831 -2.3775 -0.3698
 2953SOL     OW20494   1.916   1.919   1.711 -0.1166 -0.7072 -0.2849
 2953SOL    HW120495   1.890   1.973   1.636 -0.9383 -0.5398  0.1213
 2953SOL    HW220496   1.873   1.836   1.694  3.1631 -2.2952 -0.7394
 2954SOL     OW20497   3.135   1.069   1.165 -0.2930  0.4469 -0.0196
 2954SOL    HW120498   3.104   1.073   1.256 -0.3715 -1.4621  0.0297
 2954SOL    HW220499   3.165   1.160   1.154 -0.4965  0.6277  0.8973
 2955SOL     OW20500   4.065   0.627   3.844 -0.2682 -0.3088  0.5754
 2955SOL    HW120501   4.146   0.603   3.799 -0.9308 -1.9933  0.2538
 2955SOL    HW220502   4.098   0.652   3.930 -0.7487 -2.8074  1.4890
 2956SOL     OW20503   3.682   0.918  16.396 -0.2024 -0.2858 -0.8074
 2956SOL    HW120504   3.678   0.858  16.471 -0.2467  1.4674  0.6042
 2956SOL    HW220505   3.773   0.947  16.403 -0.8240  1.4547  0.0171
 2957SOL     OW20506   2.106   2.903   4.258  0.0231 -0.0009  0.4719
 2957SOL    HW120507   2.071   2.935   4.342 -0.8108  0.4771 -0.0580
 2957SOL    HW220508   2.057   2.962   4.201  0.7879  0.4299  0.2751
 2958SOL     OW20509   0.505   4.276   8.096 -0.1718 -0.6490  0.5608
 2958SOL    HW120510   0.517   4.365   8.128  0.8016 -0.5396 -0.1079
 2958SOL    HW220511   0.443   4.256   8.166  0.5670  0.6171  1.5659
 2959SOL     OW20512   0.278   0.901  16.885 -0.1950  0.0688  0.6421
 2959SOL    HW120513   0.273   0.989  16.847  1.4561  0.0373  0.3432
 2959SOL    HW220514   0.360   0.879  16.840 -0.0428  1.4281  0.2750
 2960SOL     OW20515   1.436   1.348   2.375 -0.1742 -0.6109  0.6651
 2960SOL    HW120516   1.392   1.432   2.366 -0.0576 -0.8230 -1.8827
 2960SOL    HW220517   1.424   1.311   2.288  0.9775 -0.0200  0.2631
 2961SOL     OW20518   3.500   1.740  17.395 -0.5977 -0.0999 -0.3482
 2961SOL    HW120519   3.584   1.695  17.400 -0.5887 -0.0536 -0.0385
 2961SOL    HW220520   3.495   1.756  17.301  0.6915  0.4684 -0.3079
 2962SOL     OW20521   2.074   4.546   5.789  0.1475  0.0659  0.5913
 2962SOL    HW120522   2.133   4.472   5.773  0.1567 -0.2963  2.2016
 2962SOL    HW220523   2.018   4.499   5.851 -0.1389  0.1009  0.3584
 2963SOL     OW20524   2.555   2.221   7.299 -0.6325  0.3780  0.2184
 2963SOL    HW120525   2.542   2.164   7.224  0.3104  1.3210 -0.6629
 2963SOL    HW220526   2.478   2.191   7.348  1.3806 -0.8519  2.6275
 2964SOL     OW20527   2.178   2.588  10.464  0.1098 -0.2930  0.0092
 2964SOL    HW120528   2.099   2.567  10.414 -0.0740  1.8747 -0.5997
 2964SOL    HW220529   2.152   2.674  10.496 -1.9127 -0.0155 -2.3811
 2965SOL     OW20530   2.698   0.697   8.079 -0.2276 -0.2215  0.4923
 2965SOL    HW120531   2.736   0.784   8.085 -0.6144  0.1642 -2.9358
 2965SOL    HW220532   2.709   0.682   7.985 -1.8579 -0.1710  0.2902
 2966SOL     OW20533   3.348   1.895   4.813 -0.1391 -0.3703  0.3765
 2966SOL    HW120534   3.282   1.948   4.858  1.4170  2.1264 -0.2614
 2966SOL    HW220535   3.307   1.854   4.737  1.8020 -0.7946 -0.4148
 2967SOL     OW20536   3.792   2.134   5.552  0.0672 -0.3314  0.0155
 2967SOL    HW120537   3.818   2.185   5.476 -1.6801  2.5811  1.3970
 2967SOL    HW220538   3.824   2.045   5.532  0.8531 -0.3114  1.1723
 2968SOL     OW20539   3.135   3.685   3.728 -0.1145 -0.5632 -0.4301
 2968SOL    HW120540   3.123   3.611   3.668 -2.2978 -1.7961  1.5226
 2968SOL    HW220541   3.218   3.714   3.692  0.7761  1.0075  2.8803
 2969SOL     OW20542   0.408   3.413   7.334 -0.5386 -0.0246 -0.4145
 2969SOL    HW120543   0.498   3.418   7.365 -0.6630 -0.5307  0.0273
 2969SOL    HW220544   0.377   3.341   7.388 -0.1460 -0.2916 -0.5449
 2970SOL     OW20545   2.593   0.654   9.634  0.2371 -0.1297  0.5567
 2970SOL    HW120546   2.507   0.611   9.640 -0.5808  1.2703 -0.9380
 2970SOL    HW220547   2.618   0.666   9.725  0.1355  1.6087  0.3583
 2971SOL     OW20548   2.123   2.803   8.852 -0.5393  0.3394 -0.1253
 2971SOL    HW120549   2.047   2.746   8.840 -0.2232  0.3137 -2.0269
 2971SOL    HW220550   2.095   2.860   8.923 -2.4349 -3.0421  1.7970
 2972SOL     OW20551   2.558   1.392  15.968  0.6327  0.1795 -0.1913
 2972SOL    HW120552   2.651   1.414  15.978  0.3753  0.4355  1.7224
 2972SOL    HW220553   2.571   1.308  16.013 -0.5319 -0.1575 -0.4950
 2973SOL     OW20554   1.744   3.033   5.381 -0.0142  0.2449  0.8687
 2973SOL    HW120555   1.733   3.022   5.475  4.4092 -1.6093  1.1377
 2973SOL    HW220556   1.662   3.069   5.346  0.3327  0.0477 -0.1593
 2974SOL     OW20557   1.943   3.164  17.475  0.4397 -0.4466  0.1081
 2974SOL    HW120558   1.864   3.144  17.425  0.7222 -0.9572 -0.1334
 2974SOL    HW220559   1.908   3.158  17.564  1.6332  2.2812  0.7755
 2975SOL     OW20560   3.326   2.953   7.666 -0.1747 -0.1333  0.3971
 2975SOL    HW120561   3.406   2.923   7.623 -1.5162  1.5339 -3.3235
 2975SOL    HW220562   3.350   2.936   7.756 -1.2896 -3.2317  0.1121
 2976SOL     OW20563   0.168   2.295   5.595 -0.5121  0.5432  0.0916
 2976SOL    HW120564   0.199   2.241   5.522 -0.6873 -0.8582  1.0632
 2976SOL    HW220565   0.238   2.358   5.610  0.6318 -0.7869  0.3095
 2977SOL     OW20566   4.504   2.181   5.213  0.1521  0.2000  1.2634
 2977SOL    HW120567   4.591   2.220   5.220  1.5493 -2.3558 -2.2570
 2977SOL    HW220568   4.457   2.225   5.284  0.0493  0.1717  1.2126
 2978SOL     OW20569   4.005   1.512   2.735  0.2305  0.0445 -0.6207
 2978SOL    HW120570   4.056   1.512   2.816 -4.0310  1.3671  2.0547
 2978SOL    HW220571   3.920   1.549   2.760 -0.0016 -1.1305  0.3086
 2979SOL     OW20572   1.375   1.525   8.047  0.4845  0.3522 -0.5332
 2979SOL    HW120573   1.430   1.584   7.996  0.7283 -0.1575 -0.8569
 2979SOL    HW220574   1.426   1.532   8.128 -0.0517 -2.7897  0.0745
 2980SOL     OW20575   2.944   2.549  16.522  0.2062  0.1263 -0.0636
 2980SOL    HW120576   3.006   2.601  16.470  0.1490 -0.8543 -1.1214
 2980SOL    HW220577   2.857   2.575  16.492 -0.0216 -0.9080 -0.2658
 2981SOL     OW20578   0.373   4.071   1.176 -0.0252 -0.1256  0.3921
 2981SOL    HW120579   0.382   4.149   1.121  0.8023  0.4075  1.2845
 2981SOL    HW220580   0.280   4.053   1.162 -0.3453  2.1987 -0.4578
 2982SOL     OW20581   1.194   4.432   6.993  0.6302  0.3551 -0.0383
 2982SOL    HW120582   1.268   4.380   6.961 -0.7723 -1.1450 -0.8643
 2982SOL    HW220583   1.190   4.504   6.931 -2.5922 -0.2906 -0.5656
 2983SOL     OW20584   4.144   0.495   5.867  0.3558 -0.2056 -0.4202
 2983SOL    HW120585   4.049   0.489   5.855 -0.0697  1.8411  1.9883
 2983SOL    HW220586   4.152   0.576   5.918  1.4231  0.2579 -1.3139
 2984SOL     OW20587   2.098   3.803  17.653  0.1310  0.1260 -0.3058
 2984SOL    HW120588   2.139   3.885  17.625 -0.1779  0.0751 -0.8987
 2984SOL    HW220589   2.007   3.829  17.640 -0.5406 -0.8350  2.5456
 2985SOL     OW20590   0.849   2.975  11.905  0.2927  0.1270  0.0043
 2985SOL    HW120591   0.885   2.982  11.816 -0.1160 -1.7210 -0.3024
 2985SOL    HW220592   0.830   2.882  11.913  1.0546  0.0905  1.2556
 2986SOL     OW20593   3.944   3.799   7.743  0.3894  0.0762 -0.2462
 2986SOL    HW120594   3.974   3.790   7.653  1.7135  1.0579  0.1042
 2986SOL    HW220595   4.003   3.865   7.777  1.4894 -0.6109 -0.8317
 2987SOL     OW20596   2.500   4.662   5.178 -0.0910 -0.6577  0.3027
 2987SOL    HW120597   2.446   4.584   5.169 -0.8937 -0.3547  2.4341
 2987SOL    HW220598   2.584   4.617   5.166 -0.7866 -1.8974  0.0535
 2988SOL     OW20599   1.032   2.978  16.694 -0.9823 -0.1140  0.0412
 2988SOL    HW120600   1.033   3.036  16.769 -2.3560 -3.8654  2.9495
 2988SOL    HW220601   1.070   3.030  16.623 -1.7794 -0.2816 -0.5186
 2989SOL     OW20602   3.727   1.795  10.169 -0.2476 -0.7294 -0.1592
 2989SOL    HW120603   3.720   1.722  10.108 -0.6608  0.7137 -1.8398
 2989SOL    HW220604   3.637   1.790  10.202  0.6534  1.3289  2.7131
 2990SOL     OW20605   1.886   0.995   4.255  0.2929  0.7950  0.6348
 2990SOL    HW120606   1.963   1.049   4.273 -0.2869  1.3989  1.2878
 2990SOL    HW220607   1.905   0.911   4.297  0.2234  0.2259 -0.4561
 2991SOL     OW20608   0.188   4.248   3.700  0.1496  0.0652  0.2346
 2991SOL    HW120609   0.253   4.316   3.716  0.3013  0.1835 -0.8648
 2991SOL    HW220610   0.241   4.169   3.710 -0.8166 -0.5125  0.8584
 2992SOL     OW20611   2.463   3.898   3.105 -0.3146  0.1234 -0.3148
 2992SOL    HW120612   2.370   3.907   3.123 -0.4301 -0.3157 -0.7149
 2992SOL    HW220613   2.469   3.890   3.010  0.8855  0.6080 -0.2903
 2993SOL     OW20614   4.327   0.093  11.397  0.4423  0.3418  0.3501
 2993SOL    HW120615   4.329   0.000  11.419 -0.8765  0.0376 -0.7899
 2993SOL    HW220616   4.350   0.122  11.485  0.9836 -1.1650  0.6949
 2994SOL     OW20617   0.750   0.279   8.375 -0.2971 -0.4918 -0.1667
 2994SOL    HW120618   0.800   0.344   8.425 -0.9584  0.2978 -0.5389
 2994SOL    HW220619   0.660   0.294   8.402 -0.6211 -0.1251 -1.4744
 2995SOL     OW20620   2.171   3.221   2.947 -0.3788  0.4197  0.2564
 2995SOL    HW120621   2.234   3.239   3.017  0.0379 -0.5740  0.1431
 2995SOL    HW220622   2.190   3.128   2.932 -2.0272 -0.1569  1.7488
 2996SOL     OW20623   1.790   1.500   7.955 -0.2897  0.4472  0.4830
 2996SOL    HW120624   1.797   1.411   7.991 -2.0158 -0.0708 -0.4288
 2996SOL    HW220625   1.770   1.490   7.861 -2.5708 -1.7273  1.1982
 2997SOL     OW20626   3.203   1.913   1.050 -0.2453  0.3841 -0.7221
 2997SOL    HW120627   3.276   1.864   1.087 -0.2873  1.6463  1.0446
 2997SOL    HW220628   3.162   1.860   0.982  1.4860 -1.3816 -0.3854
 2998SOL     OW20629   4.629   0.377  15.551 -0.2780 -0.4796 -0.7617
 2998SOL    HW120630   4.717   0.342  15.562 -0.7454 -1.7436 -0.9758
 2998SOL    HW220631   4.579   0.295  15.559  0.9163 -0.9774  1.4256
 2999SOL     OW20632   0.820   4.615   5.800 -0.2408  0.3787  0.0608
 2999SOL    HW120633   0.784   4.698   5.830  1.8476  1.4718 -0.4713
 2999SOL    HW220634   0.747   4.607   5.738  0.9161  1.3615 -1.4054
 3000SOL     OW20635   4.522   0.763   5.153 -0.5906  0.3289 -0.2184
 3000SOL    HW120636   4.540   0.744   5.061  2.2607  2.8169 -0.1431
 3000SOL    HW220637   4.568   0.688   5.191  0.1186  0.2803 -1.1765
 3001SOL     OW20638   3.054   1.315   2.417  0.3748  0.6164  0.2430
 3001SOL    HW120639   3.002   1.317   2.337 -1.1444  1.5518  1.2513
 3001SOL    HW220640   3.110   1.392   2.410  1.6932 -0.4037 -0.4922
 3002SOL     OW20641   2.253   3.221   4.073 -0.6949 -0.0160 -0.0006
 3002SOL    HW120642   2.228   3.170   4.150  1.6079  2.0344  2.1162
 3002SOL    HW220643   2.191   3.293   4.071 -0.8012 -0.0924  0.4625
 3003SOL     OW20644   4.000   3.720   2.087 -0.2524 -0.1093 -0.6844
 3003SOL    HW120645   3.926   3.770   2.121  1.3263  0.7835  1.3832
 3003SOL    HW220646   4.057   3.785   2.045  2.0437 -0.2643  2.1971
 3004SOL     OW20647   1.295   4.102   1.532  0.0720  0.2281  0.0011
 3004SOL    HW120648   1.295   4.062   1.445 -1.0495  1.0646 -0.3916
 3004SOL    HW220649   1.314   4.033   1.595  0.9701  0.6367  0.1749
 3005SOL     OW20650   3.095   1.251  14.420  0.2081  0.8179 -0.3133
 3005SOL    HW120651   3.142   1.265  14.503 -0.5637  1.1917  0.0693
 3005SOL    HW220652   3.039   1.179  14.449  2.4217 -0.9013 -0.3938
 3006SOL     OW20653   0.581   0.704   0.872 -0.1471  0.4616 -0.6121
 3006SOL    HW120654   0.524   0.779   0.856  0.0275  1.0889  1.6465
 3006SOL    HW220655   0.524   0.637   0.910  1.5776  0.3698  1.8674
 3007SOL     OW20656   4.733   2.036  15.001 -0.0490 -0.0151  0.0241
 3007SOL    HW120657   4.646   2.017  15.036  1.4627 -0.6776  3.3683
 3007SOL    HW220658   4.722   2.131  14.992 -2.5320 -0.4904 -2.0039
 3008SOL     OW20659   0.568   4.245  17.127  0.1202 -0.2161  0.2376
 3008SOL    HW120660   0.609   4.244  17.041 -0.1321 -1.8074  0.1300
 3008SOL    HW220661   0.557   4.338  17.145 -3.9773 -0.5967 -0.1610
 3009SOL     OW20662   3.642   2.871   3.128 -0.5309  0.6505  0.1438
 3009SOL    HW120663   3.692   2.810   3.183  0.5023  0.5084 -0.9514
 3009SOL    HW220664   3.704   2.891   3.057  0.9245 -1.2165  0.8767
 3010SOL     OW20665   2.984   4.172   9.127  0.2455 -0.5964 -0.3513
 3010SOL    HW120666   3.055   4.123   9.085 -0.5323 -1.0006 -1.1952
 3010SOL    HW220667   2.993   4.259   9.086 -0.2210 -1.6096 -2.6280
 3011SOL     OW20668   3.335   0.249  13.801 -0.2639  0.3816 -0.5784
 3011SOL    HW120669   3.417   0.206  13.774 -0.6197 -1.5195  1.3503
 3011SOL    HW220670   3.366   0.333  13.835 -1.3206  1.0204 -1.1978
 3012SOL     OW20671   1.558   4.336   5.998 -0.4712 -0.9710 -0.1966
 3012SOL    HW120672   1.578   4.244   5.978 -0.5316 -1.3078  1.2704
 3012SOL    HW220673   1.478   4.350   5.948 -0.2981 -0.9290 -0.4587
 3013SOL     OW20674   4.218   1.356   4.521 -0.2675 -0.0835  0.1853
 3013SOL    HW120675   4.156   1.293   4.557 -0.8276  1.9226  2.7938
 3013SOL    HW220676   4.293   1.344   4.580 -0.6675 -0.9061  0.5264
 3014SOL     OW20677   3.785   4.590   4.914  0.0968 -0.1447  0.3677
 3014SOL    HW120678   3.858   4.579   4.976 -0.5816  0.2671  1.2484
 3014SOL    HW220679   3.826   4.655   4.858  1.8458 -2.5916 -1.1886
 3015SOL     OW20680   0.593   0.081   5.534  0.3126 -0.1779 -0.1066
 3015SOL    HW120681   0.545   0.123   5.605 -0.2921 -0.1927 -0.5134
 3015SOL    HW220682   0.617   0.161   5.488 -1.2036  1.2882  1.6504
 3016SOL     OW20683   4.273   2.211   8.257  0.0588  0.0645 -0.3858
 3016SOL    HW120684   4.184   2.245   8.271  0.5852  1.3509 -0.1409
 3016SOL    HW220685   4.283   2.155   8.334 -1.9450  1.5333  0.9374
 3017SOL     OW20686   0.756   3.762   4.935 -0.7259 -0.3349 -0.4046
 3017SOL    HW120687   0.699   3.703   4.984  1.5086 -2.4260 -0.3381
 3017SOL    HW220688   0.792   3.820   5.003 -0.1792 -1.4462  0.2457
 3018SOL     OW20689   2.150   2.609   4.267  0.1398  0.1073 -0.4780
 3018SOL    HW120690   2.154   2.702   4.292 -1.6259  0.9622 -3.3668
 3018SOL    HW220691   2.236   2.592   4.228  0.9022 -1.4646  1.9275
 3019SOL     OW20692   0.647   2.019   5.387  1.0487 -0.3712 -0.0711
 3019SOL    HW120693   0.570   2.034   5.334 -0.7115  0.6513  2.7659
 3019SOL    HW220694   0.608   1.965   5.455  0.0907 -0.0454 -0.3573
 3020SOL     OW20695   1.232   3.596   6.037  0.2809  0.4105 -0.1380
 3020SOL    HW120696   1.258   3.519   5.985  0.0273 -0.1210  0.5254
 3020SOL    HW220697   1.209   3.654   5.964  0.5171  0.7994  0.0965
 3021SOL     OW20698   2.325   3.057  10.081  0.1860 -0.3570 -0.1707
 3021SOL    HW120699   2.336   3.062   9.986  0.1015  0.2866 -0.1468
 3021SOL    HW220700   2.245   3.004  10.082 -0.9846  1.4223  0.4618
 3022SOL     OW20701   1.709   0.914   6.916 -0.0405  0.1161  0.1040
 3022SOL    HW120702   1.615   0.915   6.897 -0.3417 -2.8146  1.4107
 3022SOL    HW220703   1.731   0.994   6.868 -0.0084 -0.9353 -1.6477
 3023SOL     OW20704   0.657   4.468  17.451  0.0877  0.5703 -0.6855
 3023SOL    HW120705   0.750   4.444  17.454 -0.4951 -1.6423 -0.3891
 3023SOL    HW220706   0.632   4.469  17.359 -0.7123  2.2138 -0.4440
 3024SOL     OW20707   1.095   1.658   2.981 -0.3872 -0.1821 -0.0454
 3024SOL    HW120708   1.058   1.707   3.054  0.4222 -0.0404  0.2698
 3024SOL    HW220709   1.155   1.724   2.947 -1.4356  0.8352  0.0895
 3025SOL     OW20710   1.401   3.211   8.488 -0.2594 -0.1488 -0.4524
 3025SOL    HW120711   1.372   3.265   8.561 -0.2764  0.2206 -0.7325
 3025SOL    HW220712   1.496   3.205   8.499 -0.3992 -0.6586  0.5151
 3026SOL     OW20713   1.198   2.638   4.770  0.1139  0.4538 -0.0275
 3026SOL    HW120714   1.181   2.660   4.678 -1.0759  2.9556  0.7861
 3026SOL    HW220715   1.202   2.543   4.762  0.5533  0.4204  0.5895
 3027SOL     OW20716   2.728   4.544   6.583 -0.0177 -0.3587 -0.5785
 3027SOL    HW120717   2.653   4.604   6.581  0.3064  0.0402 -0.8556
 3027SOL    HW220718   2.766   4.575   6.665  0.1527  0.5064 -0.9793
 3028SOL     OW20719   3.431   0.325   9.732  0.2301 -0.1308  0.4121
 3028SOL    HW120720   3.396   0.242   9.764  0.5754 -0.8536 -1.0675
 3028SOL    HW220721   3.404   0.363   9.815  0.2571 -1.0576  0.8526
 3029SOL     OW20722   4.199   1.322   1.095  0.6301 -0.0817 -0.2746
 3029SOL    HW120723   4.254   1.400   1.105 -0.2691  0.9455 -3.1318
 3029SOL    HW220724   4.186   1.295   1.186  1.2551 -0.1027 -0.1927
 3030SOL     OW20725   1.718   2.946   7.631 -0.3752 -0.0724 -0.4433
 3030SOL    HW120726   1.762   2.945   7.545 -0.0241  2.4432 -0.2915
 3030SOL    HW220727   1.654   2.876   7.625 -0.5487  0.2352 -2.4068
 3031SOL     OW20728   2.194   1.895   7.596 -0.0475  0.0674 -0.0343
 3031SOL    HW120729   2.162   1.946   7.670  0.6738 -1.1817  1.1476
 3031SOL    HW220730   2.196   1.806   7.632 -1.8314  1.5770  3.7683
 3032SOL     OW20731   0.334   2.942   9.428 -0.5220 -0.0383 -0.3062
 3032SOL    HW120732   0.263   2.877   9.427 -0.1730 -0.4176 -0.5657
 3032SOL    HW220733   0.404   2.896   9.474 -1.7511 -0.3425  1.2592
 3033SOL     OW20734   2.703   3.722   4.572  0.5601 -0.1959 -0.3065
 3033SOL    HW120735   2.683   3.791   4.509 -1.9795 -0.6379  0.0231
 3033SOL    HW220736   2.781   3.684   4.533  0.3606  1.4038 -2.2552
 3034SOL     OW20737   1.819   1.234   8.880  0.3930  0.0933 -0.6667
 3034SOL    HW120738   1.767   1.255   8.802  2.6740  2.3906 -1.6034
 3034SOL    HW220739   1.759   1.179   8.929  0.9246  0.4790  0.4156
 3035SOL     OW20740   3.717   0.211   9.127  0.3464  0.4044  0.4304
 3035SOL    HW120741   3.705   0.261   9.208 -0.5237 -1.3771  1.3994
 3035SOL    HW220742   3.635   0.163   9.123  1.3212 -1.1474 -0.9972
 3036SOL     OW20743   0.103   2.290   4.233 -0.3355  0.0246 -0.0395
 3036SOL    HW120744   0.132   2.332   4.314  1.8887  0.5710 -1.1053
 3036SOL    HW220745   0.033   2.236   4.268  0.5069 -0.2000  1.2881
 3037SOL     OW20746   1.521   2.382  14.908 -0.3055 -0.1360 -0.4309
 3037SOL    HW120747   1.578   2.459  14.907 -1.9836  1.1101  1.6336
 3037SOL    HW220748   1.436   2.424  14.895 -0.3210  0.4479  1.6409
 3038SOL     OW20749   1.723   3.109   4.811 -0.5000  1.2705  0.3289
 3038SOL    HW120750   1.646   3.141   4.765  0.5116  3.0407 -0.1231
 3038SOL    HW220751   1.750   3.191   4.852 -0.9026  1.4810  0.1697
 3039SOL     OW20752   1.299   1.256   2.143  0.3265  0.1551 -0.3675
 3039SOL    HW120753   1.311   1.310   2.066  1.0436 -0.0465 -0.3917
 3039SOL    HW220754   1.308   1.167   2.110 -1.2857  0.2467 -1.0694
 3040SOL     OW20755   3.234   4.090   7.173 -0.2436 -0.1510  0.9452
 3040SOL    HW120756   3.273   4.062   7.255  2.3914  0.1759 -0.1759
 3040SOL    HW220757   3.282   4.034   7.112 -1.1392 -1.5349  1.5264
 3041SOL     OW20758   3.297   1.842   1.463  0.4881 -0.3361  0.4968
 3041SOL    HW120759   3.280   1.918   1.406 -1.9123 -0.6023  0.8819
 3041SOL    HW220760   3.219   1.849   1.518  0.3146  1.2208  0.0516
 3042SOL     OW20761   2.014   4.079   4.873  0.0273  0.1204 -0.1733
 3042SOL    HW120762   2.042   4.035   4.953 -0.2812  0.5493  0.1704
 3042SOL    HW220763   1.932   4.121   4.898  1.1587  2.2129  0.0108
 3043SOL     OW20764   2.610   3.822   0.355 -0.5608  0.3984 -0.1669
 3043SOL    HW120765   2.670   3.897   0.363 -1.0292  0.5789  1.7443
 3043SOL    HW220766   2.554   3.850   0.283  0.5716 -2.9842 -2.3504
 3044SOL     OW20767   0.656   0.126   4.400 -0.8803  0.1662 -0.2758
 3044SOL    HW120768   0.665   0.221   4.406 -0.1532  0.0871 -0.0717
 3044SOL    HW220769   0.650   0.110   4.305  1.2764 -0.2362 -0.3504
 3045SOL     OW20770   3.855   4.415  11.153 -0.3510  0.3194  0.4835
 3045SOL    HW120771   3.925   4.478  11.139 -1.7185  1.8884  0.6809
 3045SOL    HW220772   3.907   4.339  11.126 -2.5508 -0.8461 -0.4572
 3046SOL     OW20773   0.550   4.467   5.838 -0.1577 -0.0983  0.0166
 3046SOL    HW120774   0.577   4.376   5.828 -2.7058 -0.6521 -2.0027
 3046SOL    HW220775   0.594   4.510   5.765  0.5628 -1.2210 -0.2093
 3047SOL     OW20776   3.217   4.533   7.170 -0.3813  0.3785  0.3373
 3047SOL    HW120777   3.163   4.594   7.221 -1.1811 -1.1060  1.2905
 3047SOL    HW220778   3.224   4.457   7.227 -1.1833  0.5059  0.6097
 3048SOL     OW20779   2.613   2.916  11.074 -0.2967 -0.9876 -0.3363
 3048SOL    HW120780   2.654   2.999  11.050  0.3153 -1.8038 -2.1132
 3048SOL    HW220781   2.655   2.858  11.011 -0.9477  0.6814 -2.2876
 3049SOL     OW20782   3.221   2.184  15.116 -0.0951 -0.0767 -0.5205
 3049SOL    HW120783   3.139   2.208  15.071  1.2126  3.1440 -1.2353
 3049SOL    HW220784   3.195   2.113  15.175 -0.6317 -0.2340 -0.9405
 3050SOL     OW20785   0.259   4.067   6.194 -0.2765  0.4605 -0.0903
 3050SOL    HW120786   0.253   4.106   6.106 -2.0708  0.1260 -0.1124
 3050SOL    HW220787   0.266   3.974   6.172  2.1355  0.5145  0.5442
 3051SOL     OW20788   1.302   3.801   2.676  0.3442 -0.3882 -0.1935
 3051SOL    HW120789   1.315   3.727   2.618  3.3222  1.5882 -2.0942
 3051SOL    HW220790   1.259   3.858   2.612 -0.8861  0.7222  1.6316
 3052SOL     OW20791   0.242   1.805   9.580  0.2088 -0.0271 -0.4663
 3052SOL    HW120792   0.178   1.824   9.649  0.2208 -1.5578 -0.0272
 3052SOL    HW220793   0.184   1.771   9.511  0.9887  0.3022 -1.2787
 3053SOL     OW20794   3.623   0.356   5.297 -0.1685  0.2706 -0.0343
 3053SOL    HW120795   3.698   0.370   5.355  1.5067 -1.9981 -1.6579
 3053SOL    HW220796   3.583   0.443   5.303 -0.4655  0.0651  0.9607
 3054SOL     OW20797   4.057   3.971  10.468  0.3892  0.4274 -0.1977
 3054SOL    HW120798   4.079   3.999  10.557 -0.8897  2.5570 -0.5536
 3054SOL    HW220799   3.995   4.043  10.461 -0.2445  0.0438  1.4082
 3055SOL     OW20800   3.104   0.066   3.990  0.1000  0.0444 -0.4425
 3055SOL    HW120801   3.156   0.145   4.007 -1.4712  0.9952 -0.1161
 3055SOL    HW220802   3.142   0.007   4.055  0.6756  0.2924 -0.5541
 3056SOL     OW20803   1.292   1.250  16.134  0.0143  0.6736  0.2599
 3056SOL    HW120804   1.210   1.259  16.086 -1.1229  0.2541  2.1619
 3056SOL    HW220805   1.301   1.340  16.164  1.5347  0.2295  1.1406
 3057SOL     OW20806   2.815   2.939   9.471 -0.2024 -0.6944 -0.0938
 3057SOL    HW120807   2.906   2.962   9.451 -1.1834  1.6503 -1.8597
 3057SOL    HW220808   2.823   2.848   9.502  1.7148 -0.2017  0.8304
 3058SOL     OW20809   0.045   2.983   7.174  0.2048  0.1651 -0.0811
 3058SOL    HW120810   4.726   2.995   7.253  0.9468 -1.0938  0.6221
 3058SOL    HW220811   0.056   2.889   7.187  0.6172  0.2979  0.5500
 3059SOL     OW20812   1.322   4.056  14.047  0.0181  0.3737  0.1531
 3059SOL    HW120813   1.234   4.023  14.031  0.4551 -1.1270  0.9087
 3059SOL    HW220814   1.357   4.044  13.958  0.4201  0.6724  0.2701
 3060SOL     OW20815   1.266   0.019   4.758 -0.3898 -0.4564  0.5103
 3060SOL    HW120816   1.299   0.102   4.725  0.4897 -0.5888  1.0459
 3060SOL    HW220817   1.336   4.689   4.770  0.0270 -0.1925 -0.5612
 3061SOL     OW20818   3.568   1.757   2.659  0.2294  0.7573  0.0130
 3061SOL    HW120819   3.545   1.798   2.576  0.9316 -0.2390 -0.6803
 3061SOL    HW220820   3.489   1.718   2.695  0.5037  2.0023  1.9298
 3062SOL     OW20821   4.255   2.162   3.392  0.1269  0.4676 -0.7355
 3062SOL    HW120822   4.180   2.113   3.358 -0.4591  0.8741 -0.0553
 3062SOL    HW220823   4.305   2.089   3.428 -1.4685 -2.1154 -3.7287
 3063SOL     OW20824   2.026   2.265   5.958  0.5470 -0.2422  0.3249
 3063SOL    HW120825   2.035   2.310   6.042 -1.2145  0.3266  0.2006
 3063SOL    HW220826   2.063   2.179   5.978  0.5284 -1.2819 -4.1217
 3064SOL     OW20827   4.706   2.305   6.220  0.6727  0.4936 -0.2089
 3064SOL    HW120828   4.731   2.218   6.251  2.4737  0.1469 -2.5987
 3064SOL    HW220829   0.032   2.370   6.255  0.6288 -0.4007  1.5319
 3065SOL     OW20830   0.190   4.282   6.814  0.3461 -0.2008  0.0031
 3065SOL    HW120831   0.108   4.312   6.773 -0.6036 -3.3699 -0.4044
 3065SOL    HW220832   0.203   4.213   6.750  1.1314  2.8763 -3.1240
 3066SOL     OW20833   4.594   4.689   3.955 -0.3892 -0.4313 -0.3676
 3066SOL    HW120834   4.617   4.678   4.047 -1.4825  0.1327 -0.0222
 3066SOL    HW220835   4.600   4.600   3.921  0.6002 -0.5798  0.1944
 3067SOL     OW20836   2.812   2.197   8.718 -0.4936 -0.6012  0.0395
 3067SOL    HW120837   2.871   2.148   8.662  1.3672  0.9091  0.6988
 3067SOL    HW220838   2.768   2.126   8.765  0.3112 -1.7905 -1.0184
 3068SOL     OW20839   0.972   3.110   1.259  0.0057  0.3256 -0.3907
 3068SOL    HW120840   0.923   3.173   1.313 -2.3177 -0.7070 -1.2823
 3068SOL    HW220841   0.969   3.031   1.313  0.2149  1.6833  1.6203
 3069SOL     OW20842   4.528   0.049   7.013  0.1893  0.5216  0.0419
 3069SOL    HW120843   4.558   0.007   7.094  2.5411  0.5015 -0.8384
 3069SOL    HW220844   4.610   0.084   6.979 -0.1458  1.6332  0.3641
 3070SOL     OW20845   4.010   2.744   8.337 -0.8671  0.3238 -0.4503
 3070SOL    HW120846   4.016   2.821   8.281  3.9120 -0.1010 -0.4943
 3070SOL    HW220847   3.984   2.682   8.268  0.9063  1.6424 -2.3115
 3071SOL     OW20848   1.591   2.271   7.386 -0.0401  0.5853  0.6868
 3071SOL    HW120849   1.669   2.320   7.363  0.3832 -1.1697 -1.5806
 3071SOL    HW220850   1.561   2.235   7.303 -0.1316  1.4594  0.3407
 3072SOL     OW20851   2.254   1.554  12.623  0.0590  0.2980  0.1091
 3072SOL    HW120852   2.343   1.556  12.658  0.3783 -2.1383 -0.6123
 3072SOL    HW220853   2.228   1.462  12.631  2.3739 -0.2541  1.3706
 3073SOL     OW20854   0.617   2.203   2.945  0.5521 -0.8635  0.0232
 3073SOL    HW120855   0.553   2.274   2.949  0.9700 -0.4895  0.0020
 3073SOL    HW220856   0.562   2.126   2.927 -1.2573  0.2492  0.7850
 3074SOL     OW20857   2.042   2.178   1.557 -0.2320 -0.0066  0.2900
 3074SOL    HW120858   1.972   2.148   1.498  0.1326 -0.5284  0.1218
 3074SOL    HW220859   2.119   2.169   1.501  1.2790  0.1880  2.3207
 3075SOL     OW20860   2.419   1.956   1.113  0.5306 -0.3544  0.1486
 3075SOL    HW120861   2.365   2.034   1.106  0.7888 -0.0620  1.5203
 3075SOL    HW220862   2.476   1.982   1.040  0.4841 -0.8520 -0.0640
 3076SOL     OW20863   0.792   0.720   0.502 -0.0881  1.2322  0.0379
 3076SOL    HW120864   0.851   0.676   0.563 -3.0575 -1.2694  1.1022
 3076SOL    HW220865   0.795   0.812   0.527  2.1430  1.6341 -1.7104
 3077SOL     OW20866   3.186   2.557   9.057 -0.3071  0.2616 -0.6855
 3077SOL    HW120867   3.127   2.568   9.132  0.7383 -1.0389  0.3112
 3077SOL    HW220868   3.173   2.471   9.016 -0.8727  0.3382 -0.6738
 3078SOL     OW20869   2.996   3.746   7.826  0.2743 -0.4089 -0.3756
 3078SOL    HW120870   2.997   3.814   7.758 -0.7387 -0.7298 -0.7057
 3078SOL    HW220871   2.990   3.671   7.767  1.6468 -0.6982 -0.1578
 3079SOL     OW20872   1.130   2.588   7.279 -0.2941  0.2396  0.2425
 3079SOL    HW120873   1.190   2.654   7.245  2.1228 -1.6773  0.7681
 3079SOL    HW220874   1.046   2.613   7.240  0.6277  1.8854 -0.7017
 3080SOL     OW20875   4.054   2.941   8.156 -0.0813 -0.0810  0.0634
 3080SOL    HW120876   3.998   2.958   8.080 -1.0699  1.1494  1.0861
 3080SOL    HW220877   4.134   2.989   8.134  1.5394 -1.8972  2.0024
 3081SOL     OW20878   3.844   3.261   2.393  0.4855 -0.5195  0.1926
 3081SOL    HW120879   3.917   3.295   2.445  0.0787  0.0739  0.3743
 3081SOL    HW220880   3.775   3.271   2.459 -0.6760 -1.1155 -0.9275
 3082SOL     OW20881   4.519   4.610   0.906  0.3840 -0.4066  0.1363
 3082SOL    HW120882   4.477   4.656   0.978  0.4334  1.0827 -0.7794
 3082SOL    HW220883   4.440   4.571   0.868  0.6078 -0.3591 -0.3926
 3083SOL     OW20884   1.955   1.896   5.242  0.1100  0.3077  0.7252
 3083SOL    HW120885   1.916   1.981   5.258  1.6374  0.4963  3.4364
 3083SOL    HW220886   1.974   1.861   5.329  0.2769  1.6764  1.2253
 3084SOL     OW20887   2.911   1.713   4.757  0.0471  0.6256 -0.3769
 3084SOL    HW120888   2.878   1.783   4.814  1.8136  1.4001 -0.3325
 3084SOL    HW220889   2.970   1.667   4.817 -1.0309  0.4586  0.5699
 3085SOL     OW20890   3.381   2.096   5.792  0.3651 -0.1217 -0.3642
 3085SOL    HW120891   3.401   2.002   5.798  2.5402  0.4089  0.7470
 3085SOL    HW220892   3.419   2.124   5.875 -0.2365 -0.5821  0.0604
 3086SOL     OW20893   4.659   3.679  11.751  0.1484 -0.1445 -0.6203
 3086SOL    HW120894   4.576   3.640  11.778 -0.4587  1.1384 -0.6319
 3086SOL    HW220895   4.694   3.631  11.676  0.5821  1.0370 -1.1616
 3087SOL     OW20896   1.223   3.829  16.538  0.3028 -0.1192  0.2141
 3087SOL    HW120897   1.275   3.773  16.595 -0.7743 -0.5544  0.7692
 3087SOL    HW220898   1.164   3.768  16.493  1.9249 -0.4716 -1.4405
 3088SOL     OW20899   1.849   2.953   4.477 -0.2845  0.0494 -0.5690
 3088SOL    HW120900   1.757   2.928   4.478 -0.8717  2.1901 -2.9346
 3088SOL    HW220901   1.861   2.921   4.567 -2.1758 -2.8992 -1.3772
 3089SOL     OW20902   0.797   2.592   1.522  0.8317 -0.8155  0.3361
 3089SOL    HW120903   0.857   2.569   1.593 -0.5792 -0.8559  1.5135
 3089SOL    HW220904   0.723   2.636   1.563  1.4320 -0.0238  0.5620
 3090SOL     OW20905   2.021   0.841  16.393 -0.0728 -0.1696 -0.0122
 3090SOL    HW120906   2.111   0.807  16.395 -0.3194 -0.7630  1.1811
 3090SOL    HW220907   2.039   0.935  16.393  2.4607 -0.6334 -0.1151
 3091SOL     OW20908   3.229   4.042   3.139  0.3859  0.2557  0.3972
 3091SOL    HW120909   3.216   3.993   3.220 -0.8022 -1.8957 -1.0879
 3091SOL    HW220910   3.140   4.069   3.116 -0.1036 -0.9796  0.8328
 3092SOL     OW20911   1.629   0.329   6.209 -0.1020 -0.3455  0.2410
 3092SOL    HW120912   1.638   0.354   6.117 -2.1111 -0.0791  0.1030
 3092SOL    HW220913   1.648   0.412   6.252 -0.4069 -0.8768  1.3875
 3093SOL     OW20914   2.645   1.066   3.933 -0.0798 -0.1875 -0.1829
 3093SOL    HW120915   2.591   0.997   3.896 -0.6894  1.0151 -1.5557
 3093SOL    HW220916   2.727   1.049   3.889 -0.3604  0.9548 -1.1631
 3094SOL     OW20917   2.972   2.594   1.221 -0.3027  0.0108  0.1874
 3094SOL    HW120918   3.008   2.681   1.237 -0.6719 -0.0662  1.4211
 3094SOL    HW220919   2.882   2.611   1.196 -0.8029 -0.2373  1.8028
 3095SOL     OW20920   2.996   3.164   0.818  0.4604 -0.3836  0.1721
 3095SOL    HW120921   3.009   3.246   0.771 -1.3794 -0.2340 -0.0868
 3095SOL    HW220922   2.900   3.162   0.810  0.3275  1.1858  1.5279
 3096SOL     OW20923   2.928   3.144  11.201 -0.0098 -0.6927  0.4343
 3096SOL    HW120924   2.868   3.195  11.256  0.2943  1.9591 -1.7077
 3096SOL    HW220925   2.878   3.128  11.122 -0.4416 -2.0428  0.9902
 3097SOL     OW20926   1.946   1.851   2.807  0.0058  0.3486 -1.2612
 3097SOL    HW120927   1.983   1.830   2.894  2.3490  1.1000 -2.0629
 3097SOL    HW220928   1.969   1.944   2.814  0.8616  0.0753 -0.3807
 3098SOL     OW20929   0.414   0.467  13.993 -0.3731  0.3595 -0.3217
 3098SOL    HW120930   0.474   0.406  13.950  0.1693 -0.0928  1.0600
 3098SOL    HW220931   0.457   0.481  14.077  0.6200 -2.9106 -0.2661
 3099SOL     OW20932   1.325   3.144   5.020 -0.3002  0.2100  0.0283
 3099SOL    HW120933   1.312   3.093   4.940  1.5121  0.2271 -0.2771
 3099SOL    HW220934   1.236   3.162   5.051 -0.5303 -0.7220 -0.1124
 3100SOL     OW20935   0.722   0.595   3.931  0.2186  0.3846 -0.1146
 3100SOL    HW120936   0.682   0.572   4.015  2.2020  0.8612  0.9681
 3100SOL    HW220937   0.651   0.584   3.867  0.1404 -0.5590  0.1346
 3101SOL     OW20938   2.055   4.046   7.579 -0.6803 -0.7281  0.3817
 3101SOL    HW120939   2.102   3.974   7.620 -1.0279 -1.7727 -1.0787
 3101SOL    HW220940   2.127   4.081   7.525 -2.7755  0.1180 -1.8730
 3102SOL     OW20941   4.704   1.392   3.479 -0.9399 -0.7442  0.5086
 3102SOL    HW120942   4.687   1.460   3.543  0.4719  1.2970 -1.2941
 3102SOL    HW220943   4.672   1.432   3.398  0.0073 -2.8221 -0.9101
 3103SOL     OW20944   1.013   4.420  16.195 -0.4054  0.1111  0.1071
 3103SOL    HW120945   1.038   4.508  16.223 -1.6528  0.0106  1.5665
 3103SOL    HW220946   1.000   4.381  16.282  0.9618  0.1456  0.3152
 3104SOL     OW20947   4.368   4.312  12.394 -0.4931  0.1569  0.5410
 3104SOL    HW120948   4.439   4.263  12.353  0.3378  0.2129  1.8996
 3104SOL    HW220949   4.309   4.328  12.321 -1.4019  1.5938  1.5766
 3105SOL     OW20950   3.885   3.188   3.625  0.3800 -0.2095 -0.2411
 3105SOL    HW120951   3.959   3.237   3.659 -0.6379  1.7087 -0.7730
 3105SOL    HW220952   3.928   3.152   3.547 -1.1663 -0.8235 -0.8075
 3106SOL     OW20953   4.706   4.256   7.277 -0.4878  0.0446 -0.1431
 3106SOL    HW120954   0.040   4.322   7.267 -0.2413 -0.1511  0.2554
 3106SOL    HW220955   4.677   4.240   7.187 -0.4906 -1.0976  0.0566
 3107SOL     OW20956   0.173   0.690  13.953  0.1252  0.2686  0.4779
 3107SOL    HW120957   0.258   0.646  13.959 -0.7561 -1.4647 -0.0125
 3107SOL    HW220958   0.192   0.763  13.894 -1.1347  1.1498  1.1663
 3108SOL     OW20959   1.434   3.853   6.192 -0.2978  0.3975  0.0089
 3108SOL    HW120960   1.348   3.854   6.233 -0.6338 -0.4818 -0.6778
 3108SOL    HW220961   1.436   3.918   6.122 -3.4182  0.5308  0.0373
 3109SOL     OW20962   4.495   0.372   8.160 -0.0088 -0.2210  0.4966
 3109SOL    HW120963   4.568   0.406   8.212 -1.2168  1.4446  1.0888
 3109SOL    HW220964   4.437   0.448   8.165  0.8981  0.5860 -0.9711
 3110SOL     OW20965   2.047   0.441  12.383 -0.2046  0.1214  0.9200
 3110SOL    HW120966   1.957   0.467  12.361 -0.6795 -2.1235  0.1498
 3110SOL    HW220967   2.057   0.491  12.463 -1.6684  1.3173  0.3481
 3111SOL     OW20968   2.962   4.361   5.609  0.0044  0.0542  0.3846
 3111SOL    HW120969   3.044   4.406   5.588 -0.4450  1.1988  1.0974
 3111SOL    HW220970   2.922   4.406   5.683 -0.8293 -0.3000  0.1569
 3112SOL     OW20971   1.659   4.267   8.629 -0.5461  0.1403 -0.2457
 3112SOL    HW120972   1.667   4.181   8.671 -0.6785  0.1241 -0.2529
 3112SOL    HW220973   1.584   4.300   8.679 -2.9572 -3.6782 -1.2996
 3113SOL     OW20974   0.039   0.710  13.046 -0.1666  0.4099  0.2836
 3113SOL    HW120975   4.733   0.793  13.020 -2.4532 -1.2865 -1.4793
 3113SOL    HW220976   0.010   0.642  12.986  0.0524  0.6938 -0.1408
 3114SOL     OW20977   0.398   3.309   7.620 -0.0330 -0.0751  0.1453
 3114SOL    HW120978   0.418   3.318   7.714  1.4296 -0.2825 -0.1448
 3114SOL    HW220979   0.480   3.345   7.586  0.0049 -0.7878 -0.5129
 3115SOL     OW20980   2.350   2.181  13.031  0.2749  0.4668 -0.6681
 3115SOL    HW120981   2.336   2.238  13.106  1.1095  0.2505 -0.3526
 3115SOL    HW220982   2.298   2.229  12.966  3.0552  1.2520 -2.3242
 3116SOL     OW20983   2.341   2.512   6.459  0.2150  0.4534 -0.1180
 3116SOL    HW120984   2.434   2.534   6.458  0.3684 -0.1997  0.2213
 3116SOL    HW220985   2.301   2.584   6.410  0.4564  1.0706  0.5816
 3117SOL     OW20986   1.252   2.717   7.018  0.1221  0.5812  0.4288
 3117SOL    HW120987   1.305   2.721   6.938 -0.0573  1.0287  0.3296
 3117SOL    HW220988   1.168   2.732   6.976  0.5434 -1.7818 -1.2709
 3118SOL     OW20989   2.689   3.984   4.794 -0.4142  0.5265  0.0575
 3118SOL    HW120990   2.683   3.893   4.764 -0.0795  1.3205 -2.4509
 3118SOL    HW220991   2.628   4.034   4.739  0.2677  0.7066 -0.5230
 3119SOL     OW20992   0.623   2.277   8.407  0.4575  0.0018 -0.2321
 3119SOL    HW120993   0.569   2.338   8.457  2.5873  2.3339 -0.7575
 3119SOL    HW220994   0.667   2.340   8.349  0.1505 -2.2469 -2.9128
 3120SOL     OW20995   2.556   4.670  13.977 -0.2531 -0.2159  0.0451
 3120SOL    HW120996   2.569   0.011  13.920  0.7994 -1.4542 -1.3652
 3120SOL    HW220997   2.535   4.715  14.059  2.5992  0.9006  0.1798
 3121SOL     OW20998   3.499   3.310  13.960  0.2501  0.1977  0.0382
 3121SOL    HW120999   3.569   3.255  13.994  0.4412 -0.7674 -1.8927
 3121SOL    HW221000   3.498   3.375  14.030 -0.9889  0.5327 -0.2852
 3122SOL     OW21001   3.870   4.036   4.103  0.0717 -0.1072 -0.0719
 3122SOL    HW121002   3.945   4.093   4.120 -1.3769  0.9152  2.9481
 3122SOL    HW221003   3.806   4.080   4.158 -1.1024  0.2381 -1.7486
 3123SOL     OW21004   1.969   3.475   5.089  0.2597  0.2038  0.3662
 3123SOL    HW121005   1.911   3.438   5.023  0.4711  2.3689 -1.0126
 3123SOL    HW221006   2.046   3.431   5.055 -1.0527 -0.3890 -1.8398
 3124SOL     OW21007   4.104   2.066  11.826 -0.2744  0.5703 -0.4680
 3124SOL    HW121008   4.170   2.099  11.887  0.5210 -2.2312  0.1953
 3124SOL    HW221009   4.030   2.113  11.863 -0.4233 -0.9251  1.1529
 3125SOL     OW21010   3.408   0.630  11.231  0.0181  0.0438 -0.4476
 3125SOL    HW121011   3.497   0.597  11.247 -0.3500 -1.2226 -0.9890
 3125SOL    HW221012   3.381   0.660  11.317 -0.1254 -1.0751 -0.1045
 3126SOL     OW21013   3.421   0.458   6.315 -0.1906  0.2539 -0.5375
 3126SOL    HW121014   3.466   0.374   6.326 -0.9255 -0.3569 -2.1888
 3126SOL    HW221015   3.495   0.518   6.318 -0.9395  1.1862 -0.9324
 3127SOL     OW21016   0.332   4.438  12.873 -0.3398  0.3683 -0.1855
 3127SOL    HW121017   0.291   4.362  12.833 -1.0031  0.4548  0.3317
 3127SOL    HW221018   0.271   4.512  12.863 -0.7967 -0.0289 -0.3607
 3128SOL     OW21019   4.488   2.424   5.764  0.3651 -0.0651 -0.7539
 3128SOL    HW121020   4.398   2.410   5.735 -0.2872  3.6845 -0.4324
 3128SOL    HW221021   4.480   2.395   5.855  0.9507  0.4032 -0.5500
 3129SOL     OW21022   2.083   2.142  16.260 -0.6673  0.1308  0.7472
 3129SOL    HW121023   2.170   2.130  16.221 -0.5497  0.8991  0.7834
 3129SOL    HW221024   2.028   2.110  16.188 -0.1178  2.2760 -0.6040
 3130SOL     OW21025   2.326   2.994   6.075 -0.2803 -0.1030  0.2870
 3130SOL    HW121026   2.317   2.996   6.170  2.3826  2.5375  0.5055
 3130SOL    HW221027   2.362   3.082   6.063 -4.0356  0.9636 -3.0452
 3131SOL     OW21028   1.583   1.079  13.937 -0.5802  0.3640 -0.3487
 3131SOL    HW121029   1.514   1.035  13.888 -1.1113  0.3591  0.4165
 3131SOL    HW221030   1.542   1.156  13.976  0.0449 -0.9016  2.7930
 3132SOL     OW21031   2.626   3.871   4.339  0.2551  0.3111 -0.1302
 3132SOL    HW121032   2.567   3.945   4.325 -0.0848  0.2597  1.0578
 3132SOL    HW221033   2.636   3.832   4.252 -0.1587 -0.4811  0.1785
 3133SOL     OW21034   4.062   0.151   3.202  0.2125 -0.4165 -0.3565
 3133SOL    HW121035   4.026   0.076   3.155 -0.6815  0.5413 -1.2191
 3133SOL    HW221036   3.991   0.156   3.266  0.7567  0.7022  0.1718
 3134SOL     OW21037   1.156   2.444   3.196 -0.6972 -0.2532 -0.3063
 3134SOL    HW121038   1.105   2.417   3.272  1.4679  3.2551  2.4219
 3134SOL    HW221039   1.184   2.532   3.223  0.0704 -0.0487 -1.7419
 3135SOL     OW21040   4.196   1.410   6.149 -0.5330 -0.0604  0.1768
 3135SOL    HW121041   4.250   1.487   6.162  2.3776 -2.3938  2.0224
 3135SOL    HW221042   4.114   1.439   6.109  0.3518 -2.1801 -3.1319
 3136SOL     OW21043   2.309   1.867   1.618 -0.6549  0.3330 -0.1874
 3136SOL    HW121044   2.219   1.870   1.587  0.2875 -1.0840 -3.0579
 3136SOL    HW221045   2.372   1.905   1.557 -0.9651 -1.4679 -1.6409
 3137SOL     OW21046   4.280   4.537   4.828 -0.3464  0.0168 -0.3135
 3137SOL    HW121047   4.281   4.598   4.902  2.0204  1.7434 -1.7522
 3137SOL    HW221048   4.219   4.474   4.867 -0.7282 -0.5213 -1.7929
 3138SOL     OW21049   3.063   4.699   7.366  0.4359 -0.7445  0.0585
 3138SOL    HW121050   3.115   4.719   7.443  0.4385  0.5845 -0.2882
 3138SOL    HW221051   3.011   4.629   7.406 -0.5299 -1.7347 -2.8781
 3139SOL     OW21052   2.831   1.575   6.812 -0.2038 -0.1582 -0.4528
 3139SOL    HW121053   2.907   1.627   6.785 -0.4807  0.3577 -0.2394
 3139SOL    HW221054   2.846   1.491   6.768  0.7034 -0.6715  0.8355
 3140SOL     OW21055   2.868   2.094   3.106  0.1640  0.1054  0.4515
 3140SOL    HW121056   2.885   2.033   3.177 -0.3437 -1.9183 -1.1458
 3140SOL    HW221057   2.796   2.148   3.139  0.5652 -0.0503  1.5780
 3141SOL     OW21058   1.447   3.335   9.208  0.9901  0.8338 -0.0760
 3141SOL    HW121059   1.467   3.357   9.299  2.4729  0.5069 -0.3364
 3141SOL    HW221060   1.352   3.348   9.210  0.7856 -0.6312 -0.0206
 3142SOL     OW21061   4.499   1.638   4.548  0.4034 -0.1340  0.0716
 3142SOL    HW121062   4.432   1.595   4.601 -1.8859  2.0627 -1.0332
 3142SOL    HW221063   4.550   1.687   4.612 -0.4892  0.6458  0.1933
 3143SOL     OW21064   1.636   2.176   7.128  0.2103  0.5116  0.9749
 3143SOL    HW121065   1.586   2.097   7.108  0.4219  0.3420  1.1215
 3143SOL    HW221066   1.719   2.168   7.082 -0.4564  1.8908 -0.4577
 3144SOL     OW21067   0.699   1.730   1.944 -0.5527 -0.5501  0.4953
 3144SOL    HW121068   0.754   1.695   2.014  1.1000  0.7396 -0.1241
 3144SOL    HW221069   0.705   1.824   1.964 -1.0555 -0.1196 -1.4014
 3145SOL     OW21070   1.796   0.696   4.158 -0.1520 -0.2710 -0.4453
 3145SOL    HW121071   1.744   0.646   4.221 -2.3024  1.7957 -0.5847
 3145SOL    HW221072   1.723   0.744   4.118  0.0733 -0.6250 -1.2812
 3146SOL     OW21073   2.005   1.662   9.948  0.2345  0.2498  0.0287
 3146SOL    HW121074   1.974   1.611   9.874 -0.1235 -1.5649  1.4100
 3146SOL    HW221075   2.056   1.592   9.991  0.7740 -0.4049 -1.6918
 3147SOL     OW21076   3.566   1.610   7.741  0.0002 -0.0143  0.5773
 3147SOL    HW121077   3.502   1.607   7.670 -1.4253  0.3370  1.8333
 3147SOL    HW221078   3.541   1.689   7.789  1.1157  0.2864  0.6549
 3148SOL     OW21079   3.265   4.451  15.934  0.2885  0.2452 -0.2257
 3148SOL    HW121080   3.211   4.375  15.911  1.1801 -0.8707  1.3829
 3148SOL    HW221081   3.191   4.508  15.956  0.9300  0.5180  1.2035
 3149SOL     OW21082   1.801   2.672   4.327 -0.1421  0.2096  0.2586
 3149SOL    HW121083   1.828   2.682   4.418  0.2768 -1.5059  0.3227
 3149SOL    HW221084   1.762   2.585   4.318  0.5202 -0.0263 -0.3714
 3150SOL     OW21085   3.140   2.568   2.122 -0.2473 -0.2355  0.0561
 3150SOL    HW121086   3.219   2.525   2.090 -1.7968 -1.7903 -1.6561
 3150SOL    HW221087   3.083   2.493   2.108 -1.8407  1.1608 -0.8759
 3151SOL     OW21088   2.042   2.539  10.770 -0.1159  0.3022 -0.2566
 3151SOL    HW121089   2.058   2.521  10.862  2.2394  0.4231 -0.6470
 3151SOL    HW221090   2.120   2.504  10.726 -1.1175 -0.3100 -1.5641
 3152SOL     OW21091   4.634   4.721   6.453  0.5142 -0.2028 -0.2580
 3152SOL    HW121092   4.705   4.680   6.404  3.2777  2.2335  1.7056
 3152SOL    HW221093   4.618   4.662   6.526  1.9659  0.4757  0.6119
 3153SOL     OW21094   1.904   2.830   9.136 -0.2945  0.8232  0.1885
 3153SOL    HW121095   1.847   2.841   9.060 -1.2787 -0.6870  0.7212
 3153SOL    HW221096   1.841   2.790   9.196 -0.1917 -0.4540 -0.5413
 3154SOL     OW21097   2.047   3.504  10.431  0.6831 -0.1677 -0.0477
 3154SOL    HW121098   1.994   3.526  10.354  0.4723 -1.0029 -0.1438
 3154SOL    HW221099   2.105   3.442  10.388  1.2711  0.0301  0.4636
 3155SOL     OW21100   4.457   1.070   8.960  0.0821  0.1769  0.1739
 3155SOL    HW121101   4.435   1.162   8.977  0.5444  0.4231 -0.5248
 3155SOL    HW221102   4.489   1.082   8.871 -1.2515  1.1408 -0.1739
 3156SOL     OW21103   3.755   3.868   6.802  0.0832 -0.0604  0.1144
 3156SOL    HW121104   3.712   3.791   6.765  1.5567 -0.1428 -1.4331
 3156SOL    HW221105   3.793   3.906   6.722 -0.0201 -0.1302  0.0322
 3157SOL     OW21106   4.240   1.612   7.775 -0.1060  0.1776  0.3651
 3157SOL    HW121107   4.198   1.546   7.831 -1.9684  1.8245  0.9214
 3157SOL    HW221108   4.163   1.650   7.733  0.8285  2.5772  0.8500
 3158SOL     OW21109   4.719   1.270   6.233  0.4413 -0.1352  0.8012
 3158SOL    HW121110   0.010   1.354   6.193 -0.3295 -0.4691 -0.3954
 3158SOL    HW221111   4.643   1.295   6.285 -1.6131 -0.7717 -1.8916
 3159SOL     OW21112   2.016   3.027   6.860 -0.7254  0.8823 -0.3999
 3159SOL    HW121113   1.921   3.027   6.846 -1.2199 -1.6513  2.7886
 3159SOL    HW221114   2.048   3.057   6.775  1.7906 -0.1886  0.1662
 3160SOL     OW21115   1.196   0.523  14.900  0.2986  0.3049 -0.2316
 3160SOL    HW121116   1.130   0.496  14.964  0.9685  1.4712  0.9599
 3160SOL    HW221117   1.147   0.526  14.818  2.0236  1.2379 -1.2289
 3161SOL     OW21118   1.171   2.217   6.164 -0.3291  0.4196  0.0621
 3161SOL    HW121119   1.140   2.278   6.230 -0.9838  1.4951 -1.2356
 3161SOL    HW221120   1.128   2.135   6.188  1.2500 -1.0910 -2.2341
 3162SOL     OW21121   1.998   3.880  15.132  0.3861  0.0795  0.4378
 3162SOL    HW121122   2.030   3.969  15.144  0.5283  0.2968 -1.5402
 3162SOL    HW221123   1.922   3.880  15.190 -0.0136  1.6218 -0.1078
 3163SOL     OW21124   1.851   2.616   2.956  0.0128 -0.1584 -0.3785
 3163SOL    HW121125   1.829   2.566   3.035  0.3397  0.5271  0.1526
 3163SOL    HW221126   1.921   2.674   2.986 -2.3394  2.1654  0.6347
 3164SOL     OW21127   0.835   1.887  13.352 -0.4123 -0.0921 -0.8749
 3164SOL    HW121128   0.835   1.801  13.393  0.7046  1.5843  2.6409
 3164SOL    HW221129   0.924   1.879  13.318 -0.8142 -0.8498 -1.7273
 3165SOL     OW21130   4.376   4.712   5.513 -0.2892 -0.4339  0.4836
 3165SOL    HW121131   4.443   4.688   5.577 -1.1405  1.6914  2.1919
 3165SOL    HW221132   4.308   0.001   5.575  1.1884 -1.7141  2.5778
 3166SOL     OW21133   0.174   1.414   7.359 -0.1540  0.3250  0.6299
 3166SOL    HW121134   0.229   1.477   7.312  0.6695 -1.5172 -0.8604
 3166SOL    HW221135   0.236   1.380   7.424  0.8148  0.4688 -0.2106
 3167SOL     OW21136   4.021   0.435   7.567 -0.1465 -0.6091 -0.5009
 3167SOL    HW121137   4.063   0.356   7.533  1.5787 -0.2206  0.7450
 3167SOL    HW221138   4.086   0.491   7.525 -0.2247  1.1567  1.7407
 3168SOL     OW21139   2.574   1.491  13.725  0.6146 -0.0379  0.1225
 3168SOL    HW121140   2.659   1.447  13.731 -0.4707 -2.2296 -0.6325
 3168SOL    HW221141   2.538   1.483  13.814 -2.0828  1.4548 -0.8456
 3169SOL     OW21142   4.388   1.052   2.598  0.8531  0.7187  0.0258
 3169SOL    HW121143   4.424   1.119   2.540 -0.7055 -0.8207 -2.7154
 3169SOL    HW221144   4.386   0.984   2.531  0.9586 -1.2678  2.0458
 3170SOL     OW21145   3.047   1.314   6.426  0.0344  0.6401  0.1110
 3170SOL    HW121146   3.142   1.327   6.428  0.3915 -2.1764  2.6951
 3170SOL    HW221147   3.045   1.255   6.350 -2.1037  1.4254 -0.4231
 3171SOL     OW21148   0.822   0.229   5.785 -0.0691  0.3232  0.6268
 3171SOL    HW121149   0.867   0.310   5.805  1.3164 -0.1929 -0.4323
 3171SOL    HW221150   0.799   0.205   5.875 -1.8048 -1.7476 -0.3589
 3172SOL     OW21151   2.989   3.945   7.206 -0.3484  0.8474  0.4633
 3172SOL    HW121152   2.943   3.929   7.123  1.5291 -1.1754 -0.1669
 3172SOL    HW221153   3.056   4.003   7.170  0.8635 -0.6664  0.3487
 3173SOL     OW21154   2.943   2.336   3.514  0.1383 -0.1281 -0.0743
 3173SOL    HW121155   2.924   2.288   3.595 -3.0187  1.5460  0.1424
 3173SOL    HW221156   3.011   2.281   3.474 -0.9023 -1.1720 -0.4210
 3174SOL     OW21157   1.596   1.262  17.123 -0.0093  0.0266 -0.2525
 3174SOL    HW121158   1.690   1.278  17.113  0.1658 -2.2313 -2.1625
 3174SOL    HW221159   1.562   1.335  17.175  0.9418  0.9865 -0.9972
 3175SOL     OW21160   2.994   0.346   5.429 -0.6025  0.4767 -0.6091
 3175SOL    HW121161   3.008   0.305   5.344 -0.5656 -1.0321  0.1275
 3175SOL    HW221162   3.060   0.416   5.427 -0.9560  0.8395  0.4511
 3176SOL     OW21163   3.552   1.050   7.375  0.0040 -0.3564 -0.2630
 3176SOL    HW121164   3.524   1.140   7.394 -0.6018 -0.0863 -2.5115
 3176SOL    HW221165   3.589   1.030   7.461 -0.2667  1.2707  0.2419
 3177SOL     OW21166   4.680   2.143   9.413  0.5178  0.3408  0.2773
 3177SOL    HW121167   4.610   2.162   9.476  1.6512 -1.3098  2.0529
 3177SOL    HW221168   0.020   2.167   9.468 -0.1089  0.3815  1.1115
 3178SOL     OW21169   2.837   1.425  13.817 -0.0692  0.1612 -0.1362
 3178SOL    HW121170   2.928   1.419  13.844 -0.0642  1.3676  0.1143
 3178SOL    HW221171   2.802   1.343  13.850 -1.7519  0.9689  0.1042
 3179SOL     OW21172   1.726   0.605   3.450 -0.4380 -0.1592 -0.6480
 3179SOL    HW121173   1.785   0.530   3.452 -0.8870 -0.4573  1.5970
 3179SOL    HW221174   1.640   0.569   3.472  0.8879 -4.1526 -2.1437
 3180SOL     OW21175   3.233   1.588   6.907  0.3505 -0.3108  0.1881
 3180SOL    HW121176   3.194   1.502   6.891  2.6795 -1.7765  2.2805
 3180SOL    HW221177   3.171   1.641   6.857 -1.5108 -1.9511  0.7526
 3181SOL     OW21178   0.311   2.652   4.998 -0.0221  0.5080 -0.2106
 3181SOL    HW121179   0.372   2.692   5.060 -0.9562  0.5915  0.6674
 3181SOL    HW221180   0.225   2.663   5.040 -0.6929  1.9710 -1.9620
 3182SOL     OW21181   2.024   4.297   8.252 -0.1847  0.0983  0.4187
 3182SOL    HW121182   1.998   4.230   8.316  0.0330 -1.5359 -1.2119
 3182SOL    HW221183   1.989   4.249   8.177  1.1694  1.4904 -1.1103
 3183SOL     OW21184   1.506   1.628   4.616 -0.6088  0.3595  0.1171
 3183SOL    HW121185   1.502   1.607   4.709 -1.0112 -1.1541 -0.2456
 3183SOL    HW221186   1.426   1.681   4.609 -1.2421 -0.1021  3.6284
 3184SOL     OW21187   4.711   0.192   2.800 -0.3029  0.5098  0.4458
 3184SOL    HW121188   4.627   0.236   2.782 -1.7306 -2.2585  0.2335
 3184SOL    HW221189   4.689   0.099   2.787  0.2138  0.6209 -1.2107
 3185SOL     OW21190   2.914   2.908   1.616 -0.4547  0.0182  0.4629
 3185SOL    HW121191   3.007   2.900   1.596 -0.5713 -1.5164  0.5138
 3185SOL    HW221192   2.875   2.831   1.575 -0.2939 -1.2434  2.6685
 3186SOL     OW21193   0.905   3.118   2.236  0.2224 -0.9205 -0.6207
 3186SOL    HW121194   0.952   3.201   2.225  0.1482 -1.0645 -1.9973
 3186SOL    HW221195   0.906   3.088   2.146 -1.5606 -1.4988 -0.4481
 3187SOL     OW21196   0.404   0.811   7.494  0.3126  0.0220 -0.0575
 3187SOL    HW121197   0.443   0.729   7.525 -2.5580 -0.6899  1.6789
 3187SOL    HW221198   0.315   0.799   7.529  0.6842  1.7423  1.4604
 3188SOL     OW21199   1.142   4.160   0.614 -0.0948  0.3337  0.7754
 3188SOL    HW121200   1.087   4.217   0.560  0.0823 -0.0030  0.2468
 3188SOL    HW221201   1.166   4.216   0.688  3.7755 -0.8206  0.3908
 3189SOL     OW21202   4.370   1.213  11.142 -0.2834  0.2050 -0.5127
 3189SOL    HW121203   4.280   1.244  11.147 -0.3479 -0.0576  0.0299
 3189SOL    HW221204   4.406   1.295  11.109 -1.9260  1.6998  1.4710
 3190SOL     OW21205   3.695   2.736   6.133  0.1432  0.3906 -0.4810
 3190SOL    HW121206   3.606   2.755   6.163 -0.5839 -2.8652 -0.4788
 3190SOL    HW221207   3.688   2.645   6.104  0.7797  0.2200 -0.0837
 3191SOL     OW21208   0.492   4.632   1.680  0.4137  0.3423  0.0387
 3191SOL    HW121209   0.583   4.657   1.694  0.8269 -0.6039 -0.9929
 3191SOL    HW221210   0.509   4.541   1.655 -2.9316 -0.1351 -0.5508
 3192SOL     OW21211   1.584   0.328   9.564 -0.3019  0.2650  0.0459
 3192SOL    HW121212   1.666   0.374   9.547  0.7765 -1.9136 -0.5096
 3192SOL    HW221213   1.611   0.240   9.591  1.6583  1.3004  1.4948
 3193SOL     OW21214   2.085   3.929   4.430 -0.1066  0.4095 -0.0453
 3193SOL    HW121215   2.047   4.009   4.465  0.7300  0.4490  0.7786
 3193SOL    HW221216   2.102   3.884   4.513 -1.9260  0.8899  0.6035
 3194SOL     OW21217   4.268   4.027   8.717 -0.5745  0.0636  0.4187
 3194SOL    HW121218   4.266   4.123   8.724 -1.2924  0.0788 -0.0528
 3194SOL    HW221219   4.208   4.001   8.648  0.8233 -1.5575 -0.1689
 3195SOL     OW21220   0.722   3.276   7.120  0.5270 -0.0189  0.4372
 3195SOL    HW121221   0.809   3.315   7.119  1.2138 -1.5552 -0.2464
 3195SOL    HW221222   0.673   3.351   7.088  1.6043  0.1851 -0.7447
 3196SOL     OW21223   1.415   4.365   7.286 -0.3482 -0.5775 -0.4725
 3196SOL    HW121224   1.421   4.269   7.284 -1.8651 -0.7228  1.9785
 3196SOL    HW221225   1.506   4.390   7.304 -0.6269  0.3625 -0.3622
 3197SOL     OW21226   1.458   2.032   8.559  0.0124  0.0593 -0.1670
 3197SOL    HW121227   1.440   2.036   8.465  0.8942 -0.7088 -0.3648
 3197SOL    HW221228   1.494   1.943   8.560  1.2149  0.5517  0.1895
 3198SOL     OW21229   3.829   1.305   2.578  0.1930  0.3982  0.2020
 3198SOL    HW121230   3.795   1.358   2.506  1.5515 -0.1841 -0.8630
 3198SOL    HW221231   3.896   1.257   2.529 -0.5548 -2.1296  1.6401
 3199SOL     OW21232   2.230   3.824   6.828  0.5541  0.1568  0.2565
 3199SOL    HW121233   2.291   3.855   6.761  1.0317 -1.3116  0.0292
 3199SOL    HW221234   2.235   3.730   6.814  0.3439  0.1148  0.4533
 3200SOL     OW21235   3.279   2.318   7.458 -0.4698  0.0593 -0.2843
 3200SOL    HW121236   3.187   2.339   7.440 -0.4010 -0.1292 -0.8616
 3200SOL    HW221237   3.276   2.292   7.549 -0.1842  0.5447 -0.1356
 3201SOL     OW21238   1.205   3.371   8.244 -0.0423 -0.2457 -0.0560
 3201SOL    HW121239   1.202   3.327   8.159  1.6967  1.2101 -0.8983
 3201SOL    HW221240   1.123   3.419   8.248  1.2535  2.1712 -2.4507
 3202SOL     OW21241   0.198   2.468   8.405  0.0497  0.1704  0.0126
 3202SOL    HW121242   0.179   2.524   8.329 -1.2784 -0.8841 -0.4309
 3202SOL    HW221243   0.112   2.467   8.447  1.7525 -0.1094  3.4624
 3203SOL     OW21244   1.101   1.198  11.223 -0.0413  0.5404 -0.5113
 3203SOL    HW121245   1.123   1.245  11.143 -2.2099 -1.1777 -2.1120
 3203SOL    HW221246   1.135   1.255  11.292  2.6698 -0.0851 -1.3418
 3204SOL     OW21247   2.859   0.186  13.797 -0.2862  0.4747 -0.2161
 3204SOL    HW121248   2.932   0.149  13.847 -2.2570 -1.1311  1.5254
 3204SOL    HW221249   2.878   0.273  13.831 -1.9500  0.3841  0.9894
 3205SOL     OW21250   1.901   1.922   8.494 -0.6975 -0.6350 -0.8858
 3205SOL    HW121251   1.854   2.005   8.493 -1.7811 -1.2118  1.6784
 3205SOL    HW221252   1.970   1.937   8.559 -1.6292 -0.1374 -0.0074
 3206SOL     OW21253   2.887   1.152   4.240  0.3482  0.1072  0.6962
 3206SOL    HW121254   2.945   1.132   4.313  2.0047  1.2186 -0.3091
 3206SOL    HW221255   2.803   1.132   4.282  0.9263 -1.0348  1.2883
 3207SOL     OW21256   3.966   4.294   5.957 -0.1621  0.2296  0.0819
 3207SOL    HW121257   3.979   4.328   5.868 -3.4320  1.3771  0.0351
 3207SOL    HW221258   3.939   4.203   5.945 -0.6554  0.1939  1.4854
 3208SOL     OW21259   1.434   1.448   1.971  0.1257 -0.2786 -0.0203
 3208SOL    HW121260   1.443   1.529   2.020 -0.7434  0.0401 -0.3962
 3208SOL    HW221261   1.381   1.483   1.899  3.8400  0.8557 -2.1998
 3209SOL     OW21262   4.260   4.299  11.327  0.2504 -0.7076  0.3749
 3209SOL    HW121263   4.176   4.282  11.370  0.2308  0.5119  0.8032
 3209SOL    HW221264   4.304   4.216  11.309  1.8766  0.0354  0.8700
 3210SOL     OW21265   3.414   3.844  11.304 -0.2913 -0.4702 -0.5245
 3210SOL    HW121266   3.349   3.913  11.312 -0.1378 -0.2444 -1.2700
 3210SOL    HW221267   3.425   3.823  11.397  1.1685  2.1430 -0.0787
 3211SOL     OW21268   4.187   3.767   5.895 -0.1067  0.2211  1.0217
 3211SOL    HW121269   4.095   3.744   5.912 -0.2268 -0.2725 -0.2715
 3211SOL    HW221270   4.180   3.786   5.801 -2.4910  3.2778  1.7906
 3212SOL     OW21271   4.718   1.845   8.002  0.3848 -0.0837 -0.0522
 3212SOL    HW121272   0.014   1.755   8.016 -0.2136 -0.2587  0.0978
 3212SOL    HW221273   4.694   1.862   8.093  0.0839  1.4519 -0.4190
 3213SOL     OW21274   3.298   1.839   6.189 -0.8087  0.0444  0.1698
 3213SOL    HW121275   3.223   1.891   6.160 -0.3954  0.4716 -0.1400
 3213SOL    HW221276   3.303   1.777   6.117  0.2828 -0.2104  0.4588
 3214SOL     OW21277   1.126   2.935  15.371 -0.5514 -0.3735 -0.0197
 3214SOL    HW121278   1.184   2.985  15.428  0.7277 -2.3946  0.4728
 3214SOL    HW221279   1.054   2.915  15.431 -0.8604  1.5631  0.2481
 3215SOL     OW21280   2.383   3.376   8.550 -0.0677  0.1904 -0.6136
 3215SOL    HW121281   2.456   3.419   8.505  0.6823 -1.5568 -1.0739
 3215SOL    HW221282   2.315   3.444   8.544  0.4463  0.6541 -1.1983
 3216SOL     OW21283   4.174   4.047   6.978  0.2125  0.5373 -0.4984
 3216SOL    HW121284   4.102   4.109   6.966  0.4010  0.6500 -1.0782
 3216SOL    HW221285   4.246   4.094   6.935 -0.2632  0.4398 -1.4116
 3217SOL     OW21286   3.600   4.379   8.423  0.0831 -0.9091 -0.2957
 3217SOL    HW121287   3.656   4.306   8.446  0.5380 -0.3584  0.3506
 3217SOL    HW221288   3.544   4.388   8.500 -3.1345 -0.2675 -2.6931
 3218SOL     OW21289   1.967   1.754   6.999  0.5481  0.4795 -0.1529
 3218SOL    HW121290   1.954   1.733   6.907 -0.9277 -2.5712  0.7544
 3218SOL    HW221291   2.060   1.774   7.002  0.3559  1.4788 -1.0567
 3219SOL     OW21292   0.059   2.182   1.819  0.2036  0.5990  0.0563
 3219SOL    HW121293   4.729   2.170   1.749  1.7155 -0.3087 -1.2009
 3219SOL    HW221294   0.025   2.127   1.890  2.6191 -0.0623  0.6981
 3220SOL     OW21295   0.831   1.502   8.028 -0.3276 -0.2790  0.2629
 3220SOL    HW121296   0.875   1.572   7.979 -0.3766  0.0571  0.6953
 3220SOL    HW221297   0.800   1.542   8.109 -1.4363  2.4184 -1.4954
 3221SOL     OW21298   0.095   0.986   7.804  0.4399 -0.0993 -0.2971
 3221SOL    HW121299   0.170   0.933   7.780 -0.3769 -2.3253  2.0732
 3221SOL    HW221300   0.033   0.923   7.839  1.1105 -0.9477 -0.6489
 3222SOL     OW21301   4.457   0.257  13.852  0.2470 -0.0117 -0.3712
 3222SOL    HW121302   4.546   0.224  13.857  0.2177  0.2109  1.9315
 3222SOL    HW221303   4.442   0.287  13.762 -1.5951  1.8879  0.5717
 3223SOL     OW21304   1.340   0.011   2.142  0.2553 -0.0091  0.4141
 3223SOL    HW121305   1.419   4.703   2.173 -0.1412 -0.4502  0.8108
 3223SOL    HW221306   1.366   0.091   2.097  0.1156  0.1086  0.5444
 3224SOL     OW21307   0.098   0.488   6.817  0.3657 -0.1421  0.2896
 3224SOL    HW121308   0.028   0.551   6.795 -1.1179 -1.2854  1.7289
 3224SOL    HW221309   0.088   0.485   6.912 -2.7197 -0.4987 -0.0250
 3225SOL     OW21310   1.550   4.054  11.992  0.2523 -0.1535 -0.0917
 3225SOL    HW121311   1.505   4.015  12.067 -1.0342  1.6890  0.1097
 3225SOL    HW221312   1.515   4.141  12.012  0.4946 -0.3115  1.0578
 3226SOL     OW21313   4.477   2.453   4.704 -0.1401 -0.1054  0.0578
 3226SOL    HW121314   4.476   2.375   4.650 -0.4080 -1.1682  1.5880
 3226SOL    HW221315   4.543   2.430   4.770 -1.7357  0.6373  1.9111
 3227SOL     OW21316   0.987   3.390   9.422 -0.0240  0.3717 -0.3086
 3227SOL    HW121317   0.934   3.372   9.345 -0.0819 -0.1866 -0.1368
 3227SOL    HW221318   0.928   3.442   9.477  0.2705  0.3311  0.0522
 3228SOL     OW21319   3.761   3.260   8.161 -0.3604  0.0642 -0.7498
 3228SOL    HW121320   3.780   3.354   8.168 -0.5735 -0.0911  1.7410
 3228SOL    HW221321   3.668   3.264   8.139 -0.7383  1.1857  1.0426
 3229SOL     OW21322   3.764   3.924  12.609 -0.3029  0.1609 -0.5902
 3229SOL    HW121323   3.787   4.008  12.650  0.7584 -0.1327 -0.5950
 3229SOL    HW221324   3.733   3.866  12.678 -1.0988  1.3493  0.0620
 3230SOL     OW21325   1.471   0.258   6.492  0.4144  0.2558 -0.3378
 3230SOL    HW121326   1.377   0.276   6.496  0.6225  1.0182  1.3719
 3230SOL    HW221327   1.481   0.273   6.398  0.3250  0.3231 -0.3372
 3231SOL     OW21328   1.690   0.273  13.084  0.0352  0.3968  0.2447
 3231SOL    HW121329   1.664   0.327  13.010  0.3997  0.2711  0.0244
 3231SOL    HW221330   1.730   0.203  13.033  1.7447  0.7908  1.0328
 3232SOL     OW21331   0.685   1.726  16.613  0.6333 -0.5243  0.3773
 3232SOL    HW121332   0.744   1.729  16.537 -0.3932 -0.5059 -0.4222
 3232SOL    HW221333   0.663   1.632  16.616 -0.5532 -0.2171  1.3743
 3233SOL     OW21334   1.120   0.614  16.351 -0.2166  0.3245 -0.0257
 3233SOL    HW121335   1.131   0.541  16.290  0.7036 -1.5097  2.3324
 3233SOL    HW221336   1.173   0.686  16.316  1.7977 -0.3819  1.5335
 3234SOL     OW21337   4.164   2.223   7.257  0.3459  0.1643 -0.4148
 3234SOL    HW121338   4.130   2.210   7.345 -0.2228  1.9771 -0.3791
 3234SOL    HW221339   4.171   2.318   7.249 -1.0881  0.1822 -1.5859
 3235SOL     OW21340   4.036   4.255  15.876 -0.0112 -0.2488  0.7612
 3235SOL    HW121341   3.956   4.205  15.857  1.6839 -2.3103 -0.8624
 3235SOL    HW221342   3.992   4.337  15.898  0.2185  0.0731  0.0352
 3236SOL     OW21343   1.354   0.178   2.717  0.1766  0.3170  0.0179
 3236SOL    HW121344   1.393   0.217   2.639  0.5520 -0.8462 -0.3816
 3236SOL    HW221345   1.418   0.108   2.732  1.2096  1.4624  0.8992
 3237SOL     OW21346   3.237   2.904   3.921 -0.1914  0.0050  0.3179
 3237SOL    HW121347   3.305   2.910   3.853  1.2783  0.1366  1.7993
 3237SOL    HW221348   3.167   2.958   3.883 -0.0358  0.4908  0.7243
 3238SOL     OW21349   3.445   2.541   4.010 -0.1321  1.2309  0.4960
 3238SOL    HW121350   3.364   2.510   3.970  1.0052 -0.9895 -0.0688
 3238SOL    HW221351   3.460   2.473   4.075 -0.6379  0.0719 -0.6013
 3239SOL     OW21352   0.537   1.392   9.207 -0.4339  0.0812  0.2903
 3239SOL    HW121353   0.481   1.468   9.225 -0.3834  0.7258 -2.2630
 3239SOL    HW221354   0.480   1.316   9.221  1.1902 -0.9028  1.4570
 3240SOL     OW21355   0.750   3.208   8.594 -0.0533  0.3082  0.5526
 3240SOL    HW121356   0.807   3.261   8.538 -0.4655 -1.2810 -1.3591
 3240SOL    HW221357   0.718   3.139   8.536  2.0981 -0.5983  0.4863
 3241SOL     OW21358   4.299   3.819  13.962  0.2166  1.3159 -0.0199
 3241SOL    HW121359   4.332   3.770  14.037 -2.4075 -0.2365  0.1156
 3241SOL    HW221360   4.345   3.903  13.964  0.7979  0.9729  0.8371
 3242SOL     OW21361   2.272   2.021  12.754  0.4169  0.4231 -0.2387
 3242SOL    HW121362   2.200   2.068  12.712 -1.3025 -1.7421  0.3336
 3242SOL    HW221363   2.266   2.077  12.832 -1.4393  0.2855 -0.3042
 3243SOL     OW21364   2.675   2.605  11.761 -0.4061 -0.3724 -0.8461
 3243SOL    HW121365   2.729   2.642  11.691 -1.5587  1.9515 -0.5010
 3243SOL    HW221366   2.737   2.607  11.833 -0.0935  0.5714 -1.1345
 3244SOL     OW21367   2.959   2.988   3.131 -0.1544 -0.1112  0.6971
 3244SOL    HW121368   3.047   2.960   3.157 -0.0819  0.8548  1.4684
 3244SOL    HW221369   2.971   2.979   3.036  1.1980 -0.8099  0.9262
 3245SOL     OW21370   4.590   4.034   2.109  0.2871  0.2191 -0.8738
 3245SOL    HW121371   4.677   3.993   2.115 -0.1468 -0.7786 -1.2353
 3245SOL    HW221372   4.599   4.123   2.142  0.0830 -0.3457  0.7174
 3246SOL     OW21373   3.602   1.843   1.036 -0.0352  0.0271 -0.4060
 3246SOL    HW121374   3.607   1.795   0.954 -0.0973  1.8015 -1.4480
 3246SOL    HW221375   3.568   1.930   1.013  1.9746 -0.2784 -4.3469
 3247SOL     OW21376   0.708   1.976   6.060 -1.0226  0.0208  0.2568
 3247SOL    HW121377   0.665   1.890   6.061  0.6250 -0.8116 -0.2647
 3247SOL    HW221378   0.775   1.969   5.993 -0.1157 -1.7654  1.3298
 3248SOL     OW21379   3.027   2.459   0.960  0.1747  0.5456  0.5488
 3248SOL    HW121380   3.021   2.525   0.892 -1.2988  1.6236  1.7287
 3248SOL    HW221381   3.048   2.516   1.033 -1.2982 -0.8986  2.1023
 3249SOL     OW21382   2.874   1.956   7.065 -0.0689  0.0445 -0.2532
 3249SOL    HW121383   2.834   1.904   7.135  1.3727  0.2329  0.7108
 3249SOL    HW221384   2.829   1.931   6.985  0.3535 -0.0740 -0.4526
 3250SOL     OW21385   1.324   0.313   7.977 -0.3820  0.1697 -0.1206
 3250SOL    HW121386   1.256   0.321   7.910  0.4295  1.3714 -0.7947
 3250SOL    HW221387   1.331   0.407   7.992 -1.0631  0.1543  0.2932
 3251SOL     OW21388   0.681   1.342   4.208 -0.0564 -0.3202 -0.9001
 3251SOL    HW121389   0.606   1.379   4.253  1.1279 -0.3305  1.0815
 3251SOL    HW221390   0.661   1.343   4.115  1.0706 -0.0482 -1.1383
 3252SOL     OW21391   2.339   2.086   8.116 -0.0193  0.3023 -0.3194
 3252SOL    HW121392   2.392   2.060   8.041 -1.9167 -2.1696 -0.7962
 3252SOL    HW221393   2.284   2.008   8.124 -0.7739  0.8017 -0.5912
 3253SOL     OW21394   1.069   3.467  12.517  0.3403  0.4888 -0.2100
 3253SOL    HW121395   1.084   3.539  12.455 -1.6782  0.7472 -0.4031
 3253SOL    HW221396   1.146   3.467  12.574  0.7392 -2.4027 -0.7494
 3254SOL     OW21397   3.149   3.045   4.572  0.0304  0.2751  0.0467
 3254SOL    HW121398   3.137   3.086   4.486  3.5159 -0.1895 -0.6821
 3254SOL    HW221399   3.244   3.029   4.573  0.0140  0.1383 -0.7518
 3255SOL     OW21400   3.077   1.764  13.772  0.3884  0.7426  0.1107
 3255SOL    HW121401   3.040   1.707  13.704  0.0030 -0.4644  1.3387
 3255SOL    HW221402   3.003   1.821  13.791 -1.2982 -2.0581  1.9420
 3256SOL     OW21403   1.044   4.040   2.989  0.4175  0.2429 -0.2459
 3256SOL    HW121404   1.118   4.018   3.046 -0.0064  1.1332  0.6484
 3256SOL    HW221405   0.971   4.041   3.051 -1.1626  0.7954 -2.1262
 3257SOL     OW21406   3.499   0.929   7.753  0.1976 -0.1053 -0.4276
 3257SOL    HW121407   3.468   0.844   7.723 -0.3105 -0.2791  0.5933
 3257SOL    HW221408   3.459   0.929   7.840  1.0433  1.8868 -0.0333
 3258SOL     OW21409   3.718   4.384   3.082  0.8733  0.0157 -0.3156
 3258SOL    HW121410   3.734   4.374   2.988  0.0648  0.3087 -0.4852
 3258SOL    HW221411   3.716   4.290   3.101 -0.6138  0.0601 -0.2564
 3259SOL     OW21412   0.111   1.871  14.827  0.1018 -0.0979 -0.2111
 3259SOL    HW121413   0.181   1.909  14.774 -0.0253  1.3886  0.6561
 3259SOL    HW221414   0.086   1.946  14.882 -1.9603 -0.8826 -0.0857
 3260SOL     OW21415   2.698   3.922   8.254 -0.3015  0.0411 -0.2326
 3260SOL    HW121416   2.658   3.995   8.208 -0.0133 -0.0847 -0.6755
 3260SOL    HW221417   2.659   3.943   8.340  1.9475 -1.4848  1.1487
 3261SOL     OW21418   3.487   1.962  16.132 -0.2333 -0.0867 -0.1372
 3261SOL    HW121419   3.476   2.017  16.055  2.7428  0.6819 -0.0079
 3261SOL    HW221420   3.420   1.994  16.192 -0.2742  1.2380 -0.8851
 3262SOL     OW21421   0.816   3.706   8.358  0.1618  0.0001  0.0612
 3262SOL    HW121422   0.735   3.668   8.392  0.7985 -0.5654  0.9334
 3262SOL    HW221423   0.851   3.766   8.424 -0.6048 -0.2319  0.6771
 3263SOL     OW21424   4.028   4.341  17.162 -0.0276  0.0919  0.3002
 3263SOL    HW121425   4.110   4.292  17.167  0.0078  0.2065  0.8768
 3263SOL    HW221426   4.054   4.430  17.184 -3.2564  0.6723  1.8544
 3264SOL     OW21427   3.479   2.882   4.089 -0.2513  0.6081 -0.1279
 3264SOL    HW121428   3.394   2.852   4.056  0.5509 -2.2184  0.3861
 3264SOL    HW221429   3.529   2.805   4.062 -2.4804 -1.2960  1.1397
 3265SOL     OW21430   3.377   1.315   5.562  0.2826 -0.3174  0.0260
 3265SOL    HW121431   3.473   1.314   5.567  0.3166  0.5919 -0.4219
 3265SOL    HW221432   3.358   1.408   5.548 -0.5269 -0.7899 -1.9962
 3266SOL     OW21433   4.463   4.610  12.756 -0.0946 -0.1354 -0.6554
 3266SOL    HW121434   4.526   4.604  12.827  0.5170  2.7054 -0.9305
 3266SOL    HW221435   4.427   4.523  12.769 -0.8967  0.1521 -0.9562
 3267SOL     OW21436   0.507   1.066   7.034  0.0987  0.1657  0.5672
 3267SOL    HW121437   0.417   1.095   7.016  0.7058  2.5455  1.2891
 3267SOL    HW221438   0.495   0.972   7.026  0.1890 -0.0514  3.0090
 3268SOL     OW21439   1.444   3.349   1.723  0.2187 -0.0797 -0.1859
 3268SOL    HW121440   1.434   3.263   1.763  1.3140  0.3542  1.0362
 3268SOL    HW221441   1.376   3.399   1.769  1.5309  1.4176  0.1674
 3269SOL     OW21442   3.014   4.011   2.275 -1.0048 -0.0817 -0.2170
 3269SOL    HW121443   2.927   3.983   2.304 -0.2037 -2.4813 -0.1404
 3269SOL    HW221444   3.070   3.945   2.317 -1.8973 -0.2886  0.6632
 3270SOL     OW21445   4.126   0.446   3.095 -0.6475 -0.2291 -0.1128
 3270SOL    HW121446   4.175   0.371   3.130  0.3115  1.1345  1.4920
 3270SOL    HW221447   4.152   0.511   3.161 -0.0641  0.0132 -0.5858
 3271SOL     OW21448   0.145   2.215   3.986  0.0779 -0.1292 -0.5536
 3271SOL    HW121449   0.074   2.151   3.985 -0.5553  0.5762 -2.1580
 3271SOL    HW221450   0.131   2.256   4.071 -0.6714 -2.1516  0.2811
 3272SOL     OW21451   4.049   0.274   1.446  0.1254 -0.0626 -0.0493
 3272SOL    HW121452   4.050   0.307   1.356 -0.0462 -4.6322 -1.6877
 3272SOL    HW221453   4.049   0.179   1.440  1.3029 -0.0039 -0.9646
 3273SOL     OW21454   4.461   1.780   1.374  0.4950 -0.2029  0.2063
 3273SOL    HW121455   4.493   1.790   1.285  0.1072  2.3823  0.3600
 3273SOL    HW221456   4.380   1.729   1.363  0.2604  0.0412  0.7858
 3274SOL     OW21457   2.633   2.556   8.308  0.1140  0.0025 -0.8971
 3274SOL    HW121458   2.570   2.498   8.352  1.0528 -1.0620 -0.9578
 3274SOL    HW221459   2.620   2.632   8.364 -0.5962  0.4729 -1.6927
 3275SOL     OW21460   4.545   2.738   7.094 -0.0979  0.3471  0.1833
 3275SOL    HW121461   4.542   2.654   7.139  0.5560  1.0617  1.5291
 3275SOL    HW221462   4.550   2.796   7.170 -0.3091  1.9557 -1.0266
 3276SOL     OW21463   1.163   2.405   2.936  0.3870 -0.3072  0.1710
 3276SOL    HW121464   1.169   2.423   3.030  0.0327 -2.6028  0.6296
 3276SOL    HW221465   1.173   2.489   2.891  0.0252  1.3733  3.2343
 3277SOL     OW21466   1.734   1.838  10.604  0.0406  0.0759 -0.7688
 3277SOL    HW121467   1.666   1.905  10.606  0.7578  0.7833 -0.2604
 3277SOL    HW221468   1.686   1.786  10.539 -1.2528  0.5018 -0.1606
 3278SOL     OW21469   3.160   3.435   8.925  0.0560 -0.3242  0.2721
 3278SOL    HW121470   3.111   3.516   8.943 -0.2566  0.1558 -2.7808
 3278SOL    HW221471   3.090   3.373   8.943 -1.2246  0.7690 -0.9637
 3279SOL     OW21472   3.453   4.552   2.436  0.0218  0.5566 -0.0409
 3279SOL    HW121473   3.526   4.490   2.445 -0.3748  0.1905  0.6626
 3279SOL    HW221474   3.377   4.504   2.467  1.5358 -1.5487  0.4542
 3280SOL     OW21475   0.235   3.715  15.560  0.3614  0.2219  0.1153
 3280SOL    HW121476   0.154   3.738  15.606  1.3620  0.1503  1.8776
 3280SOL    HW221477   0.265   3.804  15.540  1.0917 -0.6826 -2.7840
 3281SOL     OW21478   2.626   1.002   9.211 -0.1509  0.2482 -0.5801
 3281SOL    HW121479   2.536   0.984   9.185  0.4534 -1.4089 -1.5582
 3281SOL    HW221480   2.634   0.952   9.292 -1.6115  1.1684  0.1329
 3282SOL     OW21481   0.712   3.018  10.896 -0.7586 -0.1429  0.1518
 3282SOL    HW121482   0.723   3.040  10.803 -0.3810  2.3612  0.7903
 3282SOL    HW221483   0.803   3.026  10.925 -0.2513  1.2642 -1.8178
 3283SOL     OW21484   4.266   4.548   5.111  0.3053  0.1384  0.2155
 3283SOL    HW121485   4.264   4.632   5.155 -1.3753  0.7654 -1.0954
 3283SOL    HW221486   4.361   4.537   5.116  0.5890  2.5747  0.1235
 3284SOL     OW21487   1.433   2.742   7.780 -0.1349  0.1507  0.1580
 3284SOL    HW121488   1.387   2.714   7.701  1.9024 -1.2938 -0.5095
 3284SOL    HW221489   1.511   2.687   7.783 -0.3885 -0.1596  1.0076
 3285SOL     OW21490   2.052   0.090   3.558 -0.2208 -0.6408  0.4021
 3285SOL    HW121491   2.130   0.054   3.600  0.2285 -1.1727 -0.9061
 3285SOL    HW221492   1.978   0.051   3.606  0.0203 -2.3403 -0.6045
 3286SOL     OW21493   1.198   1.504  10.352  0.0274  0.6532  0.0873
 3286SOL    HW121494   1.230   1.515  10.442  0.0716 -2.3503  0.4188
 3286SOL    HW221495   1.133   1.434  10.359  1.4516 -0.6678  0.0696
 3287SOL     OW21496   3.799   1.332  11.643  0.4036  0.5963 -0.3640
 3287SOL    HW121497   3.746   1.263  11.604  0.1809  0.3717  0.3276
 3287SOL    HW221498   3.744   1.377  11.707  0.2853 -1.1057  0.7464
 3288SOL     OW21499   3.892   0.051   5.198  0.8514  0.1673  0.2964
 3288SOL    HW121500   3.967   0.111   5.197  0.5325  0.5648  0.2226
 3288SOL    HW221501   3.928   4.731   5.128  3.1595  1.9970  0.0728
 3289SOL     OW21502   1.354   1.839   3.159  0.2187 -0.5117  0.4247
 3289SOL    HW121503   1.302   1.849   3.079 -0.6558 -0.4289  1.0101
 3289SOL    HW221504   1.442   1.862   3.128 -0.7387 -0.2478 -2.1362
 3290SOL     OW21505   3.472   0.259  10.217 -0.0315 -0.1583  0.2979
 3290SOL    HW121506   3.515   0.309  10.148  2.5656 -3.1251 -0.2064
 3290SOL    HW221507   3.541   0.248  10.282  0.3016 -0.1742 -0.0558
 3291SOL     OW21508   2.244   1.739   6.228  0.2398 -0.0442  0.5087
 3291SOL    HW121509   2.277   1.822   6.194 -0.0752 -0.8107 -1.6714
 3291SOL    HW221510   2.314   1.674   6.229 -0.9852 -1.3762  1.4548
 3292SOL     OW21511   3.362   4.512   7.760 -0.3349  0.1682 -0.0510
 3292SOL    HW121512   3.435   4.517   7.698 -0.0731  0.2519  0.2623
 3292SOL    HW221513   3.399   4.578   7.819  0.2401  1.1394 -1.5166
 3293SOL     OW21514   2.131   1.608   7.567  0.4133  0.7888 -0.1605
 3293SOL    HW121515   2.038   1.630   7.573  0.3979  0.5583  0.4270
 3293SOL    HW221516   2.136   1.517   7.597 -0.4891  0.5753 -0.6495
 3294SOL     OW21517   2.759   2.517   9.065  0.3938 -1.0263 -0.2085
 3294SOL    HW121518   2.784   2.489   8.976 -2.3124 -1.0077 -0.9795
 3294SOL    HW221519   2.664   2.511   9.064  0.3657 -0.7733  1.1136
 3295SOL     OW21520   1.252   1.861   6.033 -0.2013  0.1279 -0.1253
 3295SOL    HW121521   1.312   1.800   6.077 -1.0596 -0.1233  0.6925
 3295SOL    HW221522   1.173   1.828   6.076 -0.3442 -0.1672 -0.6116
 3296SOL     OW21523   1.350   3.195  13.158  0.0219 -0.6344  0.0575
 3296SOL    HW121524   1.298   3.220  13.234 -0.2444  0.1364 -0.3747
 3296SOL    HW221525   1.287   3.150  13.103  0.1076 -2.2182  1.2888
 3297SOL     OW21526   4.012   1.629   5.879  0.5736 -0.7665  0.3256
 3297SOL    HW121527   4.040   1.580   5.801  0.5690  0.4942 -0.4680
 3297SOL    HW221528   4.021   1.714   5.836 -1.1567  0.8171  3.1356
 3298SOL     OW21529   2.008   4.229  17.581 -0.6763  0.0945  0.3789
 3298SOL    HW121530   1.914   4.245  17.589 -0.7528 -0.7146  1.0481
 3298SOL    HW221531   2.051   4.298  17.631  0.8330 -2.2873  2.3437
 3299SOL     OW21532   1.482   1.472  13.362 -0.2400  0.1613  0.3863
 3299SOL    HW121533   1.509   1.410  13.429  1.3273 -1.7712 -2.0364
 3299SOL    HW221534   1.546   1.542  13.376 -1.1979  0.9792  0.6985
 3300SOL     OW21535   2.031   0.154  10.012 -0.5329 -0.2373  0.2508
 3300SOL    HW121536   2.071   0.241  10.016 -0.6370 -0.1607 -0.4002
 3300SOL    HW221537   1.978   0.169   9.934  1.7759  0.5612 -1.1852
 3301SOL     OW21538   2.009   3.376   0.039  0.1091 -0.1510 -0.1581
 3301SOL    HW121539   1.994   3.282   0.030  0.6507 -0.1011 -1.5858
 3301SOL    HW221540   1.973   3.391   0.126 -0.6563  2.0901 -0.8582
 3302SOL     OW21541   2.435   4.669  10.553 -0.4937  0.6670  0.0235
 3302SOL    HW121542   2.359   4.724  10.532  0.3843  1.5284 -0.8470
 3302SOL    HW221543   2.396   4.625  10.629 -1.8272  0.9612 -0.4809
 3303SOL     OW21544   1.359   0.884   0.469  0.2803 -0.1384  0.4913
 3303SOL    HW121545   1.441   0.896   0.517  0.0648  1.6243  0.4330
 3303SOL    HW221546   1.393   0.839   0.391 -0.6981 -0.4842  0.2694
 3304SOL     OW21547   2.202   0.149   9.610  0.2195  0.8665 -0.5363
 3304SOL    HW121548   2.253   0.164   9.689 -0.4421  0.5873 -0.0557
 3304SOL    HW221549   2.118   0.125   9.650  0.1613 -0.6956 -1.5865
 3305SOL     OW21550   1.592   0.439   3.709  0.4216 -0.4422  0.3798
 3305SOL    HW121551   1.654   0.498   3.753 -1.5949  0.7250  1.6933
 3305SOL    HW221552   1.556   0.386   3.780 -2.1241  0.4479 -0.2211
 3306SOL     OW21553   0.821   0.167   8.096 -0.1802  0.4822  0.0140
 3306SOL    HW121554   0.813   0.219   8.176 -2.2201  0.9574 -0.4886
 3306SOL    HW221555   0.895   0.210   8.053  0.8667 -1.4312 -0.1334
 3307SOL     OW21556   1.411   2.026   7.030 -0.5438  0.1856 -0.2795
 3307SOL    HW121557   1.443   2.086   6.963 -2.1395 -0.2197 -1.3999
 3307SOL    HW221558   1.415   1.940   6.988  2.1686 -0.5078  1.3698
 3308SOL     OW21559   0.352   2.471   5.752  0.1292  0.3394 -0.0297
 3308SOL    HW121560   0.300   2.465   5.832  0.6564  0.3199  0.3075
 3308SOL    HW221561   0.379   2.563   5.754 -1.1997  0.7921 -1.9604
 3309SOL     OW21562   1.764   0.356  15.652 -0.0074 -0.5152  0.2182
 3309SOL    HW121563   1.792   0.445  15.629  0.9362 -0.3992  1.8325
 3309SOL    HW221564   1.837   0.303  15.621  1.2328  1.7919 -0.7815
 3310SOL     OW21565   2.776   0.834   2.069  0.1818 -0.2776 -0.7858
 3310SOL    HW121566   2.814   0.883   1.997  2.3892 -0.6523  0.1375
 3310SOL    HW221567   2.764   0.753   2.018  0.4274 -1.7141  1.4206
 3311SOL     OW21568   2.512   0.548   5.200 -0.1756  0.0892 -0.1459
 3311SOL    HW121569   2.504   0.467   5.250  0.2906  0.9498  1.3178
 3311SOL    HW221570   2.457   0.526   5.124 -3.1948  2.9964  1.2003
 3312SOL     OW21571   3.708   2.050  10.432 -0.4477 -0.4757 -0.9437
 3312SOL    HW121572   3.640   1.999  10.474 -0.1427  0.1962  0.3735
 3312SOL    HW221573   3.768   1.980  10.407  0.2067 -0.1707 -0.2371
 3313SOL     OW21574   4.413   3.692  16.593  0.4591  0.0133  0.3021
 3313SOL    HW121575   4.387   3.657  16.678 -2.6489  0.3458 -0.4931
 3313SOL    HW221576   4.463   3.622  16.553 -1.7437 -0.4837 -1.6030
 3314SOL     OW21577   4.447   1.804   8.855  0.0713 -0.7593  0.1153
 3314SOL    HW121578   4.380   1.859   8.895  0.2962  0.9680 -1.8669
 3314SOL    HW221579   4.518   1.867   8.848 -0.3616 -0.2256  0.5865
 3315SOL     OW21580   3.436   4.526   4.565  0.0843 -0.4537  0.0089
 3315SOL    HW121581   3.462   4.531   4.657  0.6127 -0.7932 -0.1248
 3315SOL    HW221582   3.341   4.523   4.570  0.0041  2.4909  0.3771
 3316SOL     OW21583   4.231   3.174  11.374 -0.1895  0.0697 -0.0508
 3316SOL    HW121584   4.304   3.122  11.409 -0.5219 -0.6371 -0.4060
 3316SOL    HW221585   4.232   3.140  11.285 -0.8277  0.9878 -0.4128
 3317SOL     OW21586   2.774   3.692   0.085  0.4398 -0.0003 -0.1114
 3317SOL    HW121587   2.740   3.738   0.009 -0.9265  2.5636  2.0548
 3317SOL    HW221588   2.803   3.766   0.138  1.6987 -0.1393 -0.5987
 3318SOL     OW21589   1.213   1.058   1.916 -0.3305  0.7334  0.3530
 3318SOL    HW121590   1.164   1.140   1.928 -0.2576  0.9345 -0.7568
 3318SOL    HW221591   1.173   1.007   1.986 -0.8963  0.3920 -0.2217
 3319SOL     OW21592   3.543   3.938   4.826  0.2287  0.1963  0.5422
 3319SOL    HW121593   3.465   3.893   4.793 -0.4336 -0.3723  2.8823
 3319SOL    HW221594   3.587   3.858   4.857  0.4253 -0.4275 -1.3545
 3320SOL     OW21595   0.120   1.973   6.058 -0.0788 -0.2762  0.0571
 3320SOL    HW121596   0.206   2.012   6.073 -0.7670  1.6712 -0.9710
 3320SOL    HW221597   0.107   1.939   6.146 -1.5512 -0.3403 -0.1828
 3321SOL     OW21598   1.037   2.952   8.923 -0.6445  0.1587 -0.1728
 3321SOL    HW121599   1.069   3.008   8.993 -0.4954 -0.2191  0.0607
 3321SOL    HW221600   0.943   2.933   8.922 -0.1886 -2.1894  0.2022
 3322SOL     OW21601   0.635   4.547   5.591  0.2959  0.2106 -0.2671
 3322SOL    HW121602   0.644   4.634   5.553  0.7771  0.2961  0.0405
 3322SOL    HW221603   0.581   4.504   5.525  1.2424  0.1445 -1.0035
 3323SOL     OW21604   1.062   0.495   5.297  0.3927  0.1231  0.0336
 3323SOL    HW121605   1.133   0.554   5.320  2.0524 -1.8011 -0.1625
 3323SOL    HW221606   1.048   0.449   5.380 -0.4961 -0.1015 -0.2345
 3324SOL     OW21607   2.705   3.081   2.939 -0.7680 -0.1370 -0.5204
 3324SOL    HW121608   2.685   3.091   2.845 -0.4818  0.3023 -0.5324
 3324SOL    HW221609   2.786   3.033   2.923 -1.1668 -0.9030 -0.2633
 3325SOL     OW21610   3.782   0.410   5.045  0.5016 -0.2868  0.4450
 3325SOL    HW121611   3.819   0.484   5.094 -1.2169 -0.7697  2.4345
 3325SOL    HW221612   3.706   0.393   5.100 -0.1067  0.6587 -0.1071
 3326SOL     OW21613   1.111   3.440  16.540  0.0028  0.8538  0.3393
 3326SOL    HW121614   1.109   3.507  16.471 -0.4416  0.7195  0.2214
 3326SOL    HW221615   1.021   3.413  16.556  0.7398 -0.3396  2.4910
 3327SOL     OW21616   1.566   1.702   7.941  0.0582 -0.3525 -0.1000
 3327SOL    HW121617   1.619   1.781   7.950  0.5482 -0.6660 -0.2431
 3327SOL    HW221618   1.631   1.634   7.958 -1.7975 -1.7707  1.2573
 3328SOL     OW21619   3.349   1.815  14.955  0.9592 -0.0693 -0.0230
 3328SOL    HW121620   3.388   1.728  14.958  2.4321  0.6103  0.1438
 3328SOL    HW221621   3.419   1.870  14.988 -0.3497  0.2918  2.1864
 3329SOL     OW21622   4.238   3.930   6.119  0.2678 -0.3539  0.0509
 3329SOL    HW121623   4.242   4.022   6.093 -1.2455 -0.5210 -0.7519
 3329SOL    HW221624   4.229   3.890   6.032 -1.1778 -0.7505  0.3996
 3330SOL     OW21625   2.273   3.664   0.089  0.4946 -0.9813  0.4823
 3330SOL    HW121626   2.254   3.671   0.182 -1.4032  2.6848 -0.2085
 3330SOL    HW221627   2.191   3.684   0.044  0.2627 -0.8208  0.9863
 3331SOL     OW21628   2.365   4.567   6.985 -0.4147 -0.1912 -0.2217
 3331SOL    HW121629   2.320   4.548   6.903  2.3302 -0.5964 -1.6200
 3331SOL    HW221630   2.418   4.640   6.953  0.6851 -1.0541 -0.3486
 3332SOL     OW21631   4.287   3.335  14.882  0.5055 -0.1118  0.0830
 3332SOL    HW121632   4.226   3.390  14.833  0.4502 -0.9493 -0.7845
 3332SOL    HW221633   4.320   3.285  14.807  1.6113  1.9698 -0.8261
 3333SOL     OW21634   1.630   0.860   8.802 -0.0582  0.2065  0.2126
 3333SOL    HW121635   1.599   0.771   8.782  0.5094  0.0600  0.0049
 3333SOL    HW221636   1.564   0.899   8.860  2.0360  1.0901  1.9623
 3334SOL     OW21637   3.645   3.948   8.467 -0.0591 -0.2409 -0.5342
 3334SOL    HW121638   3.714   3.883   8.476  0.1594  0.0147 -0.3718
 3334SOL    HW221639   3.571   3.893   8.492  0.0492 -0.6571 -1.1449
 3335SOL     OW21640   0.248   2.137  12.684 -0.1389 -0.8735 -0.1735
 3335SOL    HW121641   0.209   2.101  12.764 -1.1203  1.6839  0.5084
 3335SOL    HW221642   0.167   2.136  12.633  0.1801  0.4132 -0.7056
 3336SOL     OW21643   1.357   2.389   3.805 -0.0932  0.0777  0.2743
 3336SOL    HW121644   1.305   2.469   3.814  0.8301  0.7463 -0.2859
 3336SOL    HW221645   1.295   2.331   3.760 -0.1830  0.7037 -0.4140
 3337SOL     OW21646   3.548   1.027  16.167  0.1390 -0.3500  0.7429
 3337SOL    HW121647   3.569   0.980  16.247 -0.0793  0.3595  1.2116
 3337SOL    HW221648   3.612   0.983  16.111  0.7623  0.8812  0.4784
 3338SOL     OW21649   0.004   4.606   5.153 -0.4715 -0.7560 -0.0314
 3338SOL    HW121650   4.707   4.556   5.078  0.8442  1.3541 -2.0076
 3338SOL    HW221651   4.729   4.552   5.231 -1.0256 -0.2646  0.2315
 3339SOL     OW21652   2.023   1.224  12.469 -0.3784  0.2528 -0.1750
 3339SOL    HW121653   2.051   1.241  12.559  1.2506 -0.3296 -0.5804
 3339SOL    HW221654   2.012   1.130  12.480  0.8084 -0.0142 -1.2610
 3340SOL     OW21655   4.395   2.816  11.495 -0.1613  0.4552  0.2888
 3340SOL    HW121656   4.410   2.856  11.580  1.0748  0.3133  0.1408
 3340SOL    HW221657   4.319   2.857  11.454 -0.5223 -1.0566 -0.5678
 3341SOL     OW21658   2.796   0.734  13.346 -0.3788 -0.3126 -0.2463
 3341SOL    HW121659   2.874   0.682  13.331 -1.3394 -1.9406  0.4491
 3341SOL    HW221660   2.825   0.766  13.432 -1.4731 -1.2734  0.4777
 3342SOL     OW21661   2.637   4.725   9.169 -0.5947  0.0593  0.4794
 3342SOL    HW121662   2.642   4.718   9.073 -0.1885 -0.8841  0.5708
 3342SOL    HW221663   2.727   4.700   9.191 -0.6471 -0.0611  0.5552
 3343SOL     OW21664   1.919   4.601   5.432 -0.8720 -0.5485  0.4975
 3343SOL    HW121665   1.945   4.523   5.481 -1.6924 -1.8958 -1.2067
 3343SOL    HW221666   1.832   4.592   5.472 -1.4698  1.8000 -0.2766
 3344SOL     OW21667   1.939   1.362   3.419  0.0724 -0.4753 -0.5214
 3344SOL    HW121668   2.021   1.370   3.469  0.4488 -1.1109 -1.0300
 3344SOL    HW221669   1.925   1.453   3.394  3.3228  0.3676  0.6274
 3345SOL     OW21670   3.275   2.720   5.138 -0.4334 -0.2025 -0.1231
 3345SOL    HW121671   3.353   2.684   5.095 -1.6561  0.7566 -3.1525
 3345SOL    HW221672   3.312   2.807   5.156  1.0437 -0.5895 -1.3212
 3346SOL     OW21673   0.736   0.950   1.608  0.2047  0.3690  0.2108
 3346SOL    HW121674   0.753   0.872   1.554 -0.6237 -0.9165  1.7914
 3346SOL    HW221675   0.795   1.009   1.562  1.3305 -0.5156  0.5110
 3347SOL     OW21676   0.838   4.699   3.576 -0.1340 -0.4841 -0.1659
 3347SOL    HW121677   0.846   0.023   3.501  0.1253 -1.5794 -0.9984
 3347SOL    HW221678   0.834   4.612   3.535 -0.4968 -1.7206  2.4682
 3348SOL     OW21679   0.699   0.140   6.025  0.4973 -0.2613 -0.6703
 3348SOL    HW121680   0.616   0.182   6.046  2.3090  0.9400  4.0151
 3348SOL    HW221681   0.686   0.051   6.059  0.6248  0.4572  1.2791
 3349SOL     OW21682   2.732   1.014   3.449 -0.6510 -0.1876  0.3600
 3349SOL    HW121683   2.683   0.965   3.516 -0.9240 -0.8464 -0.3268
 3349SOL    HW221684   2.694   0.977   3.369 -0.3787 -1.5620  0.8495
 3350SOL     OW21685   4.241   3.690   2.299 -0.5087 -0.0724  0.1126
 3350SOL    HW121686   4.156   3.705   2.257 -1.1944 -0.5155  1.3389
 3350SOL    HW221687   4.306   3.715   2.234 -1.3649  0.7295 -0.4417
 3351SOL     OW21688   3.380   4.276  14.912 -0.4555 -0.5945  0.5200
 3351SOL    HW121689   3.426   4.352  14.949  2.4845 -1.3737 -1.5182
 3351SOL    HW221690   3.385   4.316  14.826 -3.3433 -0.6017  0.3473
 3352SOL     OW21691   4.552   2.588   7.923  0.6391  1.2106  1.0111
 3352SOL    HW121692   4.622   2.556   7.979  1.7421 -0.3858 -1.2846
 3352SOL    HW221693   4.483   2.598   7.989  1.1113  1.4010  1.4742
 3353SOL     OW21694   4.507   3.026   2.163  0.0304 -0.7906 -0.0521
 3353SOL    HW121695   4.439   3.089   2.189  1.2131  0.3334  0.3410
 3353SOL    HW221696   4.559   3.025   2.244 -0.4726 -0.1981  0.2873
 3354SOL     OW21697   4.283   0.840  13.192 -0.0506  0.1268  0.3528
 3354SOL    HW121698   4.341   0.812  13.121 -0.0020  2.5136 -0.5466
 3354SOL    HW221699   4.211   0.887  13.150  1.7856  0.9350 -1.8566
 3355SOL     OW21700   4.247   3.590   2.559  0.4986 -0.1016  0.0777
 3355SOL    HW121701   4.204   3.667   2.596 -0.1423 -0.8902  0.9706
 3355SOL    HW221702   4.240   3.617   2.467  0.6417  3.1436  1.0036
 3356SOL     OW21703   2.771   0.151  14.152  0.1809 -0.0628  0.3481
 3356SOL    HW121704   2.816   0.087  14.207 -0.0986  1.5206  2.4179
 3356SOL    HW221705   2.818   0.139  14.069  2.4879  1.3716  1.4263
 3357SOL     OW21706   2.494   4.422   7.767 -0.0159  0.2879 -0.4607
 3357SOL    HW121707   2.437   4.406   7.842  0.3727  3.2518  0.4666
 3357SOL    HW221708   2.492   4.334   7.730  0.7711  0.3225 -0.5861
 3358SOL     OW21709   0.027   3.038   3.971 -0.2091 -0.2527 -0.3183
 3358SOL    HW121710   4.666   3.039   3.978 -0.0145  0.1403  2.4474
 3358SOL    HW221711   0.046   3.114   3.917  2.2236  0.5107  1.5758
 3359SOL     OW21712   2.666   3.971   2.116  0.2395 -0.2788 -0.0386
 3359SOL    HW121713   2.694   4.052   2.074  1.7830  1.0708  3.5827
 3359SOL    HW221714   2.573   3.979   2.095  0.3564 -3.0634 -1.6344
 3360SOL     OW21715   0.662   4.347   3.532  0.6323 -0.1071 -0.2116
 3360SOL    HW121716   0.732   4.413   3.538  1.8648 -1.7015  2.5490
 3360SOL    HW221717   0.718   4.269   3.527 -0.4459 -0.7579 -2.3702
 3361SOL     OW21718   3.565   3.059  10.741 -0.0654 -0.3482 -0.1558
 3361SOL    HW121719   3.627   3.091  10.675  0.5398 -2.0544 -0.4216
 3361SOL    HW221720   3.606   2.973  10.747  1.3797  0.2952 -0.8690
 3362SOL     OW21721   2.660   3.728   6.986  0.0425  0.4267 -0.4293
 3362SOL    HW121722   2.576   3.756   6.948 -0.2005 -0.2092 -0.3717
 3362SOL    HW221723   2.655   3.784   7.063 -1.9947  0.4659 -0.5838
 3363SOL     OW21724   1.112   2.552   7.786 -0.9294  0.1696  0.1886
 3363SOL    HW121725   1.028   2.507   7.774 -1.5568  1.8515 -1.7400
 3363SOL    HW221726   1.156   2.500   7.719 -0.3575  0.5595  0.2678
 3364SOL     OW21727   4.712   3.481   1.001 -0.2012 -0.0471  0.0988
 3364SOL    HW121728   4.713   3.576   1.003  0.0148 -0.0135 -1.4163
 3364SOL    HW221729   4.619   3.463   1.008 -0.0085 -0.2859  1.9036
 3365SOL     OW21730   4.539   0.451  14.026  0.3994  0.1312  0.0116
 3365SOL    HW121731   4.496   0.388  13.968  2.2355 -2.3327  1.3523
 3365SOL    HW221732   4.602   0.500  13.973  0.3072  0.8674  0.5882
 3366SOL     OW21733   1.440   0.541   2.642  0.6800 -0.3124 -0.4836
 3366SOL    HW121734   1.475   0.630   2.636 -0.6214  0.2104 -0.3217
 3366SOL    HW221735   1.379   0.538   2.569  0.9403  2.1831 -0.8231
 3367SOL     OW21736   2.971   1.170  13.231 -0.0873 -0.1143  0.4492
 3367SOL    HW121737   2.969   1.258  13.193  1.4354 -0.3705 -0.2345
 3367SOL    HW221738   3.034   1.126  13.174  0.1837 -1.0537  1.4845
 3368SOL     OW21739   0.840   1.121   3.840  0.1450  0.4266 -0.0465
 3368SOL    HW121740   0.897   1.160   3.907  1.4109 -1.1122 -0.2483
 3368SOL    HW221741   0.900   1.066   3.791  0.2585 -0.8410  1.5181
 3369SOL     OW21742   3.865   0.538  15.549  0.0388  0.3703 -0.1366
 3369SOL    HW121743   3.911   0.499  15.624 -0.2394  0.8729  0.3019
 3369SOL    HW221744   3.778   0.548  15.589  1.0531 -1.2123  2.4820
 3370SOL     OW21745   0.690   3.764   1.319  0.4494  0.3961  0.5569
 3370SOL    HW121746   0.713   3.770   1.226 -0.7910 -0.1727  0.2122
 3370SOL    HW221747   0.611   3.818   1.325 -1.2637 -2.0479 -0.0115
 3371SOL     OW21748   4.144   3.088   2.527 -0.4327 -0.0314 -0.0229
 3371SOL    HW121749   4.225   3.065   2.573  1.1059  1.9762 -1.6718
 3371SOL    HW221750   4.179   3.130   2.448  0.4435 -0.4152  0.1601
 3372SOL     OW21751   1.747   1.839  14.653  0.0070  0.4032  0.1831
 3372SOL    HW121752   1.738   1.934  14.649  0.3400  0.3616 -1.5586
 3372SOL    HW221753   1.777   1.835  14.744 -0.9726  0.7005  0.5217
 3373SOL     OW21754   0.707   1.945   2.431  0.6067 -0.6754  0.1761
 3373SOL    HW121755   0.687   2.006   2.359  2.1101 -0.1020  0.2490
 3373SOL    HW221756   0.774   1.995   2.477 -0.1451 -0.3299  0.8911
 3374SOL     OW21757   3.932   3.933   5.443  0.0002  0.4308 -0.3716
 3374SOL    HW121758   4.020   3.913   5.413 -0.0022  0.4032 -0.3602
 3374SOL    HW221759   3.941   3.991   5.519 -1.5029 -0.4132  0.4606
 3375SOL     OW21760   4.175   4.395  16.527 -0.0252  0.3681 -0.0880
 3375SOL    HW121761   4.121   4.398  16.449 -0.8972  0.2182  0.5145
 3375SOL    HW221762   4.160   4.313  16.574 -2.0498  0.9289  0.2323
 3376SOL     OW21763   3.545   1.904   9.543 -0.0238 -0.1917  0.0764
 3376SOL    HW121764   3.477   1.940   9.601 -0.8123  1.7183 -2.0662
 3376SOL    HW221765   3.490   1.870   9.473 -1.9598 -0.8048  1.8769
 3377SOL     OW21766   4.088   0.084  16.183 -0.1623 -0.0230  0.4274
 3377SOL    HW121767   4.048   0.013  16.234  1.1772 -0.7787  0.4042
 3377SOL    HW221768   4.180   0.070  16.203 -0.7521 -2.7070  1.2158
 3378SOL     OW21769   3.781   1.761   7.823  0.2060  0.0483  0.4133
 3378SOL    HW121770   3.720   1.708   7.771  2.1528 -1.8719  0.0601
 3378SOL    HW221771   3.813   1.689   7.878  1.4412  0.4232  0.2006
 3379SOL     OW21772   0.716   2.928   4.593  0.1669 -0.2424 -0.8946
 3379SOL    HW121773   0.630   2.953   4.628  0.2633 -1.8262  0.4686
 3379SOL    HW221774   0.704   2.957   4.502 -3.7872  0.7863 -0.0458
 3380SOL     OW21775   0.430   3.753   5.258 -0.1918 -0.3090  0.0298
 3380SOL    HW121776   0.335   3.752   5.260 -0.1663  0.6424  1.3978
 3380SOL    HW221777   0.458   3.838   5.222 -2.2628  0.8986  1.3003
 3381SOL     OW21778   3.393   1.463  14.480 -0.4171 -0.1852 -0.2742
 3381SOL    HW121779   3.320   1.448  14.540 -0.4194 -0.1782 -0.2752
 3381SOL    HW221780   3.364   1.540  14.431  3.2559  1.1506 -0.3834
 3382SOL     OW21781   1.051   1.956   5.029 -0.1460  0.4516 -0.0086
 3382SOL    HW121782   1.115   2.008   5.077  0.5580  0.1249 -0.5903
 3382SOL    HW221783   1.108   1.910   4.967 -0.0681  1.6391 -0.8266
 3383SOL     OW21784   2.504   2.030  11.963  0.2282  0.1542 -0.2476
 3383SOL    HW121785   2.434   2.047  11.900  3.1614  0.4423 -3.4427
 3383SOL    HW221786   2.450   2.016  12.041  0.8509 -0.6570  0.0348
 3384SOL     OW21787   2.665   1.173   8.960  0.3070  0.1792 -0.3696
 3384SOL    HW121788   2.637   1.106   8.898 -0.4284 -0.7848  1.0172
 3384SOL    HW221789   2.633   1.154   9.048 -4.0403 -2.3415 -2.4855
 3385SOL     OW21790   0.554   1.171  15.786  0.2708  0.3028  0.2817
 3385SOL    HW121791   0.531   1.243  15.727 -0.9244 -3.0754 -3.3219
 3385SOL    HW221792   0.525   1.097  15.734 -0.3590  0.1785  0.8043
 3386SOL     OW21793   3.132   4.099   5.292  0.5654  0.1678 -0.3265
 3386SOL    HW121794   3.129   4.019   5.345 -0.0623  1.2351  1.2351
 3386SOL    HW221795   3.182   4.165   5.339 -1.5160  0.8740  0.8949
 3387SOL     OW21796   0.666   0.733   3.177  0.0826  0.7347  0.1535
 3387SOL    HW121797   0.681   0.658   3.119  0.6567  1.1641 -0.2514
 3387SOL    HW221798   0.745   0.786   3.167 -0.3621  1.2838 -0.4605
 3388SOL     OW21799   2.474   1.432   3.675  0.2088  0.0934  0.1089
 3388SOL    HW121800   2.528   1.499   3.715  0.2793 -0.1742  0.4726
 3388SOL    HW221801   2.528   1.374   3.621  0.1620  0.0984  0.0573
 3389SOL     OW21802   1.453   3.170   6.450  0.0179  0.0435  0.8308
 3389SOL    HW121803   1.490   3.180   6.363 -0.3419  1.2874  0.8204
 3389SOL    HW221804   1.391   3.243   6.459 -0.9206 -0.5029 -1.2461
 3390SOL     OW21805   2.883   3.915   0.194  0.4258 -0.1100  0.1062
 3390SOL    HW121806   2.884   3.969   0.273  0.4798 -0.0234  0.0478
 3390SOL    HW221807   2.853   3.976   0.127 -1.4252 -0.9696  0.1580
 3391SOL     OW21808   3.415   4.122   6.397  0.5468 -0.0525  0.1348
 3391SOL    HW121809   3.488   4.154   6.450  1.8267 -1.7162 -0.6315
 3391SOL    HW221810   3.372   4.206   6.378 -0.0964  0.0611  2.1558
 3392SOL     OW21811   0.279   0.850   9.337 -0.4734 -0.0150 -0.0244
 3392SOL    HW121812   0.199   0.900   9.321  0.4166  1.6098  0.6127
 3392SOL    HW221813   0.320   0.854   9.251 -2.3615 -1.0184 -0.9804
 3393SOL     OW21814   1.527   1.952   1.489 -0.0156 -0.3818  0.3580
 3393SOL    HW121815   1.437   1.954   1.522 -0.0145 -0.4184  0.3622
 3393SOL    HW221816   1.569   1.970   1.572  1.1143  0.3519 -0.3727
 3394SOL     OW21817   2.220   2.883  17.715 -0.5820 -0.0106 -0.1621
 3394SOL    HW121818   2.248   2.961   0.024  1.5832 -1.5029  1.0736
 3394SOL    HW221819   2.226   2.925  17.630  0.8912  0.1174  0.0113
 3395SOL     OW21820   0.369   3.460   2.000  0.5240  0.0291  0.3483
 3395SOL    HW121821   0.312   3.521   2.046  0.4053  0.2173 -0.0478
 3395SOL    HW221822   0.343   3.377   2.039 -0.1965 -0.5881 -1.4635
 3396SOL     OW21823   2.765   4.544   2.871  0.7914 -0.4420  0.3211
 3396SOL    HW121824   2.679   4.574   2.843  0.7650 -1.4243 -0.6131
 3396SOL    HW221825   2.801   4.633   2.874 -2.0337  0.7339 -0.4365
 3397SOL     OW21826   1.900   3.302   3.011 -0.4542  0.0117  0.5734
 3397SOL    HW121827   1.993   3.279   3.009 -0.7866 -1.3558  0.3248
 3397SOL    HW221828   1.873   3.211   3.027 -1.0451 -0.0052 -0.4381
 3398SOL     OW21829   4.042   1.554   3.469 -0.3744  0.0557  0.2793
 3398SOL    HW121830   4.046   1.536   3.375  0.3499  3.0553 -0.2856
 3398SOL    HW221831   4.098   1.632   3.463 -1.5968  1.0165  1.4503
 3399SOL     OW21832   4.271   0.117   2.527  0.8569  0.2222  0.4465
 3399SOL    HW121833   4.313   0.056   2.588 -0.1908  0.4443  1.4046
 3399SOL    HW221834   4.197   0.063   2.501  1.3869 -0.1930 -0.1789
 3400SOL     OW21835   3.955   1.864   0.911 -0.0289 -0.4480 -0.0815
 3400SOL    HW121836   3.902   1.882   0.988  1.3903 -0.5972  0.9256
 3400SOL    HW221837   4.008   1.792   0.946  0.5107  0.2363  0.5175
 3401SOL     OW21838   4.556   1.919   1.591  0.1883  0.2013 -0.1638
 3401SOL    HW121839   4.522   1.864   1.521 -1.1839 -0.9578  1.3990
 3401SOL    HW221840   4.648   1.891   1.596 -0.0544 -0.5019  0.5380
 3402SOL     OW21841   3.829   2.512   8.386  0.1834 -0.2392  0.4000
 3402SOL    HW121842   3.855   2.554   8.468 -1.5863  0.3432  0.6717
 3402SOL    HW221843   3.756   2.559   8.346  2.7949  1.0776 -2.7595
 3403SOL     OW21844   4.134   0.745  11.274 -1.0982  0.4418  0.0570
 3403SOL    HW121845   4.145   0.823  11.220  0.0138 -0.8023 -1.5236
 3403SOL    HW221846   4.102   0.680  11.211  0.1128  0.3272 -0.4415
 3404SOL     OW21847   2.877   4.235   0.764 -0.3253  0.1701  0.3622
 3404SOL    HW121848   2.849   4.302   0.825  1.2312  0.4814  0.7441
 3404SOL    HW221849   2.859   4.287   0.686 -1.4509  1.5675  1.5684
 3405SOL     OW21850   3.395   1.711  13.665 -0.5349  0.0498 -0.4534
 3405SOL    HW121851   3.328   1.780  13.660 -0.4995  0.3928  3.5139
 3405SOL    HW221852   3.392   1.706  13.761  0.6710  0.1472 -0.4094
 3406SOL     OW21853   4.317   1.895   1.011  0.3714 -0.4608  0.6769
 3406SOL    HW121854   4.322   1.835   0.936 -1.9782  0.9050 -0.5535
 3406SOL    HW221855   4.390   1.858   1.061  0.3536 -0.6274  0.5778
 3407SOL     OW21856   2.858   0.380  10.741  0.5696 -0.1836 -0.7984
 3407SOL    HW121857   2.859   0.427  10.824 -0.7707  0.4526 -1.1390
 3407SOL    HW221858   2.928   0.315  10.752  0.4946 -0.3195 -1.1251
 3408SOL     OW21859   3.934   3.834   3.347 -0.0571 -0.2753 -0.2554
 3408SOL    HW121860   3.903   3.745   3.331  2.4076 -1.8773  3.8239
 3408SOL    HW221861   3.945   3.867   3.258  1.7240  0.8036  0.3598
 3409SOL     OW21862   1.794   1.655   6.313  0.1250 -0.1857  0.2140
 3409SOL    HW121863   1.753   1.599   6.248  0.4472 -0.7141  0.4578
 3409SOL    HW221864   1.804   1.593   6.386 -1.3948 -0.4819  0.1729
 3410SOL     OW21865   2.031   3.460   6.624 -0.1670  0.2748 -0.6439
 3410SOL    HW121866   2.097   3.441   6.557 -0.1780 -1.0485 -0.2797
 3410SOL    HW221867   2.081   3.510   6.689  1.1528 -2.1625  0.2229
 3411SOL     OW21868   4.000   4.708  12.334  0.0508  0.1762  0.0472
 3411SOL    HW121869   4.049   0.049  12.303 -0.4666  1.3654  2.1175
 3411SOL    HW221870   4.071   4.665  12.381 -0.3517 -1.4391 -0.8159
 3412SOL     OW21871   4.315   1.899   2.041 -0.5369  0.2814  0.1677
 3412SOL    HW121872   4.273   1.856   2.115 -0.7891 -1.7753 -1.1647
 3412SOL    HW221873   4.247   1.961   2.014  0.0324  0.9044  0.1612
 3413SOL     OW21874   3.922   1.731   5.328 -0.0355 -0.5276  0.4325
 3413SOL    HW121875   3.882   1.687   5.253  3.2350 -0.3341 -1.4068
 3413SOL    HW221876   3.837   1.760   5.362  1.0936  1.1021  1.8537
 3414SOL     OW21877   3.525   2.083   9.209  0.2035  0.2510 -0.4226
 3414SOL    HW121878   3.430   2.075   9.208  0.4753 -3.2549  0.6151
 3414SOL    HW221879   3.528   2.141   9.285  0.2516  0.5705 -0.6646
 3415SOL     OW21880   3.392   2.032  17.625  0.2279  0.1142 -0.1181
 3415SOL    HW121881   3.486   2.022  17.643  0.7074  1.3928 -1.8379
 3415SOL    HW221882   3.403   2.122  17.593  0.5707 -0.4219 -1.5196
 3416SOL     OW21883   3.495   4.004   3.295 -0.0425 -0.6202  0.2947
 3416SOL    HW121884   3.549   4.033   3.369 -0.0806 -0.8597  0.4145
 3416SOL    HW221885   3.411   4.022   3.337 -0.5335 -0.2791 -0.8157
 3417SOL     OW21886   4.131   3.346   4.919 -0.2141 -0.4392  0.4446
 3417SOL    HW121887   4.226   3.353   4.916 -0.3236  0.2952 -1.0045
 3417SOL    HW221888   4.113   3.341   4.826  3.3948  0.9227 -0.3258
 3418SOL     OW21889   1.058   1.755   6.662 -0.3447 -0.4991  0.4503
 3418SOL    HW121890   1.044   1.714   6.577  1.1799 -0.3965  0.1394
 3418SOL    HW221891   1.020   1.842   6.655  0.9651  0.0848  0.5006
 3419SOL     OW21892   4.374   4.549   3.341  0.5160 -0.3575 -0.2983
 3419SOL    HW121893   4.321   4.595   3.406 -0.6790 -1.2446 -0.6516
 3419SOL    HW221894   4.416   4.618   3.290  2.7028 -1.7587 -0.4105
 3420SOL     OW21895   0.292   1.337   8.133  0.6163  0.4545  0.0558
 3420SOL    HW121896   0.384   1.348   8.159  0.5043  0.6423  0.3625
 3420SOL    HW221897   0.284   1.245   8.110 -0.8888  0.6665 -0.2398
 3421SOL     OW21898   0.054   0.710   8.371 -1.0249  0.1234  0.1360
 3421SOL    HW121899   0.098   0.775   8.425  2.5991 -1.0472 -1.4489
 3421SOL    HW221900   0.075   0.739   8.283  1.4648 -0.5587  0.5146
 3422SOL     OW21901   1.281   0.775  16.175  0.0274 -0.4493 -0.4209
 3422SOL    HW121902   1.347   0.844  16.162 -2.9817  2.5931  0.5774
 3422SOL    HW221903   1.243   0.778  16.087  0.1542  1.9745 -0.3881
 3423SOL     OW21904   0.178   1.949   6.709  0.7788 -0.4735 -0.3188
 3423SOL    HW121905   0.219   1.953   6.622 -1.8011  1.4471 -1.4465
 3423SOL    HW221906   0.142   1.861   6.701  0.6475 -0.4820  0.3390
 3424SOL     OW21907   0.030   0.686  15.906  0.7945  0.0287 -0.2924
 3424SOL    HW121908   4.719   0.607  15.879  0.5487  1.1971 -3.3230
 3424SOL    HW221909   4.696   0.736  15.949 -0.5743 -0.6511 -1.7128
 3425SOL     OW21910   2.463   3.947   6.183  0.3572 -0.3139  0.1055
 3425SOL    HW121911   2.415   3.920   6.104  0.1421  0.8433 -0.1547
 3425SOL    HW221912   2.526   4.011   6.150  0.5617 -0.9479 -0.7303
 3426SOL     OW21913   1.703   2.314   3.344 -0.0417 -0.4154 -0.3834
 3426SOL    HW121914   1.725   2.225   3.371 -0.8934 -0.7512 -0.7852
 3426SOL    HW221915   1.630   2.318   3.405  0.2954 -0.7212  0.0453
 3427SOL     OW21916   2.845   2.465   2.346  0.2938 -0.1740  0.2567
 3427SOL    HW121917   2.866   2.399   2.412 -2.7980  0.4198  1.8616
 3427SOL    HW221918   2.834   2.405   2.272  3.5742 -0.2306 -0.1745
 3428SOL     OW21919   0.394   4.256   0.987 -0.3157  0.3988  0.8069
 3428SOL    HW121920   0.305   4.288   0.972 -0.1374  1.5043  2.0839
 3428SOL    HW221921   0.443   4.336   0.966  1.5434 -1.4866 -2.1225
 3429SOL     OW21922   0.013   4.398  12.776 -0.4224  0.2206 -0.5784
 3429SOL    HW121923   0.051   4.406  12.689  1.6452  1.2914  0.4092
 3429SOL    HW221924   0.021   4.306  12.804 -3.4376  0.5958  1.5225
 3430SOL     OW21925   1.575   1.487   9.073  0.6274  0.4617  0.0366
 3430SOL    HW121926   1.591   1.552   9.141  0.2591  0.0125  0.5561
 3430SOL    HW221927   1.555   1.410   9.127 -2.0002  1.5128  0.5698
 3431SOL     OW21928   3.535   2.624   1.755  0.2192  0.5198  0.6531
 3431SOL    HW121929   3.525   2.704   1.807 -0.4728  0.7172  0.2198
 3431SOL    HW221930   3.624   2.640   1.724 -0.5638  1.6316 -1.0569
 3432SOL     OW21931   3.461   3.520   8.712 -0.6492 -0.3066 -0.2387
 3432SOL    HW121932   3.454   3.501   8.805  0.5622 -0.4645 -0.1852
 3432SOL    HW221933   3.373   3.495   8.682  0.9572 -3.4323 -2.4094
 3433SOL     OW21934   0.242   1.514   4.566 -0.5719 -0.2608  0.3804
 3433SOL    HW121935   0.159   1.511   4.518  0.5974  1.9866 -1.8279
 3433SOL    HW221936   0.251   1.608   4.584  0.9884 -0.1562 -0.9679
 3434SOL     OW21937   4.699   0.500  13.752  0.4146  0.3442 -0.5190
 3434SOL    HW121938   4.695   0.411  13.717  1.1940 -1.1533  3.2001
 3434SOL    HW221939   0.007   0.544  13.678 -1.3215  4.2811  0.7972
 3435SOL     OW21940   1.319   3.533   0.532  0.0838  0.1882 -0.0931
 3435SOL    HW121941   1.310   3.446   0.570  0.3457 -0.3682 -1.2817
 3435SOL    HW221942   1.413   3.547   0.526 -0.6814  4.1303 -3.1464
 3436SOL     OW21943   0.671   4.461   8.798  0.1838 -0.3412  0.1209
 3436SOL    HW121944   0.589   4.474   8.845  0.3107 -0.2847  0.3285
 3436SOL    HW221945   0.678   4.544   8.750 -2.3111  0.2147  0.7331
 3437SOL     OW21946   2.899   0.532   3.632 -0.6703 -0.1833  0.3001
 3437SOL    HW121947   2.823   0.508   3.579 -1.7978  1.9328  0.9467
 3437SOL    HW221948   2.888   0.457   3.690  0.2578  0.6029  1.5000
 3438SOL     OW21949   2.963   4.494   7.498  0.2831 -0.3144  0.3377
 3438SOL    HW121950   2.922   4.469   7.415 -1.9858  0.9849  1.0501
 3438SOL    HW221951   2.912   4.448   7.565 -1.2868 -0.2642 -0.8160
 3439SOL     OW21952   1.405   2.829   8.036  0.6636  0.0798  0.0106
 3439SOL    HW121953   1.494   2.847   8.066  0.4437  0.8496  0.1936
 3439SOL    HW221954   1.435   2.802   7.949 -0.9300 -1.1233 -0.1613
 3440SOL     OW21955   0.875   4.492  11.165  0.5912  0.2196 -0.3264
 3440SOL    HW121956   0.935   4.420  11.182  0.0246 -0.2167 -0.1589
 3440SOL    HW221957   0.879   4.493  11.069  0.5904  0.7892 -0.3224
 3441SOL     OW21958   4.195   0.870   7.989  0.0582  0.3654 -0.0223
 3441SOL    HW121959   4.114   0.920   7.997  0.4029  0.5203  2.5532
 3441SOL    HW221960   4.250   0.926   7.933  3.5158 -1.3615  1.6671
 3442SOL     OW21961   0.959   3.645   1.102  0.3346 -0.6002  0.2402
 3442SOL    HW121962   0.906   3.657   1.023 -0.1920  1.1672  0.8677
 3442SOL    HW221963   1.042   3.607   1.074 -0.1707 -2.6259  1.4936
 3443SOL     OW21964   4.524   3.919  16.325  0.0548 -0.1436  0.4311
 3443SOL    HW121965   4.485   3.911  16.412 -0.8441 -1.9260 -0.1136
 3443SOL    HW221966   4.546   4.012  16.326  0.1004 -0.1669  1.4966
 3444SOL     OW21967   1.278   2.656   5.831  0.9623  0.3223 -0.5989
 3444SOL    HW121968   1.252   2.700   5.912  0.7895 -1.2603  0.2169
 3444SOL    HW221969   1.246   2.567   5.849  1.2431  0.0477 -1.4723
 3445SOL     OW21970   1.591   4.472   3.260  0.4496  0.0338 -0.4576
 3445SOL    HW121971   1.672   4.462   3.211  0.2389 -0.7888 -0.6301
 3445SOL    HW221972   1.526   4.416   3.217  0.5198 -0.2426 -0.2006
 3446SOL     OW21973   0.737   2.548  15.704  0.3812  0.2064  0.0436
 3446SOL    HW121974   0.780   2.541  15.619  2.1388  0.1678  0.9300
 3446SOL    HW221975   0.670   2.480  15.692 -0.1335  0.9850 -1.5281
 3447SOL     OW21976   2.089   3.195   1.573 -0.1781 -0.1902 -0.3282
 3447SOL    HW121977   1.996   3.207   1.592 -0.0107  0.3568  0.1268
 3447SOL    HW221978   2.133   3.273   1.606  0.7475 -0.9647  0.2863
 3448SOL     OW21979   0.977   3.463   5.779 -0.2988  0.4235 -0.1688
 3448SOL    HW121980   0.946   3.546   5.744  0.8977  0.6867 -0.5763
 3448SOL    HW221981   0.895   3.429   5.817 -0.7619  0.7033 -0.9119
 3449SOL     OW21982   1.941   1.952   5.784  0.2292 -0.0089  0.4632
 3449SOL    HW121983   2.013   1.983   5.839  0.4403 -1.3217  0.9391
 3449SOL    HW221984   1.936   1.857   5.798  1.4802 -0.2526 -0.7604
 3450SOL     OW21985   0.904   3.075   2.924 -0.1901  0.1431  0.2401
 3450SOL    HW121986   0.868   3.146   2.977 -2.4470 -1.6292  1.0419
 3450SOL    HW221987   0.879   3.098   2.834  0.8003  1.6130  0.3260
 3451SOL     OW21988   4.413   1.330  13.871  0.0834 -0.0853  0.4972
 3451SOL    HW121989   4.389   1.272  13.943  0.4250  0.5219  1.0940
 3451SOL    HW221990   4.402   1.414  13.916 -2.0139  0.4054 -0.9117
 3452SOL     OW21991   1.363   0.011   5.687 -0.2351 -0.0463  0.2804
 3452SOL    HW121992   1.277   0.048   5.708  0.7702  1.3413  1.9079
 3452SOL    HW221993   1.340   4.656   5.661  3.4704 -0.3598 -1.9168
 3453SOL     OW21994   2.598   0.058   3.751  0.1954 -0.8014  0.0384
 3453SOL    HW121995   2.678   0.059   3.698  1.3808 -0.6465  1.8321
 3453SOL    HW221996   2.599   4.698   3.764  0.2232 -0.8571 -0.3563
 3454SOL     OW21997   3.886   4.498   2.380 -0.1170  0.5680  0.1731
 3454SOL    HW121998   3.814   4.484   2.441 -0.0397  0.4716  0.2415
 3454SOL    HW221999   3.875   4.416   2.332 -2.1983  0.5109  0.7627
 3455SOL     OW22000   1.845   2.518  14.899  0.0799 -0.0220 -0.2205
 3455SOL    HW122001   1.882   2.606  14.890 -0.2747  0.3044  1.4679
 3455SOL    HW222002   1.841   2.480  14.812 -0.5347 -2.1857  0.7564
 3456SOL     OW22003   4.014   3.996   6.490 -0.5145  0.7014  0.3633
 3456SOL    HW122004   3.956   4.028   6.559 -2.2530 -0.2423 -0.6362
 3456SOL    HW222005   4.100   3.998   6.532 -0.1591 -0.6395 -0.2913
 3457SOL     OW22006   0.021   4.709  11.450 -0.0883 -0.1661 -0.4933
 3457SOL    HW122007   0.061   0.050  11.492  0.3725 -1.0937  0.7794
 3457SOL    HW222008   0.007   0.003  11.360 -2.4644  1.7716  0.5254
 3458SOL     OW22009   3.776   1.616   7.511 -0.2574  0.2862  0.0686
 3458SOL    HW122010   3.745   1.634   7.423 -2.1917  2.0317  1.1040
 3458SOL    HW222011   3.697   1.611   7.566  1.7314  0.1394  2.9227
 3459SOL     OW22012   0.608   0.977   1.048  1.0445  0.8183  0.1058
 3459SOL    HW122013   0.701   0.985   1.028  1.0212 -0.8425 -0.6965
 3459SOL    HW222014   0.567   0.948   0.967  1.8121  1.3966 -0.4837
 3460SOL     OW22015   3.595   1.642  10.002 -0.2936  0.4293 -0.0147
 3460SOL    HW122016   3.563   1.724   9.965 -0.8038  0.0592 -0.3975
 3460SOL    HW222017   3.513   1.615  10.043  1.2344  1.9648  4.1250
 3461SOL     OW22018   2.983   1.016   5.099 -0.6965  0.1167 -0.2121
 3461SOL    HW122019   3.076   1.007   5.081 -0.3610  1.7763  0.6549
 3461SOL    HW222020   2.958   0.939   5.048  0.9961  0.1546 -1.0866
 3462SOL     OW22021   1.771   2.592  17.088 -0.2396  0.4892 -0.2157
 3462SOL    HW122022   1.743   2.540  17.164 -1.5728  0.5992 -0.6354
 3462SOL    HW222023   1.716   2.560  17.016 -1.7157  2.8367 -0.1142
 3463SOL     OW22024   0.093   4.194  14.240 -0.3643  0.3271  0.2979
 3463SOL    HW122025   0.040   4.244  14.302 -1.2198 -1.3166  0.8740
 3463SOL    HW222026   0.182   4.213  14.270  0.0287 -0.4377 -0.3955
 3464SOL     OW22027   1.421   1.046   7.582  0.2645 -0.1543 -0.0419
 3464SOL    HW122028   1.431   1.136   7.614 -0.3142 -0.1604  0.1632
 3464SOL    HW222029   1.514   1.035   7.563  0.4252 -2.5705  2.0909
 3465SOL     OW22030   1.812   0.814   4.521 -0.2799  0.1479 -0.6240
 3465SOL    HW122031   1.883   0.769   4.476  0.0754  0.3253 -0.2424
 3465SOL    HW222032   1.861   0.880   4.571  0.3416 -0.9303  0.2035
 3466SOL     OW22033   1.697   3.002   8.409  0.2668  0.6079 -0.6074
 3466SOL    HW122034   1.658   2.918   8.432  0.1325  0.7912 -0.1638
 3466SOL    HW222035   1.694   3.003   8.313  0.1233  1.8719 -0.5857
 3467SOL     OW22036   1.102   0.864  13.115 -0.0560  0.4221 -0.5694
 3467SOL    HW122037   1.082   0.818  13.197  0.4071  0.4639 -0.4308
 3467SOL    HW222038   1.013   0.877  13.083  0.3860  0.3401 -1.8307
 3468SOL     OW22039   0.341   1.575   9.302  0.3799 -0.4761 -0.0829
 3468SOL    HW122040   0.388   1.658   9.293  1.6115 -1.2149 -0.4667
 3468SOL    HW222041   0.250   1.605   9.310  1.1829  1.3476  2.1835
 3469SOL     OW22042   0.046   4.584  16.165  0.1093 -0.1576 -0.4400
 3469SOL    HW122043   0.062   4.505  16.113 -1.4007 -0.8804  0.2079
 3469SOL    HW222044   0.097   4.560  16.243  1.7488 -0.3080 -1.5393
 3470SOL     OW22045   3.235   4.378   9.083  0.0810 -0.3824 -0.0874
 3470SOL    HW122046   3.247   4.396   9.176  3.1088  1.1575 -0.7786
 3470SOL    HW222047   3.303   4.436   9.047 -0.9575  1.3213  0.7120
 3471SOL     OW22048   3.773   3.252  16.166 -0.2778  0.1228 -0.5077
 3471SOL    HW122049   3.681   3.274  16.152 -0.3688 -0.5427 -0.9430
 3471SOL    HW222050   3.795   3.184  16.103  1.5166  0.2780 -0.0524
 3472SOL     OW22051   0.262   3.793   8.399  0.0510  0.1278 -0.3989
 3472SOL    HW122052   0.274   3.861   8.331  0.3287  0.3822 -0.0940
 3472SOL    HW222053   0.213   3.848   8.460  1.0981  0.5717  0.0295
 3473SOL     OW22054   2.969   1.924   9.104 -0.4081 -0.7992  0.0571
 3473SOL    HW122055   2.923   1.846   9.071  0.2665 -0.9667 -0.4899
 3473SOL    HW222056   3.010   1.890   9.185 -3.8867  1.3699  2.7056
 3474SOL     OW22057   1.197   2.200   5.114 -0.6867 -0.2227  0.2704
 3474SOL    HW122058   1.290   2.199   5.092 -0.9114  1.2445 -0.6603
 3474SOL    HW222059   1.170   2.271   5.057  0.3032 -2.2679 -2.7186
 3475SOL     OW22060   2.084   3.384   7.347  0.2164  0.3070  0.2282
 3475SOL    HW122061   2.016   3.346   7.290 -1.7001  1.5458  1.7104
 3475SOL    HW222062   2.054   3.366   7.435  1.2394  3.8781  1.3002
 3476SOL     OW22063   2.711   2.150   4.907 -0.4382 -0.0485  0.3046
 3476SOL    HW122064   2.711   2.226   4.965 -0.6761  1.9146 -2.2699
 3476SOL    HW222065   2.641   2.171   4.845 -1.3077  1.7694  1.8904
 3477SOL     OW22066   1.028   3.635   3.956 -0.6549  0.1264  0.4718
 3477SOL    HW122067   1.042   3.707   3.894 -2.3178 -1.7516 -2.0947
 3477SOL    HW222068   1.025   3.555   3.905 -0.1649 -0.3769  1.2399
 3478SOL     OW22069   0.208   4.662   4.183 -0.0543  0.3565 -0.0950
 3478SOL    HW122070   0.142   4.732   4.186  0.9735  1.3352 -0.2838
 3478SOL    HW222071   0.261   4.696   4.256 -1.8531  2.3637  0.2691
 3479SOL     OW22072   0.879   0.507   8.441 -0.3019  0.1826 -0.1356
 3479SOL    HW122073   0.951   0.490   8.502 -1.2315  0.4294  1.0097
 3479SOL    HW222074   0.858   0.597   8.463 -0.1575  0.2038 -0.0847
 3480SOL     OW22075   2.237   0.757   7.372  0.2610 -0.3230  0.7117
 3480SOL    HW122076   2.257   0.675   7.416  0.7724 -0.4791  0.1793
 3480SOL    HW222077   2.158   0.730   7.326  1.0420 -1.2412 -0.0712
 3481SOL     OW22078   3.653   1.575  14.967 -0.0540 -0.4346  0.9458
 3481SOL    HW122079   3.605   1.559  14.886  0.9388 -1.8815  0.6470
 3481SOL    HW222080   3.639   1.490  15.008 -1.3401  0.2205  1.8745
 3482SOL     OW22081   1.221   0.029   5.101 -0.7713 -0.3461  0.4627
 3482SOL    HW122082   1.211   0.039   5.195  1.7893 -0.7404  0.7575
 3482SOL    HW222083   1.130   0.005   5.082 -0.8244 -1.9505  2.8433
 3483SOL     OW22084   3.899   3.525   8.681 -0.3678  0.2487  0.0342
 3483SOL    HW122085   3.954   3.450   8.705  1.8309  2.3466  1.5387
 3483SOL    HW222086   3.827   3.511   8.742  1.2546 -1.8205  1.5026
 3484SOL     OW22087   1.402   0.215   3.843  0.0348 -0.2399 -0.3114
 3484SOL    HW122088   1.407   0.280   3.914  2.8971 -1.3869  0.5152
 3484SOL    HW222089   1.352   0.265   3.778  0.6259  0.0725 -0.5247
 3485SOL     OW22090   2.765   2.436   1.819  0.0733  0.2539  0.5024
 3485SOL    HW122091   2.836   2.487   1.782  1.1108 -0.9726  0.8039
 3485SOL    HW222092   2.811   2.357   1.848 -0.7774  0.1598  1.6190
 3486SOL     OW22093   2.552   1.984  13.549 -0.0280 -0.6074 -0.0895
 3486SOL    HW122094   2.520   1.983  13.459  0.2236  1.7231 -0.1963
 3486SOL    HW222095   2.550   2.079  13.561 -0.2342 -0.7867  1.3462
 3487SOL     OW22096   2.793   1.826   8.259  0.6277  0.5687  0.0516
 3487SOL    HW122097   2.753   1.839   8.173 -0.9813  0.4964  0.7841
 3487SOL    HW222098   2.744   1.888   8.313  1.1048  0.9371  0.0498
 3488SOL     OW22099   3.228   4.613  13.943  0.2334 -1.0991  0.3044
 3488SOL    HW122100   3.237   4.568  14.027 -0.8950  0.1948  1.1355
 3488SOL    HW222101   3.145   4.573  13.916 -0.5430  1.6692 -1.4033
 3489SOL     OW22102   1.266   3.093   4.344 -0.3213 -0.5877 -0.1991
 3489SOL    HW122103   1.221   3.175   4.364 -0.9871 -1.0682  0.2883
 3489SOL    HW222104   1.286   3.130   4.258 -1.3749 -2.6844 -1.3181
 3490SOL     OW22105   1.734   3.698   1.767 -0.2845 -0.4991 -0.4712
 3490SOL    HW122106   1.760   3.733   1.682  1.1138 -1.8199 -0.5747
 3490SOL    HW222107   1.669   3.756   1.807 -0.4521 -0.1310 -1.2687
 3491SOL     OW22108   0.614   3.501   1.379  0.3563  0.9212 -0.1276
 3491SOL    HW122109   0.633   3.595   1.375  0.0994  0.9503 -0.8026
 3491SOL    HW222110   0.542   3.498   1.315 -0.6151  0.5458  0.9944
 3492SOL     OW22111   1.541   3.943  12.416  0.2116 -0.2125  0.5869
 3492SOL    HW122112   1.455   3.981  12.437 -0.4727 -1.1274 -0.5940
 3492SOL    HW222113   1.503   3.886  12.349 -0.2838 -1.1682  1.6767
 3493SOL     OW22114   3.490   3.821   2.132  0.2063 -0.3451  0.4365
 3493SOL    HW122115   3.424   3.754   2.151  1.5307 -1.8497 -0.2697
 3493SOL    HW222116   3.442   3.887   2.082  0.6765 -0.5113 -0.2339
 3494SOL     OW22117   0.817   1.567   7.039  0.3755 -0.1583  0.2052
 3494SOL    HW122118   0.784   1.482   7.070  1.8400 -0.3484  1.1994
 3494SOL    HW222119   0.898   1.567   7.090 -0.2704 -2.5348  1.2489
 3495SOL     OW22120   2.387   1.983   4.142  0.0841  0.5091  0.0502
 3495SOL    HW122121   2.307   2.034   4.129  0.4286  0.9654 -0.2627
 3495SOL    HW222122   2.380   1.913   4.076 -0.7932  1.1567 -0.5359
 3496SOL     OW22123   4.511   1.907   7.478  0.5397  0.2955 -0.3445
 3496SOL    HW122124   4.536   1.995   7.451  0.0221  0.7585  0.6969
 3496SOL    HW222125   4.487   1.937   7.565 -0.5352 -1.1272 -0.1318
 3497SOL     OW22126   3.540   2.110   7.070 -0.4156 -0.0934 -0.4124
 3497SOL    HW122127   3.571   2.150   6.988 -0.0702 -0.9207 -0.6916
 3497SOL    HW222128   3.529   2.190   7.121  2.3482  0.9085 -1.3622
 3498SOL     OW22129   3.522   4.146   8.252  0.7043 -0.0107  0.4512
 3498SOL    HW122130   3.446   4.203   8.269 -0.5491 -1.2235 -1.0967
 3498SOL    HW222131   3.500   4.073   8.310 -1.3151 -0.4989 -0.9181
 3499SOL     OW22132   0.141   3.418   5.274 -0.8023  0.0665 -0.0018
 3499SOL    HW122133   0.180   3.501   5.247 -4.3335  1.2534 -1.5052
 3499SOL    HW222134   0.208   3.355   5.249  0.0426  0.6606  0.8178
 3500SOL     OW22135   3.998   3.997  14.409  0.1646  0.8930  0.0690
 3500SOL    HW122136   3.937   4.069  14.390  0.1357  0.4125 -1.6146
 3500SOL    HW222137   4.043   3.991  14.325  1.2363  0.8167  0.6414
 3501SOL     OW22138   1.660   0.663  10.250 -0.0719  0.2749  0.3492
 3501SOL    HW122139   1.622   0.589  10.203 -1.1445  1.0929 -0.0689
 3501SOL    HW222140   1.701   0.612  10.320  1.0007  0.9010  0.1799
 3502SOL     OW22141   1.639   4.393  11.987  0.3875 -0.2131  0.0668
 3502SOL    HW122142   1.664   4.437  11.906 -1.4070 -0.5724 -0.6864
 3502SOL    HW222143   1.720   4.405  12.035  0.1628 -0.5116  0.5170
 3503SOL     OW22144   0.859   1.820  16.338  0.4302 -0.1189 -0.1667
 3503SOL    HW122145   0.895   1.874  16.408 -1.7821 -0.0332  0.9372
 3503SOL    HW222146   0.881   1.862  16.255 -0.4294 -0.7016 -0.6982
 3504SOL     OW22147   2.149   4.037   7.198 -0.1704  0.3700 -0.6318
 3504SOL    HW122148   2.111   3.981   7.131  0.1197  2.4339 -2.5362
 3504SOL    HW222149   2.167   3.971   7.265 -0.2561 -0.3796 -1.3528
 3505SOL     OW22150   3.598   1.287   7.681  1.3030  0.0792  0.6056
 3505SOL    HW122151   3.627   1.204   7.719 -1.3267  0.5565  3.6400
 3505SOL    HW222152   3.616   1.340   7.758  0.1364 -0.4202  1.2302
 3506SOL     OW22153   3.134   1.169   6.212 -0.5543  0.4290  0.0570
 3506SOL    HW122154   3.093   1.084   6.229 -0.4307  0.0200 -1.6908
 3506SOL    HW222155   3.092   1.207   6.135  0.6304  2.4011  0.3822
 3507SOL     OW22156   1.141   1.988  10.246 -0.5469  0.4347 -0.2144
 3507SOL    HW122157   1.154   1.905  10.199  2.2042  0.5015  0.4774
 3507SOL    HW222158   1.224   2.034  10.247 -0.0437 -0.4105 -2.1413
 3508SOL     OW22159   3.172   1.491  13.165  0.1423 -0.3430 -0.5256
 3508SOL    HW122160   3.219   1.414  13.195 -0.3507 -0.7682 -0.8646
 3508SOL    HW222161   3.092   1.454  13.128 -0.7300  0.6412  0.3499
 3509SOL     OW22162   2.695   4.335   8.182  0.0654 -0.3407  0.0225
 3509SOL    HW122163   2.781   4.366   8.155 -0.0120  0.0694  0.2549
 3509SOL    HW222164   2.716   4.269   8.249  2.6401  0.8405  0.3882
 3510SOL     OW22165   2.160   2.905   1.585 -0.1081 -0.2006 -0.4769
 3510SOL    HW122166   2.128   2.991   1.612  1.9356  0.4102 -0.0348
 3510SOL    HW222167   2.121   2.847   1.649  1.6172 -2.2880 -1.3175
 3511SOL     OW22168   1.628   3.192   7.689  0.0304 -0.5516  0.5214
 3511SOL    HW122169   1.657   3.110   7.650 -1.6603 -1.0527  0.2961
 3511SOL    HW222170   1.673   3.193   7.773 -1.1909 -1.7769  1.1923
 3512SOL     OW22171   1.970   4.691   8.852  0.0621 -0.3807  0.1905
 3512SOL    HW122172   2.004   0.037   8.889  1.3049 -1.0658  0.5486
 3512SOL    HW222173   1.978   4.702   8.757  2.2422  0.5009  0.4788
 3513SOL     OW22174   4.026   4.259   8.212 -0.2620  1.0834  0.0778
 3513SOL    HW122175   4.074   4.248   8.129  0.2946 -0.5000  0.6141
 3513SOL    HW222176   3.936   4.234   8.195  0.2258 -0.7617  0.2232
 3514SOL     OW22177   1.121   3.316   4.235  0.5844  0.2137 -0.0455
 3514SOL    HW122178   1.171   3.352   4.162  0.7973 -2.8698 -1.4413
 3514SOL    HW222179   1.044   3.373   4.244  0.6850  0.5993 -1.6380
 3515SOL     OW22180   2.607   3.015  12.383  0.1965 -0.2670  0.8500
 3515SOL    HW122181   2.676   2.991  12.321  0.4877 -0.4871  1.2570
 3515SOL    HW222182   2.645   3.084  12.437  1.2345  0.2243 -0.5121
 3516SOL     OW22183   4.226   4.308   7.760  0.0272  0.2727  0.2383
 3516SOL    HW122184   4.215   4.293   7.854  0.9537 -0.8677  0.1717
 3516SOL    HW222185   4.309   4.260   7.759 -0.3756 -0.4209  0.2745
 3517SOL     OW22186   1.465   4.409   6.243  0.8438 -0.2098 -0.1510
 3517SOL    HW122187   1.521   4.407   6.165 -0.4401 -2.3727 -1.0238
 3517SOL    HW222188   1.509   4.471   6.300  2.2303 -0.8465 -0.5233
 3518SOL     OW22189   3.927   1.775   4.663  0.1843 -0.4310 -0.7352
 3518SOL    HW122190   3.926   1.807   4.573 -1.5665  1.0906 -0.1688
 3518SOL    HW222191   4.021   1.755   4.670  0.4436  0.6848 -0.9764
 3519SOL     OW22192   0.731   0.756   2.592  0.2921  0.2206 -0.4074
 3519SOL    HW122193   0.679   0.733   2.515 -1.7442  2.2880  0.3454
 3519SOL    HW222194   0.744   0.668   2.628 -1.2819 -0.7482 -2.2289
 3520SOL     OW22195   0.677   3.519   9.350 -0.3508 -0.1670 -0.1580
 3520SOL    HW122196   0.682   3.424   9.342  0.6938 -0.2706  1.6098
 3520SOL    HW222197   0.714   3.528   9.438 -0.2104 -1.2063 -0.1125
 3521SOL     OW22198   2.421   1.285  11.967  0.1098 -0.2953  0.0378
 3521SOL    HW122199   2.503   1.324  11.999 -0.2698 -0.5358  1.2844
 3521SOL    HW222200   2.381   1.368  11.941  0.8150 -0.7107 -2.3906
 3522SOL     OW22201   4.316   3.342  11.949 -0.3613 -0.9962  0.0146
 3522SOL    HW122202   4.400   3.375  11.917 -0.6813 -0.1762  0.0049
 3522SOL    HW222203   4.271   3.331  11.865 -1.0484 -0.5561  0.3214
 3523SOL     OW22204   1.112   2.446   1.968 -0.2518 -0.1691 -0.0063
 3523SOL    HW122205   1.203   2.425   1.992 -0.9262 -2.6155  0.3751
 3523SOL    HW222206   1.078   2.362   1.939 -3.5158  0.4192  2.1115
 3524SOL     OW22207   0.076   2.729   1.911  0.0039  0.6095  0.0336
 3524SOL    HW122208   0.132   2.785   1.965  0.9426 -0.0638 -0.2496
 3524SOL    HW222209   0.125   2.729   1.829 -2.0474  1.5925 -1.1929
 3525SOL     OW22210   4.732   4.536   4.501  0.0447 -0.7107 -0.1323
 3525SOL    HW122211   0.088   4.520   4.524  0.4326  1.0643 -0.4465
 3525SOL    HW222212   4.722   4.476   4.427  0.9259  0.4688 -1.1989
 3526SOL     OW22213   1.196   4.407   7.521  0.1319 -0.1842  0.0504
 3526SOL    HW122214   1.136   4.333   7.518 -0.8352  0.5168  2.0026
 3526SOL    HW222215   1.179   4.430   7.430 -1.7355 -3.6916 -0.4776
 3527SOL     OW22216   2.038   3.827   2.522  0.7685 -0.3769 -0.2235
 3527SOL    HW122217   2.052   3.761   2.591  0.7015 -0.0215  0.1309
 3527SOL    HW222218   2.132   3.836   2.503  0.9968  0.2728  1.1981
 3528SOL     OW22219   3.927   4.434   8.474 -0.4617  0.5968  0.0411
 3528SOL    HW122220   3.986   4.411   8.546 -1.2895 -1.1148  0.1720
 3528SOL    HW222221   3.879   4.352   8.465 -2.0364  1.5926 -0.4990
 3529SOL     OW22222   1.025   4.206   7.475 -0.2013  0.3815  0.4262
 3529SOL    HW122223   0.948   4.155   7.501  0.6757 -1.1662  0.0464
 3529SOL    HW222224   1.070   4.152   7.410  0.3615  0.2175  0.9522
 3530SOL     OW22225   3.171   1.891   4.011 -0.0824 -0.2193  0.2094
 3530SOL    HW122226   3.097   1.867   3.955 -0.7282  0.8520  0.5985
 3530SOL    HW222227   3.144   1.853   4.095  2.1646 -0.3744  0.8473
 3531SOL     OW22228   3.568   3.918   2.558  0.0790  0.0277 -0.5454
 3531SOL    HW122229   3.503   3.915   2.487  1.4354 -0.6067 -1.7658
 3531SOL    HW222230   3.595   4.009   2.552  3.1455 -0.7219  2.0073
 3532SOL     OW22231   1.894   0.440  10.180 -0.5466  0.0405 -0.6489
 3532SOL    HW122232   1.861   0.527  10.156  0.1557 -0.0979 -2.0874
 3532SOL    HW222233   1.831   0.385  10.134 -0.4936  0.3025 -1.0353
 3533SOL     OW22234   3.805   0.490  10.329 -0.4264 -0.8007  0.3299
 3533SOL    HW122235   3.813   0.571  10.380 -0.0574 -0.3334 -0.4752
 3533SOL    HW222236   3.892   0.489  10.288  0.6364  0.0611  2.5254
 3534SOL     OW22237   1.059   4.341  16.939  0.7504  0.4326  0.0684
 3534SOL    HW122238   1.022   4.347  16.851 -1.1980 -1.8550  0.7089
 3534SOL    HW222239   1.085   4.249  16.933 -1.4275 -0.2041  0.0476
 3535SOL     OW22240   3.102   4.116   1.758  0.0633 -0.6154  0.5843
 3535SOL    HW122241   3.079   4.101   1.849 -2.7652  1.9699  0.3048
 3535SOL    HW222242   3.141   4.030   1.745  0.8527 -0.0323 -0.9739
 3536SOL     OW22243   2.765   0.701   8.713 -0.1544  0.6016  0.6379
 3536SOL    HW122244   2.814   0.780   8.691  0.0284  0.5935  1.0176
 3536SOL    HW222245   2.712   0.736   8.784  0.3092  1.8529  0.3729
 3537SOL     OW22246   0.946   1.270   9.068 -0.7622  0.2586 -0.4566
 3537SOL    HW122247   0.880   1.338   9.078 -1.8360 -0.5796 -1.7019
 3537SOL    HW222248   0.925   1.205   9.001 -1.6837  0.8344 -0.7283
 3538SOL     OW22249   0.724   3.467   5.207  0.1552 -0.2285  0.0073
 3538SOL    HW122250   0.713   3.378   5.242 -0.7770  0.8720  2.4622
 3538SOL    HW222251   0.752   3.508   5.289  0.0319  2.3503 -1.2444
 3539SOL     OW22252   0.471   3.925   3.181  0.0065 -0.1560  0.2282
 3539SOL    HW122253   0.502   3.893   3.097  1.0355  0.8702  0.2132
 3539SOL    HW222254   0.474   4.018   3.157  1.2216  0.3047  2.1489
 3540SOL     OW22255   3.056   1.960   7.955  0.2314  0.2855 -0.0928
 3540SOL    HW122256   3.098   1.874   7.958 -1.7404 -0.7362 -1.5082
 3540SOL    HW222257   3.054   1.992   7.865  1.7073  3.3340  0.9458
 3541SOL     OW22258   3.715   2.860   5.682  0.4512 -0.1293  0.0187
 3541SOL    HW122259   3.766   2.786   5.716  1.1743 -0.4733 -1.8115
 3541SOL    HW222260   3.748   2.860   5.592 -0.3259 -0.2321 -0.2671
 3542SOL     OW22261   3.811   3.355   5.816 -0.8058  0.6621  0.0968
 3542SOL    HW122262   3.746   3.291   5.788  1.4663 -0.2922 -2.9732
 3542SOL    HW222263   3.772   3.371   5.902 -1.2933 -0.2316  0.0305
 3543SOL     OW22264   2.923   2.413   8.863  0.4935 -0.2966 -0.0090
 3543SOL    HW122265   2.972   2.464   8.800 -0.7816  0.6441 -0.2203
 3543SOL    HW222266   2.918   2.329   8.818  1.6981 -0.2019 -0.3226
 3544SOL     OW22267   4.350   1.623   5.782 -0.2581  0.6220  0.2613
 3544SOL    HW122268   4.374   1.550   5.840 -0.1865 -1.5436 -2.4705
 3544SOL    HW222269   4.271   1.588   5.741  0.6572 -1.2964  0.1068
 3545SOL     OW22270   2.407   3.453   3.061  0.2098  0.4915  0.0096
 3545SOL    HW122271   2.331   3.492   3.019 -1.7000 -0.8271  2.2434
 3545SOL    HW222272   2.416   3.373   3.008  4.0720  0.0091  1.3771
 3546SOL     OW22273   3.951   2.031   6.643  0.1334  0.6038 -0.3307
 3546SOL    HW122274   4.032   2.046   6.693 -2.0578  2.6460  2.6340
 3546SOL    HW222275   3.900   2.008   6.721  1.7799  0.1957  0.6476
 3547SOL     OW22276   2.603   1.629   3.838  0.2461  0.1850 -0.4381
 3547SOL    HW122277   2.665   1.701   3.851  0.5723 -0.1440 -0.1668
 3547SOL    HW222278   2.615   1.592   3.926  1.0351  0.8276 -0.2655
 3548SOL     OW22279   1.964   0.036   5.168 -0.1024 -0.2620  0.0668
 3548SOL    HW122280   1.985   4.709   5.239  2.1225  0.6429  0.2041
 3548SOL    HW222281   1.869   0.046   5.173 -0.2272 -1.2827 -0.4556
 3549SOL     OW22282   0.338   2.236   5.337  0.2879 -0.2068 -0.0417
 3549SOL    HW122283   0.375   2.319   5.308  1.4219 -1.7533 -3.0089
 3549SOL    HW222284   0.403   2.203   5.400  0.2404 -0.1592  0.0315
 3550SOL     OW22285   1.913   2.782   2.202 -0.3366  0.0971 -0.2160
 3550SOL    HW122286   1.962   2.700   2.205  0.4087  0.5439 -0.1877
 3550SOL    HW222287   1.959   2.822   2.129  0.3514  0.0718  0.1981
 3551SOL     OW22288   2.841   0.924   8.623 -0.7896  0.3746  0.6879
 3551SOL    HW122289   2.865   0.996   8.681 -0.2264 -0.3767  1.3830
 3551SOL    HW222290   2.865   0.953   8.535 -1.5377  3.8751  1.6080
 3552SOL     OW22291   2.591   1.903   2.859  0.4926 -0.6740  0.2148
 3552SOL    HW122292   2.604   1.875   2.949  0.2161  0.1271  0.5020
 3552SOL    HW222293   2.503   1.941   2.857  0.7811 -0.0788 -1.0170
 3553SOL     OW22294   4.028   0.917   3.282  0.8035 -0.5250 -0.1215
 3553SOL    HW122295   3.970   0.992   3.296  1.5966 -0.0694  0.6790
 3553SOL    HW222296   4.032   0.912   3.186 -1.4137 -0.7204 -0.1912
 3554SOL     OW22297   4.077   4.153   3.937  0.3859  0.1513 -0.3106
 3554SOL    HW122298   4.141   4.210   3.979 -0.1816  0.7741 -0.2992
 3554SOL    HW222299   4.000   4.209   3.936 -1.1181 -1.9320 -2.6004
 3555SOL     OW22300   4.285   2.679   3.507  0.4396 -0.3943  0.2161
 3555SOL    HW122301   4.321   2.749   3.452 -1.7480 -0.2573 -1.0337
 3555SOL    HW222302   4.364   2.636   3.539  1.7716  0.8110 -1.4458
 3556SOL     OW22303   0.611   1.839   1.443  0.1074  0.0816  0.0051
 3556SOL    HW122304   0.650   1.801   1.364 -0.1433 -0.2632  0.0442
 3556SOL    HW222305   0.570   1.760   1.478 -0.6801 -0.1359 -1.4235
 3557SOL     OW22306   1.613   0.627   4.785 -0.3493  0.4253 -0.2200
 3557SOL    HW122307   1.618   0.686   4.860  1.1228  0.2217 -0.1618
 3557SOL    HW222308   1.534   0.574   4.797  1.1462 -1.9927 -1.0714
 3558SOL     OW22309   1.407   2.784   4.924 -0.4823 -0.0301 -0.1756
 3558SOL    HW122310   1.333   2.732   4.890 -0.6868 -0.7404  1.3416
 3558SOL    HW222311   1.387   2.809   5.014  1.8515  2.6634 -0.4248
 3559SOL     OW22312   1.652   3.132  11.937  0.0950 -0.4505 -0.0408
 3559SOL    HW122313   1.728   3.139  11.879 -0.2701 -0.4041 -0.5141
 3559SOL    HW222314   1.692   3.116  12.022  1.4831 -1.1459 -0.8111
 3560SOL     OW22315   2.923   2.480   8.426 -0.7554  0.1274  0.4168
 3560SOL    HW122316   2.835   2.472   8.389 -0.2911 -1.5019 -0.3434
 3560SOL    HW222317   2.945   2.389   8.448  1.1604  0.5072  0.0445
 3561SOL     OW22318   4.204   1.124   1.875  0.0016  0.6491 -0.2740
 3561SOL    HW122319   4.173   1.205   1.916 -1.1631 -0.5330  1.1450
 3561SOL    HW222320   4.219   1.163   1.788  1.8529  0.2838 -0.1198
 3562SOL     OW22321   0.990   3.275   5.378 -0.2291 -0.3511  0.7041
 3562SOL    HW122322   0.997   3.205   5.444 -0.7965  0.6433  1.8175
 3562SOL    HW222323   0.904   3.257   5.340 -0.0967 -0.8856  0.6499
 3563SOL     OW22324   4.074   3.743  10.336  0.3291 -0.6302  0.5098
 3563SOL    HW122325   4.149   3.784  10.294  1.1255 -0.8024  1.7685
 3563SOL    HW222326   4.068   3.814  10.400 -1.5916  0.1577 -0.5460
 3564SOL     OW22327   3.639   1.778  11.556 -0.0094 -0.3105  0.1650
 3564SOL    HW122328   3.660   1.791  11.463 -0.5843 -0.6139 -0.0021
 3564SOL    HW222329   3.560   1.831  11.557 -0.2122 -0.5279 -2.4280
 3565SOL     OW22330   3.072   3.406  10.497  0.5028 -0.1928  0.1235
 3565SOL    HW122331   3.127   3.329  10.484 -1.4921 -1.3209 -1.5260
 3565SOL    HW222332   3.141   3.472  10.485 -0.2919  0.9908  2.0800
 3566SOL     OW22333   2.189   0.623  16.824 -0.2641  0.2569  0.1863
 3566SOL    HW122334   2.270   0.673  16.809 -1.4205  1.9037 -0.6169
 3566SOL    HW222335   2.150   0.641  16.738 -1.9115 -0.7073  0.7194
 3567SOL     OW22336   1.881   1.519  15.170 -0.3373 -0.0716 -0.5882
 3567SOL    HW122337   1.888   1.569  15.251  0.5096  0.6756 -1.1217
 3567SOL    HW222338   1.790   1.517  15.142 -0.2131  1.1705 -1.0899
 3568SOL     OW22339   4.186   0.986  11.136  0.5722 -0.2994 -0.5319
 3568SOL    HW122340   4.117   0.988  11.069  1.6619 -0.9962 -1.6947
 3568SOL    HW222341   4.184   1.079  11.157  2.9017 -0.7485  1.6929
 3569SOL     OW22342   4.144   2.382   4.854 -0.2919 -0.0842  0.2675
 3569SOL    HW122343   4.230   2.376   4.895 -0.8899 -0.8304  1.4336
 3569SOL    HW222344   4.126   2.475   4.858 -2.9830 -0.5809 -0.6113
 3570SOL     OW22345   0.128   2.532  14.113  0.5662 -0.0624 -0.2659
 3570SOL    HW122346   0.184   2.462  14.080 -0.2400 -0.3786 -0.9622
 3570SOL    HW222347   0.189   2.605  14.107  1.2005 -0.5688  0.1116
 3571SOL     OW22348   2.512   4.453   8.544 -0.1470 -0.1701  0.4037
 3571SOL    HW122349   2.483   4.363   8.530 -0.5902  0.2036 -1.0751
 3571SOL    HW222350   2.428   4.498   8.546  0.4334  0.9326  0.0226
 3572SOL     OW22351   0.961   0.733  11.843  0.1514 -0.0285  0.2648
 3572SOL    HW122352   1.019   0.745  11.918  0.8450 -0.7955 -0.1427
 3572SOL    HW222353   0.892   0.790  11.876  0.5169 -0.4487  1.7593
 3573SOL     OW22354   3.785   1.561  12.296  0.1738  0.1878 -0.3809
 3573SOL    HW122355   3.770   1.468  12.281 -0.5183  0.8509 -3.8537
 3573SOL    HW222356   3.878   1.566  12.273  0.1435  0.3875 -0.4578
 3574SOL     OW22357   3.454   0.227   1.540 -0.0527 -0.5693  0.2038
 3574SOL    HW122358   3.535   0.177   1.550  0.3747 -0.2057 -1.5057
 3574SOL    HW222359   3.394   0.175   1.594 -0.0796 -2.1741 -1.3395
 3575SOL     OW22360   3.746   4.050  11.132 -0.2651 -0.4542 -0.2483
 3575SOL    HW122361   3.717   3.959  11.136  1.2764 -0.9461 -0.1870
 3575SOL    HW222362   3.771   4.050  11.039 -4.1322 -1.7561 -1.2881
 3576SOL     OW22363   3.331   0.092  15.871  0.5465  0.6815 -0.3371
 3576SOL    HW122364   3.326   0.102  15.966 -1.7979 -1.1518 -0.2727
 3576SOL    HW222365   3.351   0.182  15.848 -0.6599  0.6542 -1.4207
 3577SOL     OW22366   3.165   4.248   4.048 -0.1174 -0.2308  0.0140
 3577SOL    HW122367   3.213   4.297   4.114  3.5796  0.0087 -2.8536
 3577SOL    HW222368   3.103   4.311   4.010 -0.3395 -0.9362 -0.7962
 3578SOL     OW22369   0.893   0.467  11.859  0.4746 -0.2326 -0.0705
 3578SOL    HW122370   0.925   0.554  11.834 -0.0959 -0.6677 -2.3002
 3578SOL    HW222371   0.856   0.485  11.945 -2.2575 -0.7970 -1.1218
 3579SOL     OW22372   4.140   3.323   5.334 -0.6976  0.0887  0.0977
 3579SOL    HW122373   4.072   3.390   5.324 -0.2876  0.4924  0.0033
 3579SOL    HW222374   4.215   3.372   5.301 -0.2866 -1.3560 -1.1329
 3580SOL     OW22375   2.319   0.100  13.659 -0.0342 -0.0912  0.1955
 3580SOL    HW122376   2.252   0.154  13.617 -1.3555 -1.8879  0.0054
 3580SOL    HW222377   2.271   0.018  13.669 -0.2842  0.0216 -0.0669
 3581SOL     OW22378   1.956   3.555   6.293 -0.1527  0.0194  0.0840
 3581SOL    HW122379   1.986   3.646   6.292  0.9535 -0.3404  0.3182
 3581SOL    HW222380   1.920   3.546   6.381  4.5653 -1.9634  1.7980
 3582SOL     OW22381   1.542   1.380   4.353  1.1931  0.0766 -0.3934
 3582SOL    HW122382   1.589   1.374   4.270 -0.8532  0.3733 -1.5701
 3582SOL    HW222383   1.551   1.295   4.396  0.1789 -0.6328 -1.5919
 3583SOL     OW22384   3.867   4.617   9.028  0.4306  0.2943 -0.0024
 3583SOL    HW122385   3.952   4.656   9.006 -0.9019  2.1251 -1.8284
 3583SOL    HW222386   3.824   4.623   8.943 -1.4182 -1.0106  0.8374
 3584SOL     OW22387   4.424   3.312  11.599 -0.1950  0.6916 -0.3667
 3584SOL    HW122388   4.404   3.219  11.587  0.3453  0.1356  3.1396
 3584SOL    HW222389   4.341   3.338  11.637  0.4096  2.5426 -0.3046
 3585SOL     OW22390   1.693   0.834   8.122  0.1070 -0.2616 -0.3833
 3585SOL    HW122391   1.714   0.741   8.135  0.7458 -0.2496 -1.3402
 3585SOL    HW222392   1.753   0.884   8.177 -0.6289 -0.3260  0.4925
 3586SOL     OW22393   2.761   4.086   0.392 -0.2001  0.6341 -0.2531
 3586SOL    HW122394   2.843   4.106   0.437 -0.6572  0.0077  0.8531
 3586SOL    HW222395   2.706   4.139   0.449 -1.9381  0.1079 -1.4363
 3587SOL     OW22396   2.094   0.662   8.555 -0.6731  0.5383 -0.1063
 3587SOL    HW122397   2.123   0.618   8.475  4.0644  3.4470  0.0495
 3587SOL    HW222398   2.180   0.672   8.595 -0.6656 -2.9121  0.7447
 3588SOL     OW22399   4.027   2.662   4.851  0.4955 -0.1549  0.7356
 3588SOL    HW122400   4.099   2.653   4.789  0.9815  0.0634  1.2708
 3588SOL    HW222401   4.044   2.757   4.854  0.3141 -0.0092 -2.9857
 3589SOL     OW22402   2.709   1.930   6.239  0.2497  0.3175  0.6593
 3589SOL    HW122403   2.695   1.850   6.189 -0.0740  1.2793 -0.7830
 3589SOL    HW222404   2.714   1.995   6.170 -0.0015  1.7147  1.9581
 3590SOL     OW22405   3.730   4.255   8.119 -0.2831 -0.6646  0.0628
 3590SOL    HW122406   3.648   4.255   8.167 -1.7847 -0.2959 -2.5373
 3590SOL    HW222407   3.724   4.324   8.053 -1.6201  2.6491  3.6369
 3591SOL     OW22408   3.727   0.255   4.251 -0.1181 -0.1927 -0.3259
 3591SOL    HW122409   3.771   0.331   4.213 -0.6840  0.0243 -0.5414
 3591SOL    HW222410   3.635   0.266   4.229 -0.4121 -1.5528  0.2596
 3592SOL     OW22411   2.489   4.217   5.192  0.0216  0.2337  0.7243
 3592SOL    HW122412   2.558   4.226   5.126  1.2408 -1.6758  1.7006
 3592SOL    HW222413   2.412   4.227   5.137 -0.2966 -0.9853  0.9349
 3593SOL     OW22414   1.352   4.275   8.018 -0.3828 -0.0991  0.0211
 3593SOL    HW122415   1.343   4.180   8.011 -0.8819  0.0047 -0.7523
 3593SOL    HW222416   1.446   4.284   8.003 -1.1554  1.8969 -3.7812
 3594SOL     OW22417   1.662   1.926   9.667 -0.5395 -0.3808  0.3124
 3594SOL    HW122418   1.718   1.987   9.620 -0.1799 -0.4003  0.7092
 3594SOL    HW222419   1.722   1.861   9.705  1.9350  1.5222 -0.3501
 3595SOL     OW22420   4.726   3.927  11.926 -0.1747  0.5741 -0.2809
 3595SOL    HW122421   4.683   3.875  11.858 -0.2427 -1.5178  1.3852
 3595SOL    HW222422   4.708   4.008  11.878  1.9736  0.5424 -1.1430
 3596SOL     OW22423   2.283   1.822  12.555 -0.5060 -0.0249  0.1236
 3596SOL    HW122424   2.320   1.872  12.628 -1.9641  0.4400  0.5313
 3596SOL    HW222425   2.278   1.735  12.593  1.5244 -1.0565 -1.9583
 3597SOL     OW22426   1.995   1.801   5.507  0.5533  0.4966  0.1897
 3597SOL    HW122427   2.052   1.734   5.545 -0.4471  0.3668  1.4599
 3597SOL    HW222428   2.041   1.881   5.530 -0.1680  1.1828 -0.7783
 3598SOL     OW22429   4.403   3.764  10.535  0.2092 -0.3984 -0.3916
 3598SOL    HW122430   4.460   3.801  10.467  1.5357 -2.7743 -0.5842
 3598SOL    HW222431   4.456   3.792  10.610 -0.2096 -0.2105 -0.1680
 3599SOL     OW22432   2.626   3.095  11.760 -0.0491 -0.1401  0.1356
 3599SOL    HW122433   2.666   3.172  11.800  0.6267 -0.0022 -0.8040
 3599SOL    HW222434   2.697   3.076  11.698  0.3775  0.7343  0.3544
 3600SOL     OW22435   4.121   1.168   1.551  0.0186  0.1256 -0.4344
 3600SOL    HW122436   4.089   1.117   1.626  1.3512 -0.8550 -0.5357
 3600SOL    HW222437   4.159   1.244   1.595  0.3728 -0.3894  0.1546
 3601SOL     OW22438   3.464   3.233  12.417  0.1977  0.1774 -0.1496
 3601SOL    HW122439   3.405   3.171  12.373 -0.3939  0.4924  0.1963
 3601SOL    HW222440   3.530   3.239  12.348  1.4430 -0.7175  0.9763
 3602SOL     OW22441   1.897   4.522   9.044  0.3355 -0.3803  0.1835
 3602SOL    HW122442   1.924   4.569   8.965 -3.9425 -1.3370 -1.8365
 3602SOL    HW222443   1.972   4.531   9.103  0.1101 -0.5286  0.4898
 3603SOL     OW22444   1.724   3.380   0.219 -0.6428 -0.3405 -0.6000
 3603SOL    HW122445   1.799   3.398   0.276 -1.8796 -1.7379  1.4844
 3603SOL    HW222446   1.751   3.301   0.172 -2.2244 -0.7732 -0.7760
 3604SOL     OW22447   2.207   4.437   7.966 -0.0272  0.5111  0.4197
 3604SOL    HW122448   2.243   4.481   8.043  1.8129  0.7406 -0.5904
 3604SOL    HW222449   2.189   4.510   7.908 -1.8512  0.7542  1.2910
 3605SOL     OW22450   1.415   1.214   9.453  0.0996  0.5471 -0.2860
 3605SOL    HW122451   1.461   1.258   9.526  2.6103 -0.0865 -1.4788
 3605SOL    HW222452   1.342   1.168   9.495 -0.5996  0.8081 -1.2361
 3606SOL     OW22453   2.748   1.818   4.169 -0.3272 -0.6912 -0.3258
 3606SOL    HW122454   2.718   1.727   4.170 -0.6439 -0.5996 -2.0799
 3606SOL    HW222455   2.731   1.857   4.255 -0.3628  0.8411 -1.0301
 3607SOL     OW22456   3.392   4.307   7.050 -0.0857  0.1554  0.5640
 3607SOL    HW122457   3.331   4.257   7.104 -1.5023 -0.6378 -1.7465
 3607SOL    HW222458   3.370   4.394   7.085  0.4809  0.1553  0.9185
 3608SOL     OW22459   2.410   1.565   5.180  0.0817  0.0997 -1.1034
 3608SOL    HW122460   2.473   1.556   5.109 -0.4727 -2.7295 -1.2509
 3608SOL    HW222461   2.385   1.657   5.177  0.8975  0.3196 -1.1232
 3609SOL     OW22462   0.771   3.911   5.549 -0.5158  0.0864  0.0706
 3609SOL    HW122463   0.813   3.984   5.594 -1.1801  1.5238 -1.6446
 3609SOL    HW222464   0.772   3.947   5.460  0.5273  3.1989  1.3484
 3610SOL     OW22465   0.739   4.157   6.493 -0.0849 -0.0334  0.2782
 3610SOL    HW122466   0.696   4.073   6.509 -0.8480 -0.4081 -3.8969
 3610SOL    HW222467   0.801   4.139   6.423 -0.7404  1.5233 -0.7052
 3611SOL     OW22468   2.918   1.099   7.747  0.0929  0.0576 -0.3409
 3611SOL    HW122469   3.004   1.067   7.720  0.8795  1.8140  0.1285
 3611SOL    HW222470   2.956   1.170   7.798  0.2894 -0.0930 -0.2769
 3612SOL     OW22471   2.974   4.526   0.328  0.3914  0.4018  0.2070
 3612SOL    HW122472   3.057   4.575   0.329  1.1178 -0.8176  0.1958
 3612SOL    HW222473   2.953   4.526   0.421 -0.5254  2.3435 -0.0084
 3613SOL     OW22474   2.365   2.599   2.795  0.3277 -0.1504  0.4372
 3613SOL    HW122475   2.400   2.614   2.883  0.5488 -2.6668  0.7588
 3613SOL    HW222476   2.377   2.683   2.749 -2.6574  1.3936  2.5081
 3614SOL     OW22477   2.378   1.587   2.877  0.4675  0.3033  0.3571
 3614SOL    HW122478   2.295   1.550   2.847  1.1352 -2.3111  1.6947
 3614SOL    HW222479   2.436   1.550   2.811 -2.1476 -1.1022 -1.1217
 3615SOL     OW22480   1.627   2.049  15.098 -0.0976  0.1014 -0.0827
 3615SOL    HW122481   1.707   1.998  15.084  0.3482  0.6435  0.4971
 3615SOL    HW222482   1.674   2.127  15.124  0.7005 -0.3453 -0.1934
 3616SOL     OW22483   2.217   3.287   5.779  0.0535  0.1960 -0.0201
 3616SOL    HW122484   2.188   3.198   5.798 -0.2506  0.1748 -0.5944
 3616SOL    HW222485   2.311   3.275   5.790  0.1352 -0.1654 -1.1543
 3617SOL     OW22486   3.990   2.358   2.569  0.1586 -0.4229 -0.3468
 3617SOL    HW122487   3.974   2.383   2.478 -0.6460  0.7102  0.0935
 3617SOL    HW222488   3.900   2.356   2.602 -0.2226  0.4315 -1.3458
 3618SOL     OW22489   2.132   4.193   6.744 -0.2123 -0.1407 -0.0141
 3618SOL    HW122490   2.131   4.140   6.665  0.3771 -0.7171  0.3653
 3618SOL    HW222491   2.191   4.142   6.799  1.1944  0.0727 -1.3128
 3619SOL     OW22492   1.957   2.687   5.262 -0.6619  0.0197 -0.3628
 3619SOL    HW122493   1.871   2.725   5.245 -0.9659 -0.3127  0.4218
 3619SOL    HW222494   1.992   2.721   5.345 -0.5545  1.5451 -1.0248
 3620SOL     OW22495   4.724   1.080  17.035 -0.3194 -0.3715 -0.2298
 3620SOL    HW122496   4.699   1.112  16.949 -3.8818 -0.2330  0.8376
 3620SOL    HW222497   0.028   1.158  17.074  0.2629 -1.4033  1.2798
 3621SOL     OW22498   0.456   3.246   3.549 -0.2686  0.2746  0.1873
 3621SOL    HW122499   0.388   3.241   3.481  1.2358 -0.7111 -1.2204
 3621SOL    HW222500   0.466   3.341   3.563 -0.2533  0.3076 -0.0506
 3622SOL     OW22501   1.514   4.119   8.932 -0.0595 -0.0839  0.3912
 3622SOL    HW122502   1.555   4.037   8.960 -1.1641  0.1426  2.7272
 3622SOL    HW222503   1.548   4.181   8.997 -0.6158 -0.5798  1.1562
 3623SOL     OW22504   2.302   3.208  17.420  0.2339 -0.6267  0.2357
 3623SOL    HW122505   2.280   3.240  17.508 -1.5619  0.4514 -0.6183
 3623SOL    HW222506   2.240   3.136  17.406 -1.7359  0.8532  1.2736
 3624SOL     OW22507   3.707   0.070   8.616 -0.6792 -0.6231  0.6204
 3624SOL    HW122508   3.800   0.093   8.608 -0.5527 -1.2488  0.2670
 3624SOL    HW222509   3.711   4.720   8.661  0.0629  0.5489  2.7542
 3625SOL     OW22510   0.644   0.961   2.776  0.1754  0.2858 -0.1480
 3625SOL    HW122511   0.673   0.893   2.715  0.8867 -0.2991  0.8283
 3625SOL    HW222512   0.581   1.017   2.731 -1.3548  0.4922  2.2594
 3626SOL     OW22513   2.127   3.972   9.086 -0.0552 -0.1835 -0.3275
 3626SOL    HW122514   2.072   3.984   9.008  0.7629  1.3632 -0.6571
 3626SOL    HW222515   2.088   4.037   9.144  0.9602  1.1327 -1.1201
 3627SOL     OW22516   1.403   0.752   5.845 -0.0317  0.1009  0.0409
 3627SOL    HW122517   1.412   0.760   5.940 -2.1958  2.1233  0.0753
 3627SOL    HW222518   1.472   0.689   5.822  0.2279  0.3498  0.1436
 3628SOL     OW22519   1.022   1.029   2.421  0.2182 -0.2968  0.1591
 3628SOL    HW122520   1.047   1.119   2.400  0.6894 -0.6376 -0.7386
 3628SOL    HW222521   0.953   1.012   2.357 -0.0810  0.7886  0.1935
 3629SOL     OW22522   1.823   4.351  12.676  0.4254 -0.0531 -0.2998
 3629SOL    HW122523   1.778   4.267  12.683 -0.7218  0.4136 -2.0133
 3629SOL    HW222524   1.765   4.410  12.724 -0.0764  0.1909 -1.1991
 3630SOL     OW22525   0.274   0.999   4.495 -0.6092  0.1033 -0.0164
 3630SOL    HW122526   0.332   0.936   4.453 -1.2668  0.6939 -1.7937
 3630SOL    HW222527   0.301   1.074   4.442 -1.6720  0.8924  0.5425
 3631SOL     OW22528   1.439   1.216   6.816  0.1685  0.3820 -0.0114
 3631SOL    HW122529   1.357   1.168   6.830 -0.3783  1.3876  0.1659
 3631SOL    HW222530   1.480   1.183   6.736  2.4692  0.7832  1.0007
 3632SOL     OW22531   4.706   0.440   5.828 -0.3737  0.0073  0.3842
 3632SOL    HW122532   4.678   0.351   5.852  1.3163 -1.1266 -1.8183
 3632SOL    HW222533   0.009   0.423   5.741  0.3107  0.3732  0.6117
 3633SOL     OW22534   3.475   1.222  12.440  0.2674 -0.4950 -0.4480
 3633SOL    HW122535   3.391   1.175  12.443  1.3701 -2.4494 -0.8857
 3633SOL    HW222536   3.522   1.171  12.506  0.6894  0.8434  0.2868
 3634SOL     OW22537   3.791   3.907  16.549 -0.1576  0.4901  0.3486
 3634SOL    HW122538   3.710   3.948  16.579  1.1226  2.2093  1.4592
 3634SOL    HW222539   3.756   3.861  16.472  0.4011 -0.5078  0.6902
 3635SOL     OW22540   0.167   2.471   6.339 -0.3574 -0.1893 -0.9177
 3635SOL    HW122541   0.250   2.436   6.307  1.0453  0.5841  1.8077
 3635SOL    HW222542   0.211   2.533   6.398  0.3910 -0.7040 -0.9395
 3636SOL     OW22543   4.359   0.898   1.697  0.4176 -0.4936  0.2234
 3636SOL    HW122544   4.346   0.815   1.744 -0.5288 -1.0534 -1.0400
 3636SOL    HW222545   4.384   0.955   1.769 -0.3617 -0.9728  0.8817
 3637SOL     OW22546   1.242   0.401   5.757  0.0350  0.0276 -0.2070
 3637SOL    HW122547   1.258   0.336   5.825 -0.1322  0.3060  0.0968
 3637SOL    HW222548   1.187   0.450   5.818  0.3984 -2.1940  1.9083
 3638SOL     OW22549   4.237   2.717   9.959 -0.2704 -0.9167 -0.4156
 3638SOL    HW122550   4.229   2.812   9.970 -0.3327 -0.8562 -1.0349
 3638SOL    HW222551   4.209   2.708   9.869  1.0208  0.4955 -0.9557
 3639SOL     OW22552   3.698   0.335   5.722  0.2122  0.6990  0.1264
 3639SOL    HW122553   3.630   0.384   5.677 -1.2950 -1.7423 -0.2267
 3639SOL    HW222554   3.707   0.253   5.675 -1.6041 -0.1195  1.2191
 3640SOL     OW22555   3.035   2.692   9.593  0.8729 -0.2970  0.3079
 3640SOL    HW122556   3.070   2.772   9.633 -1.3155  1.5925 -1.5534
 3640SOL    HW222557   2.940   2.701   9.599  0.7640 -0.8762 -0.5085
 3641SOL     OW22558   1.431   4.272  12.116 -0.0756 -0.3396 -0.1201
 3641SOL    HW122559   1.497   4.325  12.073 -0.8211 -0.6612 -1.6516
 3641SOL    HW222560   1.342   4.301  12.097  0.2315  0.4165 -0.4073
 3642SOL     OW22561   0.530   1.714   7.759  0.3610 -0.0847  0.2483
 3642SOL    HW122562   0.551   1.756   7.843  1.5962  1.1675 -0.6745
 3642SOL    HW222563   0.585   1.765   7.699 -0.0050 -0.8922 -0.7624
 3643SOL     OW22564   1.477   3.409   5.001  0.1354 -0.6606  0.1706
 3643SOL    HW122565   1.399   3.441   5.046  1.5215  2.3464  0.4408
 3643SOL    HW222566   1.435   3.325   4.982  2.7693 -1.2597 -3.0556
 3644SOL     OW22567   2.703   3.451   5.221 -0.0881  0.2019  0.2322
 3644SOL    HW122568   2.678   3.401   5.298 -2.5109  1.4005  0.2106
 3644SOL    HW222569   2.648   3.529   5.227 -0.9372 -0.2747 -1.3802
 3645SOL     OW22570   1.993   3.596   5.926 -0.4242 -0.2151  0.2456
 3645SOL    HW122571   2.012   3.543   5.849 -0.9757 -0.5561  0.3485
 3645SOL    HW222572   2.050   3.559   5.994  0.9663  1.8016  0.1745
 3646SOL     OW22573   0.648   4.324   4.451 -0.5548 -0.2544  0.3638
 3646SOL    HW122574   0.660   4.413   4.418 -3.1801  0.2420  0.7099
 3646SOL    HW222575   0.552   4.320   4.449 -0.6350 -0.9273  4.1726
 3647SOL     OW22576   1.087   3.169   5.091  0.8562 -0.0419  0.7081
 3647SOL    HW122577   1.030   3.102   5.051  0.9915 -0.3283  0.9911
 3647SOL    HW222578   1.037   3.250   5.097  0.5600 -0.1887  0.2906
 3648SOL     OW22579   2.563   1.543   9.782 -0.0316 -0.0144 -0.3467
 3648SOL    HW122580   2.476   1.575   9.759 -0.6729 -2.3607 -1.2576
 3648SOL    HW222581   2.552   1.450   9.762  0.4583 -0.0498 -0.4473
 3649SOL     OW22582   1.028   2.092   8.094  0.2393 -0.1144 -0.8752
 3649SOL    HW122583   0.952   2.106   8.038 -0.3083 -3.7186 -1.0124
 3649SOL    HW222584   1.074   2.176   8.082 -0.9552  0.6450 -0.1515
 3650SOL     OW22585   0.491   2.957   2.217 -0.0654  0.0801  0.0709
 3650SOL    HW122586   0.494   2.929   2.309 -1.3292 -1.5033 -0.3602
 3650SOL    HW222587   0.584   2.948   2.197  0.0840 -0.6843  1.0645
 3651SOL     OW22588   1.974   0.157  12.569 -0.0623  0.3065  0.1028
 3651SOL    HW122589   1.976   0.234  12.627  0.0835  0.8016 -0.5524
 3651SOL    HW222590   1.945   0.201  12.490 -1.2349 -0.6324  0.0258
 3652SOL     OW22591   2.136   2.138   8.311 -0.0264 -0.0791  0.5614
 3652SOL    HW122592   2.222   2.114   8.346  0.7157  0.3530 -0.9519
 3652SOL    HW222593   2.127   2.223   8.354  1.3189 -0.1950  1.0725
 3653SOL     OW22594   3.834   0.467   1.563 -0.5348 -0.0210 -0.3573
 3653SOL    HW122595   3.842   0.380   1.524  1.7935 -0.0161  0.1551
 3653SOL    HW222596   3.743   0.472   1.593 -0.7779 -2.7924 -0.6447
 3654SOL     OW22597   2.670   3.080   4.095 -0.2642 -0.0704 -0.4247
 3654SOL    HW122598   2.679   3.060   4.188  3.3913 -0.9012 -0.9617
 3654SOL    HW222599   2.721   3.160   4.083 -0.2882 -0.4609 -3.2189
 3655SOL     OW22600   1.245   3.085  11.032  0.2326  1.0947 -0.0205
 3655SOL    HW122601   1.279   3.173  11.016  2.1138  0.3525 -0.2283
 3655SOL    HW222602   1.325   3.033  11.043  0.5146  1.4011 -0.6068
 3656SOL     OW22603   1.300   3.376  10.998  0.6900  0.1731  0.0812
 3656SOL    HW122604   1.250   3.448  11.038  1.0355 -0.6693  2.0200
 3656SOL    HW222605   1.381   3.381  11.048 -0.1374  0.1169  1.4319
 3657SOL     OW22606   0.319   0.199  14.706  0.4432  0.3757 -0.3809
 3657SOL    HW122607   0.295   0.284  14.744  1.5762  0.7306 -0.4421
 3657SOL    HW222608   0.241   0.144  14.716  0.7790 -0.0231  0.0775
 3658SOL     OW22609   3.686   4.251   7.719 -0.3468  0.8509 -0.1983
 3658SOL    HW122610   3.682   4.338   7.757  1.0135  1.2295 -0.9407
 3658SOL    HW222611   3.745   4.202   7.778 -0.9648  1.2410  0.7433
 3659SOL     OW22612   2.062   2.163   8.675  0.6232 -0.1304 -0.3763
 3659SOL    HW122613   2.121   2.233   8.647  0.1276  0.2422 -0.4891
 3659SOL    HW222614   1.976   2.194   8.648 -0.1403 -1.3314  0.6786
 3660SOL     OW22615   3.867   3.425   4.945 -0.0755  0.5378  0.5984
 3660SOL    HW122616   3.849   3.361   4.876  1.3852 -0.8103  1.4681
 3660SOL    HW222617   3.956   3.403   4.971 -0.0870  1.2942  1.2931
 3661SOL     OW22618   2.092   3.493   5.694  0.1724  0.0908  0.1417
 3661SOL    HW122619   2.119   3.517   5.605 -0.0164 -0.7699 -0.1497
 3661SOL    HW222620   2.144   3.416   5.717 -0.9249 -0.4997  0.6589
 3662SOL     OW22621   0.995   3.628   2.430  0.3006 -0.4070 -0.8816
 3662SOL    HW122622   0.910   3.605   2.466  0.1910  1.3408 -0.0268
 3662SOL    HW222623   0.979   3.641   2.337  0.0857  0.4345 -0.7298
 3663SOL     OW22624   3.170   4.216   3.657 -0.2101  0.1669 -0.1678
 3663SOL    HW122625   3.221   4.231   3.736  2.6521  0.5548 -2.0877
 3663SOL    HW222626   3.137   4.304   3.639 -1.4793 -0.4700 -0.9865
 3664SOL     OW22627   3.504   4.418  16.099 -0.3364  0.5622  0.0646
 3664SOL    HW122628   3.413   4.425  16.070 -0.3312  2.0314  0.3864
 3664SOL    HW222629   3.554   4.440  16.021  0.3956  0.1985  0.4336
 3665SOL     OW22630   4.044   3.842  16.022 -0.1059  0.1569 -0.1994
 3665SOL    HW122631   3.975   3.905  16.040  1.2723  1.2737  1.1379
 3665SOL    HW222632   4.120   3.868  16.075 -0.3097  0.2640  0.0395
 3666SOL     OW22633   1.458   1.043   3.290 -0.3567  0.5788  0.8398
 3666SOL    HW122634   1.422   1.126   3.322 -0.8034  0.2428  1.2036
 3666SOL    HW222635   1.383   0.984   3.298  0.0712 -0.0820 -0.0153
 3667SOL     OW22636   1.589   0.045   7.378 -0.1528 -0.1696  0.4024
 3667SOL    HW122637   1.674   0.052   7.335 -0.9343  3.6296 -0.4678
 3667SOL    HW222638   1.534   0.019   7.304 -2.5694  3.0120  1.1146
 3668SOL     OW22639   0.947   0.009   5.041 -0.0002 -0.3465 -0.3774
 3668SOL    HW122640   0.883   4.711   4.978  0.9501 -1.0290 -1.0047
 3668SOL    HW222641   0.896   0.067   5.097 -0.2562 -1.9202  1.0229
 3669SOL     OW22642   1.964   4.141  11.286 -0.1241  0.5941 -0.2486
 3669SOL    HW122643   1.921   4.221  11.316 -2.3104 -0.7353  0.1282
 3669SOL    HW222644   1.900   4.100  11.228  0.9768 -0.1565 -0.9353
 3670SOL     OW22645   0.285   1.744   8.836 -0.4664 -0.1229  0.0218
 3670SOL    HW122646   0.283   1.652   8.862 -0.5217 -0.9522 -2.8574
 3670SOL    HW222647   0.322   1.739   8.748  1.4614 -2.7614  0.9804
 3671SOL     OW22648   0.343   3.141   8.554  0.0691  0.0523  0.2205
 3671SOL    HW122649   0.372   3.125   8.464  1.5280  0.5743  0.5862
 3671SOL    HW222650   0.261   3.092   8.557 -1.7250  3.0225 -0.1829
 3672SOL     OW22651   2.790   3.671   8.272 -0.3278 -0.3426  0.2528
 3672SOL    HW122652   2.836   3.678   8.356 -1.4673  2.3132  0.6427
 3672SOL    HW222653   2.746   3.756   8.268  1.0014  0.3666  0.9028
 3673SOL     OW22654   1.258   0.058   7.541 -0.1867  0.1116  0.1492
 3673SOL    HW122655   1.188   0.068   7.477 -0.8070 -1.2232  0.6224
 3673SOL    HW222656   1.293   0.143   7.568 -0.4443  1.2995 -3.1833
 3674SOL     OW22657   0.337   2.654   4.179  0.0033  0.4739 -0.3724
 3674SOL    HW122658   0.407   2.595   4.152  0.8808  1.5718 -0.5231
 3674SOL    HW222659   0.271   2.621   4.119  0.2228  2.0969 -1.5001
 3675SOL     OW22660   3.735   1.282  12.936 -0.3516  0.2847  0.0943
 3675SOL    HW122661   3.733   1.330  12.853  0.5007 -1.6901 -1.0460
 3675SOL    HW222662   3.646   1.296  12.968  0.1282  1.7753  0.8043
 3676SOL     OW22663   3.471   1.490  14.759  0.5523  0.2876 -0.5772
 3676SOL    HW122664   3.497   1.516  14.671 -1.6279  1.4639 -0.8949
 3676SOL    HW222665   3.476   1.395  14.759  0.8684  0.3062 -0.7212
 3677SOL     OW22666   4.145   2.992   6.719 -0.4752 -0.1236 -0.2573
 3677SOL    HW122667   4.206   3.020   6.650 -0.0584  1.2828  0.6693
 3677SOL    HW222668   4.107   3.078   6.737 -1.9966 -0.2457 -2.7890
 3678SOL     OW22669   4.112   4.158   8.486 -0.0905 -0.5885  0.1338
 3678SOL    HW122670   4.058   4.082   8.506 -1.1000 -0.4447 -1.9683
 3678SOL    HW222671   4.070   4.189   8.405  1.0086 -2.4005 -1.1311
 3679SOL     OW22672   0.723   1.521  14.948  0.2316 -0.1565  0.0979
 3679SOL    HW122673   0.679   1.441  14.979  1.1646 -0.3722  0.8436
 3679SOL    HW222674   0.811   1.510  14.983  0.5872  0.0767 -0.7346
 3680SOL     OW22675   0.070   2.789   4.082  0.2151  0.1825 -0.1215
 3680SOL    HW122676   0.145   2.774   4.024  1.1683  1.3217  0.8062
 3680SOL    HW222677   0.058   2.883   4.068 -0.0807  0.7715  4.2027
 3681SOL     OW22678   2.709   0.705   9.407 -0.2631  0.5191 -0.0828
 3681SOL    HW122679   2.634   0.667   9.361 -0.7732 -0.0048  1.1883
 3681SOL    HW222680   2.678   0.681   9.495  1.2471 -0.5591  0.1486
 3682SOL     OW22681   1.693   3.174  17.357  0.3076  0.4634  0.1659
 3682SOL    HW122682   1.638   3.239  17.402  1.3131  0.8285  0.8730
 3682SOL    HW222683   1.626   3.114  17.325 -2.5096  2.0097  3.1571
 3683SOL     OW22684   0.815   1.869   0.882 -0.0253 -0.7562  0.2266
 3683SOL    HW122685   0.743   1.812   0.906  0.1356 -1.0392  0.0437
 3683SOL    HW222686   0.818   1.926   0.959 -0.1998 -2.2133  1.3198
 3684SOL     OW22687   2.228   2.341   1.949 -0.3413  0.0699  0.3572
 3684SOL    HW122688   2.322   2.350   1.930 -0.4554 -0.1311 -0.3124
 3684SOL    HW222689   2.229   2.318   2.042 -0.2025  3.6475  1.2623
 3685SOL     OW22690   2.066   3.990  13.088 -0.1142 -0.6537 -0.0637
 3685SOL    HW122691   2.060   4.052  13.161  0.0494 -1.3008  0.4923
 3685SOL    HW222692   2.111   4.039  13.019 -0.0894 -1.0318 -0.3181
 3686SOL     OW22693   1.287   3.269   7.333 -0.2881  0.5461 -0.3548
 3686SOL    HW122694   1.362   3.327   7.347  0.2795 -0.2421 -0.1238
 3686SOL    HW222695   1.220   3.336   7.348  0.1170  0.8657  0.0307
 3687SOL     OW22696   4.042   0.224   4.112 -0.1625 -0.1675 -0.1702
 3687SOL    HW122697   4.009   0.308   4.143 -2.3964 -1.0038 -0.2951
 3687SOL    HW222698   3.963   0.179   4.083 -0.7278  1.5524 -1.3159
 3688SOL     OW22699   1.812   0.950   8.625 -0.0086  0.1929  0.1746
 3688SOL    HW122700   1.740   0.942   8.688 -0.6654 -0.9958 -0.7387
 3688SOL    HW222701   1.874   0.928   8.694  0.7007  1.5233 -0.0299
 3689SOL     OW22702   2.991   2.838   4.403 -0.5670  0.5842  0.6602
 3689SOL    HW122703   3.041   2.761   4.376  0.6457  1.9333 -0.9754
 3689SOL    HW222704   3.024   2.903   4.341 -2.0905  0.5078 -0.2321
 3690SOL     OW22705   3.166   0.820   4.234  0.3229 -0.1353  0.6225
 3690SOL    HW122706   3.148   0.914   4.235 -1.4892 -0.4680 -0.7242
 3690SOL    HW222707   3.249   0.826   4.187  2.3853 -3.2156  3.8249
 3691SOL     OW22708   3.871   1.171   7.335  0.7232  0.5256 -0.2297
 3691SOL    HW122709   3.781   1.142   7.347  1.0156  0.9757  2.9749
 3691SOL    HW222710   3.895   1.219   7.414  2.1463  0.7964 -0.8312
 3692SOL     OW22711   0.379   0.679   8.099  0.5645  0.1000 -0.0438
 3692SOL    HW122712   0.436   0.626   8.043 -0.6547 -2.5512  1.1877
 3692SOL    HW222713   0.416   0.665   8.187 -1.0540  0.7223  0.7221
 3693SOL     OW22714   2.051   1.287   6.047 -0.2965 -0.4264 -0.4511
 3693SOL    HW122715   1.980   1.288   6.111 -0.9162 -0.9939 -1.1359
 3693SOL    HW222716   2.048   1.203   6.002  0.0519 -1.3089  1.1827
 3694SOL     OW22717   2.604   2.292   9.647 -0.1995 -0.6479  0.0625
 3694SOL    HW122718   2.610   2.370   9.702 -0.4865  0.1954 -1.0932
 3694SOL    HW222719   2.684   2.253   9.681 -0.5819 -2.9718 -1.7459
 3695SOL     OW22720   1.861   0.298   4.728  0.1125 -0.7208  0.0051
 3695SOL    HW122721   1.847   0.219   4.675  3.6376  0.6540 -2.9654
 3695SOL    HW222722   1.824   0.274   4.813 -1.2843  1.0689 -0.1142
 3696SOL     OW22723   3.295   1.559   1.361  0.2581  0.3243 -0.3443
 3696SOL    HW122724   3.277   1.629   1.423 -1.8723  0.6662 -1.3161
 3696SOL    HW222725   3.307   1.617   1.286 -0.9253  0.0543 -0.7479
 3697SOL     OW22726   0.280   2.119   5.095  0.3575 -0.2429  0.1135
 3697SOL    HW122727   0.345   2.183   5.064  0.3796  0.2237  1.1450
 3697SOL    HW222728   0.263   2.152   5.183 -2.6034  0.8039 -0.8431
 3698SOL     OW22729   3.796   0.102   3.940  0.0626  0.3622 -0.1974
 3698SOL    HW122730   3.817   0.193   3.918 -0.9637  0.9557  1.3067
 3698SOL    HW222731   3.707   0.123   3.970  0.0968 -0.2282  0.3029
 3699SOL     OW22732   0.409   3.844   9.698 -0.2739 -0.2251 -0.1657
 3699SOL    HW122733   0.370   3.769   9.743 -1.3411  0.9828  0.9260
 3699SOL    HW222734   0.373   3.831   9.611 -2.4681 -0.1132  0.7308
 3700SOL     OW22735   4.368   4.603  12.139 -0.0092  0.0304 -0.1908
 3700SOL    HW122736   4.396   4.609  12.231  0.9940 -2.4225 -0.3288
 3700SOL    HW222737   4.387   4.512  12.117  0.1398 -0.4937  2.0438
 3701SOL     OW22738   2.278   4.378   1.845  0.5925 -0.5076  0.2875
 3701SOL    HW122739   2.278   4.320   1.922 -2.8966 -0.7007  0.1649
 3701SOL    HW222740   2.207   4.339   1.795  0.4422 -0.7000  0.6517
 3702SOL     OW22741   4.632   1.107  13.552 -0.1873 -0.6241  0.2479
 3702SOL    HW122742   4.563   1.152  13.599 -0.1436 -2.1150  1.7440
 3702SOL    HW222743   4.673   1.065  13.627 -2.5413  0.0631  1.8872
 3703SOL     OW22744   1.137   0.528  13.737 -0.4072 -0.2598  0.5647
 3703SOL    HW122745   1.066   0.554  13.795  1.4407  0.4567  2.5069
 3703SOL    HW222746   1.090   0.561  13.660 -1.2977  1.2336  1.7492
 3704SOL     OW22747   4.040   1.601   1.611  0.1428 -0.1202 -0.0711
 3704SOL    HW122748   4.084   1.644   1.538  1.3544 -1.3808 -0.0808
 3704SOL    HW222749   3.946   1.609   1.593 -0.3977  1.2442  3.3011
 3705SOL     OW22750   4.621   2.126  17.522  0.0500 -0.1651  0.1782
 3705SOL    HW122751   4.646   2.218  17.516 -1.1611  0.2049  0.7913
 3705SOL    HW222752   4.561   2.133  17.596 -0.3237 -1.8495  0.0338
 3706SOL     OW22753   3.253   2.778  11.189  0.6543  0.2500  0.1755
 3706SOL    HW122754   3.182   2.804  11.130  0.2250 -2.0414 -0.3327
 3706SOL    HW222755   3.299   2.713  11.137  1.3488  2.2125 -1.6705
 3707SOL     OW22756   4.360   3.514  10.400 -0.4388  0.3899 -0.2990
 3707SOL    HW122757   4.343   3.600  10.439 -0.3958 -0.2042  1.0229
 3707SOL    HW222758   4.373   3.542  10.309  1.1157  0.4894 -0.0426
 3708SOL     OW22759   2.714   3.716  15.107  0.5805 -0.7226  0.2906
 3708SOL    HW122760   2.737   3.648  15.043  2.5977 -1.3131  1.6294
 3708SOL    HW222761   2.734   3.791  15.051 -0.5752  0.1270  1.0297
 3709SOL     OW22762   0.237   1.579   1.163  0.6940 -0.4061  0.0898
 3709SOL    HW122763   0.181   1.606   1.235  0.8963  0.7050 -0.1770
 3709SOL    HW222764   0.251   1.660   1.114  0.8236 -1.0579 -0.9475
 3710SOL     OW22765   2.107   1.534   2.779  0.0449  0.1314 -0.4269
 3710SOL    HW122766   2.016   1.562   2.770 -0.3445 -0.5089  1.5540
 3710SOL    HW222767   2.141   1.571   2.697  0.6529  0.5954  0.0316
 3711SOL     OW22768   4.322   1.195   0.411  0.3818 -0.4208  0.8975
 3711SOL    HW122769   4.378   1.200   0.333 -1.6120  0.0532 -0.5105
 3711SOL    HW222770   4.280   1.111   0.394  4.1700 -1.6726 -2.2825
 3712SOL     OW22771   2.695   3.019   1.716  0.5065  0.4869 -0.0237
 3712SOL    HW122772   2.773   2.991   1.667  1.2210 -0.1521  1.4933
 3712SOL    HW222773   2.630   2.987   1.654 -0.7118  2.3682  0.2724
 3713SOL     OW22774   0.121   1.103   1.881  0.3812 -0.4278  0.1327
 3713SOL    HW122775   0.182   1.176   1.893  0.7243 -0.7212  0.1763
 3713SOL    HW222776   0.165   1.053   1.813  1.3211 -0.6519  0.9094
 3714SOL     OW22777   0.767   4.195  12.250 -0.0104  0.7141  0.4273
 3714SOL    HW122778   0.798   4.117  12.203  0.6510 -0.2868  2.5255
 3714SOL    HW222779   0.835   4.257  12.225  0.7184 -0.4191 -0.4294
 3715SOL     OW22780   1.811   0.146   7.678  0.2843 -0.0122  0.6342
 3715SOL    HW122781   1.861   0.148   7.759  1.6867 -0.1159 -0.2232
 3715SOL    HW222782   1.819   0.053   7.656 -0.2058  0.1127 -0.1005
 3716SOL     OW22783   2.350   0.635  15.201  0.3152 -0.6046 -0.0829
 3716SOL    HW122784   2.309   0.591  15.275 -0.0795  0.9202  0.5954
 3716SOL    HW222785   2.286   0.628  15.130 -2.1463 -2.6407  2.3018
 3717SOL     OW22786   2.520   2.192   5.578 -0.2978 -0.2381  0.1749
 3717SOL    HW122787   2.530   2.248   5.501  0.3198  1.9680  1.8171
 3717SOL    HW222788   2.535   2.105   5.542 -0.1314  0.3199 -1.0822
 3718SOL     OW22789   2.271   1.289  11.328 -0.0289 -0.1168  0.7841
 3718SOL    HW122790   2.289   1.369  11.378 -0.0273  0.3556  0.0320
 3718SOL    HW222791   2.330   1.232  11.377  0.5073  0.0171  0.2974
 3719SOL     OW22792   2.021   3.431  15.459  0.0636  0.3616 -0.0438
 3719SOL    HW122793   1.938   3.412  15.504  0.9977  0.6606  1.7843
 3719SOL    HW222794   1.989   3.478  15.383 -0.0131  0.3948  0.0085
 3720SOL     OW22795   0.177   4.477   4.866 -0.2674  0.4695 -0.1130
 3720SOL    HW122796   0.241   4.517   4.925 -1.6078  0.6281  1.2490
 3720SOL    HW222797   0.195   4.523   4.785 -0.6697 -0.0404 -0.4965
 3721SOL     OW22798   0.389   1.480   2.834  0.1497  0.6801 -0.2738
 3721SOL    HW122799   0.427   1.472   2.922 -1.2586  3.9533  0.6317
 3721SOL    HW222800   0.475   1.481   2.792  0.2108 -0.7466 -0.1716
 3722SOL     OW22801   2.527   0.480  11.349 -0.2420 -0.1575 -0.4140
 3722SOL    HW122802   2.522   0.571  11.377 -3.5088 -0.5760  0.3335
 3722SOL    HW222803   2.616   0.477  11.313 -1.2232  1.5091 -2.9811
 3723SOL     OW22804   0.468   1.953  16.815  0.3098 -1.0314  0.4640
 3723SOL    HW122805   0.541   1.989  16.765 -1.1089 -2.8514 -2.8699
 3723SOL    HW222806   0.476   2.007  16.894 -0.1486  3.0593 -2.2992
 3724SOL     OW22807   3.966   0.713   9.453  0.6084  0.3150  0.0570
 3724SOL    HW122808   3.945   0.806   9.443 -3.2770 -0.4962  0.6697
 3724SOL    HW222809   3.926   0.698   9.539  1.8854  0.3228  0.6556
 3725SOL     OW22810   3.641   1.070   2.819 -0.1322  0.1017 -0.6119
 3725SOL    HW122811   3.726   1.113   2.824 -0.5052  0.5964  1.5552
 3725SOL    HW222812   3.651   1.008   2.747  0.8351 -1.5030  0.9242
 3726SOL     OW22813   0.156   1.441   9.688 -0.1066 -0.0082  0.1188
 3726SOL    HW122814   0.240   1.454   9.643  0.7375  1.5378  2.1576
 3726SOL    HW222815   0.193   1.397   9.764 -0.9933  0.3825  0.7654
 3727SOL     OW22816   4.483   2.982   8.895 -0.0532  0.2461 -0.3447
 3727SOL    HW122817   4.465   2.900   8.940  2.3701 -0.8082 -1.2648
 3727SOL    HW222818   4.524   3.030   8.967  0.4966  0.7798 -1.0070
 3728SOL     OW22819   3.555   1.975   4.150  0.5069 -0.3513  0.1999
 3728SOL    HW122820   3.628   1.937   4.103  1.3398  0.7718  0.5658
 3728SOL    HW222821   3.495   1.901   4.157 -1.5166  1.1612 -1.2982
 3729SOL     OW22822   3.951   2.781  10.069  0.5077 -0.1390  0.4697
 3729SOL    HW122823   3.883   2.848  10.061 -0.1128 -0.6130  1.7223
 3729SOL    HW222824   4.026   2.840  10.073  0.3268  0.0166  1.6280
 3730SOL     OW22825   1.549   3.734   4.453  0.0318 -0.0368 -0.2051
 3730SOL    HW122826   1.597   3.795   4.398  1.2218 -1.9463 -1.2869
 3730SOL    HW222827   1.548   3.781   4.536  3.9761 -1.0205  0.4055
 3731SOL     OW22828   2.704   2.836   3.972 -0.0109 -0.0874 -0.5394
 3731SOL    HW122829   2.616   2.840   3.933 -0.4267  0.4756  0.4535
 3731SOL    HW222830   2.704   2.922   4.013 -0.7545 -0.5856  0.5253
 3732SOL     OW22831   0.424   3.994   8.274  0.2555 -0.7133  0.3417
 3732SOL    HW122832   0.441   4.029   8.361  0.4943 -1.6359  0.6658
 3732SOL    HW222833   0.514   3.983   8.244 -0.0189  0.7260 -1.0175
 3733SOL     OW22834   1.212   0.513   9.267  0.3126  0.4190  0.0073
 3733SOL    HW122835   1.259   0.529   9.349  1.1408  1.1035 -0.5981
 3733SOL    HW222836   1.174   0.600   9.266  0.8075  0.6261 -0.9530
 3734SOL     OW22837   2.376   1.077   3.677 -0.0399  0.2818 -0.0585
 3734SOL    HW122838   2.376   1.107   3.768 -1.7530 -1.2052  0.4128
 3734SOL    HW222839   2.456   1.119   3.643  0.9136 -0.8940  0.7496
 3735SOL     OW22840   1.011   1.964  13.043  0.2298  0.1134  0.1034
 3735SOL    HW122841   0.942   1.909  13.081  1.2330  0.9164  3.0310
 3735SOL    HW222842   1.056   2.016  13.109  0.2912  0.2828 -0.0727
 3736SOL     OW22843   2.055   4.211   8.008 -0.2219 -0.2094  0.1045
 3736SOL    HW122844   2.028   4.162   7.930 -1.7317 -0.9626  1.1046
 3736SOL    HW222845   2.118   4.272   7.970  1.3145 -1.2466  0.9841
 3737SOL     OW22846   0.024   3.934   6.735 -0.3551  0.3442 -0.3234
 3737SOL    HW122847   0.017   3.861   6.796  1.0690  1.8806  1.6405
 3737SOL    HW222848   0.061   3.901   6.653 -0.9815 -0.6767 -0.1912
 3738SOL     OW22849   2.472   3.561  11.069 -0.8093  0.1641 -0.0429
 3738SOL    HW122850   2.414   3.621  11.023 -1.8589 -1.3658 -0.7218
 3738SOL    HW222851   2.544   3.624  11.070  0.0788 -0.9141  3.5555
 3739SOL     OW22852   4.452   3.878  11.787 -0.5756 -0.2488  0.4999
 3739SOL    HW122853   4.517   3.926  11.736  0.4002  0.1899  2.1539
 3739SOL    HW222854   4.384   3.879  11.719 -0.0418  1.6301 -0.0005
 3740SOL     OW22855   4.309   2.187   7.821 -0.2653  0.0211  0.0541
 3740SOL    HW122856   4.253   2.264   7.813 -0.2278  0.2247  1.7857
 3740SOL    HW222857   4.363   2.205   7.898  2.1874  2.9864 -2.3606
 3741SOL     OW22858   3.010   0.306   2.561 -0.0859  0.1525 -0.2815
 3741SOL    HW122859   3.070   0.372   2.597  2.3961 -2.8272  1.0348
 3741SOL    HW222860   2.951   0.290   2.635 -1.4659  1.1604 -1.1581
 3742SOL     OW22861   1.662   2.441   4.273 -0.0624 -0.3275  0.1285
 3742SOL    HW122862   1.682   2.354   4.308  0.6110  0.2872  1.2428
 3742SOL    HW222863   1.605   2.421   4.198  0.0986  0.5056 -0.2065
 3743SOL     OW22864   0.177   3.225   6.263 -0.0160  0.7041 -0.1000
 3743SOL    HW122865   0.148   3.149   6.313  2.0180  0.5526  0.8869
 3743SOL    HW222866   0.108   3.238   6.199 -0.0690 -0.1347 -0.2113
 3744SOL     OW22867   2.844   2.290   8.216  0.0914 -0.2912  0.4582
 3744SOL    HW122868   2.900   2.212   8.221  0.4241  0.1034  2.9980
 3744SOL    HW222869   2.758   2.249   8.224  0.1286 -0.1858  1.3693
 3745SOL     OW22870   4.227   2.640   4.686 -0.3103 -0.1598 -0.3571
 3745SOL    HW122871   4.290   2.569   4.676 -1.5676 -0.8912 -3.1698
 3745SOL    HW222872   4.282   2.711   4.653 -0.2128  0.8324  1.9809
 3746SOL     OW22873   3.196   1.558   2.423  0.5736  0.1883 -0.1049
 3746SOL    HW122874   3.108   1.593   2.436  0.5566  0.4011 -0.8175
 3746SOL    HW222875   3.190   1.542   2.329  2.6754  0.3738 -0.2805
 3747SOL     OW22876   2.014   4.525   7.346  0.4563 -0.3527 -0.2690
 3747SOL    HW122877   2.108   4.537   7.329  0.2581  0.1717 -1.0576
 3747SOL    HW222878   2.004   4.432   7.328 -0.8520 -0.0908 -0.9261
 3748SOL     OW22879   4.114   4.601   4.561 -0.0072 -0.1648 -0.0997
 3748SOL    HW122880   4.180   4.563   4.619 -0.0817 -0.8225 -0.4493
 3748SOL    HW222881   4.033   4.618   4.609  0.1251  2.4197 -0.7984
 3749SOL     OW22882   2.996   0.320   6.463 -0.7315 -0.7144  0.1314
 3749SOL    HW122883   2.996   0.245   6.523 -0.6640  0.0295  1.0797
 3749SOL    HW222884   3.070   0.285   6.414 -1.8586 -2.9008 -0.0258
 3750SOL     OW22885   1.200   3.079   3.986 -0.0085  0.3885  0.1278
 3750SOL    HW122886   1.286   3.093   4.027  0.5262  0.9117 -1.1672
 3750SOL    HW222887   1.174   3.170   3.969  0.5490  0.8147  1.5448
 3751SOL     OW22888   1.918   2.489   4.057  0.0349 -0.6322  0.1427
 3751SOL    HW122889   1.837   2.486   4.007  0.3507  0.2940 -0.4378
 3751SOL    HW222890   1.927   2.585   4.062  2.6523 -0.8039 -1.1800
 3752SOL     OW22891   1.362   0.258   3.338 -0.1662 -0.9904 -0.7242
 3752SOL    HW122892   1.279   0.222   3.369  0.2287 -3.1324 -2.1293
 3752SOL    HW222893   1.364   0.222   3.249  1.2562 -1.2867 -0.5771
 3753SOL     OW22894   0.676   0.689  12.296 -0.2870  0.2249 -0.2188
 3753SOL    HW122895   0.741   0.758  12.286  2.2246 -2.0202  0.4253
 3753SOL    HW222896   0.603   0.734  12.338 -0.3133  0.8470 -0.9380
 3754SOL     OW22897   2.595   3.909   9.438  0.3224 -0.2807 -0.4078
 3754SOL    HW122898   2.505   3.936   9.423  1.2079  1.4962 -2.6003
 3754SOL    HW222899   2.596   3.841   9.370  1.6327 -0.2146 -0.4612
 3755SOL     OW22900   1.833   0.351   3.500  0.2590 -0.1329 -0.0255
 3755SOL    HW122901   1.835   0.264   3.461 -3.5493 -0.7164  1.0675
 3755SOL    HW222902   1.750   0.345   3.548  0.6953  1.9390  1.0074
 3756SOL     OW22903   2.119   0.258   8.927  0.2491 -0.0409 -0.0457
 3756SOL    HW122904   2.189   0.223   8.982  0.7637 -2.2949 -2.1556
 3756SOL    HW222905   2.054   0.275   8.995  0.8062 -0.7082  0.6471
 3757SOL     OW22906   3.375   2.291   9.323 -0.7435 -0.2035 -0.0846
 3757SOL    HW122907   3.355   2.363   9.382  1.3274 -1.2045  1.8286
 3757SOL    HW222908   3.381   2.328   9.235 -0.4909 -1.0406 -0.4237
 3758SOL     OW22909   0.793   2.150   7.938  0.1458  0.5862 -0.2199
 3758SOL    HW122910   0.759   2.067   7.971 -0.2162  1.1163  0.7499
 3758SOL    HW222911   0.803   2.121   7.848 -0.5727  1.7297 -0.6749
 3759SOL     OW22912   2.743   1.904   5.618 -0.5893 -0.1142  0.0130
 3759SOL    HW122913   2.748   1.979   5.559 -3.6074  0.3114  0.2981
 3759SOL    HW222914   2.799   1.848   5.565  0.9033  2.4082 -1.0489
 3760SOL     OW22915   2.741   4.716  13.636  0.3779 -0.1530 -0.4226
 3760SOL    HW122916   2.810   4.660  13.601 -1.5502 -3.2141  0.6241
 3760SOL    HW222917   2.794   0.045  13.683  0.4682  0.6346 -1.6014
 3761SOL     OW22918   2.761   3.480   3.035  0.5370  0.1611 -0.0808
 3761SOL    HW122919   2.732   3.442   2.953 -1.6271  0.5201  0.5318
 3761SOL    HW222920   2.778   3.400   3.086  0.6049 -0.3401 -0.8945
 3762SOL     OW22921   2.647   2.260   0.099  0.2492 -0.3634 -0.0730
 3762SOL    HW122922   2.637   2.166   0.086  1.6498 -0.8281  2.1438
 3762SOL    HW222923   2.608   2.295   0.019 -0.4777  0.0536  0.4681
 3763SOL     OW22924   0.940   1.117  11.911 -0.1237 -0.1295  0.3090
 3763SOL    HW122925   0.884   1.189  11.942 -1.5115 -0.9063 -0.3876
 3763SOL    HW222926   0.868   1.054  11.904 -1.0880  1.2008 -1.9386
 3764SOL     OW22927   3.811   1.812   2.760 -0.0291  0.2104  0.3435
 3764SOL    HW122928   3.854   1.896   2.742  1.9718 -1.0062 -0.6081
 3764SOL    HW222929   3.728   1.820   2.713  0.6019  2.4194 -0.4168
 3765SOL     OW22930   3.946   0.975   1.420  0.1960 -0.4938 -0.3426
 3765SOL    HW122931   3.961   1.042   1.486 -0.5239 -1.3213  0.6681
 3765SOL    HW222932   3.993   0.896   1.449 -0.8242 -1.5138 -1.4422
 3766SOL     OW22933   4.079   4.718   1.384  0.7589  0.1193  0.3018
 3766SOL    HW122934   4.053   4.712   1.293  1.1797  0.9859  0.1237
 3766SOL    HW222935   4.169   4.685   1.387 -0.6253 -3.5221  2.1345
 3767SOL     OW22936   0.966   1.997   1.566 -0.5006 -0.0030  0.2392
 3767SOL    HW122937   0.887   2.009   1.513 -0.4788 -0.8201  0.0067
 3767SOL    HW222938   0.949   2.067   1.628 -0.4603  0.3158 -0.1144
 3768SOL     OW22939   3.376   1.981   8.754 -0.7440 -0.0932 -0.5876
 3768SOL    HW122940   3.353   2.066   8.715  2.2960  1.8747  1.8264
 3768SOL    HW222941   3.454   1.956   8.704  0.3789 -0.3548  1.2758
 3769SOL     OW22942   3.824   3.936   4.780  0.1761 -0.2424  0.1163
 3769SOL    HW122943   3.789   3.912   4.866 -0.2013 -1.1094 -0.2745
 3769SOL    HW222944   3.742   3.962   4.739 -0.2594 -1.3557  0.2773
 3770SOL     OW22945   0.877   3.451   1.972 -0.0404 -0.3275 -0.1360
 3770SOL    HW122946   0.816   3.392   1.928 -0.8266  0.9162 -0.7012
 3770SOL    HW222947   0.927   3.478   1.895 -1.1988 -0.2876 -0.8781
 3771SOL     OW22948   3.701   0.226   2.842  0.1396 -0.4017  0.0673
 3771SOL    HW122949   3.673   0.317   2.853 -0.6128 -0.5230 -0.8588
 3771SOL    HW222950   3.754   0.227   2.922  0.9824  0.6413 -0.5011
 3772SOL     OW22951   4.294   1.715  15.965  0.4103 -0.2175  0.3996
 3772SOL    HW122952   4.213   1.755  15.933  1.7949  2.4241  0.1937
 3772SOL    HW222953   4.337   1.689  15.884 -0.3797  0.9766 -0.4065
 3773SOL     OW22954   1.875   4.087  14.473  0.3288  0.7299  0.5829
 3773SOL    HW122955   1.870   4.008  14.528 -0.0871 -0.4185 -1.1013
 3773SOL    HW222956   1.891   4.149  14.545  0.0070  2.4668 -0.8606
 3774SOL     OW22957   2.404   1.721   2.027  0.1993  0.0089  0.0974
 3774SOL    HW122958   2.413   1.708   1.932 -3.6057  1.9791 -0.5254
 3774SOL    HW222959   2.332   1.669   2.062 -0.1911  0.4392 -0.0629
 3775SOL     OW22960   2.214   2.358   8.509  0.3395  0.2963  0.2347
 3775SOL    HW122961   2.163   2.388   8.433 -2.5150 -0.8262  1.6951
 3775SOL    HW222962   2.165   2.407   8.575  0.9685  1.2378 -0.0082
 3776SOL     OW22963   3.551   2.194  16.482  0.3188  0.1663 -0.1063
 3776SOL    HW122964   3.603   2.236  16.414  2.0213 -3.0567 -0.8010
 3776SOL    HW222965   3.515   2.123  16.427  1.1657  0.0332 -0.4819
 3777SOL     OW22966   2.370   0.741   9.419  0.3060 -0.2053 -0.3216
 3777SOL    HW122967   2.432   0.706   9.355  2.8043 -0.1376  2.0776
 3777SOL    HW222968   2.296   0.758   9.360  0.2641  0.6265 -0.0287
 3778SOL     OW22969   3.265   1.001   3.380 -0.0818 -0.2557 -0.0883
 3778SOL    HW122970   3.301   0.976   3.466  4.4952  1.1095 -1.6292
 3778SOL    HW222971   3.173   1.011   3.405  0.0605 -1.5367  1.0067
 3779SOL     OW22972   0.060   4.653   1.133 -0.7321  0.2552  0.2757
 3779SOL    HW122973   0.148   4.624   1.156 -0.3623 -0.7880 -2.4932
 3779SOL    HW222974   0.066   4.710   1.057 -0.6065  0.1659  0.2200
 3780SOL     OW22975   3.880   3.657   5.966 -0.3370  0.7557 -0.2698
 3780SOL    HW122976   3.805   3.616   5.924 -0.0351  0.8515 -0.9044
 3780SOL    HW222977   3.837   3.703   6.038 -0.3081 -0.5417  0.5844
 3781SOL     OW22978   1.477   4.202   4.876  0.0804  0.0237  0.1704
 3781SOL    HW122979   1.415   4.184   4.805  1.2474 -0.8482 -0.6403
 3781SOL    HW222980   1.441   4.285   4.906  1.1091  0.2058  0.8991
 3782SOL     OW22981   4.145   1.661  16.437  0.3890 -0.1576  0.0449
 3782SOL    HW122982   4.186   1.652  16.523 -0.6637 -1.2677  0.4339
 3782SOL    HW222983   4.053   1.639  16.455 -0.0916  1.0110 -1.0560
 3783SOL     OW22984   2.172   3.411   6.017  0.2652 -0.0882 -0.1823
 3783SOL    HW122985   2.169   3.373   5.929  2.0386  0.1108 -0.3220
 3783SOL    HW222986   2.264   3.432   6.030  0.5015  0.0265 -2.1290
 3784SOL     OW22987   0.918   2.161   7.177  0.5651 -0.1636 -0.2471
 3784SOL    HW122988   0.837   2.211   7.190 -0.3957 -1.3672 -1.7170
 3784SOL    HW222989   0.902   2.080   7.225  3.4272  0.1139  1.1434
 3785SOL     OW22990   2.416   1.963   3.127  0.3869  0.1809  0.1663
 3785SOL    HW122991   2.454   2.036   3.175  2.1583 -1.2046  0.8622
 3785SOL    HW222992   2.484   1.896   3.133  0.6814  0.7294  2.6373
 3786SOL     OW22993   2.536   1.623   6.843 -0.6347  0.0078  0.1980
 3786SOL    HW122994   2.483   1.661   6.914 -1.1413  0.2789 -0.3264
 3786SOL    HW222995   2.622   1.658   6.867 -0.8599 -0.0211  1.0497
 3787SOL     OW22996   3.293   0.774   8.892 -0.3581 -0.1656 -0.0239
 3787SOL    HW122997   3.222   0.836   8.907  1.1424  1.6233 -0.3374
 3787SOL    HW222998   3.305   0.738   8.980 -0.6988 -1.8109 -0.6458
 3788SOL     OW22999   1.301   4.351   2.725 -0.0340 -0.0109  0.5323
 3788SOL    HW123000   1.248   4.324   2.799  1.4807 -1.8267  0.9540
 3788SOL    HW223001   1.332   4.264   2.698 -2.4272 -0.4931 -0.7101
 3789SOL     OW23002   2.735   3.372   4.648 -0.1543 -0.1996 -0.0466
 3789SOL    HW123003   2.763   3.424   4.723 -0.1640  0.5417 -0.5635
 3789SOL    HW223004   2.817   3.364   4.599 -1.1071 -0.4521 -1.5785
 3790SOL     OW23005   0.532   1.504   3.072  0.2637  0.3228  0.6032
 3790SOL    HW123006   0.556   1.590   3.036 -3.0268  1.8655  2.0707
 3790SOL    HW223007   0.547   1.519   3.165 -0.3217  1.3165  0.5413
 3791SOL     OW23008   0.470   1.440  14.346 -0.3968  0.1605 -0.1433
 3791SOL    HW123009   0.558   1.463  14.377 -0.3834  0.3317 -0.3066
 3791SOL    HW223010   0.483   1.347  14.327 -1.5222  0.7952 -4.0338
 3792SOL     OW23011   1.331   4.587   3.124 -0.6208 -0.3271 -0.0624
 3792SOL    HW123012   1.397   4.584   3.055 -0.3486  1.5938  0.1057
 3792SOL    HW223013   1.350   4.675   3.158 -2.3720  0.5272 -1.2383
 3793SOL     OW23014   1.677   1.113   9.077 -0.2896 -0.2543 -0.1932
 3793SOL    HW123015   1.586   1.092   9.056 -0.1410 -0.5607 -0.5248
 3793SOL    HW223016   1.667   1.159   9.161  0.4246  0.4903 -0.5138
 3794SOL     OW23017   3.630   0.118   5.531 -0.6523  0.3163  0.0743
 3794SOL    HW123018   3.621   0.164   5.448 -0.7282  0.3280  0.0889
 3794SOL    HW223019   3.541   0.117   5.567 -0.9379  1.3114 -0.5949
 3795SOL     OW23020   0.583   4.508   8.228  0.2723  0.1860 -0.2611
 3795SOL    HW123021   0.569   4.591   8.183  0.9446  0.2766 -0.3046
 3795SOL    HW223022   0.506   4.498   8.284  0.9858 -1.1043  0.4885
 3796SOL     OW23023   0.223   0.612   3.379 -0.3769 -0.4462 -0.0540
 3796SOL    HW123024   0.301   0.587   3.330  0.5988  1.5543  0.5168
 3796SOL    HW223025   0.210   0.537   3.436  1.3648 -0.4111  0.3759
 3797SOL     OW23026   0.610   3.441   7.495 -0.6595 -0.1039 -0.1591
 3797SOL    HW123027   0.648   3.468   7.578 -1.4447  0.5886 -0.0160
 3797SOL    HW223028   0.661   3.500   7.439  0.5525 -1.6818 -0.7228
 3798SOL     OW23029   3.403   1.554   4.905 -0.8252 -0.8756  0.0306
 3798SOL    HW123030   3.468   1.571   4.836 -0.9696  1.6088  0.5042
 3798SOL    HW223031   3.423   1.621   4.970 -1.7906 -0.6727  0.1140
 3799SOL     OW23032   2.956   4.048   1.262 -0.2814  0.5024 -0.9666
 3799SOL    HW123033   2.892   4.066   1.192  0.0482  0.7015 -1.2166
 3799SOL    HW223034   2.915   3.978   1.314 -1.0632  1.1933 -0.6542
 3800SOL     OW23035   2.355   1.359   7.302 -0.4918  0.1166  0.4451
 3800SOL    HW123036   2.384   1.313   7.223 -2.1475  0.5447 -0.4291
 3800SOL    HW223037   2.440   1.366   7.344 -0.4066 -1.8088  0.5929
 3801SOL     OW23038   3.519   3.944   5.218  0.6563  0.5580 -0.2724
 3801SOL    HW123039   3.448   3.888   5.186  0.4237  0.2257  0.8246
 3801SOL    HW223040   3.485   3.987   5.297 -0.2105  1.9788 -1.4223
 3802SOL     OW23041   2.310   4.170  17.374 -0.7032 -0.3763 -0.2403
 3802SOL    HW123042   2.217   4.190  17.369 -0.1030  2.2393 -1.4750
 3802SOL    HW223043   2.326   4.163  17.280  1.1892  1.6154 -0.0914
 3803SOL     OW23044   0.437   4.716   6.109  0.0997  0.2086 -0.0565
 3803SOL    HW123045   0.423   0.075   6.098  0.7201  0.1952 -0.9297
 3803SOL    HW223046   0.345   4.693   6.117  0.8559 -2.1010  2.5828
 3804SOL     OW23047   0.675   0.248  14.778 -0.1291 -0.5153 -0.2897
 3804SOL    HW123048   0.722   0.330  14.792 -1.4788  0.1665  0.3091
 3804SOL    HW223049   0.732   0.209  14.712 -1.3091 -2.3330 -0.2451
 3805SOL     OW23050   4.468   1.527   0.566 -0.1074 -0.2137 -0.0358
 3805SOL    HW123051   4.479   1.565   0.479  2.0457  0.4554  0.5305
 3805SOL    HW223052   4.383   1.484   0.570 -1.0830  1.7937  0.6963
 3806SOL     OW23053   1.171   0.999   1.645 -0.2061  0.4108 -0.1338
 3806SOL    HW123054   1.091   1.029   1.603 -1.7546 -0.4568  2.1927
 3806SOL    HW223055   1.173   1.046   1.728 -0.2072 -1.1753  0.7750
 3807SOL     OW23056   0.356   2.925  13.160 -1.0510 -0.3060  0.6150
 3807SOL    HW123057   0.423   2.857  13.169  1.1987  1.7932 -0.2498
 3807SOL    HW223058   0.337   2.935  13.067  0.4256 -2.5409  0.0766
 3808SOL     OW23059   4.575   1.166   7.128  0.4906 -0.3337  0.6146
 3808SOL    HW123060   4.600   1.209   7.210 -2.9003 -0.6268  1.7810
 3808SOL    HW223061   4.509   1.103   7.155 -0.7339  0.7753  0.1789
 3809SOL     OW23062   0.325   4.711   3.386  0.1075 -0.2135  0.0807
 3809SOL    HW123063   0.362   4.623   3.379 -0.1357 -0.2888 -0.2204
 3809SOL    HW223064   0.237   4.687   3.357 -0.5573  2.6407 -0.3267
 3810SOL     OW23065   0.933   3.701  17.499 -0.9130  0.1450  0.0963
 3810SOL    HW123066   0.869   3.635  17.474 -1.3396  0.8938 -0.7796
 3810SOL    HW223067   0.915   3.713  17.592  0.4293  1.4822  0.1925
 3811SOL     OW23068   0.704   4.119   2.535  0.4627 -0.0348  0.1192
 3811SOL    HW123069   0.678   4.028   2.525  0.4261  0.0464 -0.5719
 3811SOL    HW223070   0.622   4.168   2.540  0.4597 -0.0706  0.3989
 3812SOL     OW23071   3.522   4.377   8.795 -0.3641 -0.3145  0.2611
 3812SOL    HW123072   3.442   4.380   8.742  0.3815  0.0902 -0.8359
 3812SOL    HW223073   3.552   4.287   8.794  0.9606  0.0985  3.1668
 3813SOL     OW23074   1.650   1.822   4.863  0.6138 -0.4950 -0.3552
 3813SOL    HW123075   1.742   1.816   4.890  0.2822 -0.1748  0.8287
 3813SOL    HW223076   1.647   1.917   4.868 -3.0357 -0.5684 -1.1284
 3814SOL     OW23077   3.968   2.556   6.113 -0.1221  0.4388  0.4867
 3814SOL    HW123078   3.907   2.560   6.038 -0.7332  1.3364  1.0338
 3814SOL    HW223079   4.054   2.548   6.072 -0.5087  0.5867 -0.3564
 3815SOL     OW23080   1.108   2.662   4.139 -0.4696  0.2752 -0.7272
 3815SOL    HW123081   1.024   2.618   4.124  0.7711 -2.6938  1.1420
 3815SOL    HW223082   1.078   2.751   4.117  0.4276  1.1898  1.7520
 3816SOL     OW23083   2.991   3.981   8.236 -0.8137 -0.1437  0.6168
 3816SOL    HW123084   2.907   3.994   8.279 -0.7174  1.8215  0.2023
 3816SOL    HW223085   2.983   3.895   8.195 -1.7355  0.1279  0.2380
 3817SOL     OW23086   4.307   2.979   3.434 -0.1118 -0.0965  0.0504
 3817SOL    HW123087   4.399   2.981   3.409 -0.1064 -0.1987  0.0604
 3817SOL    HW223088   4.290   3.072   3.420 -0.8215 -0.6663 -2.8812
 3818SOL     OW23089   2.372   0.079   4.351  0.6171  0.2946 -0.2814
 3818SOL    HW123090   2.349   0.119   4.267  2.0181 -1.7676 -1.6440
 3818SOL    HW223091   2.467   0.088   4.364  1.2814 -1.8651 -3.4841
 3819SOL     OW23092   2.646   2.598   7.893 -0.4442 -0.2811  0.5069
 3819SOL    HW123093   2.647   2.503   7.883 -0.3330  0.2427 -4.4942
 3819SOL    HW223094   2.720   2.601   7.953 -1.3493  1.9960  1.5173
 3820SOL     OW23095   2.199   2.729   5.094 -0.8285 -0.3598 -0.6781
 3820SOL    HW123096   2.228   2.790   5.161 -1.3708 -0.9030  0.0637
 3820SOL    HW223097   2.115   2.702   5.133 -1.3907  0.7084 -1.1619
 3821SOL     OW23098   1.937   2.241  14.764  0.4402  0.2292 -0.1693
 3821SOL    HW123099   1.855   2.192  14.770  0.4876  0.0250 -1.1176
 3821SOL    HW223100   1.921   2.310  14.700  1.8032  0.4214 -0.3020
 3822SOL     OW23101   0.036   3.969   3.952 -0.3382 -0.5864 -0.4827
 3822SOL    HW123102   0.119   4.013   3.940 -1.5449  2.1718  1.3266
 3822SOL    HW223103   0.022   3.914   3.875  1.4246  2.3215 -2.8729
 3823SOL     OW23104   1.500   4.233   3.953 -0.2077 -0.9606  0.3017
 3823SOL    HW123105   1.464   4.183   3.879  1.4008  2.7468 -2.9570
 3823SOL    HW223106   1.577   4.182   3.976  0.1500  0.4521  2.1579
 3824SOL     OW23107   0.780   2.802   5.756  0.2713  0.1274  0.2604
 3824SOL    HW123108   0.868   2.833   5.779  0.6309 -1.4558  1.0884
 3824SOL    HW223109   0.790   2.710   5.730 -0.7598 -0.0287  0.4075
 3825SOL     OW23110   2.864   3.370   9.930  0.7104 -0.5550 -0.3253
 3825SOL    HW123111   2.800   3.356  10.000  0.2302 -0.2675 -0.7028
 3825SOL    HW223112   2.846   3.461   9.906 -0.3057 -0.2332  1.6329
 3826SOL     OW23113   3.777   3.785   9.030 -0.3367 -0.1520  0.0934
 3826SOL    HW123114   3.851   3.844   9.013  0.0925 -0.8357 -0.4559
 3826SOL    HW223115   3.703   3.825   8.986 -1.7304  1.6257  4.0607
 3827SOL     OW23116   1.117   0.775   9.244  0.5859  0.1852  0.2339
 3827SOL    HW123117   1.043   0.829   9.274 -0.0309  0.6956 -2.2031
 3827SOL    HW223118   1.096   0.787   9.151 -0.0079 -0.4511  0.2814
 3828SOL     OW23119   2.222   1.143   2.540  0.2624 -0.3735  0.0971
 3828SOL    HW123120   2.130   1.120   2.522 -0.4472  3.3702 -1.0558
 3828SOL    HW223121   2.230   1.169   2.631 -2.0896  0.1193  0.1682
 3829SOL     OW23122   4.112   1.181   4.682  0.5451  0.9386 -0.6259
 3829SOL    HW123123   4.069   1.099   4.659 -1.7734  2.3811 -1.4564
 3829SOL    HW223124   4.159   1.161   4.762  0.4586  0.6367 -0.6513
 3830SOL     OW23125   1.982   1.277  15.132 -0.0303  0.9054  0.2401
 3830SOL    HW123126   1.936   1.355  15.162 -2.8208 -0.8763  0.5421
 3830SOL    HW223127   2.073   1.307  15.136  0.6573 -0.9087 -1.3875
 3831SOL     OW23128   1.966   0.987  17.444  0.7172 -0.1563 -0.0394
 3831SOL    HW123129   1.871   0.997  17.451  0.1764 -4.1695 -2.0323
 3831SOL    HW223130   1.992   1.076  17.418  0.1022 -0.2831 -1.0852
 3832SOL     OW23131   2.390   0.626   4.512  0.4586 -0.6376  0.3549
 3832SOL    HW123132   2.466   0.647   4.567  1.9427 -0.2605 -1.8338
 3832SOL    HW223133   2.431   0.549   4.474  0.5699 -0.5640  0.3269
 3833SOL     OW23134   0.606   4.569   3.307  0.5485  0.5772 -0.6849
 3833SOL    HW123135   0.643   4.493   3.351  0.1256  2.0489  2.1962
 3833SOL    HW223136   0.592   4.620   3.386  0.9202  1.8869 -1.4625
 3834SOL     OW23137   2.363   4.126  12.417  0.3696 -0.4062  0.0255
 3834SOL    HW123138   2.385   4.138  12.325 -3.0076  0.6306 -0.6204
 3834SOL    HW223139   2.423   4.192  12.454 -0.4990  0.0589  0.5944
 3835SOL     OW23140   1.923   2.975   9.475 -0.0511 -0.6571 -0.3940
 3835SOL    HW123141   2.009   2.972   9.432  0.0422 -0.0166 -0.2413
 3835SOL    HW223142   1.942   2.946   9.564  4.4902  1.5499 -0.6759
 3836SOL     OW23143   0.178   0.312  15.584  0.1660 -0.1859  0.2407
 3836SOL    HW123144   0.186   0.276  15.672  1.8001  2.2258  1.0787
 3836SOL    HW223145   0.220   0.247  15.528 -0.5214 -0.4669  0.0536
 3837SOL     OW23146   1.875   4.429  14.649 -0.1506  0.1248 -0.0168
 3837SOL    HW123147   1.784   4.402  14.659  0.3437 -2.0633 -1.5581
 3837SOL    HW223148   1.923   4.360  14.695 -1.0630 -1.9906 -2.2513
 3838SOL     OW23149   4.193   4.043   7.255 -0.6113  0.1209 -0.3374
 3838SOL    HW123150   4.192   4.056   7.160 -2.0269  0.1250 -0.3132
 3838SOL    HW223151   4.101   4.023   7.269 -0.0840 -1.4316  0.8686
 3839SOL     OW23152   4.535   3.578   8.305  0.1563  0.7715  0.2501
 3839SOL    HW123153   4.556   3.626   8.225 -0.7113  0.1524 -0.3450
 3839SOL    HW223154   4.623   3.570   8.341  0.3261 -2.7712 -0.9583
 3840SOL     OW23155   1.543   4.525   4.338 -0.1177  0.7760 -0.0751
 3840SOL    HW123156   1.492   4.562   4.266 -1.9414 -1.0125  0.3106
 3840SOL    HW223157   1.629   4.496   4.310 -0.3364  1.1369 -1.1389
 3841SOL     OW23158   1.355   2.210   3.204  0.0695 -0.0744  0.0423
 3841SOL    HW123159   1.364   2.302   3.181  0.5889 -0.1403 -0.0384
 3841SOL    HW223160   1.373   2.164   3.121  1.2051  1.0406 -0.3363
 3842SOL     OW23161   3.308   0.157   8.251  0.4925 -0.5388 -0.3095
 3842SOL    HW123162   3.255   0.077   8.248  0.7176 -0.6989  0.0764
 3842SOL    HW223163   3.399   0.129   8.256 -0.2661 -2.6477  1.4967
 3843SOL     OW23164   4.038   4.539   8.250 -0.7080  0.0081  0.1182
 3843SOL    HW123165   4.026   4.465   8.191  0.1658  0.7805 -1.0202
 3843SOL    HW223166   4.000   4.500   8.329  0.8632 -1.2687  0.2436
 3844SOL     OW23167   1.906   0.745   6.996 -0.0482  0.0085 -0.0562
 3844SOL    HW123168   1.836   0.690   6.961  0.3601  0.8907 -2.3041
 3844SOL    HW223169   1.870   0.832   6.976  1.7404  0.6788 -0.3760
 3845SOL     OW23170   3.250   2.101  11.749 -0.0944 -0.5647 -0.0400
 3845SOL    HW123171   3.197   2.064  11.678 -0.8431 -0.9089  0.7069
 3845SOL    HW223172   3.208   2.186  11.760  0.3129 -0.5413  1.2295
 3846SOL     OW23173   3.321   0.031   6.533 -0.6918 -0.4966  0.1642
 3846SOL    HW123174   3.303   4.675   6.508 -1.2284 -0.8331  1.7899
 3846SOL    HW223175   3.382   0.057   6.464 -1.4646  1.3631  0.1738
 3847SOL     OW23176   2.280   1.118   1.730  0.4602 -0.2228  0.2076
 3847SOL    HW123177   2.260   1.207   1.761 -1.8951 -0.9306  0.7015
 3847SOL    HW223178   2.190   1.102   1.703  0.7164  0.9291 -1.3620
 3848SOL     OW23179   1.247   2.294   5.373 -0.1318  0.4410 -0.1902
 3848SOL    HW123180   1.291   2.233   5.432 -2.2585  1.1341  2.0885
 3848SOL    HW223181   1.234   2.237   5.297 -0.5572 -0.1264  0.3111
 3849SOL     OW23182   3.223   1.732   8.480  0.1937 -0.2176  0.1152
 3849SOL    HW123183   3.312   1.763   8.498  0.5891 -0.7963 -0.8659
 3849SOL    HW223184   3.219   1.752   8.387  2.0442 -2.7661 -0.5083
 3850SOL     OW23185   4.275   3.335  12.234  0.0638  0.8321  0.2793
 3850SOL    HW123186   4.184   3.364  12.224 -0.2673 -0.2355  0.2423
 3850SOL    HW223187   4.295   3.361  12.144 -1.3996  2.2102  0.3480
 3851SOL     OW23188   2.876   3.193   4.947 -0.0294  0.6777 -0.3979
 3851SOL    HW123189   2.944   3.135   4.913  2.0028  1.2136  2.7995
 3851SOL    HW223190   2.822   3.217   4.871 -1.4838 -0.6158  0.2290
 3852SOL     OW23191   0.537   1.984   4.779  0.0127 -0.2272  0.1943
 3852SOL    HW123192   0.609   1.922   4.786 -2.9004 -3.8018 -1.3530
 3852SOL    HW223193   0.501   1.978   4.867 -0.3558 -1.6497 -0.0530
 3853SOL     OW23194   2.502   1.639   9.133 -0.1729  0.6010  0.6570
 3853SOL    HW123195   2.554   1.558   9.132 -0.9324  0.1183  0.1498
 3853SOL    HW223196   2.421   1.615   9.178  0.0850 -1.5257 -0.0206
 3854SOL     OW23197   1.529   3.634   2.244  0.2631 -0.5295 -0.2458
 3854SOL    HW123198   1.594   3.567   2.224  0.6952 -0.3896  0.6992
 3854SOL    HW223199   1.562   3.706   2.190  0.6569 -0.7764 -0.3375
 3855SOL     OW23200   3.833   2.412   3.899  0.5053  0.4042  0.2013
 3855SOL    HW123201   3.781   2.481   3.858 -1.1680 -1.2046 -0.3930
 3855SOL    HW223202   3.761   2.352   3.921  0.4259 -0.2377 -1.7938
 3856SOL     OW23203   4.625   1.290   2.746 -0.0479  0.4503 -0.2042
 3856SOL    HW123204   4.668   1.356   2.799  4.1452  0.6414 -3.8412
 3856SOL    HW223205   4.699   1.269   2.689  0.3084  2.0087 -0.3268
 3857SOL     OW23206   0.159   3.701   5.208  0.1518 -0.7273  0.4318
 3857SOL    HW123207   0.097   3.724   5.278 -0.3297  2.2949 -0.9778
 3857SOL    HW223208   0.130   3.752   5.132  1.7217  0.5519  0.7006
 3858SOL     OW23209   0.830   2.358   2.374 -0.2800  0.2993  0.4716
 3858SOL    HW123210   0.755   2.389   2.424 -0.6328 -0.8129  0.6336
 3858SOL    HW223211   0.820   2.264   2.388 -0.6185 -0.2086 -3.1232
 3859SOL     OW23212   3.031   0.824  16.708  0.2475 -0.1327  1.0435
 3859SOL    HW123213   3.099   0.775  16.662 -0.5810  1.1996 -1.6260
 3859SOL    HW223214   3.081   0.876  16.770  2.0720  1.4512 -1.7811
 3860SOL     OW23215   1.491   4.491   2.197  0.3804 -0.4956  0.4888
 3860SOL    HW123216   1.565   4.438   2.224 -0.5662 -1.8588  0.4189
 3860SOL    HW223217   1.421   4.429   2.175  0.3314  0.7679 -2.9258
 3861SOL     OW23218   2.168   2.338   2.777  0.3945  0.5238 -0.5259
 3861SOL    HW123219   2.253   2.380   2.791  0.6481  0.2743 -1.3394
 3861SOL    HW223220   2.121   2.418   2.754 -0.5362 -0.2153 -1.1641
 3862SOL     OW23221   2.885   2.439   1.478  0.5568 -0.4881  0.0517
 3862SOL    HW123222   2.891   2.458   1.384 -1.5533  0.7619  0.1754
 3862SOL    HW223223   2.850   2.350   1.478 -1.7291  0.4209  1.3246
 3863SOL     OW23224   1.315   0.731   3.382  0.8045  0.6812  0.4968
 3863SOL    HW123225   1.366   0.656   3.352 -0.2541  0.5534 -0.9499
 3863SOL    HW223226   1.362   0.748   3.464 -1.0257 -1.0257  1.8939
 3864SOL     OW23227   3.696   4.252   6.285  0.8137 -0.1684 -0.3863
 3864SOL    HW123228   3.636   4.268   6.212  0.9718  2.9508  0.1495
 3864SOL    HW223229   3.766   4.314   6.264  0.4410  1.5294  3.4590
 3865SOL     OW23230   0.288   2.788   3.908 -1.3007 -0.3556  0.1167
 3865SOL    HW123231   0.329   2.759   3.826  0.6159  0.2409  0.8679
 3865SOL    HW223232   0.299   2.880   3.886  0.0873 -1.2825 -3.0724
 3866SOL     OW23233   3.649   4.186   4.807 -0.6486 -0.0082 -0.4743
 3866SOL    HW123234   3.640   4.091   4.813 -1.8275  0.2914  2.9403
 3866SOL    HW223235   3.701   4.202   4.886 -0.7377 -0.2913 -0.3550
 3867SOL     OW23236   0.705   2.472   8.222  0.2818  0.0839  0.4217
 3867SOL    HW123237   0.778   2.477   8.160 -0.9344  2.0493 -0.8299
 3867SOL    HW223238   0.627   2.485   8.169 -0.3460  1.4411  1.6800
 3868SOL     OW23239   2.004   1.874  10.146 -0.1752 -0.5544 -0.4396
 3868SOL    HW123240   1.910   1.860  10.133 -0.3645  0.7005 -0.4206
 3868SOL    HW223241   2.037   1.825  10.071 -1.3669 -2.4181  0.2480
 3869SOL     OW23242   1.506   2.534   9.672  0.1113 -0.0678  0.0614
 3869SOL    HW123243   1.489   2.511   9.581 -2.5349  1.3239  0.1927
 3869SOL    HW223244   1.419   2.537   9.713 -0.1477 -2.0976 -0.3395
 3870SOL     OW23245   4.515   4.368  13.988  0.1920  0.3742  0.0380
 3870SOL    HW123246   4.558   4.453  13.997  1.8515 -0.3494 -0.9673
 3870SOL    HW223247   4.463   4.364  14.068 -0.3748  1.0327 -0.2959
 3871SOL     OW23248   2.783   2.136   9.179 -0.3902 -0.1723  0.7648
 3871SOL    HW123249   2.853   2.073   9.163 -0.8537 -0.5870  0.3809
 3871SOL    HW223250   2.775   2.136   9.274  0.6671 -2.6891  0.8368
 3872SOL     OW23251   1.933   2.194   9.698 -0.0166 -0.3695  0.3711
 3872SOL    HW123252   2.003   2.129   9.701 -1.1125 -1.5130  1.2577
 3872SOL    HW223253   1.925   2.206   9.793 -0.4501  0.3810  0.2350
 3873SOL     OW23254   4.329   2.938   5.248  0.3117  0.5097 -0.8844
 3873SOL    HW123255   4.388   2.920   5.175 -0.2831 -2.1664 -0.6853
 3873SOL    HW223256   4.270   3.003   5.209  1.4569  2.7589  1.1219
 3874SOL     OW23257   3.063   1.336  17.262 -0.1829  0.3620 -0.4138
 3874SOL    HW123258   2.996   1.403  17.279  2.0699  2.0193  1.8648
 3874SOL    HW223259   3.142   1.379  17.295 -1.0462  0.3604  1.6609
 3875SOL     OW23260   1.175   0.438   3.152  0.3155  0.0881  0.4491
 3875SOL    HW123261   1.215   0.447   3.065  2.0404 -1.4886  1.0740
 3875SOL    HW223262   1.253   0.417   3.204  1.5375  0.2115 -1.3093
 3876SOL     OW23263   2.870   3.412  14.700 -0.3655  0.0439 -0.2438
 3876SOL    HW123264   2.922   3.346  14.654  1.6291  0.6317  1.1617
 3876SOL    HW223265   2.784   3.377  14.678 -0.5951  0.4432  0.0159
 3877SOL     OW23266   3.071   1.927   7.246 -0.0520 -0.1260  0.0626
 3877SOL    HW123267   3.118   1.847   7.222 -1.9279 -0.8996 -1.0369
 3877SOL    HW223268   3.024   1.933   7.163 -1.0914 -0.7469  0.6126
 3878SOL     OW23269   2.998   2.380   4.526  0.1946 -0.1211  0.6208
 3878SOL    HW123270   2.961   2.426   4.451  0.8367 -2.8487 -1.3661
 3878SOL    HW223271   2.920   2.361   4.579 -0.3337 -2.6756 -1.0963
 3879SOL     OW23272   0.488   1.745   3.551  0.5122  0.2115  0.5150
 3879SOL    HW123273   0.481   1.841   3.548 -0.5478  0.0725 -1.5398
 3879SOL    HW223274   0.576   1.727   3.584  0.3020  0.7943  1.4050
 3880SOL     OW23275   0.657   1.766   4.387 -0.4704  0.3959  0.0983
 3880SOL    HW123276   0.652   1.819   4.307 -1.4525 -1.6577 -1.1831
 3880SOL    HW223277   0.746   1.787   4.415 -0.2807  1.3419 -1.1863
 3881SOL     OW23278   2.133   3.201   9.532 -0.0124 -0.6423  0.0204
 3881SOL    HW123279   2.192   3.138   9.491  2.1512  0.8736  0.7828
 3881SOL    HW223280   2.082   3.219   9.453 -0.9530 -1.8695  0.3524
 3882SOL     OW23281   3.377   1.243   2.759  0.5388  0.6532  0.0460
 3882SOL    HW123282   3.433   1.243   2.681  0.2913 -0.2049 -0.1357
 3882SOL    HW223283   3.354   1.150   2.761  1.4063  0.4593  1.1800
 3883SOL     OW23284   2.348   1.206   5.172 -0.4388  0.1269 -0.5261
 3883SOL    HW123285   2.424   1.239   5.125 -0.8673  1.1606 -0.4997
 3883SOL    HW223286   2.319   1.284   5.221 -0.6705  0.4962 -1.2544
 3884SOL     OW23287   1.991   1.649   8.388  0.0968 -0.1713 -0.6389
 3884SOL    HW123288   1.955   1.719   8.334 -0.7779 -1.3085 -1.5237
 3884SOL    HW223289   2.065   1.694   8.429 -0.2402  0.2268 -0.4738
 3885SOL     OW23290   0.461   1.187   8.813 -0.4903  0.2425 -0.6121
 3885SOL    HW123291   0.439   1.107   8.765 -0.1430 -0.4730  0.4061
 3885SOL    HW223292   0.405   1.248   8.765 -0.3650  0.6676 -0.2118
 3886SOL     OW23293   0.988   0.653   3.583  0.1458  0.2504  0.6509
 3886SOL    HW123294   0.942   0.615   3.508  2.5865 -0.9595 -0.2179
 3886SOL    HW223295   1.045   0.708   3.529  0.2645 -0.7860 -0.2736
 3887SOL     OW23296   3.345   2.279  17.597  0.4387  0.1939  0.5510
 3887SOL    HW123297   3.429   2.316  17.621 -0.0396  2.0511 -0.6601
 3887SOL    HW223298   3.280   2.326  17.650  2.1495  2.2990  0.7730
 3888SOL     OW23299   0.954   3.206   1.716 -0.0706 -0.1253  0.1720
 3888SOL    HW123300   0.980   3.297   1.722 -0.8768 -0.1561  4.0902
 3888SOL    HW223301   1.017   3.160   1.772 -0.6673 -1.0369  0.0921
 3889SOL     OW23302   1.976   0.591  15.200 -0.0850 -0.5888 -0.1800
 3889SOL    HW123303   2.044   0.537  15.240  0.5669 -0.6924 -1.4253
 3889SOL    HW223304   1.960   0.662  15.262  2.7187  1.2770 -1.5884
 3890SOL     OW23305   4.144   3.712   8.307 -0.4781 -0.2545  0.4413
 3890SOL    HW123306   4.217   3.772   8.324 -0.2749 -0.6032  0.8018
 3890SOL    HW223307   4.103   3.754   8.231  0.5110 -0.7338 -0.3697
 3891SOL     OW23308   4.613   4.093  14.725  0.3205  0.1473 -0.1954
 3891SOL    HW123309   4.690   4.093  14.667  0.1365 -0.2599 -0.4375
 3891SOL    HW223310   4.538   4.080  14.667  1.8692  0.1461 -2.2224
 3892SOL     OW23311   4.201   3.699   1.812  0.8469  0.0659 -0.4237
 3892SOL    HW123312   4.291   3.694   1.778 -0.0560 -0.9862 -2.6401
 3892SOL    HW223313   4.213   3.765   1.880 -1.3699 -0.3040  0.3131
 3893SOL     OW23314   2.591   2.103   6.428  0.0020  0.0285 -0.5117
 3893SOL    HW123315   2.641   2.031   6.390 -0.6967 -0.6111 -0.2357
 3893SOL    HW223316   2.582   2.165   6.355  2.2409  0.0728 -0.7370
 3894SOL     OW23317   1.555   1.971   3.610 -0.2059 -0.0025  0.0607
 3894SOL    HW123318   1.620   1.995   3.676 -1.0224 -0.0475  0.8930
 3894SOL    HW223319   1.592   2.008   3.530 -1.7264  2.8865  0.6665
 3895SOL     OW23320   1.703   0.547   7.975 -0.1841 -0.3849  0.1631
 3895SOL    HW123321   1.693   0.641   7.962 -3.0955 -0.6034  0.8832
 3895SOL    HW223322   1.763   0.519   7.906 -0.2857 -0.4158  0.0883
 3896SOL     OW23323   3.631   0.686   2.179  0.0368  0.6400 -0.3641
 3896SOL    HW123324   3.677   0.755   2.132 -0.0341 -0.9450 -2.7429
 3896SOL    HW223325   3.689   0.610   2.171  0.2849  0.5378  2.2427
 3897SOL     OW23326   0.870   4.119   4.334  0.4650  1.0163  0.2115
 3897SOL    HW123327   0.827   4.200   4.359  1.0337  1.6171 -0.7444
 3897SOL    HW223328   0.819   4.098   4.255  1.2152  0.8196 -0.2211
 3898SOL     OW23329   1.269   3.072  14.025 -0.0030 -0.5645 -0.3188
 3898SOL    HW123330   1.359   3.049  14.049 -1.1004 -1.1136  3.3155
 3898SOL    HW223331   1.272   3.049  13.932 -0.3358  1.5299 -0.8477
 3899SOL     OW23332   0.731   2.761  16.696  0.3803  0.0496 -0.7303
 3899SOL    HW123333   0.817   2.787  16.662  0.9291  0.5435  1.0156
 3899SOL    HW223334   0.741   2.774  16.791  1.5565  1.8956 -1.1005
 3900SOL     OW23335   3.540   3.306   1.619  0.2044  0.1625 -0.4786
 3900SOL    HW123336   3.456   3.276   1.585 -0.3289 -0.0650  1.0476
 3900SOL    HW223337   3.526   3.400   1.631  0.2823  0.4215 -2.4638
 3901SOL     OW23338   4.366   3.833   8.374 -0.2957  0.5452 -0.0711
 3901SOL    HW123339   4.429   3.762   8.382 -0.6408  0.2035 -0.4045
 3901SOL    HW223340   4.418   3.906   8.340  1.0930 -0.6871 -0.5880
 3902SOL     OW23341   4.212   0.978  16.382 -0.3212  0.1740 -0.5323
 3902SOL    HW123342   4.239   0.918  16.451  2.1266  2.7340  0.7000
 3902SOL    HW223343   4.245   1.067  16.394  0.0897  0.1588 -1.5318
 3903SOL     OW23344   2.251   2.479   6.723  0.8564  0.0199  0.1544
 3903SOL    HW123345   2.289   2.466   6.636  0.9578  0.2669  0.1614
 3903SOL    HW223346   2.202   2.558   6.699  1.1554 -0.7842 -3.0897
 3904SOL     OW23347   4.714   2.452   5.990  0.0383 -0.2094  0.2781
 3904SOL    HW123348   4.704   2.382   6.054  1.0015  0.8528  1.6093
 3904SOL    HW223349   4.664   2.416   5.917  0.7223  2.8439 -1.7048
 3905SOL     OW23350   3.984   1.871   8.111 -0.4230 -0.5235  0.2038
 3905SOL    HW123351   4.051   1.936   8.091  0.5186 -0.4806  3.4531
 3905SOL    HW223352   4.042   1.795   8.119  0.1062 -0.2018 -0.6473
 3906SOL     OW23353   4.195   3.268  16.461 -0.2548  0.3372 -0.6665
 3906SOL    HW123354   4.142   3.284  16.383 -1.5877 -1.4921 -0.1242
 3906SOL    HW223355   4.199   3.174  16.475  1.3389  0.7558  1.7189
 3907SOL     OW23356   4.218   4.428  13.052 -0.2199  0.1293 -0.2299
 3907SOL    HW123357   4.268   4.507  13.071 -1.1570  1.0301 -1.5670
 3907SOL    HW223358   4.282   4.398  12.987  0.3228 -0.5653  0.6181
 3908SOL     OW23359   1.065   2.189   7.700 -0.0728 -0.8210  0.0336
 3908SOL    HW123360   1.129   2.193   7.771  0.3522 -0.5862 -0.3685
 3908SOL    HW223361   1.068   2.093   7.697  1.3904 -0.6652 -3.4826
 3909SOL     OW23362   2.899   1.092   8.834  0.4221 -0.0726  0.3560
 3909SOL    HW123363   2.955   1.164   8.863 -0.6255  0.7844  0.2407
 3909SOL    HW223364   2.820   1.127   8.875 -0.0430 -0.6028 -0.1043
 3910SOL     OW23365   0.472   1.543   4.316  0.2270  0.3315 -0.1764
 3910SOL    HW123366   0.543   1.581   4.368  0.2761 -0.5668  0.4004
 3910SOL    HW223367   0.451   1.616   4.258 -0.9057 -0.9521 -1.3770
 3911SOL     OW23368   1.090   2.682   9.082 -0.6239  1.0590 -0.0391
 3911SOL    HW123369   1.143   2.758   9.060  0.8679  0.4412  1.4374
 3911SOL    HW223370   1.094   2.643   8.995 -0.1803 -0.5702  0.7083
 3912SOL     OW23371   4.371   3.461  14.602 -0.3547 -0.2213 -0.7819
 3912SOL    HW123372   4.281   3.473  14.573 -0.8246  2.0965  1.6471
 3912SOL    HW223373   4.382   3.527  14.670  1.3490 -0.9964 -0.2972
 3913SOL     OW23374   4.395   1.256   2.388  0.0895 -0.0796 -0.4344
 3913SOL    HW123375   4.490   1.265   2.390 -0.1130  1.8179  0.7080
 3913SOL    HW223376   4.370   1.324   2.325  2.8817 -1.0241 -2.5437
 3914SOL     OW23377   0.025   0.710  12.211 -0.5788  0.0141 -0.0338
 3914SOL    HW123378   0.092   0.757  12.160 -1.0135 -0.1676 -0.7597
 3914SOL    HW223379   0.066   0.626  12.193 -2.2025 -0.7882  0.0797
 3915SOL     OW23380   4.339   4.650   6.876  0.0378 -0.3190  0.6830
 3915SOL    HW123381   4.397   4.679   6.947 -0.0917 -2.3921  1.6319
 3915SOL    HW223382   4.288   4.585   6.924 -0.4602  1.2691  2.3080
 3916SOL     OW23383   1.258   2.072   9.423  0.6826 -0.0423 -0.2220
 3916SOL    HW123384   1.244   2.081   9.329  2.2904  0.0428 -0.4614
 3916SOL    HW223385   1.259   1.977   9.436 -0.9387 -0.5215 -3.7048
 3917SOL     OW23386   3.199   0.671   8.101 -0.7070 -0.0910 -0.0634
 3917SOL    HW123387   3.153   0.593   8.133  0.6938 -1.2140 -0.7492
 3917SOL    HW223388   3.149   0.737   8.148  2.1375  1.7555  0.3458
 3918SOL     OW23389   1.100   1.485   4.497 -0.6855 -0.2221 -0.3734
 3918SOL    HW123390   1.016   1.455   4.532  0.3801  1.2164  3.2961
 3918SOL    HW223391   1.134   1.508   4.583 -0.4918 -0.7442 -0.3087
 3919SOL     OW23392   2.338   3.763  11.976  0.1645 -0.1247 -0.4599
 3919SOL    HW123393   2.399   3.810  11.919  1.5443  1.0177  1.9792
 3919SOL    HW223394   2.265   3.825  11.979 -0.5404 -1.0063  0.7575
 3920SOL     OW23395   1.242   3.644  11.039  0.2909  0.4076  0.2383
 3920SOL    HW123396   1.322   3.692  11.019  1.7441 -0.6260  3.6503
 3920SOL    HW223397   1.181   3.694  10.984  0.6071  1.5276  0.9143
 3921SOL     OW23398   4.709   1.397  16.651  0.5149  0.0045 -0.1219
 3921SOL    HW123399   4.704   1.483  16.609  0.8306  0.4468  0.7466
 3921SOL    HW223400   4.718   1.341  16.573 -1.0908  0.2662 -0.5021
 3922SOL     OW23401   2.957   3.487   4.984 -0.0185  0.4008 -0.5508
 3922SOL    HW123402   2.901   3.532   4.920  0.7747  2.4523  0.2102
 3922SOL    HW223403   2.923   3.398   4.972 -3.9193  1.6726  1.1454
 3923SOL     OW23404   3.924   2.449   2.899 -0.0605 -0.3967 -0.1004
 3923SOL    HW123405   3.916   2.354   2.889  0.2855 -0.3240 -1.1000
 3923SOL    HW223406   3.980   2.448   2.977  1.5674  0.2551 -1.2500
 3924SOL     OW23407   2.883   2.049   3.852 -0.3693 -0.0706 -0.0479
 3924SOL    HW123408   2.801   2.097   3.843 -0.1234  0.3673  0.0779
 3924SOL    HW223409   2.918   2.044   3.763 -1.0161 -2.0263 -0.2053
 3925SOL     OW23410   1.688   3.969   5.126 -0.3696 -0.0157  0.2660
 3925SOL    HW123411   1.706   3.894   5.182 -0.3207  0.1167  0.4295
 3925SOL    HW223412   1.757   4.027   5.160 -0.8309  1.2801 -1.0096
 3926SOL     OW23413   2.726   3.219   8.481 -0.6118 -0.0950 -0.0988
 3926SOL    HW123414   2.772   3.198   8.562  1.3447 -1.2318 -1.5285
 3926SOL    HW223415   2.749   3.143   8.429  1.8693 -0.5846  1.7199
 3927SOL     OW23416   2.681   2.367  11.561 -0.2439 -0.0031  0.3243
 3927SOL    HW123417   2.719   2.378  11.474  2.6828 -0.9001  1.5116
 3927SOL    HW223418   2.717   2.438  11.614 -1.0930  0.2256  0.6016
 3928SOL     OW23419   3.747   2.527   6.486 -0.3654  0.1648  0.1037
 3928SOL    HW123420   3.788   2.460   6.541 -3.0640 -1.5885 -0.0479
 3928SOL    HW223421   3.742   2.474   6.407 -1.2634 -0.1606  0.3808
 3929SOL     OW23422   2.939   3.805   1.763 -0.4350 -0.4187  0.1808
 3929SOL    HW123423   2.860   3.850   1.732  1.1049  0.9566 -1.7082
 3929SOL    HW223424   2.919   3.792   1.856  0.1742  1.3606  0.5728
 3930SOL     OW23425   3.766   1.635  17.391  0.2525 -0.2065  0.2985
 3930SOL    HW123426   3.809   1.586  17.461 -1.1533  0.9964  1.9638
 3930SOL    HW223427   3.780   1.729  17.399  0.4394 -0.3132  1.2267
 3931SOL     OW23428   4.695   3.355   9.614  1.0585 -0.0247 -0.2044
 3931SOL    HW123429   0.018   3.398   9.551 -0.0658 -0.9614 -1.8758
 3931SOL    HW223430   4.688   3.425   9.679  1.7807 -2.3724  2.3902
 3932SOL     OW23431   0.909   3.833   8.124  0.3995  0.3389 -0.1254
 3932SOL    HW123432   0.876   3.775   8.193  0.0451 -0.2575 -0.7940
 3932SOL    HW223433   1.003   3.826   8.141  0.5692 -0.9771 -1.6344
 3933SOL     OW23434   3.143   2.070   4.959  0.6625 -0.4703  0.2495
 3933SOL    HW123435   3.158   2.164   4.966 -1.8843  0.0028 -0.6823
 3933SOL    HW223436   3.163   2.044   5.049  0.2090  0.0085  0.4853
 3934SOL     OW23437   2.496   3.358   8.866 -0.4199 -0.1667 -0.1278
 3934SOL    HW123438   2.401   3.351   8.859 -0.7869  1.8513  3.1740
 3934SOL    HW223439   2.532   3.351   8.777  0.2393 -0.3232  0.1563
 3935SOL     OW23440   4.033   0.808  10.964  0.2169 -0.1107  0.4179
 3935SOL    HW123441   4.091   0.831  10.891 -0.7988  0.1805 -0.2982
 3935SOL    HW223442   4.054   0.717  10.982 -1.1491 -0.4560  0.3064
 3936SOL     OW23443   3.636   1.896   3.681  0.1879 -0.2423 -0.2498
 3936SOL    HW123444   3.629   1.883   3.586 -0.3895  1.2986 -0.4074
 3936SOL    HW223445   3.544   1.884   3.704  0.0061 -0.5668 -1.1507
 3937SOL     OW23446   3.877   3.656   4.709  0.2350  0.6994  0.4058
 3937SOL    HW123447   3.834   3.631   4.627  2.3583 -2.5481  0.2708
 3937SOL    HW223448   3.860   3.750   4.713 -0.1688  0.6640 -0.4604
 3938SOL     OW23449   2.517   0.472   2.992 -0.4024 -0.6984  0.2897
 3938SOL    HW123450   2.545   0.485   2.902 -1.2040  3.9988  0.7534
 3938SOL    HW223451   2.464   0.393   2.980 -2.5029  0.4491  2.0498
 3939SOL     OW23452   3.156   3.906   4.737  0.7178 -0.4268 -0.4470
 3939SOL    HW123453   3.111   3.901   4.653 -0.2576 -0.7019  0.0864
 3939SOL    HW223454   3.200   3.821   4.743  0.0748 -0.7791 -0.6651
 3940SOL     OW23455   2.294   3.081  17.055  0.0428  0.4228 -0.4919
 3940SOL    HW123456   2.268   3.005  17.107  1.6545 -1.0608 -1.8315
 3940SOL    HW223457   2.367   3.047  17.004  0.2004  1.0633 -0.6880
 3941SOL     OW23458   3.887   3.493   5.445 -0.0181  0.3172  0.2853
 3941SOL    HW123459   3.837   3.469   5.367 -0.0767  0.4584  0.2797
 3941SOL    HW223460   3.844   3.577   5.464 -0.9070  0.0319 -0.4523
 3942SOL     OW23461   4.136   0.560   5.463  0.2242 -0.1909  0.3114
 3942SOL    HW123462   4.191   0.618   5.515  0.4818 -2.7936  2.9512
 3942SOL    HW223463   4.163   0.576   5.372 -0.6137 -1.8167 -0.2228
 3943SOL     OW23464   2.007   0.743   7.570  0.2228  0.0174 -0.1720
 3943SOL    HW123465   1.978   0.706   7.487  0.8988  0.8801 -0.7894
 3943SOL    HW223466   2.034   0.831   7.544  1.4080 -0.9170 -2.0942
 3944SOL     OW23467   0.124   0.999   3.163  0.3826 -0.3050  0.6362
 3944SOL    HW123468   0.154   0.972   3.077  0.6823  1.1320  0.2786
 3944SOL    HW223469   0.038   0.979   3.127 -1.2374  0.8802  3.8283
 3945SOL     OW23470   1.039   4.301  14.598 -0.3017 -0.1584 -0.2866
 3945SOL    HW123471   1.089   4.255  14.529 -0.9384  0.1909 -0.9799
 3945SOL    HW223472   1.102   4.339  14.660 -1.2365  2.6313 -1.0527
 3946SOL     OW23473   2.112   0.701   1.776 -0.0807  0.0550 -0.0729
 3946SOL    HW123474   2.022   0.722   1.751  0.1708 -0.3125 -1.2970
 3946SOL    HW223475   2.124   0.628   1.715 -2.0086 -0.2467 -0.0796
 3947SOL     OW23476   2.990   0.471   8.095  0.6605 -0.1714 -0.6389
 3947SOL    HW123477   3.048   0.459   8.170  1.3505  1.4156 -0.9176
 3947SOL    HW223478   2.932   0.395   8.100 -0.4471  0.4860 -3.4187
 3948SOL     OW23479   0.318   0.962   1.749  0.0935 -0.4713  0.4432
 3948SOL    HW123480   0.349   1.038   1.700 -0.7495 -1.2750 -1.3401
 3948SOL    HW223481   0.391   0.902   1.733  0.3940  0.2603 -0.9674
 3949SOL     OW23482   2.979   1.673   2.305 -0.1618  0.4652 -0.0648
 3949SOL    HW123483   2.887   1.684   2.327 -0.0890  0.6595  0.1458
 3949SOL    HW223484   3.016   1.759   2.326 -1.0267  0.5512  1.1138
 3950SOL     OW23485   0.702   3.237  11.148  0.0036 -0.3220 -0.3541
 3950SOL    HW123486   0.712   3.262  11.056  0.4903 -0.8123 -0.4382
 3950SOL    HW223487   0.622   3.282  11.174 -0.0455 -0.0049 -1.0578
 3951SOL     OW23488   1.783   2.181  15.333 -0.3317  0.5722 -0.1343
 3951SOL    HW123489   1.758   2.218  15.418  0.5262 -0.9252  0.7556
 3951SOL    HW223490   1.776   2.260  15.278 -2.1035  0.0924 -0.5973
 3952SOL     OW23491   1.757   0.750   8.412  0.1177 -0.2303 -0.3967
 3952SOL    HW123492   1.842   0.715   8.385  1.5156  2.2320  0.8533
 3952SOL    HW223493   1.787   0.823   8.466  0.2028  0.1839 -1.0057
 3953SOL     OW23494   2.959   3.375   2.334  0.0381 -0.1393  0.3275
 3953SOL    HW123495   2.926   3.303   2.389  0.1189 -0.7307 -0.4030
 3953SOL    HW223496   2.947   3.447   2.397  1.2731 -0.6731  1.1603
 3954SOL     OW23497   4.678   4.380   6.277  0.9478 -0.6730  0.1241
 3954SOL    HW123498   4.628   4.380   6.195  0.7642 -0.3269  0.2362
 3954SOL    HW223499   0.029   4.413   6.249  0.8894  0.0998  0.8437
 3955SOL     OW23500   3.449   2.604  11.071 -0.0286  0.2139  0.0411
 3955SOL    HW123501   3.541   2.615  11.047 -0.3072  1.7629 -0.3157
 3955SOL    HW223502   3.399   2.613  10.990  1.5960  1.7661 -0.7858
 3956SOL     OW23503   3.363   3.618  12.656  0.1706  0.6173 -0.4079
 3956SOL    HW123504   3.399   3.695  12.701  1.6619 -0.1214 -0.3283
 3956SOL    HW223505   3.328   3.643  12.571  2.2136 -1.4818 -1.8686
 3957SOL     OW23506   4.312   4.611  16.682 -0.5168 -0.0420 -0.1099
 3957SOL    HW123507   4.234   4.572  16.644 -1.9821 -0.1479  3.0159
 3957SOL    HW223508   4.381   4.600  16.616 -1.0967  0.0112 -0.7181
 3958SOL     OW23509   1.457   3.354   1.462  0.2407 -0.2620 -0.5766
 3958SOL    HW123510   1.372   3.321   1.433 -1.0634  0.5935  2.2281
 3958SOL    HW223511   1.436   3.346   1.555 -0.6400  1.5337 -0.6261
 3959SOL     OW23512   2.825   1.550   1.618  0.0716 -0.0357  0.4016
 3959SOL    HW123513   2.780   1.591   1.692  1.6932 -1.0640  1.9470
 3959SOL    HW223514   2.814   1.619   1.553 -1.5903 -2.5386 -1.9542
 3960SOL     OW23515   0.388   2.207  16.435  0.1276 -0.4106  0.2629
 3960SOL    HW123516   0.311   2.226  16.382  0.2957  0.3602  0.2930
 3960SOL    HW223517   0.440   2.159  16.371 -0.0303 -0.3457  0.0867
 3961SOL     OW23518   0.258   3.919   8.772 -0.2619 -0.0683  0.2358
 3961SOL    HW123519   0.232   3.827   8.773 -0.2669 -0.0497  1.8541
 3961SOL    HW223520   0.322   3.924   8.844  0.7296  1.7012 -0.7896
 3962SOL     OW23521   0.568   2.909  10.578 -0.4680  0.5538  0.0689
 3962SOL    HW123522   0.505   2.933  10.510  0.5124 -2.0840 -1.7460
 3962SOL    HW223523   0.617   2.991  10.589  0.0679  0.5511 -2.3309
 3963SOL     OW23524   3.953   0.368  13.564  0.0546 -0.0923 -0.0155
 3963SOL    HW123525   4.016   0.361  13.492  1.4513 -2.5737  1.4320
 3963SOL    HW223526   4.010   0.392  13.636  1.4791  0.7290 -1.4073
 3964SOL     OW23527   0.139   1.927  15.861  0.1746 -0.2745  0.1960
 3964SOL    HW123528   0.130   2.021  15.844  0.2197 -0.3654 -0.3237
 3964SOL    HW223529   0.085   1.916  15.939  0.7609 -3.6659  0.1393
 3965SOL     OW23530   0.651   4.053   1.967  0.4545 -0.1261  0.0705
 3965SOL    HW123531   0.636   3.964   2.000  2.8365 -0.7772 -0.5775
 3965SOL    HW223532   0.584   4.099   2.017  0.0883 -1.2088  0.5873
 3966SOL     OW23533   2.430   3.241  12.866 -0.2052  0.1867  0.1258
 3966SOL    HW123534   2.393   3.301  12.931 -0.4945  0.0320  0.1044
 3966SOL    HW223535   2.515   3.281  12.847 -0.7609  1.3382  0.0893
 3967SOL     OW23536   1.445   2.235   9.987 -0.3014 -0.0631 -0.0683
 3967SOL    HW123537   1.495   2.157  10.011  0.5246  0.9081  1.3838
 3967SOL    HW223538   1.458   2.238   9.892 -2.2251 -0.4002 -0.3270
 3968SOL     OW23539   0.674   0.893   5.513  0.1188 -0.0983  0.3724
 3968SOL    HW123540   0.759   0.888   5.469 -0.4678  3.0071 -1.0585
 3968SOL    HW223541   0.687   0.826   5.580  0.8107 -0.9617 -0.6325
 3969SOL     OW23542   4.102   1.645   1.013 -0.4114 -0.2636  0.2042
 3969SOL    HW123543   4.066   1.603   0.935 -1.1049 -1.1528  0.9992
 3969SOL    HW223544   4.182   1.595   1.031 -0.9315 -1.4477 -0.7885
 3970SOL     OW23545   4.027   2.307   2.204 -0.0411 -0.1705  0.3213
 3970SOL    HW123546   4.104   2.364   2.207  0.6180 -1.0704  0.5845
 3970SOL    HW223547   3.958   2.373   2.212  1.2752  1.0684  1.4152
 3971SOL     OW23548   3.792   0.783   5.025 -0.0481 -0.0741 -0.0331
 3971SOL    HW123549   3.830   0.704   4.985  2.2715 -0.2316  2.4565
 3971SOL    HW223550   3.762   0.742   5.106  0.4748  1.2336  0.8144
 3972SOL     OW23551   3.810   0.311   6.099 -0.9679 -0.2453 -0.0859
 3972SOL    HW123552   3.827   0.327   6.192  0.5593  0.8403 -0.5552
 3972SOL    HW223553   3.891   0.271   6.070  0.1810  0.4691  2.1347
 3973SOL     OW23554   1.697   4.058   5.712 -0.1850  0.0648  0.3827
 3973SOL    HW123555   1.733   4.111   5.641 -0.8892 -0.6716 -0.5254
 3973SOL    HW223556   1.766   4.057   5.778 -1.3398  3.3677  1.6852
 3974SOL     OW23557   3.727   1.933   6.264 -0.3220 -0.3306 -0.2247
 3974SOL    HW123558   3.823   1.928   6.263 -0.3701 -0.9624 -1.0732
 3974SOL    HW223559   3.709   1.842   6.240  0.5795 -0.6282  0.2225
 3975SOL     OW23560   3.034   3.982   9.611 -0.1850  0.0021  0.1036
 3975SOL    HW123561   2.988   3.994   9.694 -0.7047  1.3209 -0.3572
 3975SOL    HW223562   2.956   3.963   9.558  0.3576  2.8819 -1.7297
 3976SOL     OW23563   0.812   0.521   6.277  0.3329  0.2643  0.0880
 3976SOL    HW123564   0.747   0.486   6.216 -0.2528  1.7219 -0.1062
 3976SOL    HW223565   0.757   0.579   6.329  0.4344 -1.0821  1.7274
 3977SOL     OW23566   0.861   2.750   1.149 -0.8494 -0.8911 -0.5313
 3977SOL    HW123567   0.796   2.801   1.198 -0.7674 -0.1622 -1.1812
 3977SOL    HW223568   0.838   2.774   1.060  0.4243 -0.7222 -0.8119
 3978SOL     OW23569   3.381   3.332   2.133 -0.0645 -0.4050 -0.8251
 3978SOL    HW123570   3.341   3.258   2.086  2.9382 -1.6844 -1.3251
 3978SOL    HW223571   3.446   3.353   2.067  0.6710 -1.3995 -0.4178
 3979SOL     OW23572   3.208   1.507  15.325 -0.3400 -0.2410  0.0733
 3979SOL    HW123573   3.148   1.474  15.258 -0.6421  1.9891 -0.7613
 3979SOL    HW223574   3.168   1.480  15.408  0.1842  1.9697  1.0504
 3980SOL     OW23575   0.430   4.715   7.322  0.3960 -0.2278  0.4144
 3980SOL    HW123576   0.468   0.066   7.342 -1.8328  1.0621 -0.8356
 3980SOL    HW223577   0.505   4.658   7.305  0.7071  0.4193 -0.3572
 3981SOL     OW23578   4.139   1.383   7.912  0.2359  0.7124 -0.2556
 3981SOL    HW123579   4.183   1.368   7.995 -0.5431  0.5137  0.1192
 3981SOL    HW223580   4.184   1.337   7.841 -1.7488 -1.2926 -0.2068
 3982SOL     OW23581   2.488   0.724   7.257  0.1718  0.5738  0.1163
 3982SOL    HW123582   2.404   0.756   7.291  1.0306  0.3165  2.5266
 3982SOL    HW223583   2.548   0.726   7.331  0.2147  1.0419  0.0685
 3983SOL     OW23584   2.578   1.877   9.224  0.3388  0.7021  0.1457
 3983SOL    HW123585   2.548   1.791   9.197  4.4780 -0.3377 -1.1144
 3983SOL    HW223586   2.672   1.858   9.233  0.5655  1.2109 -1.0660
 3984SOL     OW23587   3.569   2.150   4.502 -0.6408  0.0419  0.0159
 3984SOL    HW123588   3.654   2.162   4.460 -1.3063  0.7520 -1.1667
 3984SOL    HW223589   3.550   2.059   4.479 -2.7446  0.3873  0.3191
 3985SOL     OW23590   1.972   2.850   2.732 -0.2032  0.1719  0.1870
 3985SOL    HW123591   2.010   2.868   2.818  1.3660  0.6624 -0.5877
 3985SOL    HW223592   2.040   2.883   2.672 -0.1453  0.6731  0.5310
 3986SOL     OW23593   1.730   1.781   1.560 -0.3952 -0.2109 -0.1936
 3986SOL    HW123594   1.775   1.723   1.498 -2.3466 -2.0125  0.0723
 3986SOL    HW223595   1.670   1.815   1.494 -0.8111  3.3210  2.0474
 3987SOL     OW23596   0.746   0.813   3.674 -0.9901  0.7200 -0.2669
 3987SOL    HW123597   0.834   0.804   3.636 -0.7365 -0.1907  0.5237
 3987SOL    HW223598   0.772   0.780   3.760 -1.5705  1.2347  0.0990
 3988SOL     OW23599   2.355   3.640   4.270 -0.4766 -0.4056 -0.8973
 3988SOL    HW123600   2.446   3.631   4.296 -0.9158 -4.1145 -0.5886
 3988SOL    HW223601   2.315   3.602   4.348 -0.5810  2.6650  0.5222
 3989SOL     OW23602   4.014   3.256  11.542 -0.0964 -0.2565  0.2366
 3989SOL    HW123603   4.060   3.206  11.474 -1.0200 -3.4312  1.9604
 3989SOL    HW223604   3.941   3.294  11.494  0.9494  1.2869 -0.1632
 3990SOL     OW23605   0.964   4.230  15.966 -0.1228 -0.0497 -0.3261
 3990SOL    HW123606   0.870   4.227  15.984  0.0206  0.5344  0.5416
 3990SOL    HW223607   1.001   4.283  16.037  0.1331 -0.2891 -0.2783
 3991SOL     OW23608   1.316   2.156   4.207 -0.2244  0.2525 -0.2243
 3991SOL    HW123609   1.349   2.120   4.125  0.6231 -0.7981  0.5831
 3991SOL    HW223610   1.355   2.092   4.267 -0.5198 -0.3371 -0.6528
 3992SOL     OW23611   1.808   3.491   6.777  0.2578  0.0962 -0.1207
 3992SOL    HW123612   1.852   3.527   6.855 -0.8108 -0.7220  0.8600
 3992SOL    HW223613   1.882   3.492   6.716  1.1365 -0.3561  0.9377
 3993SOL     OW23614   0.329   2.143  10.912 -0.0624  0.2012  0.6828
 3993SOL    HW123615   0.367   2.142  11.000  2.5348  2.4220 -0.4033
 3993SOL    HW223616   0.345   2.235  10.889  2.5941 -0.6424 -0.7932
 3994SOL     OW23617   0.001   3.567   8.493 -0.6809  0.1400 -0.0305
 3994SOL    HW123618   0.074   3.516   8.458 -1.4207 -1.9510  1.4173
 3994SOL    HW223619   0.044   3.619   8.561 -1.7361 -1.4149  1.8305
 3995SOL     OW23620   1.841   4.520   0.776 -0.7755 -0.3990 -0.8624
 3995SOL    HW123621   1.807   4.537   0.864 -1.5572 -0.9808 -1.0593
 3995SOL    HW223622   1.786   4.584   0.731  0.4480  0.2405 -1.4356
 3996SOL     OW23623   0.160   0.376   2.880  0.0108 -0.0726 -0.4119
 3996SOL    HW123624   0.117   0.451   2.840 -0.5851 -0.1305  0.1156
 3996SOL    HW223625   0.101   0.307   2.847  0.1794 -1.1459  1.5393
 3997SOL     OW23626   3.069   4.340   4.783 -0.1205 -0.4642  0.0799
 3997SOL    HW123627   2.985   4.294   4.773  0.3624 -1.6241  1.3584
 3997SOL    HW223628   3.133   4.282   4.742 -0.0721 -0.4407  0.1218
 3998SOL     OW23629   3.804   2.607  16.301  0.2743  0.4485 -0.0702
 3998SOL    HW123630   3.854   2.687  16.288  0.0141  0.8306  1.3322
 3998SOL    HW223631   3.789   2.611  16.395  0.3636 -2.9589  0.1208
 3999SOL     OW23632   4.530   2.320   0.939  0.6816 -0.1847 -0.3631
 3999SOL    HW123633   4.454   2.263   0.949 -0.7053  1.0582 -3.5911
 3999SOL    HW223634   4.504   2.380   1.009  1.2013 -0.6034  0.1867
 4000SOL     OW23635   4.173   0.466   7.240 -0.4651  0.3589 -0.2554
 4000SOL    HW123636   4.187   0.476   7.334 -1.3826 -0.0974 -0.0609
 4000SOL    HW223637   4.095   0.410   7.249  0.1229 -0.4691 -0.2847
 4001SOL     OW23638   0.392   3.696   1.023 -0.4135 -0.2217  0.0400
 4001SOL    HW123639   0.389   3.630   1.092  0.1608  0.6148  0.8575
 4001SOL    HW223640   0.323   3.763   1.029 -0.6165 -0.4188 -0.1002
 4002SOL     OW23641   4.652   1.065   9.565  0.3168 -0.0193  0.0428
 4002SOL    HW123642   4.686   1.098   9.648 -1.1303  1.7081 -0.0748
 4002SOL    HW223643   4.634   0.971   9.573  0.4479 -0.0041  0.5419
 4003SOL     OW23644   2.365   4.523   6.331 -0.1357  0.1617 -0.3336
 4003SOL    HW123645   2.449   4.489   6.363 -1.2188 -0.6232  1.6580
 4003SOL    HW223646   2.359   4.478   6.247  0.7227 -0.3411 -0.1267
 4004SOL     OW23647   1.680   0.983   3.742 -0.2115 -0.4931  0.0494
 4004SOL    HW123648   1.605   0.991   3.800 -1.5256  1.9944 -2.0012
 4004SOL    HW223649   1.760   1.000   3.792  0.4909 -0.2091 -1.1653
 4005SOL     OW23650   1.844   2.164  11.958  0.2280 -0.2506 -0.0561
 4005SOL    HW123651   1.839   2.077  11.998 -2.0774  1.1249  2.6248
 4005SOL    HW223652   1.752   2.183  11.939  0.4644 -1.8385 -2.9174
 4006SOL     OW23653   2.550   1.431  15.392  0.4023  0.0566 -0.3652
 4006SOL    HW123654   2.460   1.430  15.424  0.5751 -0.1566  0.1143
 4006SOL    HW223655   2.545   1.423  15.297  0.1702  1.1524 -0.4471
 4007SOL     OW23656   3.784   1.204   9.868 -0.8215  0.5220  0.0799
 4007SOL    HW123657   3.821   1.116   9.874  0.3975  1.0938  1.0087
 4007SOL    HW223658   3.864   1.245   9.835  1.0862 -3.2613  0.0424
 4008SOL     OW23659   3.889   3.517   9.029 -0.0566  0.6138 -0.4207
 4008SOL    HW123660   3.855   3.606   9.022 -0.9545  0.0897 -2.9058
 4008SOL    HW223661   3.832   3.463   8.974  0.2996  0.0190 -0.2192
 4009SOL     OW23662   4.585   3.908   8.874 -0.0987  0.3731 -0.3811
 4009SOL    HW123663   4.535   3.984   8.904 -0.4253  0.2718 -0.6626
 4009SOL    HW223664   4.537   3.871   8.799  0.6723  0.4291 -0.9018
 4010SOL     OW23665   0.551   0.787  13.804 -0.7238 -0.1426  0.8793
 4010SOL    HW123666   0.505   0.870  13.813  0.5982  0.9338 -1.9639
 4010SOL    HW223667   0.492   0.741  13.744 -1.5461  0.2945  1.3713
 4011SOL     OW23668   3.772   2.896   7.533 -0.0738  0.6380 -0.0058
 4011SOL    HW123669   3.850   2.951   7.530 -0.0856  0.7270  1.6233
 4011SOL    HW223670   3.787   2.863   7.621  5.0908  0.8982 -0.8111
 4012SOL     OW23671   3.768   4.279   2.222  0.3886  0.6834 -0.1291
 4012SOL    HW123672   3.687   4.324   2.200  0.2280  0.8957  0.9065
 4012SOL    HW223673   3.818   4.292   2.141  1.3417  1.5323  0.5978
 4013SOL     OW23674   0.809   1.074   8.917  0.3750 -0.6086  0.2643
 4013SOL    HW123675   0.779   1.029   8.838 -1.9451 -0.1693  0.8912
 4013SOL    HW223676   0.723   1.080   8.961 -0.3384 -1.0280 -1.0776
 4014SOL     OW23677   2.425   1.802   8.419  0.2278 -0.2943  0.3974
 4014SOL    HW123678   2.475   1.805   8.500 -0.6040  1.3891  0.8587
 4014SOL    HW223679   2.352   1.752   8.454 -0.1438 -0.3946 -0.5197
 4015SOL     OW23680   1.978   3.063   8.328 -0.2088  0.6333 -0.7523
 4015SOL    HW123681   1.978   2.988   8.268 -1.8870 -0.0222  0.0643
 4015SOL    HW223682   1.904   3.036   8.382  1.6673  1.9386  2.4368
 4016SOL     OW23683   0.616   1.997   8.269 -0.1733 -0.2607  0.0326
 4016SOL    HW123684   0.600   2.067   8.332  0.9984  0.4356 -0.4436
 4016SOL    HW223685   0.711   1.985   8.277  0.3629  1.8951 -2.9998
 4017SOL     OW23686   0.422   0.974  15.638  0.9606 -0.3894 -0.2239
 4017SOL    HW123687   0.343   0.932  15.672 -0.0121 -0.5283 -2.6566
 4017SOL    HW223688   0.386   0.992  15.551 -0.5676 -0.9681  0.2808
 4018SOL     OW23689   3.410   2.942   2.192  0.1843 -0.2468 -0.0217
 4018SOL    HW123690   3.492   2.896   2.208  0.7498  0.5496 -0.6285
 4018SOL    HW223691   3.397   2.958   2.285 -0.9348  0.8528 -0.3590
 4019SOL     OW23692   4.226   2.480   7.230  0.4427  0.0414 -0.4133
 4019SOL    HW123693   4.316   2.494   7.200  0.9043 -0.9300  0.5264
 4019SOL    HW223694   4.194   2.569   7.241 -0.8147 -0.1454 -2.6317
 4020SOL     OW23695   0.965   3.012   5.875 -0.0256  0.5940  0.4707
 4020SOL    HW123696   0.985   3.096   5.916  4.1261 -0.5604  0.7854
 4020SOL    HW223697   1.009   3.026   5.791  1.0817  2.5770  1.3694
 4021SOL     OW23698   0.789   1.851  16.815  0.2450 -0.0502 -0.3196
 4021SOL    HW123699   0.729   1.801  16.760  0.1175 -0.6167  0.3316
 4021SOL    HW223700   0.776   1.932  16.766  0.9848  1.5826  2.2356
 4022SOL     OW23701   4.416   4.158   8.955 -0.7695  0.9560 -0.3898
 4022SOL    HW123702   4.461   4.219   8.896  0.9397  0.0562 -0.0292
 4022SOL    HW223703   4.433   4.193   9.042 -1.7388  1.8428 -0.5601
 4023SOL     OW23704   2.555   1.959   5.810 -0.1966 -0.2713 -0.0501
 4023SOL    HW123705   2.472   1.992   5.775  0.0859 -0.8665 -1.2988
 4023SOL    HW223706   2.603   1.944   5.728 -1.1107  1.7279 -0.9597
 4024SOL     OW23707   1.734   1.093   3.499 -0.8041  0.2396  0.2155
 4024SOL    HW123708   1.677   1.170   3.499 -0.8933  0.1715  1.7317
 4024SOL    HW223709   1.705   1.048   3.579 -0.5802 -2.3085 -1.1672
 4025SOL     OW23710   2.834   0.893   2.310 -0.0825  0.5902  0.2787
 4025SOL    HW123711   2.743   0.882   2.338  0.8584  0.3389  3.1861
 4025SOL    HW223712   2.816   0.889   2.216 -0.1972  0.3998  0.3082
 4026SOL     OW23713   1.288   1.856   4.870  0.0041 -0.3359 -0.0586
 4026SOL    HW123714   1.291   1.891   4.781 -0.2493 -0.8847 -0.2862
 4026SOL    HW223715   1.284   1.766   4.838 -0.0943  0.1524 -1.4120
 4027SOL     OW23716   0.657   3.878   1.058  0.2956  0.3366 -0.0525
 4027SOL    HW123717   0.706   3.830   0.991 -0.5902 -1.3276  0.4844
 4027SOL    HW223718   0.568   3.845   1.046 -0.1624  0.1838  3.7308
 4028SOL     OW23719   1.440   1.607   9.578  0.2383  0.4147 -0.7956
 4028SOL    HW123720   1.511   1.613   9.641  1.1025 -0.2558 -1.7136
 4028SOL    HW223721   1.483   1.555   9.510  0.5635  0.1363 -0.3695
 4029SOL     OW23722   1.163   1.606   4.724  0.3813  0.0030  0.4493
 4029SOL    HW123723   1.133   1.679   4.779  0.0647  0.2966 -0.1172
 4029SOL    HW223724   1.165   1.540   4.793 -1.1449 -0.5553 -0.0580
 4030SOL     OW23725   2.742   0.611   5.311  0.1990 -0.2945 -0.5941
 4030SOL    HW123726   2.726   0.701   5.340  0.6512  0.0639 -1.4427
 4030SOL    HW223727   2.660   0.608   5.261 -0.8251 -1.1238  1.1377
 4031SOL     OW23728   3.623   2.772  10.379 -0.1931  0.0862 -0.5709
 4031SOL    HW123729   3.618   2.711  10.453 -1.2028  1.4618  0.4841
 4031SOL    HW223730   3.681   2.841  10.410 -1.4241  1.2361 -0.8387
 4032SOL     OW23731   4.372   3.564   7.718 -0.3525 -0.3489 -0.0051
 4032SOL    HW123732   4.354   3.655   7.696 -0.4064  0.0232  1.5864
 4032SOL    HW223733   4.309   3.554   7.789  1.0650 -1.6505  1.0671
 4033SOL     OW23734   1.623   2.398   8.562  0.0664 -0.0512  0.2125
 4033SOL    HW123735   1.574   2.371   8.484  0.1599  1.1467 -0.2652
 4033SOL    HW223736   1.551   2.427   8.619  2.0640  2.2022  1.5872
 4034SOL     OW23737   2.864   0.174   7.294  0.4483 -0.2876  0.1553
 4034SOL    HW123738   2.938   0.117   7.313 -1.1326 -1.8616  1.6352
 4034SOL    HW223739   2.894   0.262   7.316  2.4842 -1.3444  1.6208
 4035SOL     OW23740   2.327   2.879   4.043 -0.2759  0.4983 -0.1528
 4035SOL    HW123741   2.241   2.921   4.033 -0.4273  0.8303  2.3884
 4035SOL    HW223742   2.319   2.858   4.136  3.9493  1.3485  0.3630
 4036SOL     OW23743   3.708   3.230  11.290  0.3837  0.2668  0.1605
 4036SOL    HW123744   3.615   3.251  11.278  0.4080  0.6179  0.5797
 4036SOL    HW223745   3.732   3.295  11.356 -1.3617  0.1479  0.9099
 4037SOL     OW23746   3.396   1.441  12.737 -0.3285 -0.2335 -0.5803
 4037SOL    HW123747   3.324   1.404  12.686 -0.7157 -0.6300  0.2605
 4037SOL    HW223748   3.402   1.526  12.694 -1.5250 -0.2709 -0.8307
 4038SOL     OW23749   0.609   1.269  15.013 -0.3210  0.6812 -0.4543
 4038SOL    HW123750   0.601   1.243  14.922  1.1843  0.8778 -0.6535
 4038SOL    HW223751   0.518   1.263  15.043 -0.8556  2.8591 -1.6850
 4039SOL     OW23752   1.493   0.521   5.613 -0.5902  0.0942 -0.0741
 4039SOL    HW123753   1.533   0.434   5.615  2.2999  1.4103 -1.5478
 4039SOL    HW223754   1.399   0.501   5.611 -0.7994  1.2622 -2.0152
 4040SOL     OW23755   1.531   3.864   1.452 -0.6874  0.1546  0.2103
 4040SOL    HW123756   1.502   3.897   1.368 -0.1891  0.6304  0.2288
 4040SOL    HW223757   1.523   3.769   1.445  0.0405  0.0642  0.6331
 4041SOL     OW23758   1.271   3.202   5.447  0.5641 -0.4805  0.5453
 4041SOL    HW123759   1.236   3.286   5.476 -1.4404 -2.1860  3.0277
 4041SOL    HW223760   1.275   3.207   5.352 -1.3087  1.6709  0.5858
 4042SOL     OW23761   0.964   2.578   5.661  0.3328 -0.4102  0.2180
 4042SOL    HW123762   0.944   2.534   5.744 -0.6637 -3.6188 -1.7526
 4042SOL    HW223763   1.008   2.512   5.607  0.7771 -1.5906  2.0108
 4043SOL     OW23764   2.737   3.920   7.668  0.3232 -0.5894 -0.1868
 4043SOL    HW123765   2.767   3.867   7.594 -0.5003 -0.1749 -0.8216
 4043SOL    HW223766   2.665   3.867   7.703 -1.0898  1.6951  0.4158
 4044SOL     OW23767   4.710   3.313   3.402  0.6008  0.7110 -0.8531
 4044SOL    HW123768   4.713   3.251   3.329 -0.3634 -0.9147  0.4881
 4044SOL    HW223769   4.619   3.303   3.431  1.2695 -0.9342  0.7342
 4045SOL     OW23770   4.505   4.479   0.044 -0.3934  0.0337  0.1990
 4045SOL    HW123771   4.586   4.451   0.087 -0.5745  0.5745  0.8886
 4045SOL    HW223772   4.444   4.506   0.112 -1.5536  0.2364 -0.9329
 4046SOL     OW23773   2.589   4.264  12.524  0.3088  0.1974 -0.6323
 4046SOL    HW123774   2.620   4.284  12.612  0.5276 -0.6879 -0.5113
 4046SOL    HW223775   2.666   4.274  12.469  1.2587  0.1643  0.6992
 4047SOL     OW23776   3.073   3.192   7.217  0.1219 -0.0555 -0.1681
 4047SOL    HW123777   3.035   3.254   7.154  0.2036 -0.9737 -1.1192
 4047SOL    HW223778   3.166   3.216   7.217 -0.7525  3.3117  2.2826
 4048SOL     OW23779   3.470   4.461  12.080 -1.0552  0.4223  0.3717
 4048SOL    HW123780   3.449   4.554  12.084  0.6797  0.8393  0.0151
 4048SOL    HW223781   3.554   4.478  12.037 -0.5801  0.7577  1.4222
 4049SOL     OW23782   1.613   1.516   3.237  0.0415  0.2549  0.6172
 4049SOL    HW123783   1.640   1.510   3.328  0.6779  0.8792  0.4652
 4049SOL    HW223784   1.649   1.440   3.191  0.8605  1.6203 -0.9852
 4050SOL     OW23785   1.076   0.075   3.187  0.1098 -0.0541 -0.1258
 4050SOL    HW123786   1.042   4.722   3.169 -1.7821  0.7692 -0.6053
 4050SOL    HW223787   1.100   0.074   3.280 -1.6214  0.2959  0.3294
 4051SOL     OW23788   3.343   0.487   9.927  0.3773  0.3020 -0.0977
 4051SOL    HW123789   3.422   0.523   9.968  0.1626  0.3589  0.2610
 4051SOL    HW223790   3.304   0.445  10.003 -0.1202  3.0540  1.1928
 4052SOL     OW23791   4.060   2.559   6.362 -0.0404 -0.7235  0.5156
 4052SOL    HW123792   4.008   2.569   6.283  1.2325 -1.8003 -0.4683
 4052SOL    HW223793   4.105   2.643   6.352 -3.7735  1.2161  0.1402
 4053SOL     OW23794   3.809   4.166  14.246  0.0741  0.7952 -0.0939
 4053SOL    HW123795   3.874   4.168  14.176 -0.7020 -0.6887 -0.8677
 4053SOL    HW223796   3.791   4.259  14.249  0.9343  0.9757 -0.5259
 4054SOL     OW23797   1.891   1.152  14.117 -0.1283  0.1663  0.1039
 4054SOL    HW123798   1.911   1.064  14.151 -0.6799 -0.0508 -0.1482
 4054SOL    HW223799   1.805   1.172  14.152  0.0864  0.3298  0.5433
 4055SOL     OW23800   4.543   0.965   0.358 -0.2494 -0.3633  0.2325
 4055SOL    HW123801   4.545   0.873   0.330 -1.7997 -0.2128 -0.3593
 4055SOL    HW223802   4.553   1.013   0.277  1.8840  1.0908  1.3669
 4056SOL     OW23803   0.685   1.640   6.361  0.0950 -0.2504 -0.0294
 4056SOL    HW123804   0.754   1.680   6.308 -1.0439  2.1449  0.2563
 4056SOL    HW223805   0.722   1.628   6.448 -1.1593  1.0481  0.6940
 4057SOL     OW23806   4.726   4.088   9.779 -0.3037  0.1747  0.2438
 4057SOL    HW123807   4.701   4.133   9.860  0.6422  3.6258 -1.4108
 4057SOL    HW223808   0.064   4.147   9.761 -1.1578  1.9040  2.2945
 4058SOL     OW23809   3.623   1.705   6.627 -0.0178  0.2148  0.1548
 4058SOL    HW123810   3.555   1.638   6.633  0.4726 -0.5260 -2.5525
 4058SOL    HW223811   3.698   1.657   6.591 -0.6026 -0.3145 -0.3525
 4059SOL     OW23812   3.272   3.491   4.384 -0.4537 -0.6331 -0.0358
 4059SOL    HW123813   3.289   3.489   4.290 -0.8035 -0.8669 -0.0959
 4059SOL    HW223814   3.346   3.543   4.415 -1.9453  0.4449  1.7398
 4060SOL     OW23815   2.345   2.718   3.456  0.1818 -0.3208  0.0845
 4060SOL    HW123816   2.422   2.670   3.425 -0.4911  0.5368 -2.8530
 4060SOL    HW223817   2.376   2.808   3.448  3.9129 -1.6586 -0.1800
 4061SOL     OW23818   4.391   1.040   7.809 -0.3892 -0.6251 -0.1601
 4061SOL    HW123819   4.437   1.002   7.734  1.8973  0.3499  0.7508
 4061SOL    HW223820   4.453   1.108   7.834  0.8812 -1.6053 -0.6198
 4062SOL     OW23821   2.995   3.869   4.215  0.5138  0.1031 -0.7323
 4062SOL    HW123822   2.909   3.857   4.174  0.0556 -1.7188  0.7587
 4062SOL    HW223823   3.056   3.852   4.143 -0.0219  0.3305 -1.2455
 4063SOL     OW23824   1.149   2.192   6.556 -0.3489  0.2038 -0.6884
 4063SOL    HW123825   1.230   2.216   6.510 -0.3965  1.4838 -0.1230
 4063SOL    HW223826   1.155   2.248   6.634  2.6708  0.1422 -0.8862
 4064SOL     OW23827   1.591   1.323   5.824  0.1616  0.1681 -0.1258
 4064SOL    HW123828   1.581   1.372   5.905 -0.4672 -1.6841  0.9232
 4064SOL    HW223829   1.588   1.234   5.860  2.5648 -0.4479 -1.4135
 4065SOL     OW23830   0.880   2.556   7.495  0.0826  0.2462 -0.2558
 4065SOL    HW123831   0.877   2.461   7.484  0.4390 -0.0334  2.0337
 4065SOL    HW223832   0.844   2.596   7.416  1.6443 -1.8637 -2.0362
 4066SOL     OW23833   2.500   2.228   4.664 -0.6531  0.3150  0.4787
 4066SOL    HW123834   2.453   2.311   4.653 -3.1378 -1.1142  0.3215
 4066SOL    HW223835   2.448   2.169   4.719  1.4442 -0.4127  1.6669
 4067SOL     OW23836   3.618   1.229   6.549 -0.2827 -0.6564 -0.3949
 4067SOL    HW123837   3.670   1.269   6.479  1.3074 -0.1266  1.0847
 4067SOL    HW223838   3.659   1.261   6.629 -0.1388 -1.2250 -0.2403
 4068SOL     OW23839   1.483   3.707  17.590  0.2198 -0.1960  0.1800
 4068SOL    HW123840   1.542   3.680  17.520 -0.3385  0.3217 -0.4890
 4068SOL    HW223841   1.473   3.799  17.564 -1.3589 -0.6067 -0.6731
 4069SOL     OW23842   4.545   4.488  15.902 -0.1066  0.1858  0.2271
 4069SOL    HW123843   4.472   4.495  15.840  1.5771  0.5805 -1.6928
 4069SOL    HW223844   4.621   4.518  15.853  0.2572  0.4639  0.9641
 4070SOL     OW23845   2.078   2.246  11.869 -0.5389 -0.3156  0.4506
 4070SOL    HW123846   2.116   2.167  11.906  0.9235  0.2393  0.1190
 4070SOL    HW223847   1.988   2.214  11.878 -0.9168  1.0522  1.5500
 4071SOL     OW23848   1.252   0.126  16.691  0.2730 -0.4281 -0.1987
 4071SOL    HW123849   1.329   0.144  16.744  1.1474 -0.7979 -1.3293
 4071SOL    HW223850   1.198   0.203  16.707  0.0183 -1.7076  4.8930
 4072SOL     OW23851   2.485   0.013  11.378  0.0536 -0.3786  0.2254
 4072SOL    HW123852   2.466   4.675  11.438  1.9766 -1.9210 -1.0565
 4072SOL    HW223853   2.394   0.038  11.360 -0.6369 -1.1539  2.6053
 4073SOL     OW23854   4.444   1.501  14.096 -0.4469 -0.0158  0.1746
 4073SOL    HW123855   4.422   1.443  14.169 -1.0088 -0.5575 -0.4345
 4073SOL    HW223856   4.447   1.588  14.136  1.8151 -1.0421  2.2876
 4074SOL     OW23857   4.557   0.069   9.657 -0.2777  0.0469 -0.1178
 4074SOL    HW123858   4.496   0.040   9.589  0.2011  1.0439 -0.9646
 4074SOL    HW223859   4.599   4.723   9.688  0.1007 -0.2360 -1.3769
 4075SOL     OW23860   0.294   1.228   9.263  0.2499  0.1611  0.4288
 4075SOL    HW123861   0.238   1.266   9.330 -0.1367 -3.2607  2.0052
 4075SOL    HW223862   0.347   1.171   9.318 -2.3540 -2.6112  0.0859
 4076SOL     OW23863   3.437   3.716   4.444 -0.0043  1.0046  0.3764
 4076SOL    HW123864   3.422   3.806   4.414  0.2900  1.3869  1.3733
 4076SOL    HW223865   3.438   3.731   4.539 -0.7349 -2.1460  0.8959
 4077SOL     OW23866   2.797   2.811   5.561  0.2379  0.3245  0.1163
 4077SOL    HW123867   2.759   2.768   5.484  1.3023  1.4821 -1.0302
 4077SOL    HW223868   2.863   2.745   5.582 -0.8039 -1.1288 -1.1497
 4078SOL     OW23869   0.466   2.733   6.485 -0.0106 -0.0009  0.4295
 4078SOL    HW123870   0.529   2.721   6.414 -0.6791  0.8159 -0.2951
 4078SOL    HW223871   0.443   2.824   6.468 -0.1426 -0.3736 -1.3857
 4079SOL     OW23872   0.114   3.954   2.078 -0.0428 -0.0436  0.3059
 4079SOL    HW123873   0.160   4.027   2.037  2.2299 -0.8416  1.4618
 4079SOL    HW223874   0.185   3.905   2.118  2.0712  2.2091 -0.7419
 4080SOL     OW23875   0.279   4.644   6.387 -0.0727  0.3498 -0.3815
 4080SOL    HW123876   0.254   4.700   6.461 -1.2805  0.0069 -0.5276
 4080SOL    HW223877   0.374   4.642   6.400 -0.0232 -0.6771 -0.8669
 4081SOL     OW23878   0.231   3.638   4.661  0.3800 -0.6916 -0.1439
 4081SOL    HW123879   0.267   3.685   4.585  0.8349 -0.8472 -0.0291
 4081SOL    HW223880   0.311   3.612   4.707  0.5420  1.6030  0.8715
 4082SOL     OW23881   4.336   1.689   3.518 -0.1110 -0.2291  0.5828
 4082SOL    HW123882   4.370   1.618   3.464 -0.9036 -0.5458  0.4882
 4082SOL    HW223883   4.327   1.646   3.603 -2.4695  0.9894  0.9592
 4083SOL     OW23884   2.910   0.198   4.155  0.0698 -0.1565 -0.0236
 4083SOL    HW123885   2.956   0.210   4.238  1.0913  0.2937 -0.6595
 4083SOL    HW223886   2.961   0.127   4.114 -0.7480 -0.0728 -1.1921
 4084SOL     OW23887   4.673   3.211   2.440 -0.2552 -0.0038  0.0767
 4084SOL    HW123888   4.650   3.299   2.409 -2.3120 -0.8913 -0.9362
 4084SOL    HW223889   4.656   3.205   2.534  2.6558  0.8903  0.6585
 4085SOL     OW23890   4.667   3.160   0.986  0.4613  0.5202 -0.0649
 4085SOL    HW123891   4.734   3.219   1.018  1.3165  0.1271 -1.1241
 4085SOL    HW223892   4.586   3.211   0.994  0.4261  0.6287 -1.1267
 4086SOL     OW23893   1.168   0.686   6.612  0.3230  0.1350 -0.0059
 4086SOL    HW123894   1.183   0.615   6.549  1.1513 -0.3965  0.7759
 4086SOL    HW223895   1.125   0.634   6.681  2.9558 -1.4403  0.4729
 4087SOL     OW23896   2.450   3.916  14.182 -0.1066 -0.4541  0.2073
 4087SOL    HW123897   2.450   3.832  14.137  1.1953 -0.8702  0.9923
 4087SOL    HW223898   2.544   3.932  14.188 -0.3515  1.3089 -0.5883
 4088SOL     OW23899   0.745   3.170   7.386  0.2286 -0.2839 -0.2512
 4088SOL    HW123900   0.697   3.195   7.464 -0.7012  1.9311 -1.5287
 4088SOL    HW223901   0.723   3.234   7.318 -0.0458  0.8257  0.9031
 4089SOL     OW23902   2.208   0.905   8.816 -0.0833  0.2328 -0.1662
 4089SOL    HW123903   2.145   0.834   8.801  0.2330 -0.1749  0.4570
 4089SOL    HW223904   2.142   0.971   8.836  0.9566  1.4424 -0.7853
 4090SOL     OW23905   1.883   2.664   6.772  0.4740 -0.2872  0.0319
 4090SOL    HW123906   1.855   2.581   6.734  0.4570  0.9937 -2.7083
 4090SOL    HW223907   1.961   2.692   6.725  1.4552 -3.1038 -0.0344
 4091SOL     OW23908   3.508   4.342   7.429 -0.1809 -0.1074  0.3459
 4091SOL    HW123909   3.413   4.338   7.419 -0.3580 -0.3788  2.0783
 4091SOL    HW223910   3.527   4.366   7.520  0.9538  0.8209 -0.1343
 4092SOL     OW23911   3.593   0.694   0.025 -0.2487 -0.8039 -0.3205
 4092SOL    HW123912   3.626   0.718  17.676  0.3195 -0.5767 -0.0433
 4092SOL    HW223913   3.674   0.684   0.075 -0.3048  0.1267 -0.0589
 4093SOL     OW23914   1.988   3.159   6.603 -0.0313 -0.2514 -0.1355
 4093SOL    HW123915   1.893   3.163   6.596  0.0965 -0.1129 -1.8067
 4093SOL    HW223916   2.012   3.250   6.591 -1.6204  0.4456  1.8401
 4094SOL     OW23917   4.011   3.160  16.301  0.1690 -0.5718  0.1372
 4094SOL    HW123918   3.926   3.122  16.323 -1.4351  3.6808  1.1716
 4094SOL    HW223919   3.987   3.239  16.253  0.6209 -0.6241 -0.1854
 4095SOL     OW23920   2.214   1.778  12.266  0.1343 -0.3927  0.3005
 4095SOL    HW123921   2.301   1.744  12.244 -0.2205 -0.4293 -1.0143
 4095SOL    HW223922   2.233   1.788  12.360  0.9566  0.9123  0.0083
 4096SOL     OW23923   1.383   1.166  14.748 -0.2483 -0.2943 -0.7535
 4096SOL    HW123924   1.430   1.092  14.786 -1.7948  0.8069  3.3555
 4096SOL    HW223925   1.289   1.148  14.753 -0.3899  0.8511  0.9450
 4097SOL     OW23926   3.937   3.548   7.847 -0.4106 -0.0907 -0.1030
 4097SOL    HW123927   4.021   3.514   7.815 -0.2690  0.7855 -0.6676
 4097SOL    HW223928   3.932   3.635   7.808 -1.3201  0.2235  0.7132
 4098SOL     OW23929   1.712   3.915   4.287 -0.1909  0.1629 -0.2285
 4098SOL    HW123930   1.706   4.011   4.286  0.2501  0.1775 -1.1651
 4098SOL    HW223931   1.806   3.901   4.294 -0.0664  0.9470 -0.2777
 4099SOL     OW23932   3.136   3.627   5.546 -0.3509 -0.1829  0.0378
 4099SOL    HW123933   3.059   3.632   5.602 -1.1780 -0.3742 -1.0741
 4099SOL    HW223934   3.139   3.531   5.542 -2.2991 -0.2857  1.1078
 4100SOL     OW23935   1.018   1.621   7.844 -0.4617 -0.2244 -0.0067
 4100SOL    HW123936   1.037   1.672   7.765  0.4261  0.2184  0.5014
 4100SOL    HW223937   1.024   1.693   7.907  0.7447 -0.4128  0.0896
 4101SOL     OW23938   2.585   2.895  11.943 -0.1662  0.4285  0.2467
 4101SOL    HW123939   2.672   2.870  11.974 -0.4983 -0.1995  0.6882
 4101SOL    HW223940   2.610   2.945  11.866 -2.7646  1.4901  0.1084
 4102SOL     OW23941   1.110   3.809   1.884 -0.3403  0.0061  0.2195
 4102SOL    HW123942   1.092   3.863   1.807 -3.5555  1.5671  2.0922
 4102SOL    HW223943   1.024   3.802   1.924 -1.1692 -1.5459 -1.8203
 4103SOL     OW23944   3.775   0.953   8.899 -0.2239 -0.4383 -0.0948
 4103SOL    HW123945   3.680   0.940   8.894 -0.5665  2.1294 -0.1487
 4103SOL    HW223946   3.808   0.866   8.921  0.9594  0.2303  0.8304
 4104SOL     OW23947   3.125   1.102   1.725 -0.4533 -0.3741  0.7072
 4104SOL    HW123948   3.159   1.191   1.722  0.5070 -0.7814 -0.5819
 4104SOL    HW223949   3.200   1.048   1.751  1.0540  1.7367  0.7347
 4105SOL     OW23950   2.187   3.595  17.285  0.1032  0.0865 -0.5416
 4105SOL    HW123951   2.174   3.500  17.286  0.3153  0.0814  1.1372
 4105SOL    HW223952   2.211   3.611  17.376  1.1275 -1.1244 -0.6052
 4106SOL     OW23953   3.999   2.796  13.814  0.1367  0.3480  0.3003
 4106SOL    HW123954   4.059   2.723  13.830 -1.4662 -0.3092  3.2569
 4106SOL    HW223955   4.059   2.863  13.780 -0.2029  0.8718  0.7189
 4107SOL     OW23956   1.994   2.369   4.298 -0.2987  0.9722 -0.2887
 4107SOL    HW123957   1.963   2.402   4.214 -1.5685 -1.0891 -0.6450
 4107SOL    HW223958   2.044   2.447   4.321 -0.5163  0.4140  2.0389
 4108SOL     OW23959   2.626   0.955   3.203 -0.5789 -0.1446 -0.3002
 4108SOL    HW123960   2.576   0.874   3.191 -3.4384  1.6098 -0.3141
 4108SOL    HW223961   2.562   1.025   3.215  0.7197  1.2707 -1.6496
 4109SOL     OW23962   4.562   3.639  16.240  0.9743 -0.2780  0.0095
 4109SOL    HW123963   4.472   3.607  16.238 -0.0893  2.6818  0.6710
 4109SOL    HW223964   4.555   3.724  16.283 -1.8360 -0.3003 -0.3681
 4110SOL     OW23965   1.055   2.753   8.227  0.3073  0.2431  0.3319
 4110SOL    HW123966   0.999   2.827   8.249  1.8430  1.1179  1.3175
 4110SOL    HW223967   1.128   2.800   8.188  0.3422 -0.8546 -0.9236
 4111SOL     OW23968   3.564   0.993   8.457 -0.1250  0.5704  0.5235
 4111SOL    HW123969   3.605   0.951   8.532  0.4629  0.2024 -0.0009
 4111SOL    HW223970   3.470   0.980   8.473 -0.5500 -1.5363 -3.3771
 4112SOL     OW23971   3.113   3.331   8.411  0.4377 -0.4140  0.0065
 4112SOL    HW123972   3.036   3.362   8.363  0.3645 -2.8596 -1.4519
 4112SOL    HW223973   3.118   3.248   8.363 -3.0141 -1.5630  1.5698
 4113SOL     OW23974   2.968   0.663   0.436 -0.0984 -0.2931 -0.4520
 4113SOL    HW123975   3.054   0.697   0.460 -0.8458 -0.9500  3.1304
 4113SOL    HW223976   2.924   0.673   0.521  2.6245  2.3102  0.6454
 4114SOL     OW23977   0.152   4.085   5.278 -0.3464 -0.4207 -0.0459
 4114SOL    HW123978   0.071   4.049   5.314 -2.1971  3.1930 -0.5668
 4114SOL    HW223979   0.156   4.034   5.197 -1.3067 -0.1781 -0.2452
 4115SOL     OW23980   2.353   3.647  15.536 -0.4170 -0.3905  0.3358
 4115SOL    HW123981   2.330   3.739  15.551  1.3996 -0.2822  2.4616
 4115SOL    HW223982   2.426   3.656  15.475 -2.4971 -2.2011 -2.3746
 4116SOL     OW23983   2.455   2.397   6.915  0.4843 -0.2898 -0.2597
 4116SOL    HW123984   2.391   2.418   6.846  0.6447  2.1573  0.3405
 4116SOL    HW223985   2.536   2.404   6.864  0.5103 -1.8930 -0.4235
 4117SOL     OW23986   0.439   0.206   5.742  0.1920  0.2352  0.1791
 4117SOL    HW123987   0.473   0.294   5.758  1.6497 -0.2418 -0.3939
 4117SOL    HW223988   0.436   0.171   5.832  0.4944  0.7674  0.3983
 4118SOL     OW23989   3.096   0.114  13.925  0.4496 -0.2264 -0.9046
 4118SOL    HW123990   3.130   0.025  13.931  0.5582 -0.2926 -2.4953
 4118SOL    HW223991   3.179   0.162  13.932  0.2709  0.4023 -3.0932
 4119SOL     OW23992   1.978   3.778   3.489 -0.1699 -0.2657  0.3527
 4119SOL    HW123993   2.050   3.726   3.526  2.4808  2.7004 -0.6572
 4119SOL    HW223994   2.011   3.864   3.516 -1.4181 -0.1011  1.3679
 4120SOL     OW23995   2.751   0.270   8.232  0.6642  0.3317  0.0536
 4120SOL    HW123996   2.683   0.334   8.254  0.3992 -0.0681  0.3950
 4120SOL    HW223997   2.743   0.213   8.309 -1.4183 -0.2591 -0.6122
 4121SOL     OW23998   2.304   3.098  16.243 -0.1494  0.1665 -0.8748
 4121SOL    HW123999   2.298   3.191  16.222  1.2830  0.2424 -0.9212
 4121SOL    HW224000   2.210   3.081  16.254 -0.5686  1.9002 -1.8142
 4122SOL     OW24001   2.105   2.102   4.744  0.7125  0.1087 -0.2118
 4122SOL    HW124002   2.084   2.012   4.718 -1.6017  0.8631 -0.9966
 4122SOL    HW224003   2.109   2.147   4.660  0.0150 -0.5792 -0.6134
 4123SOL     OW24004   1.137   3.021  13.441  0.3218  0.6756  0.2108
 4123SOL    HW124005   1.045   3.030  13.465 -0.0647 -4.1917  0.4087
 4123SOL    HW224006   1.159   3.111  13.415  0.8961 -0.1825 -2.3181
 4124SOL     OW24007   3.884   1.015  13.816  0.5756  0.0679  0.1106
 4124SOL    HW124008   3.902   0.922  13.801 -0.7591 -0.0880 -0.5601
 4124SOL    HW224009   3.809   1.015  13.876  0.4021  2.1068 -0.0984
 4125SOL     OW24010   4.011   3.086   6.292  0.0272 -0.3923 -0.5311
 4125SOL    HW124011   3.954   3.154   6.254  0.1997 -1.0872 -2.0231
 4125SOL    HW224012   3.979   3.021   6.230 -0.6487  1.2229 -1.8978
 4126SOL     OW24013   3.737   1.586  16.288 -0.0330  0.0004 -0.0046
 4126SOL    HW124014   3.649   1.562  16.259 -0.0687  1.0796 -0.7908
 4126SOL    HW224015   3.783   1.601  16.205  0.4249  1.4456  0.4941
 4127SOL     OW24016   0.394   3.448   8.084 -0.0344  0.3693  0.2523
 4127SOL    HW124017   0.407   3.541   8.062  1.1684  0.4930  1.5190
 4127SOL    HW224018   0.416   3.445   8.177  0.1059 -1.8919  0.1303
 4128SOL     OW24019   4.451   3.522   6.924  0.0459 -0.0195  0.3956
 4128SOL    HW124020   4.525   3.496   6.870 -1.2353  1.1669 -1.9023
 4128SOL    HW224021   4.492   3.509   7.010 -1.7309  0.6364  1.3388
 4129SOL     OW24022   1.713   0.040   2.112  0.5753  0.3734 -0.4441
 4129SOL    HW124023   1.765   4.716   2.167  0.8898  1.4179  0.3674
 4129SOL    HW224024   1.667   4.710   2.058 -0.8266  2.5281 -1.8673
 4130SOL     OW24025   4.426   3.576  12.104 -0.2985  0.3133 -0.8402
 4130SOL    HW124026   4.444   3.590  12.196 -1.8327  0.8827 -0.6264
 4130SOL    HW224027   4.490   3.509  12.079 -0.5679 -0.3804  0.3509
 4131SOL     OW24028   3.121   3.918   7.602  0.0119  0.0123 -0.5726
 4131SOL    HW124029   3.208   3.880   7.615  0.0159  0.1265 -0.2679
 4131SOL    HW224030   3.141   3.989   7.541 -0.5394  0.3590 -0.3514
 4132SOL     OW24031   1.053   4.073   4.909  0.2554  0.0366  0.6748
 4132SOL    HW124032   1.075   4.097   4.819 -0.2666  0.1035  0.5651
 4132SOL    HW224033   1.080   4.153   4.954 -1.2455  2.5195 -2.8298
 4133SOL     OW24034   2.773   4.246   8.682  0.2331  0.4502  0.7553
 4133SOL    HW124035   2.866   4.230   8.698 -0.3533 -0.9231  2.7776
 4133SOL    HW224036   2.730   4.171   8.723 -2.2168  0.7982 -1.1720
 4134SOL     OW24037   3.444   2.041   2.040  0.5694 -0.0560 -0.7700
 4134SOL    HW124038   3.446   2.002   2.128  1.5091  0.8013 -0.4169
 4134SOL    HW224039   3.472   1.961   1.996  0.2189 -1.6518  1.8780
 4135SOL     OW24040   4.100   0.964   7.373 -0.1476 -0.2457  0.4263
 4135SOL    HW124041   4.154   0.947   7.450 -1.2137 -2.7068  0.6308
 4135SOL    HW224042   4.079   1.057   7.382  2.2468  0.2323  1.1165
 4136SOL     OW24043   2.856   0.856   9.965 -0.3614  0.1216  0.0615
 4136SOL    HW124044   2.776   0.882  10.010  0.3243  0.3166  1.1636
 4136SOL    HW224045   2.818   0.843   9.878  0.5656 -2.8820  0.1078
 4137SOL     OW24046   1.713   0.376   5.329 -0.1916 -0.0349  0.1851
 4137SOL    HW124047   1.799   0.401   5.363  0.4449 -1.7906 -0.1311
 4137SOL    HW224048   1.720   0.286   5.362  1.8041  0.1706  0.3477
 4138SOL     OW24049   2.578   3.426   7.493  0.0138  0.2089  0.2256
 4138SOL    HW124050   2.498   3.471   7.469  0.1115  0.9527  1.3015
 4138SOL    HW224051   2.534   3.344   7.513  1.9824 -0.3662  2.2391
 4139SOL     OW24052   2.420   1.818   3.427  0.7536 -1.0418 -0.6834
 4139SOL    HW124053   2.427   1.907   3.462 -1.1115 -0.3138 -2.1744
 4139SOL    HW224054   2.515   1.808   3.424  0.9462  0.3028  0.7918
 4140SOL     OW24055   2.580   1.283   4.953 -0.1235 -0.3772  0.1228
 4140SOL    HW124056   2.562   1.376   4.959 -1.0469 -0.4043 -2.2757
 4140SOL    HW224057   2.499   1.262   4.908 -0.7264  1.7624  0.2264
 4141SOL     OW24058   3.274   4.042   3.484  0.0387 -0.2013  0.0315
 4141SOL    HW124059   3.196   3.999   3.451  0.8822 -1.4335 -0.3365
 4141SOL    HW224060   3.237   4.095   3.555 -1.5489 -0.7122 -0.4041
 4142SOL     OW24061   1.255   0.657  10.679  0.0237 -0.1574  0.2943
 4142SOL    HW124062   1.228   0.676  10.769  0.6456 -0.6321  0.5816
 4142SOL    HW224063   1.186   0.596  10.652 -1.8286  2.2413 -0.3791
 4143SOL     OW24064   0.365   2.001  10.600 -0.5695  0.1928  0.4216
 4143SOL    HW124065   0.414   2.029  10.677 -1.4427  0.2017  0.9688
 4143SOL    HW224066   0.434   2.015  10.535 -0.7710  0.2668  0.2240
 4144SOL     OW24067   1.644   1.607  10.234 -0.6866 -0.4997 -0.0621
 4144SOL    HW124068   1.625   1.597  10.328  1.4815 -3.2097  0.0769
 4144SOL    HW224069   1.553   1.614  10.202 -0.6982  1.1810  0.3177
 4145SOL     OW24070   3.967   0.750  13.782 -0.7345  0.7967  0.1445
 4145SOL    HW124071   4.052   0.748  13.825 -0.5578 -0.1348 -0.2540
 4145SOL    HW224072   3.980   0.702  13.700 -1.9720 -1.4984  1.2661
 4146SOL     OW24073   2.300   1.307  13.263 -0.1244  0.2783 -0.2685
 4146SOL    HW124074   2.382   1.258  13.252 -1.0684 -0.7176 -2.8829
 4146SOL    HW224075   2.342   1.392  13.279 -3.4939  1.7397  0.9199
 4147SOL     OW24076   3.258   4.283  12.083  0.3374 -0.1790 -0.5292
 4147SOL    HW124077   3.290   4.248  12.167 -0.4421  1.7728  0.5755
 4147SOL    HW224078   3.339   4.331  12.063 -0.7158  1.1008 -1.6906
 4148SOL     OW24079   3.879   1.171   8.762 -0.0625 -0.3343 -0.0716
 4148SOL    HW124080   3.968   1.170   8.797 -0.3430 -0.5678  0.6331
 4148SOL    HW224081   3.837   1.095   8.803  2.2495 -1.4228  0.3038
 4149SOL     OW24082   1.118   2.412   8.541 -0.0165 -0.9783 -0.3905
 4149SOL    HW124083   1.170   2.365   8.605  0.8179  0.5487  0.0543
 4149SOL    HW224084   1.031   2.372   8.538 -0.8239  0.6495  1.1345
 4150SOL     OW24085   1.604   0.772  13.431 -0.2689 -0.0693  0.4440
 4150SOL    HW124086   1.674   0.740  13.373  1.5239  0.7681  2.1440
 4150SOL    HW224087   1.533   0.797  13.372  0.6626  0.3021 -0.5280
 4151SOL     OW24088   0.231   2.107  11.735 -0.0363 -0.2864  0.0861
 4151SOL    HW124089   0.165   2.139  11.796 -0.4833  0.3196 -0.7174
 4151SOL    HW224090   0.188   2.091  11.651  1.2011  0.2581 -0.6554
 4152SOL     OW24091   4.181   3.013  16.570  0.1080  0.1272  0.0959
 4152SOL    HW124092   4.121   2.954  16.615  1.6313 -2.5404 -1.3819
 4152SOL    HW224093   4.245   3.030  16.639 -0.4944  0.4811  0.5770
 4153SOL     OW24094   0.199   3.372  16.127  0.5055 -0.3335  0.3519
 4153SOL    HW124095   0.115   3.416  16.143  0.3737 -0.4774  0.0661
 4153SOL    HW224096   0.193   3.302  16.192  1.5188  1.8010  2.6971
 4154SOL     OW24097   3.663   1.426   8.238  0.1488  1.0424  0.4659
 4154SOL    HW124098   3.654   1.352   8.298 -1.0594 -0.5746 -1.7220
 4154SOL    HW224099   3.724   1.477   8.291 -0.3512  0.6240  1.4438
 4155SOL     OW24100   1.466   2.517   3.249 -0.0901  0.2525  0.1781
 4155SOL    HW124101   1.512   2.509   3.333  2.6250  1.9721 -1.1380
 4155SOL    HW224102   1.412   2.594   3.270  1.0490  1.0704  0.1007
 4156SOL     OW24103   2.153   1.173  11.113 -0.2636  0.0398 -0.5233
 4156SOL    HW124104   2.113   1.257  11.090 -1.4977 -0.2462  0.5523
 4156SOL    HW224105   2.197   1.208  11.190  0.0137  0.3934 -0.8475
 4157SOL     OW24106   1.505   3.418   3.026  0.0350  0.4232  0.1095
 4157SOL    HW124107   1.439   3.453   2.967 -1.8116 -2.6704  0.3563
 4157SOL    HW224108   1.531   3.502   3.064  2.2618  0.0563 -0.6241
 4158SOL     OW24109   2.891   0.037   8.052  0.3973  0.1574  0.3545
 4158SOL    HW124110   2.859   0.111   8.103  2.9999  0.9626  0.7960
 4158SOL    HW224111   2.926   0.075   7.971  2.0509 -0.8344  0.6012
 4159SOL     OW24112   1.808   1.848   8.995 -0.3155 -0.2624 -0.3923
 4159SOL    HW124113   1.714   1.848   8.974 -0.0194  0.7180 -1.7504
 4159SOL    HW224114   1.844   1.836   8.907 -0.6997 -2.3684 -0.2567
 4160SOL     OW24115   0.982   2.687  15.480 -0.4481  0.6357  0.0308
 4160SOL    HW124116   0.957   2.670  15.390 -0.9366  1.9502 -0.0910
 4160SOL    HW224117   0.968   2.601  15.519 -2.1605 -0.0422 -2.1074
 4161SOL     OW24118   1.720   0.177   2.643  0.6150 -0.1943  0.1271
 4161SOL    HW124119   1.718   0.234   2.566 -1.0834 -0.7000 -0.2012
 4161SOL    HW224120   1.683   0.238   2.707  1.4407 -0.3254  0.7264
 4162SOL     OW24121   2.050   1.742   6.466 -0.3512  0.2267  0.6456
 4162SOL    HW124122   2.140   1.763   6.492 -0.2921  0.4476  0.2749
 4162SOL    HW224123   2.073   1.731   6.373  0.5294  0.5563  0.8256
 4163SOL     OW24124   3.484   3.919   8.055 -0.2829  0.1916 -0.1094
 4163SOL    HW124125   3.498   3.985   8.123  1.5878  0.1610 -0.4716
 4163SOL    HW224126   3.573   3.889   8.041 -0.7665 -1.8580  1.2062
 4164SOL     OW24127   3.065   4.082   7.837 -0.8209  0.0649 -0.2612
 4164SOL    HW124128   3.122   4.149   7.800  1.2473 -1.9230 -0.6807
 4164SOL    HW224129   3.077   4.011   7.775 -0.8603 -0.5264  0.4058
 4165SOL     OW24130   3.017   1.323   6.027  1.1347 -0.3018  0.2875
 4165SOL    HW124131   2.974   1.401   6.063 -0.0977 -0.2663 -1.2869
 4165SOL    HW224132   2.955   1.302   5.957  1.2605 -1.5491  0.5481
 4166SOL     OW24133   1.175   3.706   0.698 -0.2529  0.3210  0.2180
 4166SOL    HW124134   1.166   3.674   0.788  0.2536  0.1992  0.2270
 4166SOL    HW224135   1.212   3.634   0.647  0.1068 -1.0400  2.3890
 4167SOL     OW24136   2.473   4.134   1.663  0.2623 -0.0671 -0.1802
 4167SOL    HW124137   2.512   4.090   1.588  0.2884  0.4591 -0.4748
 4167SOL    HW224138   2.461   4.224   1.633  1.9075 -0.3780 -1.7206
 4168SOL     OW24139   0.829   2.738  12.781 -0.1374  0.4954  0.0589
 4168SOL    HW124140   0.866   2.702  12.700  1.0004 -0.0412  0.8174
 4168SOL    HW224141   0.824   2.660  12.837  1.5545  0.9985  0.9234
 4169SOL     OW24142   4.186   3.290   7.370 -0.5573 -0.2072 -0.2482
 4169SOL    HW124143   4.233   3.209   7.352  0.2884  0.1546  0.3443
 4169SOL    HW224144   4.111   3.269   7.315 -0.7304  0.1844 -0.1612
 4170SOL     OW24145   1.394   0.694  10.463 -0.2385 -0.4623  0.5710
 4170SOL    HW124146   1.338   0.696  10.540 -1.0759 -0.0424 -0.0457
 4170SOL    HW224147   1.449   0.629  10.506  0.7329 -0.5208 -0.7332
 4171SOL     OW24148   4.480   1.240   5.235 -0.7499  0.4710  0.4644
 4171SOL    HW124149   4.486   1.144   5.235 -1.3070  0.4377  0.5557
 4171SOL    HW224150   4.390   1.264   5.256 -1.2955 -1.9314  0.9156
 4172SOL     OW24151   4.118   0.898   7.118 -0.2169 -0.1433 -0.1782
 4172SOL    HW124152   4.115   0.931   7.208  0.9154  0.1683 -0.2614
 4172SOL    HW224153   4.044   0.943   7.077  0.7117  2.9139  1.4802
 4173SOL     OW24154   3.081   2.188   6.203  0.0993  0.1106  0.6375
 4173SOL    HW124155   3.055   2.223   6.118  0.9740 -0.1907  0.2546
 4173SOL    HW224156   3.079   2.093   6.191 -1.8004  0.3358 -0.8900
 4174SOL     OW24157   0.793   0.944   6.541 -0.4161 -0.5369 -0.3513
 4174SOL    HW124158   0.760   0.856   6.524  0.9195 -1.4996  2.0395
 4174SOL    HW224159   0.735   0.956   6.616  2.1797 -1.8979  1.8888
 4175SOL     OW24160   0.772   3.527   9.599 -0.0201 -0.2469  0.7448
 4175SOL    HW124161   0.730   3.611   9.619 -0.8572 -0.9048  1.7484
 4175SOL    HW224162   0.809   3.491   9.679  0.8761 -2.0351 -0.4705
 4176SOL     OW24163   4.673   1.390   2.373 -0.6394  0.3169  0.1183
 4176SOL    HW124164   4.723   1.339   2.309 -0.1207  0.7687  0.1590
 4176SOL    HW224165   4.717   1.378   2.457 -1.0218  0.4221  0.3310
 4177SOL     OW24166   3.222   0.933  16.884  0.2010 -0.0002 -0.4707
 4177SOL    HW124167   3.218   1.027  16.900 -1.2358 -0.4586  1.9148
 4177SOL    HW224168   3.302   0.935  16.831  0.6534  1.5899  0.2574
 4178SOL     OW24169   4.419   4.318   3.210  0.3478  0.7425 -0.7068
 4178SOL    HW124170   4.399   4.407   3.240 -0.6682  0.4953 -0.6593
 4178SOL    HW224171   4.342   4.263   3.225  0.1770  0.9452 -0.8455
 4179SOL     OW24172   4.580   4.625  13.971  0.1271  0.5810  0.3838
 4179SOL    HW124173   4.564   4.704  14.023  0.9283 -0.0219  1.5540
 4179SOL    HW224174   4.635   4.661  13.902  0.4098 -1.2134 -0.3220
 4180SOL     OW24175   2.549   4.098  15.073  0.0742 -0.5487  0.2994
 4180SOL    HW124176   2.634   4.082  15.114  0.8242  2.1166 -0.2309
 4180SOL    HW224177   2.490   4.071  15.144 -0.7308  0.1958 -0.0890
 4181SOL     OW24178   0.046   0.941   8.952 -0.1593 -0.2697  0.5719
 4181SOL    HW124179   4.733   0.892   8.885  1.1525 -0.6146 -0.1149
 4181SOL    HW224180   4.712   0.957   9.016  0.6975  1.4241  1.0671
 4182SOL     OW24181   2.708   2.778   5.869  0.0374 -0.4580 -0.4886
 4182SOL    HW124182   2.686   2.773   5.776 -1.8548  1.4506 -0.1312
 4182SOL    HW224183   2.743   2.693   5.895 -0.9450 -0.2677  1.4097
 4183SOL     OW24184   0.496   4.556   5.323  1.1006  0.0396  0.4251
 4183SOL    HW124185   0.582   4.547   5.280 -0.4836  1.9199 -3.1703
 4183SOL    HW224186   0.462   4.629   5.271  0.6291 -0.4458  0.0529
 4184SOL     OW24187   3.895   2.723   7.353 -0.0672  0.3660 -0.3656
 4184SOL    HW124188   3.829   2.769   7.404 -0.6116  0.5910 -1.2744
 4184SOL    HW224189   3.888   2.781   7.277 -0.0206  0.4883 -0.2776
 4185SOL     OW24190   3.089   4.369  15.001  0.1715  0.0534  0.1553
 4185SOL    HW124191   3.165   4.360  15.057 -1.2384 -1.1026  1.8634
 4185SOL    HW224192   3.090   4.458  14.966  3.2874 -0.8167 -1.9339
 4186SOL     OW24193   0.265   0.923  13.839  0.4592 -0.4935  0.2631
 4186SOL    HW124194   0.283   0.998  13.895  2.1963 -0.8683  0.2305
 4186SOL    HW224195   0.180   0.933  13.796  0.2523  0.7976  0.9717
 4187SOL     OW24196   2.714   2.762  16.731  0.2275 -0.1542 -0.1281
 4187SOL    HW124197   2.636   2.797  16.774  0.6551  1.6766 -0.8721
 4187SOL    HW224198   2.739   2.702  16.801  1.2394 -0.6056 -0.8699
 4188SOL     OW24199   3.340   0.875   9.550  0.0130  0.0773  0.1674
 4188SOL    HW124200   3.276   0.942   9.528  0.4381  0.5007  0.2088
 4188SOL    HW224201   3.299   0.841   9.629 -2.9782  1.1126 -0.9630
 4189SOL     OW24202   1.781   3.637   8.576  0.0286  0.1063  0.0520
 4189SOL    HW124203   1.833   3.696   8.522  0.9287  0.4041  1.2285
 4189SOL    HW224204   1.789   3.546   8.545 -1.3454 -0.2792  0.7882
 4190SOL     OW24205   0.341   3.757   2.184  0.2388 -0.1256  0.1813
 4190SOL    HW124206   0.261   3.708   2.167 -0.3911  1.2216 -0.7694
 4190SOL    HW224207   0.346   3.746   2.279  1.9858  0.9158  0.2160
 4191SOL     OW24208   3.678   4.192  16.498  0.3976 -0.3295 -0.4163
 4191SOL    HW124209   3.660   4.175  16.405  1.5774  0.7099 -0.8466
 4191SOL    HW224210   3.600   4.159  16.542  0.6112 -0.5117 -0.1794
 4192SOL     OW24211   4.508   2.481   7.198 -0.0437  0.1173  0.0454
 4192SOL    HW124212   4.533   2.484   7.290 -0.9807  0.4214  0.2899
 4192SOL    HW224213   4.550   2.404   7.159 -0.8278 -0.1451 -0.2907
 4193SOL     OW24214   2.204   4.215   5.989 -0.6995  0.2120  0.9070
 4193SOL    HW124215   2.112   4.188   5.994 -0.6239  0.1258  1.7499
 4193SOL    HW224216   2.248   4.136   5.957 -1.9650 -0.1609  0.0769
 4194SOL     OW24217   1.246   4.115  17.111  0.2070 -0.3231  0.0263
 4194SOL    HW124218   1.256   4.148  17.021 -0.7657  0.1395  0.0836
 4194SOL    HW224219   1.250   4.020  17.101 -1.1350 -0.2832 -1.0252
 4195SOL     OW24220   1.116   3.838   3.810  0.2045  0.1227 -0.4200
 4195SOL    HW124221   1.140   3.916   3.860 -1.4110  0.2770  0.1050
 4195SOL    HW224222   1.095   3.879   3.726  1.1762  0.5098 -0.4776
 4196SOL     OW24223   4.528   3.822   4.588  0.0419 -0.2916 -0.4057
 4196SOL    HW124224   4.478   3.839   4.508  2.4728 -0.0295 -1.8849
 4196SOL    HW224225   4.450   3.833   4.641 -1.6060  0.5205 -2.9863
 4197SOL     OW24226   0.957   3.000  11.649  0.3759 -0.3382  0.7366
 4197SOL    HW124227   1.017   2.928  11.668  1.6424  0.4985 -0.0524
 4197SOL    HW224228   0.972   3.023  11.558  0.2596  1.3221  1.1256
 4198SOL     OW24229   4.006   1.190   7.082  0.5868  0.5662 -0.0860
 4198SOL    HW124230   3.939   1.244   7.040  2.0847  2.3894 -0.1687
 4198SOL    HW224231   3.976   1.179   7.172  0.9562 -0.0752 -0.0410
 4199SOL     OW24232   1.994   3.700   4.047 -0.0219  0.2538  0.4845
 4199SOL    HW124233   1.964   3.716   4.136  1.9721  0.6229  1.0829
 4199SOL    HW224234   1.913   3.676   4.002  0.9123  0.3502 -1.2671
 4200SOL     OW24235   3.881   2.328   1.333 -0.1452 -0.0029 -0.1157
 4200SOL    HW124236   3.792   2.361   1.350 -0.9642 -1.4140 -1.6068
 4200SOL    HW224237   3.876   2.286   1.247  2.4908  0.6349 -0.5620
 4201SOL     OW24238   0.061   3.284   1.557  0.0625 -0.5407  0.6677
 4201SOL    HW124239   4.720   3.237   1.521  2.2983 -2.7521 -1.1255
 4201SOL    HW224240   0.106   3.213   1.601  0.0171 -0.8236  0.2607
 4202SOL     OW24241   0.315   3.701   2.948 -0.4452  0.4752 -0.0410
 4202SOL    HW124242   0.376   3.773   2.965 -1.3310  1.3905 -0.7881
 4202SOL    HW224243   0.238   3.742   2.910  2.3768  3.3512 -2.6750
 4203SOL     OW24244   1.907   1.879   7.817 -0.0422 -0.3075 -0.2796
 4203SOL    HW124245   1.840   1.920   7.763  2.7058  1.6130 -2.2717
 4203SOL    HW224246   1.848   1.832   7.876 -1.1021  1.0334 -0.2758
 4204SOL     OW24247   3.652   0.678   9.513  0.4394 -0.1765  0.0404
 4204SOL    HW124248   3.593   0.702   9.585  1.6419  0.9414  0.6422
 4204SOL    HW224249   3.607   0.734   9.449  0.5602  0.8444  0.8501
 4205SOL     OW24250   0.391   3.769   9.429 -0.1987  0.4254  0.4571
 4205SOL    HW124251   0.301   3.779   9.399 -0.9221 -1.6776  1.9512
 4205SOL    HW224252   0.439   3.778   9.347  0.3637  0.5861  0.7966
 4206SOL     OW24253   2.311   3.425   0.382  0.4093 -0.0521  1.2329
 4206SOL    HW124254   2.378   3.490   0.404  0.5813  0.2522 -0.1928
 4206SOL    HW224255   2.227   3.470   0.374 -0.0219 -0.8258  1.4244
 4207SOL     OW24256   4.228   1.227   4.950 -0.0128 -0.2245  0.2462
 4207SOL    HW124257   4.162   1.221   5.018 -0.8754 -2.1835 -0.7884
 4207SOL    HW224258   4.208   1.312   4.910  0.5613 -0.8399 -1.3591
 4208SOL     OW24259   1.200   3.059   2.399 -0.7104  0.6136 -0.1693
 4208SOL    HW124260   1.256   2.987   2.430 -0.8290  0.5577 -0.0859
 4208SOL    HW224261   1.119   3.047   2.448  0.5101  1.2289  1.9534
 4209SOL     OW24262   1.835   4.043   2.175  0.1312  0.1476 -0.0071
 4209SOL    HW124263   1.842   4.074   2.265 -1.3007  1.4956 -0.3711
 4209SOL    HW224264   1.925   4.039   2.144  1.0141  0.9005  2.4966
 4210SOL     OW24265   0.356   1.913   7.239 -0.0358  0.0158  0.2839
 4210SOL    HW124266   0.345   1.841   7.300 -0.2534  0.6529  0.9955
 4210SOL    HW224267   0.285   1.971   7.264  0.8622  1.9716 -1.6574
 4211SOL     OW24268   0.347   4.373   3.348  0.0219 -0.3785  0.5170
 4211SOL    HW124269   0.402   4.397   3.273 -0.0009  1.1899  0.9889
 4211SOL    HW224270   0.283   4.445   3.350  1.4036  0.8428  0.6189
 4212SOL     OW24271   3.202   4.442   8.009  0.2469  0.1897  0.0177
 4212SOL    HW124272   3.214   4.347   8.000 -0.0589  0.3084 -1.5876
 4212SOL    HW224273   3.225   4.467   7.920 -0.5220  1.8545  0.3039
 4213SOL     OW24274   1.248   1.844   2.329 -0.8622  0.1489  0.0051
 4213SOL    HW124275   1.322   1.886   2.373  0.0133 -2.3648  0.9372
 4213SOL    HW224276   1.278   1.828   2.239  2.4773  0.4847  1.0632
 4214SOL     OW24277   1.031   2.967   8.586  0.2300  0.0444 -0.7524
 4214SOL    HW124278   1.043   3.052   8.628 -1.8642  0.1969 -0.4975
 4214SOL    HW224279   1.024   3.004   8.498 -0.1280  0.0052 -0.7367
 4215SOL     OW24280   2.476   0.118   6.091  0.3440 -0.0359  0.2266
 4215SOL    HW124281   2.387   0.085   6.079  1.0030 -1.4873 -0.5551
 4215SOL    HW224282   2.476   0.146   6.183  2.2430 -0.3638  0.3230
 4216SOL     OW24283   4.272   2.560   6.030  0.1499  0.6692  0.3402
 4216SOL    HW124284   4.270   2.640   5.977 -1.1568 -1.2395 -2.5216
 4216SOL    HW224285   4.368   2.550   6.031 -0.0539 -1.0712  2.1930
 4217SOL     OW24286   2.710   4.686   0.749 -0.3383  0.4028  0.1257
 4217SOL    HW124287   2.731   4.701   0.841 -1.9684 -0.4601  0.6418
 4217SOL    HW224288   2.637   0.012   0.734  0.0934  0.3776 -2.1289
 4218SOL     OW24289   4.414   1.282  16.661  0.1453  0.3696 -0.1718
 4218SOL    HW124290   4.373   1.312  16.742 -1.2321  0.3856 -0.8653
 4218SOL    HW224291   4.434   1.363  16.615  1.6205  1.2812  2.0838
 4219SOL     OW24292   3.268   4.280  16.901  0.4348 -0.0645  0.1747
 4219SOL    HW124293   3.319   4.201  16.923  0.5946 -0.2454 -0.8225
 4219SOL    HW224294   3.313   4.303  16.820  2.9157  1.2436  1.8977
 4220SOL     OW24295   4.216   0.714   7.780  0.5649  0.7407  0.2709
 4220SOL    HW124296   4.230   0.740   7.871  0.7226 -0.9242  0.7232
 4220SOL    HW224297   4.121   0.701   7.771  0.8474 -0.2450 -1.3269
 4221SOL     OW24298   2.607   3.455   8.374 -0.1348  0.0906 -0.2032
 4221SOL    HW124299   2.666   3.514   8.328 -0.4926  0.7146  0.1378
 4221SOL    HW224300   2.651   3.374   8.400 -0.0091  0.8440  1.9162
 4222SOL     OW24301   2.381   4.251  13.292 -0.4786  0.3735 -0.0780
 4222SOL    HW124302   2.308   4.221  13.347 -0.4250 -1.2741 -0.9281
 4222SOL    HW224303   2.407   4.180  13.234  0.4494  1.9229 -1.5638
 4223SOL     OW24304   1.129   0.218   7.092 -0.1379  0.4521  0.2176
 4223SOL    HW124305   1.120   0.263   7.176 -0.1675 -1.0550  1.0240
 4223SOL    HW224306   1.036   0.218   7.068 -0.1393 -1.7031  0.1674
 4224SOL     OW24307   2.233   3.619   2.913  0.3537  0.0517 -0.1616
 4224SOL    HW124308   2.271   3.703   2.937  0.9027  0.1282 -1.2837
 4224SOL    HW224309   2.142   3.625   2.940  0.8247  0.6464  1.2639
 4225SOL     OW24310   0.261   0.257   1.044 -0.1263  0.6344 -0.5780
 4225SOL    HW124311   0.175   0.224   1.020  1.0091 -2.5486 -0.2411
 4225SOL    HW224312   0.318   0.184   1.021  1.5459  1.8396 -0.2882
 4226SOL     OW24313   4.527   2.131   2.069 -0.1751  0.9552  0.0642
 4226SOL    HW124314   4.482   2.104   2.149 -0.9288 -2.8187 -1.6357
 4226SOL    HW224315   4.577   2.050   2.054 -0.6620  0.6527  0.0830
 4227SOL     OW24316   1.769   2.682   9.499 -0.0444 -0.2240  0.2989
 4227SOL    HW124317   1.785   2.712   9.589  1.4431  1.1256 -0.4092
 4227SOL    HW224318   1.840   2.620   9.486  0.4726  0.7365 -1.4648
 4228SOL     OW24319   4.646   3.444  13.444  0.1786  0.3103  0.1706
 4228SOL    HW124320   4.712   3.385  13.408 -0.5584 -0.6730  0.4175
 4228SOL    HW224321   4.684   3.495  13.516  1.3628  0.0525 -0.2792
 4229SOL     OW24322   0.975   1.548  15.246  0.0625  0.1413 -0.1934
 4229SOL    HW124323   0.907   1.482  15.238 -0.3566  0.4755  0.6030
 4229SOL    HW224324   0.916   1.620  15.268  1.4103  1.7790 -1.8540
 4230SOL     OW24325   2.143   1.124   4.316  0.0998  0.2714 -0.0187
 4230SOL    HW124326   2.186   1.109   4.400  0.2218  1.8835  0.2059
 4230SOL    HW224327   2.143   1.219   4.308 -1.7577  0.3370  0.8201
 4231SOL     OW24328   0.299   3.482   6.661 -0.3607 -0.5372  0.0817
 4231SOL    HW124329   0.230   3.418   6.677 -0.9485  0.8759  3.1667
 4231SOL    HW224330   0.321   3.462   6.570 -1.3772 -0.4257 -0.1829
 4232SOL     OW24331   4.727   1.690  14.993 -0.3263 -0.0245  0.1770
 4232SOL    HW124332   4.631   1.683  14.998 -0.4396  0.9472 -0.6294
 4232SOL    HW224333   0.015   1.765  14.938 -0.8041  0.8658  1.1842
 4233SOL     OW24334   4.034   4.574   4.128 -0.1820 -0.5104  0.3079
 4233SOL    HW124335   4.120   4.604   4.101  0.3861 -2.4980 -0.1378
 4233SOL    HW224336   3.993   4.586   4.042  1.0744 -2.9636 -0.6303
 4234SOL     OW24337   0.620   1.523   2.688  0.3048  0.0543  0.5485
 4234SOL    HW124338   0.715   1.529   2.697  0.2238  1.1828  0.6022
 4234SOL    HW224339   0.592   1.611   2.713 -0.0631  0.2768 -0.6629
 4235SOL     OW24340   3.004   2.571   1.731  0.6179 -0.4388 -0.3113
 4235SOL    HW124341   2.986   2.563   1.638 -1.6507 -1.5508  0.2203
 4235SOL    HW224342   3.019   2.663   1.755 -0.5872 -0.4335  0.3973
 4236SOL     OW24343   1.688   1.052   5.282 -0.6317 -0.5863  0.2167
 4236SOL    HW124344   1.731   1.136   5.296  0.1395 -0.7237 -1.3958
 4236SOL    HW224345   1.700   1.034   5.189  2.4256 -1.3755  0.7400
 4237SOL     OW24346   0.295   0.227   7.048  0.2614  0.0877  0.3061
 4237SOL    HW124347   0.340   0.146   7.024 -1.9039 -1.9696  3.1315
 4237SOL    HW224348   0.337   0.295   6.996 -2.0088  0.5525 -0.9159
 4238SOL     OW24349   3.320   1.163   7.874  0.0922 -0.3240 -0.6497
 4238SOL    HW124350   3.275   1.207   7.946  0.5634 -1.7481  0.5077
 4238SOL    HW224351   3.399   1.133   7.918  1.1578  0.6572 -1.8748
 4239SOL     OW24352   0.061   4.065  10.283 -0.0021  0.4218 -0.1526
 4239SOL    HW124353   0.144   4.068  10.236  0.7687  0.6352  1.2149
 4239SOL    HW224354   0.038   3.973  10.288 -1.1434  0.7175 -0.0863
 4240SOL     OW24355   4.215   3.419  11.238  0.3833  0.0046  0.0505
 4240SOL    HW124356   4.212   3.340  11.291  0.3339  1.0017  1.5249
 4240SOL    HW224357   4.271   3.478  11.288 -0.2010  0.5251  0.1052
 4241SOL     OW24358   2.455   3.947  15.299 -0.3942  0.2793 -0.2737
 4241SOL    HW124359   2.520   3.878  15.307  0.6912  1.3485  0.1284
 4241SOL    HW224360   2.470   3.989  15.383 -0.3973 -0.2330 -0.0222
 4242SOL     OW24361   0.696   3.775   3.777 -0.0099  0.4302  0.5794
 4242SOL    HW124362   0.709   3.685   3.747  1.5717  1.0580 -0.6284
 4242SOL    HW224363   0.674   3.820   3.695  0.3829  1.9194  1.2971
 4243SOL     OW24364   3.038   1.499   9.215  0.2178 -0.2721 -0.2389
 4243SOL    HW124365   3.123   1.533   9.244 -0.9893  0.3562  2.5810
 4243SOL    HW224366   3.068   1.485   9.125  1.1634  0.9359 -0.1167
 4244SOL     OW24367   4.453   2.291   5.999 -0.3181 -0.3904 -0.2314
 4244SOL    HW124368   4.468   2.204   5.961  3.1416 -0.2088  0.6893
 4244SOL    HW224369   4.426   2.265   6.087  0.2779  0.4847  0.2133
 4245SOL     OW24370   2.894   1.394   8.689 -0.6276 -0.1282  0.1341
 4245SOL    HW124371   2.845   1.334   8.633 -1.2239 -0.6800  1.2574
 4245SOL    HW224372   2.948   1.419   8.614 -0.3599 -1.8810 -0.2365
 4246SOL     OW24373   4.422   1.615  15.409  0.0469  0.6422 -0.1646
 4246SOL    HW124374   4.476   1.593  15.333 -0.9306  0.9242 -0.9295
 4246SOL    HW224375   4.370   1.536  15.423  0.2148  0.4384 -0.6642
 4247SOL     OW24376   1.342   4.530   5.197  0.0608  0.4882 -0.2077
 4247SOL    HW124377   1.412   4.519   5.261 -0.0957  0.1064 -0.0991
 4247SOL    HW224378   1.344   4.623   5.174  0.5770 -0.1992 -2.9303
 4248SOL     OW24379   1.576   1.396   7.418  0.0097  0.3022 -0.1959
 4248SOL    HW124380   1.588   1.468   7.356 -1.8394  0.6736 -0.1162
 4248SOL    HW224381   1.667   1.367   7.414 -0.6562 -1.7719 -0.1067
 4249SOL     OW24382   3.779   2.569   5.903 -0.2340  0.5524  0.3760
 4249SOL    HW124383   3.823   2.564   5.818 -0.3839 -3.4841  0.5470
 4249SOL    HW224384   3.686   2.569   5.880 -0.6238  0.5201  1.9261
 4250SOL     OW24385   3.321   2.249   8.043 -0.1822  0.4717  0.2301
 4250SOL    HW124386   3.377   2.326   8.032  0.3535  0.1646  0.8154
 4250SOL    HW224387   3.259   2.282   8.107 -0.1708 -0.4982  0.7424
 4251SOL     OW24388   3.543   0.249   6.153 -0.0918  0.3049  0.2937
 4251SOL    HW124389   3.638   0.257   6.141 -0.4287  0.1181 -2.3280
 4251SOL    HW224390   3.505   0.258   6.066 -2.5292  2.8526  1.6181
 4252SOL     OW24391   1.519   1.066   2.422 -0.1715 -0.0613 -0.4514
 4252SOL    HW124392   1.512   1.161   2.415 -1.0241 -0.3184 -2.9300
 4252SOL    HW224393   1.434   1.047   2.460 -0.3784  0.9424 -0.4087
 4253SOL     OW24394   1.302   3.959  10.823  0.4565 -0.3487 -0.3093
 4253SOL    HW124395   1.233   3.892  10.825  1.7614 -1.6726  1.4158
 4253SOL    HW224396   1.383   3.908  10.831 -0.3063 -1.6196 -0.6222
 4254SOL     OW24397   4.024   2.222   4.447  0.2372  0.0402  0.6993
 4254SOL    HW124398   4.097   2.283   4.432  0.5868 -1.1260 -2.4568
 4254SOL    HW224399   4.063   2.136   4.434  2.4633  0.8534  2.0297
 4255SOL     OW24400   0.069   0.407  16.237 -0.7588 -0.5660  0.0674
 4255SOL    HW124401   0.052   0.406  16.332  2.1354  0.0882  0.5971
 4255SOL    HW224402   0.085   0.501  16.231 -0.4409 -0.7058 -1.1795
 4256SOL     OW24403   1.130   0.145   3.447 -0.1149 -0.1152 -0.2921
 4256SOL    HW124404   1.069   0.193   3.504 -0.6028 -1.5366  0.3878
 4256SOL    HW224405   1.152   0.076   3.510 -0.5239 -0.4085 -0.4683
 4257SOL     OW24406   1.751   3.313   6.313 -0.3238  0.0892  0.3243
 4257SOL    HW124407   1.777   3.271   6.395  1.8323 -4.3680 -2.6523
 4257SOL    HW224408   1.800   3.396   6.309  2.3713 -1.4999  0.2217
 4258SOL     OW24409   3.835   3.342  14.359 -0.3839  0.0654 -0.5121
 4258SOL    HW124410   3.771   3.411  14.372  0.1355  0.1876  1.4533
 4258SOL    HW224411   3.822   3.329  14.265 -1.3308  1.3233 -0.5507
 4259SOL     OW24412   3.494   0.125   4.889 -0.2180 -0.0174  0.0968
 4259SOL    HW124413   3.480   0.181   4.965  0.4812 -1.9868  1.6901
 4259SOL    HW224414   3.568   0.175   4.854 -1.8455  1.1159 -1.6701
 4260SOL     OW24415   1.561   4.680  16.591 -0.0005 -0.2296  0.0822
 4260SOL    HW124416   1.582   4.608  16.531 -0.5642 -1.6693  1.6384
 4260SOL    HW224417   1.644   4.698  16.635  0.6554 -0.6434 -0.9694
 4261SOL     OW24418   4.206   3.836  16.489 -0.4299 -0.1873 -0.1170
 4261SOL    HW124419   4.130   3.791  16.526 -0.6027 -0.0335 -0.2813
 4261SOL    HW224420   4.281   3.779  16.505 -0.2512  0.0829 -0.0070
 4262SOL     OW24421   3.701   0.848   6.243  0.3535 -0.2383  0.3165
 4262SOL    HW124422   3.762   0.781   6.274 -2.0264 -1.8792  1.4610
 4262SOL    HW224423   3.762   0.917   6.216  1.0086 -0.1552  1.9965
 4263SOL     OW24424   2.661   0.947   6.906  0.4118  0.3101  0.2096
 4263SOL    HW124425   2.646   0.976   6.816  0.4833  0.1920  0.1611
 4263SOL    HW224426   2.570   0.934   6.933  0.6120 -1.7833 -0.1352
 4264SOL     OW24427   2.303   2.725   0.514  0.1746 -0.2564 -0.3433
 4264SOL    HW124428   2.368   2.698   0.450 -1.3790 -2.5135 -0.9864
 4264SOL    HW224429   2.236   2.775   0.468 -1.7818 -0.8154  1.8906
 4265SOL     OW24430   1.652   1.300   8.670  0.7424 -0.1559  0.7307
 4265SOL    HW124431   1.658   1.215   8.625 -0.7946 -0.2879  0.7493
 4265SOL    HW224432   1.626   1.350   8.592  2.7825  1.4562  1.0947
 4266SOL     OW24433   2.906   1.298   2.184 -0.0925  0.3409 -0.3410
 4266SOL    HW124434   2.818   1.287   2.148 -0.8432  0.0161  1.6126
 4266SOL    HW224435   2.963   1.244   2.129  2.1518  1.7593  0.6031
 4267SOL     OW24436   2.047   4.394   8.583 -0.0573  0.1962 -0.6528
 4267SOL    HW124437   2.131   4.349   8.570 -0.5376 -0.3547 -1.8036
 4267SOL    HW224438   2.075   4.470   8.634 -1.5029 -2.7008  4.4487
 4268SOL     OW24439   3.384   0.808   7.104  0.2678 -0.0671 -0.5660
 4268SOL    HW124440   3.468   0.827   7.146  0.0828  1.1135 -0.7273
 4268SOL    HW224441   3.396   0.862   7.026 -0.6321 -2.3347 -2.2644
 4269SOL     OW24442   3.583   4.030   8.870 -0.0453  0.0355 -0.0765
 4269SOL    HW124443   3.542   3.955   8.827 -1.5148  1.2413 -0.7703
 4269SOL    HW224444   3.516   4.070   8.925  1.3214 -0.1504  1.7302
 4270SOL     OW24445   2.830   2.404   0.520 -0.0100 -0.0290 -0.2883
 4270SOL    HW124446   2.785   2.474   0.568 -0.9631 -0.7306 -0.1496
 4270SOL    HW224447   2.786   2.410   0.435  0.6404  0.0256 -0.6163
 4271SOL     OW24448   1.945   0.935   7.780 -0.7043 -1.2613  0.0858
 4271SOL    HW124449   1.916   0.956   7.691 -0.4701  2.1472  0.8318
 4271SOL    HW224450   1.913   0.845   7.784  0.7546 -1.7510  0.8393
 4272SOL     OW24451   1.123   4.583   2.695  0.2029  0.1509  0.3364
 4272SOL    HW124452   1.117   4.618   2.606 -1.4061 -1.0045 -0.0170
 4272SOL    HW224453   1.186   4.512   2.685  0.0392  0.0532 -0.0060
 4273SOL     OW24454   3.942   4.160   1.189  0.2145  0.0371  0.2318
 4273SOL    HW124455   3.903   4.177   1.103  2.6792  0.8356 -0.7222
 4273SOL    HW224456   3.930   4.245   1.232  2.1918  0.4616 -0.0534
 4274SOL     OW24457   0.035   1.671   7.309  0.1259 -0.4047 -0.1317
 4274SOL    HW124458   0.057   1.674   7.402 -1.4338  2.3464  0.1611
 4274SOL    HW224459   4.680   1.638   7.306  0.8436 -2.6821  2.8998
 4275SOL     OW24460   1.448   4.621  17.612  0.0404  0.1577 -0.0131
 4275SOL    HW124461   1.492   4.688  17.559 -1.0626  3.3788  3.1523
 4275SOL    HW224462   1.455   4.542  17.559 -0.3904  0.6126 -0.7428
 4276SOL     OW24463   2.110   2.828   3.317 -0.1369  0.3818  0.4540
 4276SOL    HW124464   2.051   2.784   3.378  1.8265 -3.2015 -0.2785
 4276SOL    HW224465   2.197   2.827   3.356  0.3993  0.5504 -0.7211
 4277SOL     OW24466   0.392   0.045  12.916  0.0619 -0.2704 -0.6948
 4277SOL    HW124467   0.310   0.003  12.890 -1.3336  0.3305  2.7069
 4277SOL    HW224468   0.417   4.723  12.989 -0.7746 -2.6145 -2.1940
 4278SOL     OW24469   0.431   0.338   8.169  0.2024 -0.0376  0.1586
 4278SOL    HW124470   0.382   0.369   8.245 -3.7920  0.4006 -2.5728
 4278SOL    HW224471   0.417   0.245   8.184  0.1886  0.0971  0.9419
 4279SOL     OW24472   1.689   2.003  16.948  0.2022 -0.2885  0.1172
 4279SOL    HW124473   1.773   2.003  16.995  0.3270 -0.4969 -0.1068
 4279SOL    HW224474   1.639   1.934  16.992  1.9911 -0.7612  1.4277
 4280SOL     OW24475   0.744   0.338   2.426 -0.5593 -0.2219 -0.2851
 4280SOL    HW124476   0.703   0.350   2.340 -0.0878 -0.2598 -0.5150
 4280SOL    HW224477   0.824   0.388   2.409  0.9488 -2.9198 -1.1231
 4281SOL     OW24478   2.620   3.669   8.728  0.1696  0.1908  0.0830
 4281SOL    HW124479   2.560   3.724   8.778  0.1733  0.3753 -0.1147
 4281SOL    HW224480   2.574   3.674   8.645  1.1991  0.3915 -0.4736
 4282SOL     OW24481   2.848   0.541   6.466 -0.2602  0.0118  0.3078
 4282SOL    HW124482   2.888   0.459   6.493 -3.0557 -1.3209  0.4411
 4282SOL    HW224483   2.784   0.510   6.402  0.3902  1.8424 -1.2431
 4283SOL     OW24484   0.448   1.517   7.223  0.4478  0.3963  0.3732
 4283SOL    HW124485   0.445   1.506   7.128  0.6838 -0.1945  0.4360
 4283SOL    HW224486   0.435   1.424   7.241 -1.1959  0.5247 -0.1718
 4284SOL     OW24487   3.344   1.936   7.014 -0.0554  0.5776 -0.0600
 4284SOL    HW124488   3.421   1.988   7.037 -0.4225  0.8007  0.6472
 4284SOL    HW224489   3.330   1.979   6.929  2.5536  2.3723  0.4313
 4285SOL     OW24490   4.715   3.282  10.580 -0.3822  0.0504 -0.1478
 4285SOL    HW124491   4.705   3.302  10.673 -1.7387  0.7313 -0.4391
 4285SOL    HW224492   0.070   3.250  10.580 -1.2501 -2.3339 -1.5420
 4286SOL     OW24493   1.085   0.286   3.840 -0.3556  0.5829  0.4339
 4286SOL    HW124494   1.160   0.328   3.798 -0.0355 -1.0503 -0.6230
 4286SOL    HW224495   1.020   0.299   3.772  0.1862 -0.5314 -0.2839
 4287SOL     OW24496   4.319   0.965   2.193  0.1204  0.5533 -0.2017
 4287SOL    HW124497   4.344   0.961   2.285  1.9843  1.1629 -0.6799
 4287SOL    HW224498   4.389   0.920   2.146 -0.8055  0.3397 -1.4063
 4288SOL     OW24499   2.421   4.252  14.895 -0.3311 -0.1481  0.3583
 4288SOL    HW124500   2.467   4.212  14.821 -0.4561 -1.4001  0.9505
 4288SOL    HW224501   2.457   4.203  14.969  1.2946  3.2517  1.8500
 4289SOL     OW24502   3.279   0.321   3.093 -0.3305  0.5940 -0.4485
 4289SOL    HW124503   3.341   0.261   3.134  0.6600  1.2730 -0.9402
 4289SOL    HW224504   3.243   0.364   3.170 -1.7733  0.2583 -0.9293
 4290SOL     OW24505   0.790   4.098   5.829  0.2675 -0.2590 -0.2479
 4290SOL    HW124506   0.759   4.179   5.790  0.7070  0.4512  0.8833
 4290SOL    HW224507   0.854   4.134   5.891 -0.6557  0.3642  0.3431
 4291SOL     OW24508   4.347   0.232   4.322  0.0985  0.2882  0.0280
 4291SOL    HW124509   4.300   0.280   4.390 -1.5882 -0.2011 -0.7894
 4291SOL    HW224510   4.342   0.144   4.359  0.2703  0.4026  0.3259
 4292SOL     OW24511   1.894   3.416  15.817 -0.0558  0.1242  1.0747
 4292SOL    HW124512   1.845   3.388  15.741 -1.5193  2.2201  1.2335
 4292SOL    HW224513   1.956   3.344  15.825  0.4167  0.4172  0.0380
 4293SOL     OW24514   2.458   4.466   8.074 -0.0745  0.7207 -0.0290
 4293SOL    HW124515   2.485   4.557   8.071 -1.6693  1.2238  1.1233
 4293SOL    HW224516   2.539   4.428   8.110 -0.9582  0.0002  1.1828
 4294SOL     OW24517   2.284   3.171   5.363 -0.2679  0.1886  0.1063
 4294SOL    HW124518   2.275   3.112   5.288  0.3475 -0.5920  0.6457
 4294SOL    HW224519   2.199   3.215   5.357 -0.6429 -0.0558  3.4575
 4295SOL     OW24520   1.093   3.837   1.280  0.4630  0.4567 -0.1221
 4295SOL    HW124521   1.021   3.879   1.328  0.6761 -0.2209  0.8063
 4295SOL    HW224522   1.040   3.808   1.206  1.2333 -0.2652 -0.3883
 4296SOL     OW24523   4.624   3.137  14.241 -0.5076  0.1524 -0.6256
 4296SOL    HW124524   4.546   3.174  14.201 -1.4784 -0.5032  0.6512
 4296SOL    HW224525   4.637   3.191  14.318 -0.5443 -0.6281 -0.0684
 4297SOL     OW24526   0.284   2.186  15.104 -0.2261  0.6234 -0.0317
 4297SOL    HW124527   0.210   2.242  15.078 -0.2986 -0.6797 -2.7378
 4297SOL    HW224528   0.336   2.241  15.161 -1.2949 -0.3690  1.8929
 4298SOL     OW24529   3.163   2.078   2.784 -0.4506 -0.3543  0.5253
 4298SOL    HW124530   3.243   2.129   2.793 -0.1866 -0.6671 -0.0296
 4298SOL    HW224531   3.177   2.030   2.702  0.0481  1.8900 -0.7042
 4299SOL     OW24532   2.715   1.378  16.282  0.4770 -0.4760 -0.2010
 4299SOL    HW124533   2.649   1.345  16.344  0.6607  0.2665  0.3979
 4299SOL    HW224534   2.783   1.311  16.281  2.1001  1.1847  0.9555
 4300SOL     OW24535   0.951   2.159   3.192  0.4238  0.2446 -0.5672
 4300SOL    HW124536   0.953   2.240   3.244  0.1768 -0.0849 -0.0358
 4300SOL    HW224537   0.876   2.107   3.220  1.5852 -0.0689  1.9616
 4301SOL     OW24538   1.883   0.931   0.143  0.3640  0.6506 -0.6668
 4301SOL    HW124539   1.903   0.876   0.067 -1.3095 -0.2328 -0.4516
 4301SOL    HW224540   1.788   0.930   0.134  0.1242 -0.3468  1.9458
 4302SOL     OW24541   0.927   2.840   9.285 -0.0845 -0.7016 -0.3110
 4302SOL    HW124542   1.008   2.891   9.289  0.2750 -1.3261  0.3539
 4302SOL    HW224543   0.886   2.907   9.231 -1.3823  1.1023  2.9212
 4303SOL     OW24544   1.882   3.422   4.664 -0.6414  0.4827 -0.4861
 4303SOL    HW124545   1.826   3.405   4.740 -0.3983 -0.4111 -0.5126
 4303SOL    HW224546   1.969   3.395   4.692 -0.2894  0.9556 -1.1474
 4304SOL     OW24547   1.485   2.838   2.676 -0.1784 -0.3312  0.5797
 4304SOL    HW124548   1.575   2.807   2.668  0.4929  1.5792  0.8007
 4304SOL    HW224549   1.461   2.817   2.766 -0.9217 -1.6635  0.0675
 4305SOL     OW24550   1.456   1.985   2.456  0.5069 -0.2384  0.1539
 4305SOL    HW124551   1.530   1.952   2.406  0.5466  2.1381 -1.3820
 4305SOL    HW224552   1.472   2.079   2.452  2.3293 -0.5351  0.3810
 4306SOL     OW24553   2.361   1.375   5.948  0.3962 -0.2179 -0.1567
 4306SOL    HW124554   2.376   1.302   6.007 -0.6692 -0.9636 -0.8245
 4306SOL    HW224555   2.450   1.404   5.925 -0.6765  2.1828 -1.3716
 4307SOL     OW24556   2.247   0.603   1.081  0.2738  0.2155 -0.5083
 4307SOL    HW124557   2.167   0.564   1.115 -0.3219  1.2173 -0.7348
 4307SOL    HW224558   2.293   0.637   1.157 -1.4663  0.7240  0.3378
 4308SOL     OW24559   4.580   1.564  15.200  0.3435  0.0742  0.4164
 4308SOL    HW124560   4.581   1.515  15.118 -1.0381 -1.3190  1.2217
 4308SOL    HW224561   4.636   1.640  15.184 -2.6914  2.5058  1.3708
 4309SOL     OW24562   2.577   2.256  13.570 -0.5524 -0.7647 -0.0670
 4309SOL    HW124563   2.661   2.228  13.534 -0.1587  0.1573  0.1281
 4309SOL    HW224564   2.562   2.334  13.517  0.2229  1.0329  2.3620
 4310SOL     OW24565   1.446   4.226  12.669 -0.6376  0.5337  0.0614
 4310SOL    HW124566   1.517   4.182  12.717 -1.1212 -0.9354 -0.5766
 4310SOL    HW224567   1.397   4.156  12.626  0.4433 -0.2323  0.0770
 4311SOL     OW24568   1.653   2.683   8.541  0.2176 -0.0436  0.4282
 4311SOL    HW124569   1.675   2.592   8.561 -0.8025 -0.6060 -1.0407
 4311SOL    HW224570   1.611   2.676   8.456 -0.6634  0.8937  0.7911
 4312SOL     OW24571   0.677   2.737   6.293 -0.7110 -0.1743  0.0206
 4312SOL    HW124572   0.730   2.796   6.241 -2.2918  0.3158 -1.0267
 4312SOL    HW224573   0.605   2.721   6.232 -0.1742  0.9083 -0.8834
 4313SOL     OW24574   3.432   2.493   4.833 -0.2611  0.6032  0.3227
 4313SOL    HW124575   3.507   2.487   4.775 -1.1708  0.4326 -0.8415
 4313SOL    HW224576   3.351   2.492   4.782  0.2531 -0.7807 -0.4643
 4314SOL     OW24577   1.430   0.993   5.360 -0.2371  0.3781  0.0342
 4314SOL    HW124578   1.447   0.910   5.405 -2.7806 -1.1753 -1.8753
 4314SOL    HW224579   1.521   1.022   5.349 -0.0874  0.5842  1.9139
 4315SOL     OW24580   3.038   2.660   0.791  0.4205  0.0982  0.3369
 4315SOL    HW124581   3.077   2.746   0.811 -1.3355  0.9309  0.1338
 4315SOL    HW224582   2.962   2.699   0.748  0.3519 -1.4693 -0.9867
 4316SOL     OW24583   2.052   0.421   3.635  0.6698 -0.3548  0.3350
 4316SOL    HW124584   1.970   0.397   3.592 -0.5231  0.2293  2.2701
 4316SOL    HW224585   2.065   0.513   3.610  2.0464 -0.4761  0.5869
 4317SOL     OW24586   3.990   4.731   6.114 -0.4972 -0.4125 -0.6639
 4317SOL    HW124587   4.018   0.059   6.048 -0.5814 -0.1542 -0.4505
 4317SOL    HW224588   4.060   4.665   6.113  0.4060  0.5339  1.1260
 4318SOL     OW24589   1.542   4.298   3.612 -0.4152  0.2250  0.0069
 4318SOL    HW124590   1.484   4.223   3.623 -1.1607  1.0393  1.6457
 4318SOL    HW224591   1.615   4.268   3.666  0.9043  1.9192 -0.8379
 4319SOL     OW24592   2.787   2.300  12.190 -0.2301  0.2817 -0.4222
 4319SOL    HW124593   2.745   2.240  12.251  0.7437  0.3877  0.3637
 4319SOL    HW224594   2.715   2.350  12.153 -2.0970 -0.1102  2.6448
 4320SOL     OW24595   4.255   2.342   6.886  0.2605  0.0520 -0.3545
 4320SOL    HW124596   4.345   2.372   6.873  0.0533 -0.7316 -3.6226
 4320SOL    HW224597   4.229   2.380   6.970  0.6281 -2.6376  0.9738
 4321SOL     OW24598   4.456   0.930  11.124 -0.2588 -1.0732  0.0336
 4321SOL    HW124599   4.436   1.016  11.161  4.7940  0.6438 -1.2481
 4321SOL    HW224600   4.366   0.903  11.106 -0.5524  1.1573 -1.9049
 4322SOL     OW24601   0.567   0.867  10.763 -0.4877 -0.2387 -0.2308
 4322SOL    HW124602   0.520   0.807  10.705  1.7129 -1.1064 -1.1365
 4322SOL    HW224603   0.532   0.853  10.851  2.4305 -0.6548  0.8470
 4323SOL     OW24604   2.673   1.190   9.575  0.7380 -0.3933 -0.1242
 4323SOL    HW124605   2.703   1.278   9.556  2.8277 -0.7744  1.3454
 4323SOL    HW224606   2.609   1.169   9.507  0.8354  1.2327 -0.7107
 4324SOL     OW24607   4.700   0.333   7.877  0.0402  0.2297 -0.3818
 4324SOL    HW124608   4.657   0.250   7.899 -0.5059  0.8564  0.8815
 4324SOL    HW224609   4.623   0.389   7.888 -0.2302 -0.0053 -1.0588
 4325SOL     OW24610   3.730   0.639  15.788  0.4806  0.2711  0.1522
 4325SOL    HW124611   3.799   0.633  15.854  2.0273 -0.6277 -1.5216
 4325SOL    HW224612   3.680   0.563  15.817  1.1335  0.5647  2.0484
 4326SOL     OW24613   2.388   2.945   5.178 -0.3455 -0.5150  0.3366
 4326SOL    HW124614   2.414   2.897   5.257 -0.9797 -1.7519 -0.1997
 4326SOL    HW224615   2.466   3.000   5.166 -1.4832  0.6788 -1.4473
 4327SOL     OW24616   4.474   3.926  14.173 -0.5842 -0.0783 -0.1222
 4327SOL    HW124617   4.567   3.914  14.189 -0.5110 -0.7744 -1.0914
 4327SOL    HW224618   4.475   3.997  14.108  1.1503 -0.1062 -0.1181
 4328SOL     OW24619   2.578   0.905  10.012 -0.5638 -0.1936 -0.3204
 4328SOL    HW124620   2.528   0.948  10.082 -0.9123  0.4608 -0.9743
 4328SOL    HW224621   2.569   0.969   9.942  0.4724 -0.2378 -0.5008
 4329SOL     OW24622   2.815   1.505   5.268  0.2710  0.2095  0.0689
 4329SOL    HW124623   2.815   1.421   5.314 -1.7804  0.4934  0.5546
 4329SOL    HW224624   2.795   1.467   5.182  0.1832  2.0959 -0.7414
 4330SOL     OW24625   4.406   3.270   3.422  0.0038  0.3890 -0.1512
 4330SOL    HW124626   4.346   3.341   3.398 -2.7875 -1.7532  0.5101
 4330SOL    HW224627   4.385   3.270   3.515  0.4294  3.1007 -0.0528
 4331SOL     OW24628   0.166   2.931   5.552  0.6946  0.1762  0.0385
 4331SOL    HW124629   0.127   2.920   5.639 -1.7917 -0.1451 -1.1246
 4331SOL    HW224630   0.124   3.013   5.526  2.6861  1.6509  1.4512
 4332SOL     OW24631   0.085   3.521   3.249 -0.7562 -0.1161  0.2324
 4332SOL    HW124632   0.089   3.474   3.165 -0.1737  0.0678  0.1545
 4332SOL    HW224633   0.060   3.453   3.311  1.8299 -1.9529 -0.7106
 4333SOL     OW24634   0.259   1.150  16.768 -0.0416 -0.2247  0.8732
 4333SOL    HW124635   0.204   1.140  16.690  0.5382  1.5032  0.2221
 4333SOL    HW224636   0.273   1.245  16.776  1.5671 -0.3634 -0.4131
 4334SOL     OW24637   4.725   4.343   5.812 -0.3633  0.0395 -0.1046
 4334SOL    HW124638   0.067   4.396   5.836  0.3484 -2.4804  3.1178
 4334SOL    HW224639   4.703   4.298   5.893 -0.7208  2.5276  1.1828
 4335SOL     OW24640   0.175   4.526  11.601  0.5099 -0.2561 -0.4944
 4335SOL    HW124641   0.125   4.607  11.591 -1.0190 -1.2212 -0.6753
 4335SOL    HW224642   0.149   4.469  11.529 -1.6747 -1.9338  1.6081
 4336SOL     OW24643   3.248   4.189   0.501  0.3794  0.1369  0.2522
 4336SOL    HW124644   3.229   4.282   0.488 -0.1343 -0.0398 -0.2559
 4336SOL    HW224645   3.343   4.185   0.513  0.3339  1.0076  0.9343
 4337SOL     OW24646   0.018   3.611  16.050  0.1177 -0.1289 -0.5627
 4337SOL    HW124647   4.703   3.607  16.131  1.1007  0.9809  0.0984
 4337SOL    HW224648   4.693   3.622  15.976 -0.0753 -1.5883 -0.6354
 4338SOL     OW24649   2.016   1.792   2.193 -0.1801 -0.1506 -0.1950
 4338SOL    HW124650   2.041   1.855   2.126 -1.5415  0.6526  0.0616
 4338SOL    HW224651   2.079   1.815   2.260 -1.1350 -0.7337  0.9134
 4339SOL     OW24652   0.261   1.680   5.971 -0.0549 -0.8019 -0.0842
 4339SOL    HW124653   0.173   1.666   6.006 -0.9319  0.5201 -1.7795
 4339SOL    HW224654   0.265   1.775   5.980 -1.8965 -0.8501  1.4959
 4340SOL     OW24655   3.544   2.815   8.772 -0.2784  0.0665  0.3942
 4340SOL    HW124656   3.478   2.884   8.762 -0.6663 -0.2044  1.1054
 4340SOL    HW224657   3.490   2.739   8.791 -0.9632  0.5617  0.4334
 4341SOL     OW24658   4.083   0.288   3.551  0.1894  0.0078  0.2454
 4341SOL    HW124659   4.033   0.210   3.526 -0.9043  0.7088  0.2568
 4341SOL    HW224660   4.014   0.337   3.595 -0.2956 -1.0066  0.6009
 4342SOL     OW24661   1.403   1.858   9.784  0.3729 -0.0359  0.4744
 4342SOL    HW124662   1.450   1.888   9.707 -0.4791  1.6711  0.6301
 4342SOL    HW224663   1.467   1.799   9.825  0.7851  0.2289  0.2033
 4343SOL     OW24664   3.130   3.088   8.615 -0.5785 -0.4681  0.0361
 4343SOL    HW124665   3.114   3.176   8.648 -1.1161 -0.1160 -1.1602
 4343SOL    HW224666   3.223   3.084   8.593 -0.5003 -1.1390  0.5144
 4344SOL     OW24667   0.836   3.256  15.578 -0.5877  0.0396 -0.3798
 4344SOL    HW124668   0.927   3.277  15.598 -0.2609 -1.8105  0.0300
 4344SOL    HW224669   0.845   3.214  15.492  2.0946  2.4179 -1.2603
 4345SOL     OW24670   3.025   0.581   6.779  0.1197 -0.5501 -0.0837
 4345SOL    HW124671   2.972   0.505   6.757 -0.2687 -0.7950  1.7764
 4345SOL    HW224672   3.022   0.589   6.874 -1.2009 -0.1509 -0.1661
 4346SOL     OW24673   4.359   4.683  16.954 -0.0592  0.2805 -0.1582
 4346SOL    HW124674   4.271   4.712  16.976 -2.0183 -4.3206 -1.6988
 4346SOL    HW224675   4.343   4.633  16.873  0.7038 -0.3849  0.0980
 4347SOL     OW24676   1.995   3.035   5.030 -0.0166  0.4162 -0.5361
 4347SOL    HW124677   1.991   3.057   5.123  1.6696 -1.3166 -0.0464
 4347SOL    HW224678   1.905   3.004   5.027 -0.0711  0.3855  1.9954
 4348SOL     OW24679   2.952   1.376  13.035  0.3974  0.3414  0.3252
 4348SOL    HW124680   2.876   1.423  13.067 -0.7613 -0.3130 -1.4654
 4348SOL    HW224681   2.967   1.416  12.949  1.7111  0.4911  0.6248
 4349SOL     OW24682   1.552   3.011   3.356 -0.1836  0.0637 -0.1887
 4349SOL    HW124683   1.637   3.038   3.320 -1.1987  1.8347 -1.2190
 4349SOL    HW224684   1.493   3.052   3.293  1.4772 -0.7204 -2.2908
 4350SOL     OW24685   2.043   0.887  13.865  0.5245  0.0796 -0.4850
 4350SOL    HW124686   1.984   0.849  13.800  0.7060  1.0168 -1.2041
 4350SOL    HW224687   2.076   0.809  13.909  0.5040 -0.0041 -0.6171
 4351SOL     OW24688   0.434   1.742   4.153  0.4281 -0.2759  0.3151
 4351SOL    HW124689   0.351   1.789   4.153  0.3566 -0.3616 -2.4972
 4351SOL    HW224690   0.489   1.820   4.151 -1.9076  1.3479 -0.9749
 4352SOL     OW24691   2.309   0.597   9.993  0.2240 -0.6507  0.3302
 4352SOL    HW124692   2.266   0.525   9.947  2.0321 -1.3035 -0.3490
 4352SOL    HW224693   2.270   0.595  10.080 -0.5074 -0.2236  0.0091
 4353SOL     OW24694   4.292   1.142  10.149 -0.1123  0.0981  0.1200
 4353SOL    HW124695   4.264   1.178  10.234  0.1832 -0.5253  0.4855
 4353SOL    HW224696   4.383   1.169  10.160 -1.1001  3.3399  0.3713
 4354SOL     OW24697   4.355   2.987   6.879 -0.5802  0.0974  0.1838
 4354SOL    HW124698   4.413   2.916   6.848 -0.9325 -1.2637  2.5785
 4354SOL    HW224699   4.274   2.957   6.839  0.5915  0.2970 -2.3438
 4355SOL     OW24700   2.570   0.310   5.400  0.2415 -0.1502 -0.3452
 4355SOL    HW124701   2.657   0.281   5.371  0.6240 -1.5438  2.2371
 4355SOL    HW224702   2.513   0.239   5.372 -1.1268  0.9319 -0.2833
 4356SOL     OW24703   4.600   3.562   6.518  0.5293  0.0506 -0.6715
 4356SOL    HW124704   4.619   3.473   6.488  0.2171 -0.3501  0.3136
 4356SOL    HW224705   4.613   3.611   6.437 -0.3191  0.7868 -0.3707
 4357SOL     OW24706   4.214   0.616   6.185 -0.3458  0.4253  0.2333
 4357SOL    HW124707   4.164   0.534   6.194 -0.2688  0.3705  0.1642
 4357SOL    HW224708   4.138   0.669   6.162  1.0213  1.0286 -2.7785
 4358SOL     OW24709   2.324   3.599  10.063  0.7451  0.0308  0.2161
 4358SOL    HW124710   2.314   3.504  10.066  1.9559 -0.0795  0.6524
 4358SOL    HW224711   2.310   3.606   9.969 -1.3192 -1.4769  0.3857
 4359SOL     OW24712   0.222   0.829   2.119 -0.6820 -0.4242  0.4671
 4359SOL    HW124713   0.236   0.736   2.103  2.3483  0.0719  0.0623
 4359SOL    HW224714   0.300   0.855   2.169 -0.7959 -1.7153  1.3057
 4360SOL     OW24715   0.832   1.400  12.554  0.2954 -0.9146  0.1391
 4360SOL    HW124716   0.789   1.480  12.586 -0.4923 -0.8485 -1.0847
 4360SOL    HW224717   0.827   1.346  12.633 -1.2723 -1.4010 -0.2990
 4361SOL     OW24718   2.726   4.561   8.390  0.6498 -0.4363  0.2697
 4361SOL    HW124719   2.647   4.518   8.425  0.5978  0.3536  1.1292
 4361SOL    HW224720   2.772   4.491   8.344 -0.8863  1.6236 -4.4177
 4362SOL     OW24721   3.404   1.678   3.563 -0.7405 -0.1078  0.1645
 4362SOL    HW124722   3.450   1.602   3.600 -1.4620 -0.8537 -0.4620
 4362SOL    HW224723   3.421   1.663   3.470  1.4974 -0.6993  0.6713
 4363SOL     OW24724   1.283   2.761   5.172  0.1956  0.2755  0.2047
 4363SOL    HW124725   1.220   2.822   5.211  0.0409 -0.9499  1.8872
 4363SOL    HW224726   1.277   2.686   5.231  1.4919 -1.0505 -1.3726
 4364SOL     OW24727   1.141   3.436   4.796 -0.3689  0.0206 -0.0595
 4364SOL    HW124728   1.114   3.422   4.887 -0.1151 -0.1840 -0.0171
 4364SOL    HW224729   1.071   3.389   4.751 -0.3032  0.3415 -0.5089
 4365SOL     OW24730   4.297   2.531  13.648  0.5849  0.5166  0.3986
 4365SOL    HW124731   4.262   2.598  13.589  1.6730 -1.4424 -2.5078
 4365SOL    HW224732   4.234   2.535  13.720 -1.7044 -0.1125 -1.5585
 4366SOL     OW24733   3.006   1.678   4.500 -0.2505 -0.2545  0.3900
 4366SOL    HW124734   3.052   1.594   4.509  1.2208  0.7518  2.4348
 4366SOL    HW224735   2.983   1.682   4.593 -0.0068 -2.6844  0.5616
 4367SOL     OW24736   2.267   1.164   3.952 -0.1768 -0.6223 -0.8955
 4367SOL    HW124737   2.187   1.188   3.905 -1.2639 -0.4633  1.0251
 4367SOL    HW224738   2.236   1.094   4.009  1.0068 -1.2214 -0.9851
 4368SOL     OW24739   0.545   1.447   5.585 -0.1646 -0.0186  0.1087
 4368SOL    HW124740   0.563   1.359   5.618  1.5649  0.9403  1.7345
 4368SOL    HW224741   0.478   1.486   5.640 -0.6529 -0.6203 -0.0655
 4369SOL     OW24742   0.990   2.973  10.906 -0.6677  0.2982 -0.1216
 4369SOL    HW124743   1.008   2.901  10.967 -1.5623  1.2961  1.3128
 4369SOL    HW224744   1.061   3.032  10.930 -0.6591 -0.5141  1.8743
 4370SOL     OW24745   4.579   2.507   7.468 -0.3302  0.3820  0.9280
 4370SOL    HW124746   4.637   2.465   7.531  1.4869  0.5706 -0.6249
 4370SOL    HW224747   4.601   2.599   7.484  2.3381 -0.0957  0.0246
 4371SOL     OW24748   0.259   1.801   1.000 -0.0659 -0.1158 -0.1938
 4371SOL    HW124749   0.191   1.854   1.041 -1.1844 -1.7594  0.0760
 4371SOL    HW224750   0.237   1.814   0.908 -0.9099  0.5447  0.1111
 4372SOL     OW24751   3.795   1.825   0.668 -0.6099  0.7516  0.0932
 4372SOL    HW124752   3.857   1.853   0.735 -0.1991 -1.4609  0.6360
 4372SOL    HW224753   3.712   1.812   0.714 -0.0463 -3.3628 -0.0394
 4373SOL     OW24754   3.335   2.324   1.580  0.1068 -0.5025  0.2828
 4373SOL    HW124755   3.355   2.252   1.639  0.7194 -0.2298  0.4094
 4373SOL    HW224756   3.335   2.283   1.493  2.7068  0.2977 -0.1056
 4374SOL     OW24757   2.385   2.453   4.129  0.1934 -0.0963 -0.1171
 4374SOL    HW124758   2.369   2.437   4.036 -0.5912 -0.3764  0.0615
 4374SOL    HW224759   2.461   2.510   4.128 -0.2930  0.4746 -4.6887
 4375SOL     OW24760   1.260   2.600  11.016 -0.0938 -0.4192  0.3582
 4375SOL    HW124761   1.226   2.609  10.927 -0.8464 -0.5975  0.6322
 4375SOL    HW224762   1.335   2.659  11.009  0.4277 -0.8905  2.1123
 4376SOL     OW24763   1.788   1.894   6.159  0.1092  0.0675  0.0700
 4376SOL    HW124764   1.745   1.852   6.084 -0.1219  0.0529  0.2099
 4376SOL    HW224765   1.791   1.827   6.227  1.5564 -0.4135 -0.4546
 4377SOL     OW24766   0.030   1.771   1.725  0.2496 -0.4445  0.4249
 4377SOL    HW124767   4.689   1.728   1.765  0.6367 -1.4799  0.0405
 4377SOL    HW224768   0.096   1.766   1.794  0.4709  0.4624  0.2895
 4378SOL     OW24769   4.350   1.334   2.668 -0.6574 -0.1606  0.0753
 4378SOL    HW124770   4.438   1.298   2.679 -0.2369  0.5696 -0.9209
 4378SOL    HW224771   4.337   1.351   2.574 -0.0559  0.1354  0.0491
 4379SOL     OW24772   2.646   4.004   8.800  0.2908  0.4001 -0.2870
 4379SOL    HW124773   2.570   3.948   8.788 -0.3194  0.9522  0.9668
 4379SOL    HW224774   2.648   4.016   8.895  0.1321  2.5235 -0.5501
 4380SOL     OW24775   3.892   0.007  11.050  0.0450  0.0362  0.4225
 4380SOL    HW124776   3.907   4.702  10.964  0.8438 -1.2752  1.1604
 4380SOL    HW224777   3.805   4.707  11.070 -0.3037 -0.4206 -1.9461
 4381SOL     OW24778   1.836   2.897  17.162  0.3183 -0.1058 -0.5599
 4381SOL    HW124779   1.830   2.802  17.147 -0.6180 -0.4949  2.2855
 4381SOL    HW224780   1.778   2.906  17.238  0.3614 -0.2305 -0.5123
 4382SOL     OW24781   0.879   0.001   7.432  0.4190 -0.4082 -0.1334
 4382SOL    HW124782   0.849   4.690   7.511  1.6555 -2.4211 -0.8393
 4382SOL    HW224783   0.812   4.718   7.366  0.0562  1.1837 -0.1825
 4383SOL     OW24784   2.432   2.089   7.692  0.0814  0.3074 -0.1044
 4383SOL    HW124785   2.368   2.056   7.755 -0.7851  1.9782 -0.1182
 4383SOL    HW224786   2.383   2.147   7.634  0.5792  0.2769 -0.5555
 4384SOL     OW24787   2.115   4.467  13.092 -0.2102  0.2374 -0.1425
 4384SOL    HW124788   2.111   4.432  13.003 -1.2272  1.9245 -0.7462
 4384SOL    HW224789   2.209   4.478  13.109  0.0301  0.0757 -1.3396
 4385SOL     OW24790   4.525   4.385   5.150  0.0560 -0.8964  0.2052
 4385SOL    HW124791   4.571   4.399   5.067  0.2919  1.7913  0.7984
 4385SOL    HW224792   4.532   4.290   5.154 -0.9283 -0.9518  0.4480
 4386SOL     OW24793   3.280   0.518   4.824 -0.2777  0.5719  0.9207
 4386SOL    HW124794   3.217   0.587   4.842  0.6503  1.4026  1.0199
 4386SOL    HW224795   3.228   0.439   4.839  0.4676 -0.2893 -0.8884
 4387SOL     OW24796   0.095   1.519   8.223  0.5104  0.2035 -0.2699
 4387SOL    HW124797   0.085   1.559   8.137  0.5336  2.3523  0.7312
 4387SOL    HW224798   0.174   1.469   8.203  1.6915  1.0252  2.3170
 4388SOL     OW24799   1.213   1.608   8.868 -0.1296  0.3016  0.3409
 4388SOL    HW124800   1.300   1.602   8.828 -1.3581 -0.2855 -2.2880
 4388SOL    HW224801   1.207   1.529   8.923 -1.5834  0.5469  0.5383
 4389SOL     OW24802   4.486   0.630  15.514 -0.5481  0.0262 -0.0287
 4389SOL    HW124803   4.433   0.563  15.471  1.1898 -1.9430  0.9009
 4389SOL    HW224804   4.570   0.585  15.520 -0.5367  0.1481  0.7811
 4390SOL     OW24805   2.164   0.424   9.835  0.4957  0.1401 -0.4219
 4390SOL    HW124806   2.194   0.462   9.752  0.5931  0.4629 -0.2400
 4390SOL    HW224807   2.068   0.421   9.825  0.5483 -0.3374 -0.7751
 4391SOL     OW24808   2.925   0.067   4.428  0.0566 -0.0782  0.2145
 4391SOL    HW124809   2.937   4.708   4.408 -0.9767 -0.5500  1.8131
 4391SOL    HW224810   3.004   0.092   4.474  0.5290 -2.4191  0.6702
 4392SOL     OW24811   0.655   0.539   5.287 -0.1779 -0.2998 -0.1137
 4392SOL    HW124812   0.574   0.530   5.236 -0.8141 -2.6614  1.3207
 4392SOL    HW224813   0.668   0.633   5.276  1.6041 -0.4071  1.1724
 4393SOL     OW24814   2.180   0.048  13.981  0.1113  0.1916 -0.0234
 4393SOL    HW124815   2.182   4.690  13.955 -0.7132  1.0634 -3.2352
 4393SOL    HW224816   2.139   0.098  13.911 -1.9731 -1.7890 -0.2185
 4394SOL     OW24817   0.893   4.542  14.652 -0.0765  0.1556 -0.5871
 4394SOL    HW124818   0.925   4.455  14.629  0.1175  0.1033 -0.1023
 4394SOL    HW224819   0.895   4.532  14.747  2.8172  0.2915 -0.6464
 4395SOL     OW24820   4.473   4.671   2.279  0.1128 -0.0152 -0.4099
 4395SOL    HW124821   4.401   4.734   2.277 -1.7791 -2.1915 -0.7760
 4395SOL    HW224822   4.529   4.694   2.205  0.4346 -3.1336 -1.1476
 4396SOL     OW24823   4.147   1.056   6.419 -0.0507 -0.1214  0.2395
 4396SOL    HW124824   4.157   1.041   6.513  0.4603  0.9565  0.3524
 4396SOL    HW224825   4.208   1.129   6.410  1.5711 -1.5436 -0.2116
 4397SOL     OW24826   3.870   1.124   7.762 -0.0766 -0.4008 -0.4862
 4397SOL    HW124827   3.868   1.036   7.800 -1.4242 -0.1169  0.1230
 4397SOL    HW224828   3.963   1.128   7.740  0.5822 -0.3706  2.3454
 4398SOL     OW24829   0.110   0.127   8.122  0.0863 -0.1557 -0.2130
 4398SOL    HW124830   0.030   0.124   8.069 -0.1495 -2.6977  0.2677
 4398SOL    HW224831   0.084   0.172   8.202  0.3257  2.1159 -1.4161
 4399SOL     OW24832   2.349   1.080   2.996 -0.0348  0.0830 -0.1950
 4399SOL    HW124833   2.283   1.117   2.937 -1.0693 -1.7401 -0.1808
 4399SOL    HW224834   2.406   1.031   2.937 -0.1148 -1.2838  0.8558
 4400SOL     OW24835   2.922   1.778  16.969  0.0921 -0.9258  0.8369
 4400SOL    HW124836   2.924   1.766  16.874  0.2232 -0.9937  0.8480
 4400SOL    HW224837   2.859   1.712  17.000 -1.2516  0.7980  1.7975
 4401SOL     OW24838   3.562   3.140   9.519  0.2308  0.0095 -0.1937
 4401SOL    HW124839   3.541   3.227   9.485  1.4087  0.4450  0.1860
 4401SOL    HW224840   3.603   3.098   9.443 -1.1670  0.5425 -1.2402
 4402SOL     OW24841   2.502   3.121   7.785 -0.4719  0.6267 -0.1287
 4402SOL    HW124842   2.594   3.109   7.808 -0.9119 -0.4865  1.0840
 4402SOL    HW224843   2.477   3.099   7.875 -0.0330  1.9327  0.3012
 4403SOL     OW24844   2.544   0.041   8.083  0.3371 -0.3776 -0.1029
 4403SOL    HW124845   2.605   0.034   8.157  1.0415 -0.6350 -0.7055
 4403SOL    HW224846   2.460   0.045   8.129  0.7251  0.5498  0.5226
 4404SOL     OW24847   4.582   0.931  12.988  0.3175 -0.6850 -0.3014
 4404SOL    HW124848   4.616   0.985  13.059  0.2272 -0.5247 -0.3809
 4404SOL    HW224849   4.548   0.996  12.926 -0.0297 -0.2860  0.3166
 4405SOL     OW24850   1.723   1.302   7.051 -0.3986 -0.1607  0.2088
 4405SOL    HW124851   1.807   1.280   7.011  0.0055  3.3109 -0.8928
 4405SOL    HW224852   1.732   1.396   7.067 -0.7377  0.0865 -1.0782
 4406SOL     OW24853   1.417   3.097   1.833 -0.3786  0.0108  0.1016
 4406SOL    HW124854   1.438   3.019   1.781 -0.0838  0.1343  0.0347
 4406SOL    HW224855   1.468   3.086   1.914 -1.1904  1.8080  0.8392
 4407SOL     OW24856   1.332   1.634   3.380 -0.3482  0.1616  0.2180
 4407SOL    HW124857   1.402   1.572   3.359  0.4118  0.1767  2.7280
 4407SOL    HW224858   1.322   1.695   3.308 -0.5989  1.7902  1.6301
 4408SOL     OW24859   1.624   4.339  17.184 -0.5035 -0.6919 -0.2589
 4408SOL    HW124860   1.576   4.409  17.140 -2.7395 -1.4072  1.0593
 4408SOL    HW224861   1.708   4.382  17.201 -1.4115  0.0841  2.2781
 4409SOL     OW24862   0.838   0.507  10.270  0.0069  0.5928 -0.2004
 4409SOL    HW124863   0.928   0.534  10.287 -0.2824  0.9043  0.9031
 4409SOL    HW224864   0.855   0.427  10.220  0.0254  0.0111  0.7201
 4410SOL     OW24865   4.297   4.677   6.430  0.0373  0.2226  0.7293
 4410SOL    HW124866   4.342   4.681   6.345 -0.4192  1.2986  0.5386
 4410SOL    HW224867   4.358   4.614   6.468 -0.5199 -0.2258  0.8866
 4411SOL     OW24868   2.572   3.159   3.630  0.4670  0.7165 -0.3001
 4411SOL    HW124869   2.546   3.249   3.651  0.0293  0.5012  0.0794
 4411SOL    HW224870   2.580   3.119   3.716  3.0249  1.6610 -0.0934
 4412SOL     OW24871   3.026   2.243  16.957 -0.7498 -0.0970 -0.1540
 4412SOL    HW124872   3.023   2.278  17.047  0.4150  0.9544 -0.5255
 4412SOL    HW224873   3.024   2.329  16.916 -0.1454 -0.5335 -1.1010
 4413SOL     OW24874   1.384   3.657   8.009 -0.1782  0.2588 -0.1346
 4413SOL    HW124875   1.459   3.716   7.999 -1.4772  1.8452 -0.6521
 4413SOL    HW224876   1.417   3.592   8.070  1.3437  0.3769 -0.8475
 4414SOL     OW24877   4.037   1.917   7.464  0.6889  0.1908  0.1335
 4414SOL    HW124878   4.030   1.841   7.523 -1.1898 -0.6192 -1.1380
 4414SOL    HW224879   4.046   1.990   7.526 -0.5377  0.3632  0.1178
 4415SOL     OW24880   2.091   0.411   7.151 -0.4739  0.2180  0.1521
 4415SOL    HW124881   2.078   0.484   7.212 -0.2735 -0.3966  0.9296
 4415SOL    HW224882   2.003   0.375   7.148  0.5653 -2.4264  1.7759
 4416SOL     OW24883   2.542   4.216   1.273 -0.5659 -0.4652 -0.0158
 4416SOL    HW124884   2.482   4.291   1.267 -0.0892 -0.0493  0.4650
 4416SOL    HW224885   2.615   4.245   1.326 -1.0939  0.8869 -0.0037
 4417SOL     OW24886   2.403   4.266   6.902 -0.6990 -0.3164 -0.0317
 4417SOL    HW124887   2.482   4.276   6.849  1.2849 -0.8813  2.8317
 4417SOL    HW224888   2.349   4.341   6.875  0.1205 -0.4786 -2.1092
 4418SOL     OW24889   3.364   0.096   5.639 -0.1010 -0.2015 -0.0509
 4418SOL    HW124890   3.291   0.157   5.633  0.4495  0.3256 -1.4555
 4418SOL    HW224891   3.331   0.014   5.676  1.0411 -0.6321  0.0129
 4419SOL     OW24892   0.770   4.449  16.981  0.3387 -0.2036 -0.0226
 4419SOL    HW124893   0.795   4.524  16.928  2.9104 -2.6016 -2.1963
 4419SOL    HW224894   0.844   4.390  16.969  0.0519 -0.8182  1.1428
 4420SOL     OW24895   3.828   1.867   1.173  0.3369 -0.9602 -0.3935
 4420SOL    HW124896   3.811   1.792   1.230  1.7950  0.2160  1.5809
 4420SOL    HW224897   3.739   1.866   1.137  0.1188  0.0747  0.1306
 4421SOL     OW24898   0.126   4.266   5.574  0.1246  0.1013 -0.2786
 4421SOL    HW124899   0.071   4.280   5.652  1.8252 -0.7499  1.0874
 4421SOL    HW224900   0.151   4.174   5.584 -2.9790 -0.5975  1.1162
 4422SOL     OW24901   1.159   1.959  12.370  0.1024  0.2143 -0.0784
 4422SOL    HW124902   1.186   2.021  12.437  0.5964  0.1749 -0.2417
 4422SOL    HW224903   1.126   1.886  12.421 -1.5291  0.3963 -0.8773
 4423SOL     OW24904   1.199   1.117   5.436  0.2774 -0.1595  0.0349
 4423SOL    HW124905   1.286   1.078   5.437  0.3074 -0.0814  0.6339
 4423SOL    HW224906   1.212   1.185   5.370  0.4944 -1.2437 -1.0416
 4424SOL     OW24907   1.980   4.202  14.743  0.1632  0.2666  0.4055
 4424SOL    HW124908   1.978   4.113  14.778  0.8419  0.2654  0.4411
 4424SOL    HW224909   2.045   4.235  14.805 -0.0813  0.4330  0.5737
 4425SOL     OW24910   4.286   3.901   4.694  0.3467  0.0279  0.2953
 4425SOL    HW124911   4.296   3.917   4.787 -1.2779 -0.0187  0.4671
 4425SOL    HW224912   4.227   3.969   4.664  1.5311  0.3758 -1.2698
 4426SOL     OW24913   1.233   3.323  13.372 -0.4932  0.1627  0.4541
 4426SOL    HW124914   1.301   3.301  13.436  0.6286 -0.9070 -1.1187
 4426SOL    HW224915   1.254   3.415  13.352 -0.6641  0.4756  1.7275
 4427SOL     OW24916   4.412   1.629   9.867  0.0242  0.2932  0.3134
 4427SOL    HW124917   4.499   1.591   9.857  0.3242  0.9173  0.5297
 4427SOL    HW224918   4.387   1.610   9.957  2.2275 -2.4405  0.3276
 4428SOL     OW24919   1.788   0.696   3.211 -0.2532  0.2602 -0.1663
 4428SOL    HW124920   1.783   0.792   3.211  0.5364  0.3258 -2.2394
 4428SOL    HW224921   1.752   0.665   3.293  1.7640  1.4251  1.1619
 4429SOL     OW24922   2.477   3.516  14.868  0.5501  0.8719 -0.3504
 4429SOL    HW124923   2.389   3.496  14.899  0.0424 -0.3650 -2.5408
 4429SOL    HW224924   2.535   3.455  14.913 -0.1798 -0.6374 -1.4681
 4430SOL     OW24925   3.292   0.683   6.245  0.1875 -0.1533  0.0044
 4430SOL    HW124926   3.344   0.726   6.313  0.7369  0.3752 -0.7512
 4430SOL    HW224927   3.323   0.595   6.266  0.6219 -0.0507 -0.2056
 4431SOL     OW24928   2.147   0.090   5.745 -0.2839  0.0711  0.1195
 4431SOL    HW124929   2.131   4.730   5.746 -0.0836  0.0418  0.6578
 4431SOL    HW224930   2.241   0.093   5.758 -0.0525  2.2769 -1.9965
 4432SOL     OW24931   1.710   3.570   0.889  0.3804 -0.4230  0.0482
 4432SOL    HW124932   1.650   3.632   0.847  0.3779  0.5592  1.5401
 4432SOL    HW224933   1.754   3.535   0.811 -0.0947  2.3985 -1.4845
 4433SOL     OW24934   1.338   0.333   7.581 -0.0080  0.0123 -0.2003
 4433SOL    HW124935   1.341   0.419   7.540 -0.7529  0.4460  0.6818
 4433SOL    HW224936   1.428   0.319   7.550  0.5599  0.2932  1.3568
 4434SOL     OW24937   1.193   2.465   4.994  0.0983 -0.3982  0.1049
 4434SOL    HW124938   1.272   2.512   5.021  0.9542 -0.8069 -1.6978
 4434SOL    HW224939   1.222   2.463   4.903  2.1540  0.1326  0.7467
 4435SOL     OW24940   1.900   3.762   5.662  0.3791  0.1411 -0.2353
 4435SOL    HW124941   1.955   3.805   5.598  2.1791  0.4964  1.5439
 4435SOL    HW224942   1.938   3.780   5.748  0.0684 -0.9246  0.1209
 4436SOL     OW24943   0.556   2.079   4.456 -0.0013 -0.2069 -0.3401
 4436SOL    HW124944   0.596   2.086   4.542 -0.8617  0.3149  0.0191
 4436SOL    HW224945   0.615   2.138   4.409  0.5266 -0.8017 -0.4113
 4437SOL     OW24946   0.761   2.419   5.310  0.3763 -0.4992 -0.3876
 4437SOL    HW124947   0.833   2.470   5.272  0.2197  1.1606  1.5510
 4437SOL    HW224948   0.800   2.336   5.337 -1.7154 -1.2183  0.3757
 4438SOL     OW24949   0.112   3.352   9.004 -0.1312 -0.3877 -0.4416
 4438SOL    HW124950   0.087   3.302   8.926  0.5556 -0.0464 -0.8697
 4438SOL    HW224951   0.204   3.328   9.009 -0.2627 -0.6700  0.7624
 4439SOL     OW24952   0.596   2.968  15.497  0.4124 -0.0586  0.7132
 4439SOL    HW124953   0.592   2.904  15.427  1.6538  1.4934 -0.7944
 4439SOL    HW224954   0.657   2.932  15.561  1.5463 -0.1299 -0.3966
 4440SOL     OW24955   4.329   1.444   9.280  0.2585 -0.4536 -0.0324
 4440SOL    HW124956   4.365   1.530   9.302 -0.7809 -0.0123 -0.0827
 4440SOL    HW224957   4.272   1.423   9.354  0.3470 -1.5149 -0.2608
 4441SOL     OW24958   1.344   1.606  10.581  0.9018 -0.1370  0.1713
 4441SOL    HW124959   1.287   1.682  10.570  2.6786  1.1958  0.1841
 4441SOL    HW224960   1.426   1.651  10.603  0.0809  0.9858  0.9014
 4442SOL     OW24961   4.593   1.721   2.811  0.4356  0.5161  0.2591
 4442SOL    HW124962   4.584   1.748   2.720 -2.6701  1.3983  0.8243
 4442SOL    HW224963   4.624   1.804   2.848 -1.0442  1.0863  0.2002
 4443SOL     OW24964   1.226   3.789   5.515  0.2136 -0.0265  0.1192
 4443SOL    HW124965   1.280   3.842   5.456 -0.9594  1.0602  0.0064
 4443SOL    HW224966   1.140   3.823   5.492 -0.1071 -2.2878 -1.9477
 4444SOL     OW24967   0.476   0.444  14.755 -0.3581  0.3924  0.7032
 4444SOL    HW124968   0.531   0.510  14.798 -1.1130  0.7753  1.0861
 4444SOL    HW224969   0.526   0.365  14.737  2.9820  2.1904  2.0017
 4445SOL     OW24970   0.992   2.486   9.468  0.3393 -0.4488 -0.2587
 4445SOL    HW124971   0.923   2.544   9.501  0.7233  0.4655 -1.1007
 4445SOL    HW224972   0.932   2.420   9.432  0.8389 -0.6103 -0.7840
 4446SOL     OW24973   4.015   2.650   9.116  0.1311 -1.1713 -0.3739
 4446SOL    HW124974   3.980   2.610   9.195 -0.2869  2.0821  1.0789
 4446SOL    HW224975   3.959   2.728   9.116 -0.5095 -1.6343  0.8803
 4447SOL     OW24976   2.949   2.828   1.883  0.0170  0.5194 -0.3995
 4447SOL    HW124977   2.863   2.788   1.894  0.8460 -0.3807  2.7684
 4447SOL    HW224978   2.938   2.860   1.793  0.8870 -0.5460 -0.8855
 4448SOL     OW24979   3.590   2.132   1.020 -0.0496  0.1423  0.1471
 4448SOL    HW124980   3.581   2.191   0.945 -0.5201 -0.1307 -0.0124
 4448SOL    HW224981   3.679   2.153   1.047 -0.3037 -0.4592  1.4615
 4449SOL     OW24982   2.412   1.878   7.944  0.1407 -0.1815 -0.3592
 4449SOL    HW124983   2.460   1.819   7.885 -1.8794 -1.5876 -0.6058
 4449SOL    HW224984   2.326   1.835   7.942 -1.1623  2.4019  1.8135
 4450SOL     OW24985   3.663   0.281   4.626 -0.0879 -0.4598  0.6402
 4450SOL    HW124986   3.594   0.224   4.593  1.3086  0.4692 -3.9368
 4450SOL    HW224987   3.738   0.242   4.580 -0.4584  0.2593 -0.5717
 4451SOL     OW24988   1.977   3.753  14.899 -0.1550 -0.2343 -0.0420
 4451SOL    HW124989   1.958   3.669  14.941 -1.7249 -0.6274 -1.5654
 4451SOL    HW224990   1.986   3.814  14.972 -0.9663 -1.0674  0.7531
 4452SOL     OW24991   0.531   2.737   5.167 -0.1830  0.5565 -0.2385
 4452SOL    HW124992   0.573   2.742   5.253  0.0919 -1.0930 -0.2677
 4452SOL    HW224993   0.601   2.702   5.111 -2.3677 -1.5296 -1.6466
 4453SOL     OW24994   1.392   2.874  15.858  0.1432  0.3745  0.2523
 4453SOL    HW124995   1.436   2.944  15.905 -0.2990  0.7925  0.0464
 4453SOL    HW224996   1.411   2.812  15.928  0.2681  0.6102  0.4260
 4454SOL     OW24997   0.525   2.617   6.728 -0.0938 -0.2317  0.4451
 4454SOL    HW124998   0.518   2.655   6.641 -2.6184 -0.3584  0.5840
 4454SOL    HW224999   0.437   2.586   6.748  0.0181 -1.1198 -0.4607
 4455SOL     OW25000   2.244   2.492   2.362 -0.2729  0.3472 -0.0319
 4455SOL    HW125001   2.179   2.537   2.417  1.8181  2.0521  1.0353
 4455SOL    HW225002   2.315   2.545   2.398 -0.3330  0.9485 -0.8016
 4456SOL     OW25003   2.112   0.968   4.838  0.7368  0.1553  0.4710
 4456SOL    HW125004   2.144   0.878   4.850  0.2641  0.2053  2.0704
 4456SOL    HW225005   2.069   0.973   4.923  0.9400 -0.0877  0.5898
 4457SOL     OW25006   1.416   1.852   2.716  0.4193  0.2890 -0.9758
 4457SOL    HW125007   1.475   1.783   2.686  0.1458  0.0518 -0.9675
 4457SOL    HW225008   1.409   1.917   2.645 -2.8629  1.5230  0.4910
 4458SOL     OW25009   0.931   0.100   6.298  0.2908 -0.1142 -0.4646
 4458SOL    HW125010   1.025   0.095   6.313  0.4087  0.7836 -0.8560
 4458SOL    HW225011   0.902   0.012   6.275  0.4056 -0.0251 -0.9594
 4459SOL     OW25012   2.947   4.487   1.677  0.1147  0.3911 -0.8113
 4459SOL    HW125013   2.889   4.545   1.628 -1.0065  1.9356  2.3321
 4459SOL    HW225014   3.004   4.447   1.612  1.4524  0.8373  0.0881
 4460SOL     OW25015   1.057   2.171   1.870  0.3454  0.2780 -0.4024
 4460SOL    HW125016   0.970   2.176   1.829  0.1677  0.4201 -0.0060
 4460SOL    HW225017   1.036   2.130   1.954 -0.0062  1.0794 -0.0999
 4461SOL     OW25018   1.183   3.323   2.447  0.1193 -0.3863 -0.5567
 4461SOL    HW125019   1.227   3.358   2.369  0.3678  0.9394  0.1825
 4461SOL    HW225020   1.217   3.234   2.438  2.3120  0.0442  3.3224
 4462SOL     OW25021   4.061   1.396   6.784 -0.1779 -0.3250  0.1184
 4462SOL    HW125022   4.104   1.482   6.782 -3.3783  1.3400  1.8523
 4462SOL    HW225023   4.059   1.380   6.690  0.1714 -1.7135  0.3572
 4463SOL     OW25024   1.670   3.291   7.147  0.3662 -0.3291 -0.3015
 4463SOL    HW125025   1.632   3.378   7.129  0.2741  0.3155  3.0574
 4463SOL    HW225026   1.701   3.255   7.064 -0.6718  2.2761 -1.8382
 4464SOL     OW25027   1.341   3.391   4.632  0.4772 -0.0168  0.8956
 4464SOL    HW125028   1.323   3.471   4.582 -0.4332 -0.4392  0.5534
 4464SOL    HW225029   1.283   3.402   4.707  1.2211  0.5484  1.4013
 4465SOL     OW25030   3.141   2.921   0.782 -0.3772  0.2978  0.0474
 4465SOL    HW125031   3.083   2.997   0.785  1.3808  1.6645 -0.5936
 4465SOL    HW225032   3.145   2.900   0.689  2.0481  1.1600 -0.0474
 4466SOL     OW25033   3.082   2.224   9.798  0.0739 -0.5094 -0.6271
 4466SOL    HW125034   3.041   2.143   9.768  0.1393 -0.4893 -0.7664
 4466SOL    HW225035   3.110   2.266   9.717 -3.3820  2.1330 -0.4636
 4467SOL     OW25036   0.438   1.904   5.033 -0.3126 -0.3607 -0.4586
 4467SOL    HW125037   0.366   1.965   5.052  1.1457  0.6441  1.9118
 4467SOL    HW225038   0.401   1.817   5.051  0.2984 -0.4695  0.2545
 4468SOL     OW25039   3.458   4.395   5.292 -0.3611 -0.0313 -0.5018
 4468SOL    HW125040   3.418   4.471   5.248  0.2977 -0.1605 -1.3209
 4468SOL    HW225041   3.550   4.417   5.281 -0.1747  0.1591  1.6029
 4469SOL     OW25042   2.993   0.178  13.482 -0.1443 -0.4776 -0.2152
 4469SOL    HW125043   2.965   0.156  13.393 -0.8904 -0.5097  0.0234
 4469SOL    HW225044   3.058   0.109  13.492  0.3464  0.0406  0.1367
 4470SOL     OW25045   4.647   0.793  16.507  0.2989 -0.0030  0.0698
 4470SOL    HW125046   4.612   0.882  16.495  0.9341  0.3206  0.5839
 4470SOL    HW225047   4.569   0.759  16.551 -0.7636 -1.3421 -2.9160
 4471SOL     OW25048   2.876   1.283   5.404 -0.3265  0.0245 -0.0593
 4471SOL    HW125049   2.833   1.247   5.327 -0.8943  1.4049 -0.3958
 4471SOL    HW225050   2.876   1.218   5.475 -1.6377 -0.4989 -0.5429
 4472SOL     OW25051   2.415   3.210   7.550 -0.5684  0.0833 -0.3416
 4472SOL    HW125052   2.399   3.183   7.640 -0.9450 -1.7817 -0.9682
 4472SOL    HW225053   2.489   3.157   7.522  3.3778  3.7667  3.1263
 4473SOL     OW25054   4.149   0.170  12.219 -0.2073 -0.0965  0.2505
 4473SOL    HW125055   4.102   0.252  12.204 -2.1861 -0.7274  3.0134
 4473SOL    HW225056   4.236   0.199  12.245 -0.1439 -0.7784  0.7791
 4474SOL     OW25057   3.263   2.185   7.774 -0.2574 -0.3843 -0.1762
 4474SOL    HW125058   3.272   2.161   7.866 -0.0161  0.2650 -0.0314
 4474SOL    HW225059   3.178   2.230   7.776  0.6601  1.4855 -2.8201
 4475SOL     OW25060   2.342   3.415  13.681 -0.2248 -0.3299 -0.5732
 4475SOL    HW125061   2.309   3.454  13.600 -0.2171  0.5162 -0.1629
 4475SOL    HW225062   2.398   3.482  13.721  0.9272 -0.9238 -1.1877
 4476SOL     OW25063   4.111   4.191   9.206 -0.4680  0.2058 -0.5841
 4476SOL    HW125064   4.186   4.210   9.261  0.5545 -0.0789 -1.8869
 4476SOL    HW225065   4.043   4.194   9.274 -0.6348 -0.8728 -0.6996
 4477SOL     OW25066   1.703   3.317  16.665 -0.0330  0.3320  0.5743
 4477SOL    HW125067   1.728   3.273  16.746  1.8971 -1.5987 -1.0875
 4477SOL    HW225068   1.706   3.245  16.602 -1.1428  1.4479 -0.7705
 4478SOL     OW25069   2.472   3.416   2.130  0.2785  0.0014  0.0474
 4478SOL    HW125070   2.562   3.424   2.099 -0.1623  0.5069 -1.1086
 4478SOL    HW225071   2.443   3.493   2.080 -0.0523 -0.8534 -1.0824
 4479SOL     OW25072   3.431   0.804   7.995  0.0136  0.5981 -0.1708
 4479SOL    HW125073   3.502   0.741   7.991  2.1283  2.9142  0.5764
 4479SOL    HW225074   3.358   0.742   8.000  0.2526  0.5771  3.3913
 4480SOL     OW25075   3.646   2.577   3.068 -0.0149 -0.0156  0.0338
 4480SOL    HW125076   3.575   2.525   3.030  3.2290 -1.7602 -3.6131
 4480SOL    HW225077   3.713   2.565   3.001 -0.2836 -0.8160 -0.0884
 4481SOL     OW25078   4.489   1.143   4.782 -0.1916 -0.0606 -0.1238
 4481SOL    HW125079   4.450   1.088   4.849 -0.4044  1.3169  0.8927
 4481SOL    HW225080   4.543   1.083   4.730  0.6735  1.7373 -1.3157
 4482SOL     OW25081   4.550   4.146  12.781  0.1644 -0.4801 -0.1229
 4482SOL    HW125082   4.485   4.080  12.760 -0.9096  0.5412 -0.0271
 4482SOL    HW225083   4.620   4.127  12.718 -0.0455 -2.0281  0.1170
 4483SOL     OW25084   3.911   4.662   2.738 -0.4083 -0.1322 -0.1540
 4483SOL    HW125085   3.835   4.604   2.736 -1.4699  1.1433  4.5059
 4483SOL    HW225086   3.879   4.732   2.681 -0.7360 -1.0388 -1.1072
 4484SOL     OW25087   4.501   0.478   6.998  0.4901  0.3307 -0.0918
 4484SOL    HW125088   4.415   0.514   6.977  1.1207  1.3187 -0.9373
 4484SOL    HW225089   4.505   0.498   7.092  0.2998  1.7935 -0.4017
 4485SOL     OW25090   3.478   3.062   6.026 -0.0657 -0.1349  0.4312
 4485SOL    HW125091   3.414   3.091   5.962 -0.1722 -3.1006 -0.8104
 4485SOL    HW225092   3.443   3.095   6.109 -3.7670 -1.6113 -0.5324
 4486SOL     OW25093   3.496   1.932   8.391 -0.1769  0.3188 -0.3544
 4486SOL    HW125094   3.577   1.970   8.356 -0.1482  0.8204  0.2543
 4486SOL    HW225095   3.530   1.874   8.459  2.1185  1.7888 -0.2616
 4487SOL     OW25096   2.710   1.730  14.558  0.7191 -0.3179  0.3813
 4487SOL    HW125097   2.692   1.819  14.591  1.5499 -0.3021  0.8027
 4487SOL    HW225098   2.621   1.702  14.536  1.0267 -2.8138  2.2906
 4488SOL     OW25099   2.861   3.380   3.389  0.0525 -0.1772 -0.2098
 4488SOL    HW125100   2.807   3.362   3.466  0.1467  0.8072  0.0913
 4488SOL    HW225101   2.799   3.352   3.321  0.3180  1.2942 -1.0631
 4489SOL     OW25102   3.048   2.346   7.790  0.5473  0.5752  0.3137
 4489SOL    HW125103   3.056   2.427   7.841  1.1857  1.5545 -1.3399
 4489SOL    HW225104   2.954   2.333   7.799  0.4269  0.8393 -0.5934
 4490SOL     OW25105   0.126   2.498   8.961  0.8379 -0.3166 -0.4097
 4490SOL    HW125106   0.207   2.474   9.006  0.3774 -0.0868  0.5531
 4490SOL    HW225107   0.102   2.568   9.022  0.3224 -1.1356  0.3296
 4491SOL     OW25108   4.721   1.501   2.927  0.7133  0.5399 -0.0240
 4491SOL    HW125109   0.027   1.556   2.994  1.2201 -1.2237  1.1003
 4491SOL    HW225110   4.673   1.563   2.871  0.1995 -0.0489 -0.2321
 4492SOL     OW25111   0.436   0.261   6.042 -0.2765  0.0723 -0.4621
 4492SOL    HW125112   0.441   0.347   6.084  0.7204 -0.4665  0.5104
 4492SOL    HW225113   0.341   0.252   6.037 -0.4140  1.5047 -0.6531
 4493SOL     OW25114   2.991   2.938  11.393 -0.2415  0.2225 -0.0721
 4493SOL    HW125115   2.901   2.906  11.391  0.0472 -0.6612  0.7662
 4493SOL    HW225116   2.995   3.000  11.321  0.7611 -0.2561 -0.4320
 4494SOL     OW25117   1.572   4.664  15.278 -0.0159 -0.3988  0.2341
 4494SOL    HW125118   1.537   4.694  15.361  0.6465  0.8803  0.0516
 4494SOL    HW225119   1.505   4.599  15.256  1.0766 -1.6830  0.6648
 4495SOL     OW25120   4.628   0.426   4.784  0.1295 -0.1940 -0.1937
 4495SOL    HW125121   4.622   0.482   4.707  1.8780 -0.2562 -0.3921
 4495SOL    HW225122   4.721   0.403   4.779  0.4615  0.5058  2.8246
 4496SOL     OW25123   2.861   2.808   0.630 -0.0556  0.4138  0.2712
 4496SOL    HW125124   2.817   2.831   0.711  0.5780  0.3926  0.6179
 4496SOL    HW225125   2.788   2.815   0.569  2.1029  0.6442 -2.3267
 4497SOL     OW25126   2.049   3.489   1.967 -0.1440 -0.0724  0.6288
 4497SOL    HW125127   2.109   3.444   1.908 -0.2847  1.3988 -0.6315
 4497SOL    HW225128   2.055   3.581   1.942  0.4135 -0.0646  0.7934
 4498SOL     OW25129   0.206   2.004   9.295  0.4574 -0.0168 -0.2777
 4498SOL    HW125130   0.266   2.079   9.299  0.6789 -0.2048 -0.0820
 4498SOL    HW225131   0.121   2.048   9.299 -0.6108 -2.1643  1.2026
 4499SOL     OW25132   1.631   0.588   6.323 -0.1819 -0.4296 -0.2493
 4499SOL    HW125133   1.645   0.677   6.353 -0.8366  0.1807 -1.7745
 4499SOL    HW225134   1.709   0.552   6.366  1.9679  2.3738 -1.8102
 4500SOL     OW25135   1.131   1.586   2.267 -0.1710 -0.0261  0.1108
 4500SOL    HW125136   1.171   1.673   2.274 -0.4907 -0.0919  2.8341
 4500SOL    HW225137   1.048   1.596   2.313  0.1217  0.2318  0.5902
 4501SOL     OW25138   4.126   0.123   1.807  0.3214  0.1197 -0.1946
 4501SOL    HW125139   4.186   0.168   1.867  1.7807 -1.3465 -0.5352
 4501SOL    HW225140   4.087   0.205   1.777 -1.1244 -0.2301  0.7248
 4502SOL     OW25141   4.572   1.121  14.506  0.0983  0.9556  0.3222
 4502SOL    HW125142   4.567   1.118  14.602 -1.1739 -1.1438  0.1954
 4502SOL    HW225143   4.619   1.038  14.494 -2.1065 -0.1677 -0.5830
 4503SOL     OW25144   3.834   3.492  16.056 -0.4804 -0.6102  0.5479
 4503SOL    HW125145   3.814   3.410  16.103 -3.6899 -1.0424 -1.5288
 4503SOL    HW225146   3.748   3.512  16.019 -1.2665 -0.4588  2.4283
 4504SOL     OW25147   4.459   0.620   2.287  0.5190 -0.2043 -0.1521
 4504SOL    HW125148   4.466   0.677   2.211 -1.5170  0.1145 -0.0907
 4504SOL    HW225149   4.537   0.647   2.336  0.1255 -1.4101  1.1685
 4505SOL     OW25150   4.303   3.955   5.120  0.6731  0.5139 -0.5627
 4505SOL    HW125151   4.219   3.958   5.073  1.3256  0.2733 -1.7534
 4505SOL    HW225152   4.334   3.868   5.095  0.0215  0.3146 -0.6846
 4506SOL     OW25153   0.393   1.560   6.965  0.5454  0.2477  0.2282
 4506SOL    HW125154   0.431   1.505   6.896 -1.3104  0.0157 -0.6017
 4506SOL    HW225155   0.335   1.614   6.912  0.0608 -0.6573 -0.1607
 4507SOL     OW25156   4.712   2.950  14.403  0.2154  0.1688 -0.1442
 4507SOL    HW125157   4.650   2.878  14.389 -0.5672  1.3983 -3.0926
 4507SOL    HW225158   4.665   3.009  14.344 -1.1663 -1.1393 -0.3629
 4508SOL     OW25159   3.231   0.842   5.986 -0.1703 -0.0151 -0.2753
 4508SOL    HW125160   3.249   0.794   6.067  3.6291 -0.9892 -1.6696
 4508SOL    HW225161   3.294   0.914   5.981 -0.0847  0.0503  1.6871
 4509SOL     OW25162   2.407   1.462  14.262  0.2667 -0.4921 -0.0009
 4509SOL    HW125163   2.488   1.503  14.231  0.5078 -1.9857 -1.3605
 4509SOL    HW225164   2.429   1.374  14.294 -1.8258 -0.3824  1.7065
 4510SOL     OW25165   1.645   1.459   6.559  0.0413  0.9406  0.3775
 4510SOL    HW125166   1.698   1.491   6.632 -0.2728  0.0640  0.9849
 4510SOL    HW225167   1.556   1.465   6.592 -0.3513 -0.5979 -0.4136
 4511SOL     OW25168   2.344   2.307  10.155 -0.3252 -0.3268 -0.0699
 4511SOL    HW125169   2.257   2.299  10.115  0.3764 -1.6397 -1.3531
 4511SOL    HW225170   2.328   2.273  10.243 -1.6138 -2.4884 -1.1357
 4512SOL     OW25171   0.063   0.509   7.095 -0.4887  0.5041  0.6839
 4512SOL    HW125172   0.063   0.603   7.114 -1.0539  0.5944  0.2642
 4512SOL    HW225173   4.704   0.491   7.108 -0.1858 -1.3775  0.3153
 4513SOL     OW25174   1.780   0.604  15.590 -0.2566  0.3751 -0.1550
 4513SOL    HW125175   1.726   0.664  15.538  1.0255  0.0799 -1.8616
 4513SOL    HW225176   1.864   0.649  15.597  1.5912 -3.0654 -0.0149
 4514SOL     OW25177   1.662   0.872   6.411 -0.3668 -0.1071  0.2476
 4514SOL    HW125178   1.740   0.903   6.456 -1.1101 -0.0601  1.4973
 4514SOL    HW225179   1.638   0.922   6.333 -1.4022  0.9615  1.2591
 4515SOL     OW25180   0.038   4.086  15.399 -0.5961 -0.3040 -0.0431
 4515SOL    HW125181   0.072   4.011  15.446 -1.2816 -0.8226 -0.3698
 4515SOL    HW225182   0.121   4.120  15.365 -0.3117 -0.2827  0.6796
 4516SOL     OW25183   0.904   3.775   7.620 -0.3666  0.1503  0.6986
 4516SOL    HW125184   0.869   3.771   7.709 -0.9106 -0.3158  0.4650
 4516SOL    HW225185   0.984   3.724   7.635 -0.2553  0.2922  0.5829
 4517SOL     OW25186   3.776   2.072   5.833 -0.1690  0.0625 -0.0435
 4517SOL    HW125187   3.792   2.111   5.747  2.7315 -0.4642  0.2718
 4517SOL    HW225188   3.786   2.149   5.889 -1.1828 -0.2959  0.6240
 4518SOL     OW25189   1.666   2.840  17.341  0.5644 -0.0544  0.7641
 4518SOL    HW125190   1.576   2.811  17.323  0.9519 -0.1470 -1.0130
 4518SOL    HW225191   1.690   2.774  17.405 -2.0648 -1.9494 -0.1925
 4519SOL     OW25192   0.376   0.309  12.099 -0.4759  0.3138  0.0344
 4519SOL    HW125193   0.413   0.387  12.140  0.2731 -0.1228  0.1971
 4519SOL    HW225194   0.428   0.242  12.142 -2.2907 -1.5775 -0.7387
 4520SOL     OW25195   1.238   4.157   9.135  0.0543  0.0011  0.0393
 4520SOL    HW125196   1.306   4.220   9.157  1.1632 -1.5875  1.2318
 4520SOL    HW225197   1.196   4.191   9.056 -2.9414 -1.6634  0.9142
 4521SOL     OW25198   3.966   3.727  17.593 -0.0124  0.2194  0.1548
 4521SOL    HW125199   4.026   3.795  17.561 -1.8010 -0.2696 -4.2896
 4521SOL    HW225200   3.883   3.774  17.591  1.6186  3.0704 -1.2046
 4522SOL     OW25201   1.186   2.118   5.810 -0.0684 -0.3650  0.2644
 4522SOL    HW125202   1.158   2.058   5.741  0.9911  1.5849 -1.8469
 4522SOL    HW225203   1.110   2.108   5.867 -0.8768  0.6549 -0.6350
 4523SOL     OW25204   2.458   0.107   4.658  0.4785 -0.1597 -0.1387
 4523SOL    HW125205   2.482   0.023   4.697  0.3532 -0.2931 -0.3489
 4523SOL    HW225206   2.386   0.079   4.601  0.7966 -0.0074 -0.6130
 4524SOL     OW25207   4.171   0.936   0.946 -0.2799  0.0188 -0.3056
 4524SOL    HW125208   4.182   0.841   0.948  2.5594  0.3583  0.3946
 4524SOL    HW225209   4.159   0.959   1.038  1.0600  1.6270 -0.5247
 4525SOL     OW25210   0.114   1.694  11.099  0.4339 -0.5494  0.7102
 4525SOL    HW125211   0.146   1.785  11.095 -2.3975  0.4135 -0.2879
 4525SOL    HW225212   0.053   1.683  11.026 -0.6581  1.3215  1.3298
 4526SOL     OW25213   4.022   1.424  15.007  0.4609 -0.1062  0.3408
 4526SOL    HW125214   3.952   1.423  15.072 -0.6668  1.5976 -0.8297
 4526SOL    HW225215   4.003   1.349  14.950 -2.2645 -0.5057  1.7926
 4527SOL     OW25216   2.922   0.915  14.206  0.1407 -0.6627  0.3409
 4527SOL    HW125217   2.932   1.008  14.227 -1.3581 -0.0184 -1.8171
 4527SOL    HW225218   2.957   0.909  14.117 -2.9152 -1.6725 -0.7961
 4528SOL     OW25219   3.950   3.432  17.653 -0.2279  0.5162 -0.0489
 4528SOL    HW125220   4.036   3.431  17.612 -0.1362 -0.2065  0.1654
 4528SOL    HW225221   3.914   3.512  17.615 -1.2698 -0.0010 -0.1587
 4529SOL     OW25222   4.278   0.078   4.000  0.1002  0.7218  0.6898
 4529SOL    HW125223   4.206   0.134   4.028 -0.0425  0.3766  1.0188
 4529SOL    HW225224   4.293   0.024   4.078 -0.5341  0.2104  0.4611
 4530SOL     OW25225   4.728   1.625   3.632  0.1524 -0.4481 -0.5245
 4530SOL    HW125226   0.070   1.625   3.688 -0.6236  2.6423  0.5268
 4530SOL    HW225227   4.666   1.678   3.684 -0.0351 -0.6722 -0.5192
 4531SOL     OW25228   4.470   2.047   5.915 -0.2288 -0.0819 -0.2859
 4531SOL    HW125229   4.559   2.067   5.945 -0.9784  1.3232  1.0571
 4531SOL    HW225230   4.484   1.970   5.861 -0.1122 -0.2462 -0.0198
 4532SOL     OW25231   2.672   3.884   6.602 -0.1629  0.4433 -0.2363
 4532SOL    HW125232   2.701   3.794   6.611 -1.3314  0.2430  1.4476
 4532SOL    HW225233   2.688   3.898   6.509 -1.9870  0.8008 -0.4974
 4533SOL     OW25234   3.671   1.882  13.546  0.1194 -0.9245  0.5107
 4533SOL    HW125235   3.599   1.913  13.492  0.9959 -0.5447 -0.4505
 4533SOL    HW225236   3.652   1.788  13.554  0.7210 -0.9442  1.6638
 4534SOL     OW25237   0.581   1.208   1.320 -0.0754 -0.3860  0.1682
 4534SOL    HW125238   0.504   1.184   1.269  0.1762 -0.6249 -0.0983
 4534SOL    HW225239   0.561   1.302   1.326  0.4214 -0.3633  1.4678
 4535SOL     OW25240   0.190   2.998   4.400 -0.1183  0.3702 -0.5961
 4535SOL    HW125241   0.099   3.017   4.378 -0.7150  0.1153  1.6787
 4535SOL    HW225242   0.242   3.068   4.361  1.2046  0.3460  1.0897
 4536SOL     OW25243   4.130   1.481  11.443  0.5506 -0.2371 -0.3755
 4536SOL    HW125244   4.056   1.540  11.463 -1.1260 -2.9959  1.5561
 4536SOL    HW225245   4.116   1.465  11.350 -0.0401  2.8796 -0.8462
 4537SOL     OW25246   1.673   4.419   7.343 -0.2830 -0.1196 -0.0658
 4537SOL    HW125247   1.709   4.504   7.317  0.6767  0.1414  2.1643
 4537SOL    HW225248   1.726   4.390   7.417 -1.4755  0.3804  0.9771
 4538SOL     OW25249   0.279   2.411  10.788 -0.2172 -0.1577 -0.0687
 4538SOL    HW125250   0.348   2.423  10.722 -0.7059  2.7871 -0.0727
 4538SOL    HW225251   0.277   2.505  10.806 -3.0125 -0.0982 -0.6055
 4539SOL     OW25252   3.982   2.865   1.183 -0.0403  0.9376  0.6065
 4539SOL    HW125253   3.964   2.953   1.214 -1.6521  0.2341  1.6602
 4539SOL    HW225254   3.900   2.821   1.202  0.0748  0.6552  0.4526
 4540SOL     OW25255   3.192   0.743   0.548  0.0624  0.9094  0.2814
 4540SOL    HW125256   3.242   0.715   0.624 -0.6619 -0.3297  0.3140
 4540SOL    HW225257   3.237   0.822   0.520  1.0583  0.1351 -0.2775
 4541SOL     OW25258   3.650   2.549   7.031  0.3154 -0.3889 -0.2702
 4541SOL    HW125259   3.680   2.472   6.982 -0.8274  0.4322 -2.2185
 4541SOL    HW225260   3.643   2.614   6.961 -1.3658 -0.1530  0.1244
 4542SOL     OW25261   0.265   0.413   8.368  0.3483 -0.2630 -0.2261
 4542SOL    HW125262   0.182   0.406   8.320 -0.2639  0.9231  0.6246
 4542SOL    HW225263   0.290   0.505   8.356  3.6244 -1.0469  0.6158
 4543SOL     OW25264   1.892   1.009   0.817  0.2970  0.2395 -0.6531
 4543SOL    HW125265   1.986   0.995   0.811  0.3128  0.3135 -0.5845
 4543SOL    HW225266   1.888   1.104   0.801  4.8100  0.2621 -1.6262
 4544SOL     OW25267   1.878   1.204   4.556 -0.0966 -0.0888 -0.0756
 4544SOL    HW125268   1.834   1.138   4.501  1.6399  0.1213 -1.7235
 4544SOL    HW225269   1.818   1.278   4.547 -1.5155 -1.0640  1.3641
 4545SOL     OW25270   3.003   1.699  16.708 -0.5127  0.3428 -0.1167
 4545SOL    HW125271   2.950   1.646  16.648 -1.6141  1.3805 -0.0727
 4545SOL    HW225272   3.090   1.670  16.681 -0.3266 -0.5054  1.3888
 4546SOL     OW25273   1.873   3.823   6.507  0.2774  0.6413  0.2507
 4546SOL    HW125274   1.958   3.826   6.463  0.6268  0.0773  0.8900
 4546SOL    HW225275   1.811   3.850   6.440 -1.9732 -1.9381  1.2886
 4547SOL     OW25276   1.515   4.226   2.051 -0.3555  0.3722  0.0704
 4547SOL    HW125277   1.574   4.242   1.978  0.9324  0.4999  1.1490
 4547SOL    HW225278   1.566   4.234   2.131  0.2147  0.8810 -0.3518
 4548SOL     OW25279   1.710   4.352   2.238 -0.0820 -0.0111 -0.1509
 4548SOL    HW125280   1.768   4.314   2.303  2.0322  0.0663 -2.0198
 4548SOL    HW225281   1.753   4.438   2.240  0.1658 -0.1406  0.0253
 4549SOL     OW25282   3.009   3.981   5.697 -0.1726  0.0127 -0.6642
 4549SOL    HW125283   3.079   4.044   5.715  0.0550 -0.5891  0.5081
 4549SOL    HW225284   2.933   4.024   5.737  1.0634  2.0200 -0.4833
 4550SOL     OW25285   1.302   1.384   3.804 -0.1383 -0.7083 -0.0445
 4550SOL    HW125286   1.357   1.458   3.827  0.0345 -0.5390 -0.9880
 4550SOL    HW225287   1.230   1.434   3.766  1.6800  1.3090 -0.7886
 4551SOL     OW25288   3.873   4.467   6.941  0.1246 -0.2530  0.0034
 4551SOL    HW125289   3.817   4.544   6.950 -0.3009 -0.5448 -0.1064
 4551SOL    HW225290   3.925   4.480   6.862 -1.7145  1.0192 -1.0105
 4552SOL     OW25291   3.521   1.162   4.167  0.0229  0.0111  0.4107
 4552SOL    HW125292   3.489   1.213   4.093 -0.6209 -1.0961 -0.0732
 4552SOL    HW225293   3.586   1.113   4.116 -0.9547 -1.7346  0.8695
 4553SOL     OW25294   2.341   2.446   3.836 -0.6399 -0.4122  0.3331
 4553SOL    HW125295   2.374   2.536   3.842 -0.2772 -0.6067  1.2413
 4553SOL    HW225296   2.277   2.450   3.765  0.8312  0.9673 -0.9049
 4554SOL     OW25297   1.738   3.585  17.012  0.2178 -0.4864 -0.2722
 4554SOL    HW125298   1.732   3.526  17.087  0.7705 -2.0475 -1.4661
 4554SOL    HW225299   1.810   3.641  17.042  1.5358 -3.1185  1.4814
 4555SOL     OW25300   0.163   3.024  16.637 -0.3897 -0.2664  0.4372
 4555SOL    HW125301   0.228   3.067  16.694  0.3486 -0.8875  0.0664
 4555SOL    HW225302   0.127   3.099  16.590 -1.6149 -0.7490  0.6154
 4556SOL     OW25303   1.927   4.726   6.539 -0.1036  0.1117 -0.2969
 4556SOL    HW125304   1.891   0.059   6.482 -0.3708  1.2111  1.1820
 4556SOL    HW225305   2.020   4.723   6.516 -0.1558 -0.0526 -0.4937
 4557SOL     OW25306   0.586   4.003   0.494  0.6655  0.1023  0.0499
 4557SOL    HW125307   0.521   4.007   0.564 -1.4994 -1.8464 -1.8699
 4557SOL    HW225308   0.638   4.082   0.512  1.0553  0.2497 -1.7460
 4558SOL     OW25309   1.684   2.478  17.299  0.1004  0.4241  0.1659
 4558SOL    HW125310   1.747   2.498  17.369  0.8214 -0.4344 -0.2459
 4558SOL    HW225311   1.633   2.408  17.340 -0.0550  0.8365  0.6851
 4559SOL     OW25312   0.576   3.204   6.512  0.0051 -0.7257 -0.3797
 4559SOL    HW125313   0.655   3.216   6.565 -1.6697 -1.1282  2.2247
 4559SOL    HW225314   0.605   3.238   6.427  1.1886  1.5163  0.9255
 4560SOL     OW25315   3.448   4.607  15.789 -0.0964 -0.0698 -0.2782
 4560SOL    HW125316   3.400   4.685  15.813  1.2250  1.1465 -1.5991
 4560SOL    HW225317   3.386   4.546  15.830 -0.4597  0.7071  0.3080
 4561SOL     OW25318   2.012   1.021   7.424  0.3567  0.0434  0.0218
 4561SOL    HW125319   2.072   1.037   7.350 -0.6218  0.4723 -0.6844
 4561SOL    HW225320   2.007   1.103   7.473 -2.9636 -0.2621  0.1977
 4562SOL     OW25321   3.135   1.832  16.383  0.1314  0.3208  0.1555
 4562SOL    HW125322   3.090   1.906  16.344 -2.9379 -2.0634 -0.7988
 4562SOL    HW225323   3.147   1.782  16.302 -1.0995 -0.4556  0.4566
 4563SOL     OW25324   1.710   0.577   6.925 -0.0394  0.0182  0.5470
 4563SOL    HW125325   1.694   0.502   6.982  0.4086 -0.2438  0.3284
 4563SOL    HW225326   1.619   0.594   6.902 -0.1654  0.2536  1.2178
 4564SOL     OW25327   3.361   3.154   4.027  0.0516  0.2238  0.1387
 4564SOL    HW125328   3.357   3.062   4.051 -0.4980  0.2984  0.3125
 4564SOL    HW225329   3.386   3.158   3.934  0.6305 -2.1603  0.1944
 4565SOL     OW25330   2.851   4.521   4.045  0.7162  0.0341  0.2836
 4565SOL    HW125331   2.764   4.560   4.059 -0.4076 -1.7467 -1.7520
 4565SOL    HW225332   2.834   4.428   4.056  1.8596 -0.3184 -1.0150
 4566SOL     OW25333   4.120   3.575   6.924  0.0092  0.0674 -0.0575
 4566SOL    HW125334   4.137   3.656   6.875 -2.6010  0.1320 -0.8314
 4566SOL    HW225335   4.209   3.539   6.924  0.5717  1.4266  1.3305
 4567SOL     OW25336   3.798   3.994   9.716 -0.8888 -0.1982  0.1531
 4567SOL    HW125337   3.808   4.083   9.682  0.3266 -0.0476  0.9084
 4567SOL    HW225338   3.710   3.973   9.685  0.0691 -2.2594 -1.1924
 4568SOL     OW25339   4.282   2.151   4.777  0.1821  0.4726  0.0252
 4568SOL    HW125340   4.250   2.085   4.838 -0.0386 -0.6965 -1.3472
 4568SOL    HW225341   4.215   2.217   4.793  0.5121  0.4254  1.6115
 4569SOL     OW25342   3.847   3.361   7.554 -0.0962 -0.4478 -0.0854
 4569SOL    HW125343   3.788   3.436   7.560  1.7349  0.9456  0.6344
 4569SOL    HW225344   3.934   3.401   7.557  0.2137 -1.2038  0.7123
 4570SOL     OW25345   0.202   2.759   3.237  0.6643 -0.5994  0.3416
 4570SOL    HW125346   0.190   2.842   3.284  0.7846 -1.8774  2.6307
 4570SOL    HW225347   0.286   2.733   3.275  2.0777  0.7960 -1.8161
 4571SOL     OW25348   4.687   2.875   4.736 -0.6586 -0.2427 -0.0343
 4571SOL    HW125349   4.648   2.829   4.810 -0.9268  2.5095  1.5450
 4571SOL    HW225350   0.033   2.829   4.715 -0.7338 -0.5275  0.3130
 4572SOL     OW25351   3.936   0.317  11.854  0.0839 -0.1857 -0.0798
 4572SOL    HW125352   3.955   0.299  11.946 -0.1399 -0.8703 -0.1622
 4572SOL    HW225353   3.870   0.386  11.864  1.2005  1.0404 -1.1417
 4573SOL     OW25354   4.185   4.379   3.516  0.1472  0.3817 -0.1680
 4573SOL    HW125355   4.169   4.287   3.539  0.8071  0.6168  1.2486
 4573SOL    HW225356   4.277   4.392   3.495  0.2878  0.5324  0.5392
 4574SOL     OW25357   2.415   1.309   6.229 -0.0997  0.3653 -0.6860
 4574SOL    HW125358   2.479   1.287   6.297 -0.6764  0.8887  0.0396
 4574SOL    HW225359   2.444   1.400   6.217  0.1446  0.3450 -0.2397
 4575SOL     OW25360   3.550   2.953   6.555  0.5217 -0.6039  0.1500
 4575SOL    HW125361   3.525   2.869   6.517 -1.0761  0.4051 -1.0450
 4575SOL    HW225362   3.590   2.998   6.480 -0.3672 -2.3619 -1.3668
 4576SOL     OW25363   0.342   0.093   4.344  0.0360 -0.3501 -0.1049
 4576SOL    HW125364   0.407   0.115   4.278 -0.3002 -1.6331 -0.8700
 4576SOL    HW225365   0.336   0.173   4.396 -0.4293  0.9504 -2.1740
 4577SOL     OW25366   0.417   4.239   3.994  0.1382  0.0036  0.2901
 4577SOL    HW125367   0.444   4.245   3.902  1.2752 -0.7532  0.5671
 4577SOL    HW225368   0.351   4.307   4.008 -2.1920 -2.0709 -0.5798
 4578SOL     OW25369   1.938   2.454   1.597 -0.1934  0.4887 -0.0340
 4578SOL    HW125370   1.960   2.416   1.682  1.3583 -0.4835 -0.8758
 4578SOL    HW225371   1.929   2.372   1.548  1.0857  0.0028  0.5478
 4579SOL     OW25372   1.942   3.740   4.301  0.7776 -0.7678 -0.0863
 4579SOL    HW125373   2.007   3.802   4.332 -1.6126  0.4677  2.4615
 4579SOL    HW225374   1.921   3.683   4.376 -0.8976 -1.0725 -0.7801
 4580SOL     OW25375   0.954   4.358   2.531 -0.0092 -0.5265 -0.2501
 4580SOL    HW125376   0.979   4.272   2.563  1.4123  0.2143  0.6069
 4580SOL    HW225377   0.985   4.352   2.440 -0.7122  1.4444 -0.6448
 4581SOL     OW25378   4.470   1.604   6.742  0.0314 -0.1528 -0.7045
 4581SOL    HW125379   4.391   1.569   6.784 -0.0844 -0.2732 -1.0254
 4581SOL    HW225380   4.443   1.696   6.747 -0.6472 -0.3197 -1.2584
 4582SOL     OW25381   3.746   2.863  10.749 -0.1168 -0.1903 -0.6543
 4582SOL    HW125382   3.781   2.794  10.693  0.3746 -1.0572  0.7361
 4582SOL    HW225383   3.822   2.872  10.808 -0.3513  1.1125 -0.5408
 4583SOL     OW25384   2.417   2.110   3.492 -0.2580  0.7445  0.1511
 4583SOL    HW125385   2.325   2.086   3.500 -0.3128  1.0020  0.2739
 4583SOL    HW225386   2.402   2.202   3.511  0.9861  1.3649 -1.9176
 4584SOL     OW25387   4.683   0.302  13.576  0.0362 -0.4472  0.5473
 4584SOL    HW125388   4.588   0.291  13.576  0.2272 -1.8901 -1.4292
 4584SOL    HW225389   4.711   0.266  13.492  1.4691  0.0538  0.8057
 4585SOL     OW25390   1.146   0.726   6.215 -0.4871  0.4010  0.1390
 4585SOL    HW125391   1.108   0.781   6.283  0.9457  0.5754  0.8166
 4585SOL    HW225392   1.109   0.768   6.138 -2.0346  0.6869  1.0466
 4586SOL     OW25393   1.721   3.007   9.273  0.0947 -0.2525  0.6138
 4586SOL    HW125394   1.772   2.975   9.348  2.4903  1.3082 -0.3622
 4586SOL    HW225395   1.759   3.094   9.262 -0.4694 -0.0234  0.4695
 4587SOL     OW25396   2.491   2.935  10.240 -0.1678 -0.3137  0.2885
 4587SOL    HW125397   2.418   2.975  10.192 -0.6462 -0.0005  1.2760
 4587SOL    HW225398   2.475   2.841  10.245  2.2983 -0.8008 -1.3800
 4588SOL     OW25399   4.274   1.148   3.833  0.2869  0.0716 -0.6943
 4588SOL    HW125400   4.205   1.086   3.811 -0.5662  0.3791  1.1524
 4588SOL    HW225401   4.295   1.129   3.924 -3.4211 -1.2387 -0.1255
 4589SOL     OW25402   0.440   4.183   1.772 -0.2912 -0.6642 -0.1693
 4589SOL    HW125403   0.474   4.212   1.856 -0.1355 -0.5152 -0.2829
 4589SOL    HW225404   0.359   4.153   1.814  0.0098  1.1319  1.6688
 4590SOL     OW25405   3.157   4.678   5.369  0.3607  0.3037  0.2016
 4590SOL    HW125406   3.127   0.019   5.421 -0.8085  0.0730 -0.1231
 4590SOL    HW225407   3.217   4.700   5.299  0.1287  0.5119  0.0665
 4591SOL     OW25408   3.648   3.602  14.381  0.8933 -0.4280  0.2451
 4591SOL    HW125409   3.640   3.693  14.351  2.3517 -0.4506 -0.2481
 4591SOL    HW225410   3.665   3.619  14.473  2.8094 -0.2111 -0.1417
 4592SOL     OW25411   4.693   3.073  12.323  0.5248  0.4042 -0.1122
 4592SOL    HW125412   4.673   3.007  12.390  1.5216  0.5379  0.3161
 4592SOL    HW225413   0.049   3.045  12.312  0.9814  1.1406  1.7174
 4593SOL     OW25414   1.622   4.715  14.747 -0.1913  0.1219 -0.5722
 4593SOL    HW125415   1.624   0.000  14.654  1.0594 -1.2765 -0.8533
 4593SOL    HW225416   1.679   0.052  14.776 -1.6065  1.1779 -0.4296
 4594SOL     OW25417   2.489   4.482   2.099 -0.5251 -0.3801  0.5005
 4594SOL    HW125418   2.533   4.397   2.094 -0.8139 -0.3083 -2.8045
 4594SOL    HW225419   2.492   4.508   2.007  0.1890  0.6294  0.8116
 4595SOL     OW25420   2.799   2.345   7.360  0.0190  0.1364  0.1138
 4595SOL    HW125421   2.816   2.320   7.269  0.3571  0.6088  0.0463
 4595SOL    HW225422   2.756   2.266   7.393  0.3962  0.0455  0.3960
 4596SOL     OW25423   3.963   1.090   3.719  0.5215 -0.3673  0.2802
 4596SOL    HW125424   3.943   1.149   3.792 -2.9197 -0.2889 -0.7372
 4596SOL    HW225425   3.892   1.026   3.726 -0.1232  0.0760 -2.5549
 4597SOL     OW25426   1.867   3.081   2.172 -0.6858  0.0895 -0.5205
 4597SOL    HW125427   1.849   3.142   2.101  0.0080  0.9941  0.0810
 4597SOL    HW225428   1.854   2.995   2.134 -2.0804 -0.4452  1.1273
 4598SOL     OW25429   3.194   2.836   2.735  0.0699 -0.3029  0.1230
 4598SOL    HW125430   3.241   2.918   2.749  0.3616 -0.4973  0.2896
 4598SOL    HW225431   3.262   2.775   2.707  1.5181  0.8777  1.0977
 4599SOL     OW25432   4.728   0.969  17.597 -0.2619  0.1948  0.0336
 4599SOL    HW125433   0.089   0.972  17.587 -0.3933 -0.2984 -1.3678
 4599SOL    HW225434   4.713   0.877  17.618  1.3726 -0.6063 -2.2677
 4600SOL     OW25435   2.582   2.578   7.387 -0.2755 -0.2164  0.2999
 4600SOL    HW125436   2.620   2.491   7.378 -1.6231 -0.5282 -2.2911
 4600SOL    HW225437   2.579   2.609   7.297  1.4484  1.6398  0.8798
 4601SOL     OW25438   1.367   3.030  14.808 -0.2967  0.0785  0.3908
 4601SOL    HW125439   1.380   3.120  14.778  1.3371 -0.3203 -0.0796
 4601SOL    HW225440   1.452   2.993  14.785 -0.4413 -0.7659  1.2173
 4602SOL     OW25441   1.222   1.477   5.929  0.2256  0.1998 -0.0720
 4602SOL    HW125442   1.231   1.385   5.955  2.7263  0.4232 -0.2038
 4602SOL    HW225443   1.161   1.463   5.856 -1.2458 -0.9664  1.3659
 4603SOL     OW25444   4.135   1.240   9.135  0.0458 -0.3808  0.2928
 4603SOL    HW125445   4.137   1.171   9.202  0.6082  1.3731  2.0941
 4603SOL    HW225446   4.052   1.224   9.091  1.0227  0.1019 -1.7003
 4604SOL     OW25447   3.924   4.274  16.900  0.3389 -0.0722  0.6715
 4604SOL    HW125448   3.937   4.275  16.994 -0.6474 -0.8613  0.8075
 4604SOL    HW225449   3.876   4.193  16.884  0.0686  0.1811  0.1955
 4605SOL     OW25450   0.131   3.484   9.414  0.2188  0.1074  0.5221
 4605SOL    HW125451   0.069   3.445   9.353  2.3669 -0.0678 -1.5648
 4605SOL    HW225452   0.211   3.476   9.362 -0.1363 -0.3721  0.0552
 4606SOL     OW25453   0.618   2.954   5.601 -0.4583 -0.6180  0.2037
 4606SOL    HW125454   0.664   3.038   5.597  0.9813 -1.3532  1.3185
 4606SOL    HW225455   0.679   2.911   5.662  1.5516  0.5296 -0.9956
 4607SOL     OW25456   2.710   4.191  10.499  0.1444  0.8455  0.0809
 4607SOL    HW125457   2.731   4.204  10.407 -1.0045  1.8562 -0.0391
 4607SOL    HW225458   2.739   4.274  10.536 -0.6569  1.5558 -0.8665
 4608SOL     OW25459   0.828   4.067   3.169 -0.1147 -0.0021  0.2712
 4608SOL    HW125460   0.870   4.130   3.229 -1.3134  0.6683  0.4050
 4608SOL    HW225461   0.797   4.000   3.230  2.3192 -1.3632  0.0037
 4609SOL     OW25462   3.411   2.661   9.149  0.3007  0.2071  0.0572
 4609SOL    HW125463   3.362   2.668   9.230 -0.1679 -2.2194 -0.0095
 4609SOL    HW225464   3.341   2.626   9.094  1.0373 -3.6824  1.5462
 4610SOL     OW25465   3.396   1.836   5.664  0.1105  0.0597 -0.0284
 4610SOL    HW125466   3.476   1.803   5.706 -0.1786 -1.2237 -0.4956
 4610SOL    HW225467   3.350   1.754   5.645  0.6886 -0.3826  0.4462
 4611SOL     OW25468   3.373   4.068  15.985 -0.2365 -0.0359  0.1184
 4611SOL    HW125469   3.328   4.118  15.916 -0.2092  2.0773  1.6699
 4611SOL    HW225470   3.333   4.103  16.064  2.5571  5.5188 -0.9040
 4612SOL     OW25471   3.954   1.603  16.875  0.2334 -0.3193  0.1583
 4612SOL    HW125472   3.893   1.538  16.839 -0.4325 -0.8573  2.2605
 4612SOL    HW225473   3.923   1.602  16.965 -0.2585 -0.0258 -0.0083
 4613SOL     OW25474   2.146   0.486   4.449 -0.2249  0.3971 -0.6535
 4613SOL    HW125475   2.138   0.540   4.370  0.0602  2.1592  0.5415
 4613SOL    HW225476   2.229   0.518   4.485 -0.4038  1.0854 -0.8592
 4614SOL     OW25477   2.537   0.216  13.576  0.1048  0.2408  0.1133
 4614SOL    HW125478   2.609   0.159  13.604 -0.2585  0.6396  1.8396
 4614SOL    HW225479   2.455   0.181  13.612  1.0932 -2.2031  0.0033
 4615SOL     OW25480   3.417   3.143   6.688  0.4843  0.2546 -0.3897
 4615SOL    HW125481   3.369   3.082   6.744  2.1117  2.2358  3.1338
 4615SOL    HW225482   3.470   3.082   6.637  0.5797 -0.7360  0.8955
 4616SOL     OW25483   3.539   1.229   9.262 -0.2866  0.4150  0.1642
 4616SOL    HW125484   3.471   1.170   9.229  0.2299 -1.0551  1.7186
 4616SOL    HW225485   3.510   1.240   9.353 -3.5811 -2.4924 -0.5209
 4617SOL     OW25486   0.067   3.173   5.382  0.3720 -0.2192 -0.1116
 4617SOL    HW125487   4.728   3.139   5.330 -1.8154  0.8651  2.2676
 4617SOL    HW225488   0.066   3.264   5.353  0.4573 -0.0953  0.2780
 4618SOL     OW25489   4.600   4.207   4.657 -0.0113  0.3347 -0.0875
 4618SOL    HW125490   4.577   4.292   4.695 -2.0962 -1.3727  2.4669
 4618SOL    HW225491   4.581   4.222   4.565 -0.6060 -0.2464 -0.0579
 4619SOL     OW25492   2.474   0.918   8.908 -1.2800 -0.8289  0.2474
 4619SOL    HW125493   2.439   0.934   8.996  0.7168  0.7367  0.7470
 4619SOL    HW225494   2.395   0.941   8.859 -0.6521 -3.5333 -1.9967
 4620SOL     OW25495   2.758   2.202  10.174  0.3330  0.3659 -0.2052
 4620SOL    HW125496   2.840   2.194  10.125 -0.4825  2.4593 -1.9009
 4620SOL    HW225497   2.795   2.178  10.259  1.2183  0.5014 -0.5451
 4621SOL     OW25498   2.899   4.614   5.117  0.1056  0.1215  0.1702
 4621SOL    HW125499   2.891   4.602   5.212 -2.5359  0.3889 -0.0343
 4621SOL    HW225500   2.846   4.538   5.096 -0.9734  0.4582  1.6794
 4622SOL     OW25501   3.478   3.448  14.181  0.4170 -0.2702  0.1262
 4622SOL    HW125502   3.528   3.520  14.220 -1.2869  1.8375 -1.5170
 4622SOL    HW225503   3.422   3.435  14.257  0.7144  0.8850  0.5523
 4623SOL     OW25504   1.584   0.284   5.601 -0.2942 -0.4580 -0.3631
 4623SOL    HW125505   1.581   0.217   5.670  1.0011  1.2305  1.3465
 4623SOL    HW225506   1.673   0.279   5.566  1.1708 -1.5567  3.4670
 4624SOL     OW25507   4.045   3.136   5.513 -0.5725 -0.1928  0.0247
 4624SOL    HW125508   4.044   3.205   5.579 -0.7466 -0.3248  0.1608
 4624SOL    HW225509   4.095   3.178   5.443 -1.7640 -1.7553 -1.7472
 4625SOL     OW25510   0.394   2.645   2.843  0.4425  0.5733  0.4057
 4625SOL    HW125511   0.433   2.688   2.767  0.5232 -1.1005 -0.5007
 4625SOL    HW225512   0.301   2.652   2.823  0.4803  1.6715  0.5966
 4626SOL     OW25513   1.596   0.251  13.519  0.0108  0.3913  0.5066
 4626SOL    HW125514   1.675   0.213  13.555  0.8183  0.1758 -1.4650
 4626SOL    HW225515   1.560   0.290  13.598 -0.9827 -1.7929  1.1479
 4627SOL     OW25516   2.338   0.166   8.532 -0.5285 -0.1101 -0.7206
 4627SOL    HW125517   2.362   0.213   8.452 -2.2893  2.5356  0.3244
 4627SOL    HW225518   2.300   0.232   8.589 -0.2234 -1.5100  1.1113
 4628SOL     OW25519   0.792   2.277   6.506 -0.5141 -0.2441 -0.1877
 4628SOL    HW125520   0.756   2.209   6.450 -0.8167  0.2478 -0.5871
 4628SOL    HW225521   0.735   2.267   6.583 -0.6742 -0.6917 -0.3639
 4629SOL     OW25522   3.345   1.472  15.083 -0.3451 -0.1059  0.2580
 4629SOL    HW125523   3.429   1.448  15.122  1.4186  4.5028 -0.6604
 4629SOL    HW225524   3.302   1.519  15.154 -1.2055  0.4172 -0.5991
 4630SOL     OW25525   0.830   4.513  12.009 -0.1193 -0.3414 -0.3500
 4630SOL    HW125526   0.792   4.428  12.031 -0.1203  0.2676  1.9503
 4630SOL    HW225527   0.824   4.557  12.093 -2.4562  0.9170 -1.1610
 4631SOL     OW25528   3.186   1.317   2.966  0.6651  0.2486 -0.3259
 4631SOL    HW125529   3.205   1.326   2.873 -0.8923 -1.8045 -0.8278
 4631SOL    HW225530   3.184   1.411   2.988  0.8108  0.3472 -0.7352
 4632SOL     OW25531   2.297   0.099   6.620  0.2157 -0.6335  0.1126
 4632SOL    HW125532   2.220   0.156   6.617 -0.2358 -1.2709 -0.4472
 4632SOL    HW225533   2.294   0.087   6.715 -1.9355  0.7859  0.2448
 4633SOL     OW25534   3.220   3.389   4.123 -0.3572 -0.2439  0.1700
 4633SOL    HW125535   3.286   3.324   4.100 -0.1289 -0.4594  1.4482
 4633SOL    HW225536   3.175   3.397   4.038 -2.4348  0.3010  1.3294
 4634SOL     OW25537   1.241   1.069   3.791  0.2173  0.0867 -0.5874
 4634SOL    HW125538   1.251   1.159   3.762 -0.8346  0.2140 -0.5603
 4634SOL    HW225539   1.165   1.039   3.740 -0.6658  0.4868  0.4881
 4635SOL     OW25540   3.602   0.958  11.164 -0.5785 -0.0018  0.3377
 4635SOL    HW125541   3.660   0.901  11.112 -1.8209 -2.5261  1.6980
 4635SOL    HW225542   3.648   0.941  11.246  0.5777  0.1744 -0.2797
 4636SOL     OW25543   1.137   0.736   7.915  0.2400  0.4115  0.2207
 4636SOL    HW125544   1.047   0.749   7.944 -0.2856  2.2402 -2.1973
 4636SOL    HW225545   1.169   0.822   7.887  1.7856 -0.9263 -2.1613
 4637SOL     OW25546   1.665   0.244  10.312  0.0432  0.3297  0.3605
 4637SOL    HW125547   1.742   0.200  10.276 -0.8427 -1.2132  0.3690
 4637SOL    HW225548   1.712   0.322  10.343  0.7563  0.6229 -1.4614
 4638SOL     OW25549   0.475   0.951   0.789  0.8476 -0.1094  0.9066
 4638SOL    HW125550   0.445   0.922   0.703 -0.7029 -1.0038  1.7399
 4638SOL    HW225551   0.433   1.037   0.789 -3.0121 -1.9512  0.2559
 4639SOL     OW25552   1.539   1.766   8.541 -0.6177  0.7779 -0.5853
 4639SOL    HW125553   1.526   1.671   8.531 -2.7578  0.9616  0.4470
 4639SOL    HW225554   1.580   1.784   8.456  1.5258 -0.4775  0.1802
 4640SOL     OW25555   2.721   4.729   2.486 -0.2249 -0.6699 -0.0701
 4640SOL    HW125556   2.631   4.698   2.476 -0.5034 -0.0375  0.4664
 4640SOL    HW225557   2.739   4.728   2.392 -0.3087  1.1732 -0.1046
 4641SOL     OW25558   3.923   1.428   0.850  0.2383 -0.4647 -0.3607
 4641SOL    HW125559   3.912   1.338   0.819  0.0387 -0.0787 -1.4259
 4641SOL    HW225560   3.845   1.437   0.906  1.1419  3.1426  0.3028
 4642SOL     OW25561   4.597   2.249   3.580  0.0213 -0.1529 -0.4533
 4642SOL    HW125562   4.528   2.184   3.592  0.0609  0.0690  1.0354
 4642SOL    HW225563   4.593   2.305   3.658  0.5663  0.7506 -1.0781
 4643SOL     OW25564   2.213   0.873   3.123 -0.4309  0.0885  0.2778
 4643SOL    HW125565   2.206   0.926   3.202 -0.1729  1.8690 -0.9060
 4643SOL    HW225566   2.288   0.909   3.077  0.5273 -1.2493  0.7855
 4644SOL     OW25567   2.673   3.160  11.006 -0.2842  0.5458  0.2059
 4644SOL    HW125568   2.599   3.184  10.950 -0.3789  0.4819  0.3039
 4644SOL    HW225569   2.724   3.237  10.983  0.2515  0.2477  0.4039
 4645SOL     OW25570   2.761   2.725   8.505  0.1642 -0.4113 -0.8423
 4645SOL    HW125571   2.818   2.775   8.564 -1.8104  0.7958  0.0259
 4645SOL    HW225572   2.820   2.651   8.489  1.9804  1.9006 -4.7612
 4646SOL     OW25573   4.584   2.590   8.876  0.1409  0.2086 -0.5710
 4646SOL    HW125574   4.636   2.667   8.895 -0.6407  0.3167  1.0727
 4646SOL    HW225575   4.496   2.627   8.871  0.1563  0.1691 -1.2138
 4647SOL     OW25576   3.080   4.599   1.977 -0.2268 -0.2048  0.7199
 4647SOL    HW125577   3.066   4.688   2.007 -0.6935  0.4303 -1.3527
 4647SOL    HW225578   3.060   4.601   1.883 -1.6234 -1.0561  1.0065
 4648SOL     OW25579   1.980   2.216   3.568 -0.5223 -0.4634 -0.0451
 4648SOL    HW125580   1.912   2.166   3.521 -0.6877  0.3268 -0.6516
 4648SOL    HW225581   2.037   2.207   3.492  1.0023 -1.5308  1.2354
 4649SOL     OW25582   0.390   0.804   4.326 -0.6444  0.5121 -0.7062
 4649SOL    HW125583   0.345   0.850   4.255 -3.0448  1.1951  1.2582
 4649SOL    HW225584   0.476   0.788   4.287 -1.4108  0.7072 -2.4670
 4650SOL     OW25585   2.649   3.262   1.818 -0.0532 -0.1484  0.1948
 4650SOL    HW125586   2.641   3.175   1.778 -2.1629  0.7403 -1.3506
 4650SOL    HW225587   2.695   3.317   1.754  1.5438 -0.7382  0.8521
 4651SOL     OW25588   2.723   2.039   5.387  0.3725 -0.0276  0.5341
 4651SOL    HW125589   2.728   2.116   5.330 -0.9384 -0.2429  0.1136
 4651SOL    HW225590   2.748   1.973   5.322  0.1613  0.0484  0.3721
 4652SOL     OW25591   3.967   1.151  12.300 -0.4842  0.0844  0.2096
 4652SOL    HW125592   3.919   1.232  12.283 -0.7011 -0.0787  0.0421
 4652SOL    HW225593   4.029   1.182  12.366 -1.3269  1.2313  0.4718
 4653SOL     OW25594   0.437   2.243   2.413  0.5689 -0.1020  0.0681
 4653SOL    HW125595   0.359   2.187   2.407  1.0946 -0.9071  0.9528
 4653SOL    HW225596   0.442   2.260   2.507 -2.3288  1.0325  0.0271
 4654SOL     OW25597   1.279   4.034  12.500  0.5717 -0.1867  0.4546
 4654SOL    HW125598   1.222   4.091  12.447 -1.5464 -1.0525  1.7845
 4654SOL    HW225599   1.220   3.960  12.515 -0.8837  1.2548  1.8320
 4655SOL     OW25600   3.015   1.653   3.331  0.2959 -0.6238  0.0749
 4655SOL    HW125601   3.055   1.627   3.413 -2.2365 -0.7537  1.2803
 4655SOL    HW225602   3.033   1.579   3.273 -1.3802  0.2934 -1.6292
 4656SOL     OW25603   3.668   3.029   9.299  0.1206  0.1346  0.3284
 4656SOL    HW125604   3.678   2.945   9.255 -0.7737  0.5302 -0.6331
 4656SOL    HW225605   3.706   3.079   9.226 -2.6166 -0.0313 -1.2127
 4657SOL     OW25606   2.658   1.270   6.347 -0.4544  0.5020  0.5314
 4657SOL    HW125607   2.694   1.331   6.410  1.5977  0.9962 -1.1260
 4657SOL    HW225608   2.735   1.236   6.302 -2.6688 -1.4443 -1.8021
 4658SOL     OW25609   1.960   4.717   4.681 -0.3989  0.3383  0.3280
 4658SOL    HW125610   1.985   0.024   4.764  1.6444  1.6220 -0.9276
 4658SOL    HW225611   2.003   0.044   4.623 -2.6337  2.2358  0.7157
 4659SOL     OW25612   0.217   1.801   7.803  0.3164 -0.5022  0.2560
 4659SOL    HW125613   0.167   1.879   7.781 -0.9646 -0.9723  1.5215
 4659SOL    HW225614   0.307   1.833   7.814  0.3044  0.3658 -2.1419
 4660SOL     OW25615   1.180   0.997   9.489 -0.0535  0.1642 -0.4239
 4660SOL    HW125616   1.168   1.039   9.404  2.0444  2.6889  0.5207
 4660SOL    HW225617   1.140   0.912   9.473 -1.4310  0.4750  1.2580
 4661SOL     OW25618   3.200   0.212   5.230 -0.1018 -0.2897 -0.4071
 4661SOL    HW125619   3.291   0.226   5.203  0.5644 -0.7797  1.5506
 4661SOL    HW225620   3.172   0.148   5.165  0.3930 -2.0744  1.1284
 4662SOL     OW25621   4.494   0.740   9.422 -0.0598 -0.4090  0.7479
 4662SOL    HW125622   4.453   0.799   9.485 -2.0846 -0.3921 -0.6107
 4662SOL    HW225623   4.473   0.663   9.473  0.0018 -0.3892  0.8030
 4663SOL     OW25624   0.023   3.964  16.498  0.8771  0.7299  0.2181
 4663SOL    HW125625   0.063   4.050  16.484 -0.7781  1.1174 -2.1749
 4663SOL    HW225626   4.672   3.987  16.535  2.4256  3.5126  2.0603
 4664SOL     OW25627   3.958   3.678  10.086 -0.0258  0.3436  0.5634
 4664SOL    HW125628   3.991   3.709  10.170  1.0002  1.1336 -0.1121
 4664SOL    HW225629   3.869   3.712  10.084 -0.8647 -1.8315  2.1861
 4665SOL     OW25630   2.352   4.438   4.697  0.1269 -0.0919 -0.0555
 4665SOL    HW125631   2.291   4.466   4.629  0.2897 -0.5548 -0.3907
 4665SOL    HW225632   2.289   4.392   4.753  0.0094  0.2986  0.1371
 4666SOL     OW25633   0.850   0.524  12.148  0.2689  0.4170 -0.2192
 4666SOL    HW125634   0.781   0.576  12.190  0.6333  0.1225  0.7579
 4666SOL    HW225635   0.878   0.449  12.201 -2.7285 -1.3396 -1.1291
 4667SOL     OW25636   0.915   0.483   4.651 -0.3654 -0.6121 -0.4769
 4667SOL    HW125637   0.920   0.561   4.595  0.3368  0.1968  0.7121
 4667SOL    HW225638   0.896   0.521   4.737 -0.8368  0.7962 -1.2007
 4668SOL     OW25639   0.745   3.533  17.347 -0.1128  0.1655  0.6154
 4668SOL    HW125640   0.758   3.453  17.296  0.9868  2.2239 -2.2535
 4668SOL    HW225641   0.687   3.502  17.418  0.5538  1.5312  1.7534
 4669SOL     OW25642   1.068   0.707   7.593 -0.2425  0.2705  0.0588
 4669SOL    HW125643   1.080   0.681   7.685 -1.7683 -4.6978 -1.1600
 4669SOL    HW225644   0.979   0.741   7.601  0.2567  1.8761 -1.4398
 4670SOL     OW25645   3.419   1.508   6.676 -0.2148  0.2004  0.4149
 4670SOL    HW125646   3.356   1.572   6.707  0.9975  1.7058 -0.2479
 4670SOL    HW225647   3.405   1.457   6.756  0.3373 -1.5393 -0.6012
 4671SOL     OW25648   2.208   0.710   9.201 -0.4050 -0.5404  0.2380
 4671SOL    HW125649   2.194   0.620   9.232  3.5754 -0.2828  2.8438
 4671SOL    HW225650   2.244   0.688   9.115  0.4259  3.4557 -0.4103
 4672SOL     OW25651   1.710   2.179   4.341 -0.1132 -0.4983 -0.2687
 4672SOL    HW125652   1.775   2.137   4.399  1.0997 -2.0390 -2.7364
 4672SOL    HW225653   1.734   2.152   4.252  0.6403  0.3121 -0.3167
 4673SOL     OW25654   1.752   3.619   9.847  0.1867  0.0694  0.0568
 4673SOL    HW125655   1.748   3.572   9.763  1.5972 -0.1647  0.1342
 4673SOL    HW225656   1.834   3.582   9.880  0.1695  1.0848  1.2380
 4674SOL     OW25657   3.126   2.665   3.098  0.0735 -0.2491 -0.2642
 4674SOL    HW125658   3.160   2.575   3.098  1.5033  0.3084 -0.8439
 4674SOL    HW225659   3.209   2.712   3.095 -1.8585  3.1764  0.6219
 4675SOL     OW25660   0.807   0.789  10.190  0.4882 -0.1068  0.1456
 4675SOL    HW125661   0.736   0.789  10.254  0.0027  2.6990 -0.4130
 4675SOL    HW225662   0.786   0.713  10.135 -0.4572 -1.4817  2.3949
 4676SOL     OW25663   0.326   1.375   6.617 -0.2187 -0.1849  0.1523
 4676SOL    HW125664   0.239   1.335   6.615 -0.7798  0.9910  0.8628
 4676SOL    HW225665   0.355   1.358   6.527 -1.1813 -1.7572  0.1298
 4677SOL     OW25666   1.205   0.599   4.681 -0.3986 -0.8132  0.4925
 4677SOL    HW125667   1.228   0.690   4.662  0.8814 -1.2151  0.1027
 4677SOL    HW225668   1.185   0.565   4.593 -0.7966  1.2203 -0.2047
 4678SOL     OW25669   4.028   4.284  11.546  0.0376  0.1488  0.1664
 4678SOL    HW125670   3.990   4.369  11.522  0.3965  0.1911 -0.2393
 4678SOL    HW225671   3.952   4.236  11.580  0.1829 -2.0202 -2.5875
 4679SOL     OW25672   3.748   4.234   7.356 -0.2107  0.3427 -0.4665
 4679SOL    HW125673   3.764   4.301   7.289 -2.3509  1.7043  0.3766
 4679SOL    HW225674   3.666   4.264   7.394 -0.0945 -0.0949  0.1321
 4680SOL     OW25675   0.594   2.037   1.638  0.1204  0.1703  0.2652
 4680SOL    HW125676   0.602   1.979   1.561 -1.8243 -1.2963  1.1705
 4680SOL    HW225677   0.508   2.007   1.669 -0.0378  0.8198  0.4444
 4681SOL     OW25678   0.686   2.053  16.667  0.0435  0.7831 -0.1212
 4681SOL    HW125679   0.662   2.010  16.585 -0.4842  1.5181 -0.3483
 4681SOL    HW225680   0.754   2.108  16.630  0.6053 -0.0985 -0.4063
 4682SOL     OW25681   3.135   0.967   3.947  0.1324 -0.0525 -0.2126
 4682SOL    HW125682   3.226   0.939   3.955  1.5356  3.8839 -2.1295
 4682SOL    HW225683   3.142   1.028   3.873 -1.4030 -0.2644 -0.5284
 4683SOL     OW25684   2.733   4.145  15.782  0.6736  0.0648  0.2817
 4683SOL    HW125685   2.648   4.169  15.820  1.2833 -1.3573  2.5393
 4683SOL    HW225686   2.789   4.169  15.856  1.9928  1.6397 -1.2332
 4684SOL     OW25687   3.317   2.252   0.600  0.1130  0.0149  0.1595
 4684SOL    HW125688   3.252   2.306   0.555 -0.4972 -2.2650 -1.7232
 4684SOL    HW225689   3.279   2.257   0.688 -0.0428 -4.1212  0.3204
 4685SOL     OW25690   3.580   0.059  13.709 -0.1900 -0.2552 -0.4101
 4685SOL    HW125691   3.571   0.129  13.644  0.7529  1.3456  1.1760
 4685SOL    HW225692   3.672   0.076  13.730  0.0635 -1.3073 -0.6752
 4686SOL     OW25693   2.185   4.721   7.117 -0.2173 -0.0801  0.2105
 4686SOL    HW125694   2.255   4.672   7.075 -0.7941  0.3298 -1.2374
 4686SOL    HW225695   2.233   0.023   7.191 -1.3532  0.5387  0.6420
 4687SOL     OW25696   3.550   1.273  16.051  0.3563  0.0747  0.0411
 4687SOL    HW125697   3.631   1.320  16.072 -0.1780  0.3871  1.4500
 4687SOL    HW225698   3.567   1.187  16.090  0.7502  0.7254  1.3267
 4688SOL     OW25699   4.631   0.906   3.095  0.7315  0.4227  0.3985
 4688SOL    HW125700   4.643   0.812   3.097 -0.8212  0.2215  0.1915
 4688SOL    HW225701   4.541   0.922   3.124 -0.2800  0.6051 -2.7991
 4689SOL     OW25702   0.014   2.349   1.288 -0.5397 -0.3159  0.1822
 4689SOL    HW125703   0.013   2.318   1.379  1.3330  1.0572  0.6798
 4689SOL    HW225704   0.068   2.286   1.241 -0.6382 -1.0752  1.0815
 4690SOL     OW25705   3.481   0.409   8.113  0.1365 -0.0963  0.5097
 4690SOL    HW125706   3.464   0.386   8.204 -0.1276  0.2356  0.5455
 4690SOL    HW225707   3.531   0.490   8.121  2.0866 -1.3178  0.8520
 4691SOL     OW25708   2.590   3.104   9.456 -0.1158  0.4110 -0.1174
 4691SOL    HW125709   2.651   3.039   9.493  0.8851  0.1473 -2.2166
 4691SOL    HW225710   2.572   3.168   9.524 -0.4863 -1.1057  1.1972
 4692SOL     OW25711   0.710   0.184   6.469  0.3657  0.0791  0.5411
 4692SOL    HW125712   0.758   0.207   6.389  0.0144  0.4825  0.4433
 4692SOL    HW225713   0.658   0.112   6.435 -1.8084  1.0693  1.7483
 4693SOL     OW25714   3.600   2.713  16.000 -1.0562  0.2772 -0.4277
 4693SOL    HW125715   3.525   2.768  15.976  1.1885  3.7215  0.5075
 4693SOL    HW225716   3.667   2.781  16.007  0.6024 -1.3526 -0.7189
 4694SOL     OW25717   1.005   1.933  16.108 -0.1443  0.4130 -0.1622
 4694SOL    HW125718   1.020   2.015  16.062 -2.1069  0.2277 -1.1477
 4694SOL    HW225719   1.041   1.870  16.044  1.1553  0.5087  0.4729
 4695SOL     OW25720   3.502   2.491   8.597 -0.6942  0.2254  0.4144
 4695SOL    HW125721   3.460   2.571   8.631 -0.6611  0.9048 -1.1224
 4695SOL    HW225722   3.522   2.438   8.673 -0.2189  1.1679  0.9453
 4696SOL     OW25723   2.238   3.738  14.686  0.0222  0.3017 -0.6287
 4696SOL    HW125724   2.289   3.747  14.605  1.1542 -0.5395 -0.0129
 4696SOL    HW225725   2.203   3.827  14.697  1.3619  0.6886  0.5913
 4697SOL     OW25726   4.620   4.274   8.777  0.1795 -0.2737 -0.0292
 4697SOL    HW125727   4.580   4.201   8.730 -1.4462  1.1893 -0.9240
 4697SOL    HW225728   4.714   4.268   8.761  0.2334 -0.8761  0.5248
 4698SOL     OW25729   3.969   0.158   8.689 -0.2025 -0.0210 -0.2923
 4698SOL    HW125730   3.968   0.253   8.697  0.4552  0.0152 -0.6277
 4698SOL    HW225731   3.908   0.134   8.759  1.1024  1.0196  1.1969
 4699SOL     OW25732   1.269   3.742   3.370  0.1921 -0.6557 -0.3314
 4699SOL    HW125733   1.182   3.711   3.345 -1.1226  0.9940  2.1699
 4699SOL    HW225734   1.270   3.733   3.465  0.1282  2.1651 -0.0642
 4700SOL     OW25735   0.243   3.880  13.529 -0.7627 -0.2138 -0.0151
 4700SOL    HW125736   0.147   3.874  13.528 -0.5612 -3.5299  1.5926
 4700SOL    HW225737   0.256   3.840  13.615  1.0815 -0.5771 -0.4660
 4701SOL     OW25738   0.032   0.611   6.038 -0.6536 -0.4602 -0.1460
 4701SOL    HW125739   0.023   0.544   5.970  1.4133 -0.2735 -0.6146
 4701SOL    HW225740   4.682   0.653   6.029 -1.2670 -1.3904  1.2001
 4702SOL     OW25741   4.463   1.285   6.893 -0.3329 -0.0538 -0.2564
 4702SOL    HW125742   4.498   1.248   6.975 -1.2619 -1.1184 -0.3368
 4702SOL    HW225743   4.417   1.362   6.928  0.0538 -0.5268  1.3224
 4703SOL     OW25744   2.967   0.283   7.032  0.2613 -0.2247  0.3131
 4703SOL    HW125745   3.045   0.287   6.977 -0.3422 -1.7697 -0.6639
 4703SOL    HW225746   3.004   0.339   7.100 -1.0099  0.7126  0.2443
 4704SOL     OW25747   4.617   4.622  11.025  0.2838  0.2367 -0.2729
 4704SOL    HW125748   4.649   4.566  11.096  0.6115 -1.7336 -1.9630
 4704SOL    HW225749   4.664   4.587  10.949  1.2335 -1.1958  0.9614
 4705SOL     OW25750   2.911   2.455   7.013 -0.6834 -0.1700 -0.0958
 4705SOL    HW125751   2.901   2.441   6.919 -2.4978  0.9318 -0.0738
 4705SOL    HW225752   2.900   2.364   7.041  1.1392 -0.4052 -0.1731
 4706SOL     OW25753   1.882   3.668   5.280  0.3907  0.4613 -0.1408
 4706SOL    HW125754   1.902   3.599   5.218  0.1541  1.0604 -0.8861
 4706SOL    HW225755   1.789   3.688   5.285 -0.0726 -1.2267 -2.1844
 4707SOL     OW25756   3.296   2.839   6.035  0.1753  0.3658  0.3135
 4707SOL    HW125757   3.378   2.881   6.008  0.8038 -1.0894 -0.0121
 4707SOL    HW225758   3.316   2.806   6.122  2.3502 -1.0409 -0.7206
 4708SOL     OW25759   2.358   3.566   1.699  0.3417 -0.4092 -0.4507
 4708SOL    HW125760   2.441   3.586   1.742 -2.0674  2.2943  2.9473
 4708SOL    HW225761   2.368   3.608   1.614  2.3705  0.0684  0.0179
 4709SOL     OW25762   3.329   3.635   1.844 -0.2094  0.1075 -0.3514
 4709SOL    HW125763   3.238   3.614   1.865 -0.0684 -1.2486 -1.0940
 4709SOL    HW225764   3.328   3.722   1.804  1.6147 -0.2526 -1.1677
 4710SOL     OW25765   0.865   4.009   9.121 -0.2082  0.5670 -0.0611
 4710SOL    HW125766   0.814   4.089   9.132 -0.2166  0.9063 -2.7514
 4710SOL    HW225767   0.922   4.018   9.198  1.0506  1.7367 -1.1494
 4711SOL     OW25768   4.658   3.468  11.584 -0.6605 -0.1788 -0.5332
 4711SOL    HW125769   4.585   3.411  11.609  0.0345 -1.2513 -0.9435
 4711SOL    HW225770   4.687   3.417  11.508  0.3300 -3.6853  2.2310
 4712SOL     OW25771   1.248   3.028   4.781 -0.0753 -0.3792  0.8559
 4712SOL    HW125772   1.168   2.975   4.786 -1.8883  2.4792  2.3714
 4712SOL    HW225773   1.299   2.974   4.721 -1.7049 -0.9633  0.0038
 4713SOL     OW25774   4.033   0.683   4.861  0.6714  0.3847 -0.3670
 4713SOL    HW125775   4.049   0.721   4.947  0.0596  0.4062 -0.2574
 4713SOL    HW225776   4.039   0.756   4.800  0.5667  1.8970  1.4387
 4714SOL     OW25777   4.312   4.582   4.180  0.4373  0.4246 -0.6902
 4714SOL    HW125778   4.291   4.612   4.268  2.6093 -0.8883  0.2956
 4714SOL    HW225779   4.408   4.587   4.177  0.6119 -2.0918 -0.1199
 4715SOL     OW25780   2.628   4.347   3.172 -0.2888  0.7611  0.8654
 4715SOL    HW125781   2.587   4.434   3.175 -1.3673  0.2608  0.5308
 4715SOL    HW225782   2.589   4.311   3.252  2.0698 -0.3525  1.5057
 4716SOL     OW25783   0.111   3.129   0.523 -0.0679 -0.1150  0.4268
 4716SOL    HW125784   0.091   3.064   0.456 -1.2511 -0.5760  1.2225
 4716SOL    HW225785   0.175   3.075   0.570 -0.0907 -0.8785 -0.4141
 4717SOL     OW25786   3.305   0.272   2.829 -0.9266  0.3069 -0.3732
 4717SOL    HW125787   3.343   0.360   2.823  1.3505 -0.7630 -1.8685
 4717SOL    HW225788   3.292   0.271   2.924  0.8712 -2.6370 -0.1515
 4718SOL     OW25789   1.106   0.113   2.786 -0.1801 -0.2300  0.0833
 4718SOL    HW125790   1.190   0.157   2.797  0.5875 -1.0562 -2.4627
 4718SOL    HW225791   1.143   0.026   2.770  2.3816  0.6570  1.1660
 4719SOL     OW25792   1.289   3.730   5.774  0.3281  0.1953 -0.3407
 4719SOL    HW125793   1.382   3.727   5.751 -0.5446 -2.6358 -3.5464
 4719SOL    HW225794   1.255   3.763   5.691  1.3232 -1.0479 -1.2363
 4720SOL     OW25795   3.108   3.295   9.295 -0.5399 -0.3884 -0.0447
 4720SOL    HW125796   3.111   3.390   9.300  0.5626 -0.3453 -1.5921
 4720SOL    HW225797   3.013   3.289   9.286 -0.2752 -0.4959 -2.8304
 4721SOL     OW25798   2.717   1.725   2.356 -0.4539  0.0236 -0.0504
 4721SOL    HW125799   2.646   1.719   2.419  0.9148 -1.0232  1.4033
 4721SOL    HW225800   2.681   1.658   2.297  0.5589 -0.2433 -0.3745
 4722SOL     OW25801   3.394   2.375  12.699  0.3558 -0.7951 -0.0029
 4722SOL    HW125802   3.444   2.298  12.724 -0.1502 -1.7694 -2.0141
 4722SOL    HW225803   3.433   2.440  12.757  0.9320 -0.4698 -0.7525
 4723SOL     OW25804   3.250   1.717   5.250 -0.3443 -0.1935 -0.0929
 4723SOL    HW125805   3.215   1.790   5.302 -0.4384 -0.1305 -0.2450
 4723SOL    HW225806   3.171   1.687   5.205  0.8160 -0.5972 -1.8552
 4724SOL     OW25807   4.507   0.703   5.987 -0.1144  0.1807 -0.0414
 4724SOL    HW125808   4.473   0.790   5.966 -2.3432 -0.9079 -1.0095
 4724SOL    HW225809   4.451   0.671   6.058 -0.3389  0.3157 -0.1549
 4725SOL     OW25810   4.189   3.461   2.913  0.1351  0.7782 -0.1684
 4725SOL    HW125811   4.137   3.479   2.991  0.3486 -1.0992  0.4192
 4725SOL    HW225812   4.209   3.552   2.892  1.1625  0.4473 -0.6456
 4726SOL     OW25813   3.391   0.706  14.813 -0.0189 -0.0201 -0.1825
 4726SOL    HW125814   3.318   0.698  14.751 -0.3217 -1.2143  0.3291
 4726SOL    HW225815   3.391   0.617  14.848 -1.0781  0.1159  0.1451
 4727SOL     OW25816   4.485   2.429  12.670 -0.0603  0.2993  0.1021
 4727SOL    HW125817   4.424   2.410  12.599 -0.2011  2.1870 -0.2845
 4727SOL    HW225818   4.520   2.342  12.690  0.5113  0.4931 -0.0463
 4728SOL     OW25819   0.440   4.710   7.035 -0.0189  0.0336  0.1265
 4728SOL    HW125820   0.512   0.034   7.059 -0.8145  1.0895 -0.0662
 4728SOL    HW225821   0.398   4.702   7.120 -1.0314 -0.7571 -0.4577
 4729SOL     OW25822   4.524   1.104   0.580 -0.0613 -0.2461 -0.1676
 4729SOL    HW125823   4.469   1.164   0.530 -3.4071 -2.9551  0.2627
 4729SOL    HW225824   4.543   1.044   0.508 -1.2346  0.6565 -1.2217
 4730SOL     OW25825   3.668   1.388   1.282 -0.0717  0.0816  0.0184
 4730SOL    HW125826   3.705   1.359   1.365 -0.3584  1.4303  0.6088
 4730SOL    HW225827   3.639   1.301   1.253  0.1509 -0.2385  0.7507
 4731SOL     OW25828   3.514   1.425   3.601  0.6884  0.0242 -0.2737
 4731SOL    HW125829   3.515   1.380   3.517 -0.8288 -0.1083 -0.2148
 4731SOL    HW225830   3.582   1.382   3.653 -1.3581 -3.1701 -0.1779
 4732SOL     OW25831   1.384   1.122  16.577  0.4478 -0.2116 -0.3205
 4732SOL    HW125832   1.396   1.081  16.491 -3.0640 -1.5049 -0.1751
 4732SOL    HW225833   1.477   1.128  16.600  0.2163  1.3505  0.2264
 4733SOL     OW25834   4.517   4.517  16.210 -0.3967  0.2080 -0.3085
 4733SOL    HW125835   4.520   4.481  16.122  0.7490  1.3236 -0.7398
 4733SOL    HW225836   4.597   4.570  16.204  0.5829 -1.1324  0.9293
 4734SOL     OW25837   4.106   2.381   3.842 -0.1664  0.5406  0.0973
 4734SOL    HW125838   4.016   2.362   3.868  0.5734 -2.8655  0.1075
 4734SOL    HW225839   4.134   2.317   3.776  0.4407 -0.3039  1.1883
 4735SOL     OW25840   4.480   1.914   7.758 -0.0061  0.1848 -0.2100
 4735SOL    HW125841   4.407   1.964   7.794 -0.3500 -2.3276  2.6295
 4735SOL    HW225842   4.531   1.901   7.838  2.7584 -0.1229 -2.0207
 4736SOL     OW25843   2.716   4.225   5.040  0.3955 -0.2226  0.1684
 4736SOL    HW125844   2.763   4.195   5.118  1.3625  0.6498 -0.0760
 4736SOL    HW225845   2.775   4.202   4.967  1.0112  2.1301 -0.0788
 4737SOL     OW25846   3.450   0.552   5.946 -0.0183  0.5396 -0.0300
 4737SOL    HW125847   3.377   0.518   5.998 -2.4916  0.8037 -3.3884
 4737SOL    HW225848   3.464   0.638   5.987  0.4023 -0.7286  2.5089
 4738SOL     OW25849   1.129   2.785   9.548 -0.2908 -0.2464 -0.3930
 4738SOL    HW125850   1.156   2.745   9.466 -0.6193  1.5888 -1.4069
 4738SOL    HW225851   1.040   2.811   9.524 -0.6494 -0.3103  0.8779
 4739SOL     OW25852   3.150   0.296   6.829  0.3409 -0.4501  0.3094
 4739SOL    HW125853   3.105   0.300   6.744 -0.8154  1.3340  1.0141
 4739SOL    HW225854   3.186   0.208   6.820  0.7487 -0.2250 -0.2685
 4740SOL     OW25855   1.794   1.466   2.729 -0.2522  0.0552  0.7988
 4740SOL    HW125856   1.770   1.432   2.643  2.6144  1.0061 -0.3949
 4740SOL    HW225857   1.725   1.532   2.738 -1.4808 -1.0995 -0.1757
 4741SOL     OW25858   1.498   1.196   3.654 -0.1965  0.2930 -0.0469
 4741SOL    HW125859   1.584   1.169   3.685 -0.9420 -0.2946  1.5057
 4741SOL    HW225860   1.493   1.284   3.691 -0.3183  0.1617  0.2487
 4742SOL     OW25861   4.640   2.145   3.112  0.4497 -0.2554 -0.1479
 4742SOL    HW125862   4.618   2.237   3.103 -0.5092 -0.3631  1.1436
 4742SOL    HW225863   4.629   2.108   3.024 -2.8483  1.3704 -0.3971
 4743SOL     OW25864   3.703   0.834   4.674  0.2299  0.2021 -0.0614
 4743SOL    HW125865   3.656   0.773   4.731  2.5748 -2.3246 -0.8640
 4743SOL    HW225866   3.635   0.901   4.668 -0.9670 -0.8943  1.1639
 4744SOL     OW25867   2.740   3.781   5.530 -0.4451  0.7442  0.2234
 4744SOL    HW125868   2.758   3.689   5.515  2.7106  1.8128 -2.5128
 4744SOL    HW225869   2.806   3.827   5.478 -0.4739 -1.6660 -1.9005
 4745SOL     OW25870   0.330   4.278  15.834 -0.0433  0.2348  0.1749
 4745SOL    HW125871   0.338   4.302  15.742  0.8287 -0.3463  0.0947
 4745SOL    HW225872   0.353   4.187  15.818 -0.3258  0.4010 -1.1410
 4746SOL     OW25873   4.590   3.283   9.085 -0.1092 -0.0403 -0.1005
 4746SOL    HW125874   4.680   3.251   9.075  0.4040  1.0563  0.8621
 4746SOL    HW225875   4.582   3.336   9.005 -3.7367  1.6242  1.3842
 4747SOL     OW25876   1.009   1.161   4.611  0.0494 -0.0219  0.6583
 4747SOL    HW125877   1.052   1.211   4.680  0.4153  0.1759  0.2840
 4747SOL    HW225878   0.918   1.186   4.629  0.1404 -0.7920  2.2502
 4748SOL     OW25879   3.065   4.444  12.122  0.0625  0.1652 -0.2600
 4748SOL    HW125880   3.146   4.401  12.093 -1.3267 -3.5091  1.2846
 4748SOL    HW225881   2.996   4.380  12.105  0.3983 -0.4152  0.5906
 4749SOL     OW25882   4.430   0.757   7.364 -0.2392 -0.1017 -0.1264
 4749SOL    HW125883   4.515   0.801   7.362 -1.2941  1.9527 -0.2113
 4749SOL    HW225884   4.394   0.814   7.296 -0.0463 -0.4650 -0.5361
 4750SOL     OW25885   2.366   0.356   6.263 -0.0230  0.3956 -0.4397
 4750SOL    HW125886   2.297   0.401   6.313  1.3101 -0.9823  2.6008
 4750SOL    HW225887   2.356   0.400   6.179 -0.6743  0.7011 -0.2056
 4751SOL     OW25888   2.492   3.455   6.775  0.5485  0.1907  0.0721
 4751SOL    HW125889   2.532   3.415   6.852 -0.2208 -1.4920 -0.4069
 4751SOL    HW225890   2.487   3.380   6.715 -1.2169 -0.0648  0.5476
 4752SOL     OW25891   1.426   1.452   6.681 -0.5199 -0.3296  0.0451
 4752SOL    HW125892   1.400   1.378   6.736 -0.5553 -1.9922 -2.1889
 4752SOL    HW225893   1.416   1.522   6.746 -0.5982 -0.4268  0.1370
 4753SOL     OW25894   1.944   4.114   8.516  0.2221 -0.4839  0.3444
 4753SOL    HW125895   1.913   4.087   8.429  0.5163 -1.4315  0.5355
 4753SOL    HW225896   1.913   4.204   8.523  2.3333  0.4971 -2.8307
 4754SOL     OW25897   0.272   1.234   6.977 -0.4420 -0.0501 -0.2261
 4754SOL    HW125898   0.195   1.277   6.940  0.6432  0.2549 -2.1097
 4754SOL    HW225899   0.236   1.193   7.056  0.4791 -0.2128  0.1036
 4755SOL     OW25900   0.202   4.152   5.932  0.3180  0.5990 -0.0647
 4755SOL    HW125901   0.128   4.091   5.928  0.5299  0.3425 -0.0693
 4755SOL    HW225902   0.275   4.097   5.903 -0.1331  0.8753 -1.7567
 4756SOL     OW25903   4.341   2.718   8.893 -0.0869  0.2729 -0.5186
 4756SOL    HW125904   4.265   2.660   8.887 -0.9101  1.3130  0.0316
 4756SOL    HW225905   4.327   2.749   8.982 -1.6732 -0.2997 -0.5560
 4757SOL     OW25906   2.455   1.611   4.332 -0.6027  0.2556 -0.4098
 4757SOL    HW125907   2.550   1.624   4.328 -0.5035  0.5201  2.6009
 4757SOL    HW225908   2.431   1.610   4.239 -0.9013 -2.6157 -0.3258
 4758SOL     OW25909   1.094   1.165  11.703 -0.0861 -0.3061  0.3759
 4758SOL    HW125910   1.159   1.095  11.707  0.7968  0.6045  1.8577
 4758SOL    HW225911   1.031   1.139  11.771 -0.5384  0.9060  0.4226
 4759SOL     OW25912   3.409   1.386   4.353  0.2823 -0.5129  0.0044
 4759SOL    HW125913   3.373   1.334   4.281  2.2445  0.9628 -2.0429
 4759SOL    HW225914   3.404   1.323   4.425  2.4215  1.4187  1.8403
 4760SOL     OW25915   4.602   2.974   9.200 -0.2373 -0.2433  0.3647
 4760SOL    HW125916   4.576   3.061   9.228  0.7677  0.4508 -0.8750
 4760SOL    HW225917   4.515   2.936   9.212 -1.0345  2.0733  1.9570
 4761SOL     OW25918   3.749   3.968   0.644 -0.3241  0.5440 -0.6043
 4761SOL    HW125919   3.755   3.873   0.642 -2.1667  0.4418 -0.7030
 4761SOL    HW225920   3.828   3.996   0.691  1.0973  1.9176 -3.7434
 4762SOL     OW25921   2.740   3.507   1.670 -0.1992 -0.2188 -0.3870
 4762SOL    HW125922   2.789   3.476   1.594  0.9319 -0.0757  0.2827
 4762SOL    HW225923   2.750   3.598   1.640  0.7683 -0.2199 -0.0617
 4763SOL     OW25924   1.604   1.089   8.514  0.1359  0.2991 -0.2480
 4763SOL    HW125925   1.653   1.151   8.460  0.4431  0.4625  0.2203
 4763SOL    HW225926   1.677   1.028   8.525 -1.7369 -1.8864  0.1056
 4764SOL     OW25927   0.197   1.021   5.096 -0.5785  0.0552  0.2254
 4764SOL    HW125928   0.261   1.059   5.035 -1.7921 -0.2238 -1.2302
 4764SOL    HW225929   0.178   1.086   5.163  2.1837  0.3904  0.6889
 4765SOL     OW25930   3.278   2.007   2.516 -0.2695 -0.0783 -0.3062
 4765SOL    HW125931   3.304   2.078   2.458  0.5872  0.2531  0.4761
 4765SOL    HW225932   3.310   1.931   2.468 -0.6176 -1.4516  1.6397
 4766SOL     OW25933   4.022   3.112  17.172  0.2791  0.0755 -0.2671
 4766SOL    HW125934   3.953   3.099  17.238  0.3329 -5.1454 -1.2180
 4766SOL    HW225935   4.063   3.026  17.183  2.0807  1.2084  1.7656
 4767SOL     OW25936   1.216   2.595   8.354  0.3227  0.4642  0.0623
 4767SOL    HW125937   1.142   2.643   8.318 -0.0804 -1.9803 -2.3285
 4767SOL    HW225938   1.172   2.541   8.419  1.5437  0.0008  0.5075
 4768SOL     OW25939   1.029   4.609   4.277  0.0016  0.2055 -0.1936
 4768SOL    HW125940   1.050   4.578   4.365  0.6155 -0.4746 -0.5752
 4768SOL    HW225941   1.107   4.651   4.241  0.8190 -1.0173  0.1313
 4769SOL     OW25942   2.798   4.428   0.986  0.9346 -0.1556  0.0368
 4769SOL    HW125943   2.845   4.489   0.928  0.4816  0.5910  0.4528
 4769SOL    HW225944   2.865   4.415   1.053  0.1246  1.9749  1.2388
 4770SOL     OW25945   3.501   0.748   0.585  0.4217 -0.7964  0.3249
 4770SOL    HW125946   3.550   0.770   0.664 -0.0524 -1.6403  0.8591
 4770SOL    HW225947   3.544   0.670   0.549 -0.7218 -1.4201  0.2837
 4771SOL     OW25948   2.982   0.566   5.876 -0.1825  0.0461  0.1568
 4771SOL    HW125949   2.890   0.547   5.858  0.0428  1.3353 -2.4587
 4771SOL    HW225950   3.000   0.507   5.949  0.4255 -0.1912 -0.1856
 4772SOL     OW25951   0.611   1.450  12.932 -0.1735  0.6789 -0.5763
 4772SOL    HW125952   0.517   1.447  12.918 -0.0903 -2.6189 -0.3690
 4772SOL    HW225953   0.619   1.477  13.024  2.3696  0.1376 -0.6228
 4773SOL     OW25954   4.657   1.656   2.371  0.1496  0.2754 -0.4922
 4773SOL    HW125955   4.661   1.562   2.353  0.8284 -0.1022  1.6576
 4773SOL    HW225956   4.563   1.672   2.386  0.2189  2.0060 -1.8799
 4774SOL     OW25957   1.642   3.542  16.548  0.2164 -0.1231 -0.6888
 4774SOL    HW125958   1.727   3.539  16.505 -0.4532 -1.2878 -1.9234
 4774SOL    HW225959   1.648   3.461  16.599 -0.1588  1.8426  2.4978
 4775SOL     OW25960   3.105   1.991   6.699 -0.3347  0.3415  0.1534
 4775SOL    HW125961   3.090   2.063   6.638  0.3532  0.2486 -0.1222
 4775SOL    HW225962   3.170   2.037   6.751  0.8387 -1.1505 -0.0055
 4776SOL     OW25963   0.006   4.217   3.508  0.3998  0.0814  0.3842
 4776SOL    HW125964   0.045   4.229   3.595  0.0961 -0.8310  0.6447
 4776SOL    HW225965   4.692   4.297   3.491 -0.2075 -0.5949 -1.0471
 4777SOL     OW25966   3.529   2.648   7.244  0.1948  0.0231 -0.2394
 4777SOL    HW125967   3.561   2.600   7.168 -0.1750  0.8177 -0.8897
 4777SOL    HW225968   3.545   2.739   7.219  2.0301 -0.0757  0.5847
 4778SOL     OW25969   0.971   1.136   1.543 -0.1510  0.4794  0.0776
 4778SOL    HW125970   0.942   1.219   1.580  1.9996  1.8936 -1.4680
 4778SOL    HW225971   0.929   1.133   1.457 -0.4494 -0.6980  0.2547
 4779SOL     OW25972   2.018   1.885   8.177  0.0721 -0.7761  0.7104
 4779SOL    HW125973   2.112   1.883   8.160 -0.1832 -3.8132 -0.4026
 4779SOL    HW225974   2.013   1.949   8.248  0.4487  0.5013 -0.4209
 4780SOL     OW25975   3.737   0.800  10.966  0.0525  0.2643  0.1818
 4780SOL    HW125976   3.825   0.837  10.967  0.2275 -0.1523 -0.0060
 4780SOL    HW225977   3.709   0.820  10.877  0.0084  0.8646  0.3281
 4781SOL     OW25978   1.997   2.884   0.171 -0.3557  0.5112  0.9498
 4781SOL    HW125979   2.055   2.915   0.241  0.9738 -0.4870  0.3151
 4781SOL    HW225980   2.060   2.899   0.101 -0.1206  1.5064  1.3655
 4782SOL     OW25981   3.236   1.154   3.733 -0.4319 -0.6029 -0.5079
 4782SOL    HW125982   3.288   1.085   3.691 -0.3321 -0.4726 -0.5954
 4782SOL    HW225983   3.187   1.190   3.660 -2.3579  0.2678  1.2030
 4783SOL     OW25984   4.517   0.102  14.180  0.0779 -0.2210 -0.0066
 4783SOL    HW125985   4.583   0.099  14.249 -1.4789  0.4941  1.5097
 4783SOL    HW225986   4.552   0.167  14.119 -1.5157  0.8051  0.1688
 4784SOL     OW25987   4.324   4.262  17.386  0.1230  0.0353  0.3506
 4784SOL    HW125988   4.290   4.202  17.320  1.3737 -0.3763  0.0922
 4784SOL    HW225989   4.388   4.314  17.338  0.4630 -1.1062 -0.4123
 4785SOL     OW25990   1.934   3.494  15.051 -0.6065  0.4719  0.1760
 4785SOL    HW125991   2.009   3.490  15.109 -1.5802 -1.6862  1.2989
 4785SOL    HW225992   1.868   3.520  15.115  0.7413  2.2228  0.8272
 4786SOL     OW25993   1.157   2.625   9.323 -0.2250 -0.2978 -0.0854
 4786SOL    HW125994   1.115   2.633   9.237 -2.0151  2.4319  1.0372
 4786SOL    HW225995   1.096   2.578   9.379 -1.1924 -0.4783 -1.2916
 4787SOL     OW25996   4.185   3.436  15.109  1.0149 -0.0402 -0.0524
 4787SOL    HW125997   4.258   3.496  15.125  1.8469 -1.0839  0.0457
 4787SOL    HW225998   4.224   3.398  15.031 -0.0949 -1.0347 -0.1189
 4788SOL     OW25999   0.681   3.217   5.287 -0.0515  0.0215 -0.0851
 4788SOL    HW126000   0.696   3.150   5.220 -0.0866  2.0142 -2.0788
 4788SOL    HW226001   0.638   3.163   5.354 -0.0703 -2.6522 -2.2296
 4789SOL     OW26002   1.731   2.626   1.613  0.1895 -0.6465 -0.6970
 4789SOL    HW126003   1.808   2.571   1.595  0.1390 -1.6871  2.3117
 4789SOL    HW226004   1.768   2.714   1.621 -3.0366  0.3570  2.8222
 4790SOL     OW26005   1.403   1.270   4.738  0.5434 -0.3327  0.4075
 4790SOL    HW126006   1.317   1.310   4.755 -0.1633 -1.4415 -0.5730
 4790SOL    HW226007   1.381   1.202   4.675  0.8140  0.9264 -1.0293
 4791SOL     OW26008   4.097   0.943  13.050 -0.2159  0.0453 -0.3325
 4791SOL    HW126009   4.071   0.918  12.961  0.0749 -1.8331  0.1078
 4791SOL    HW226010   4.086   1.038  13.052  1.8577  0.3628 -3.2303
 4792SOL     OW26011   2.900   0.380  16.374 -0.0658 -0.3918  0.0150
 4792SOL    HW126012   2.888   0.469  16.407  0.9656  0.3884 -1.7156
 4792SOL    HW226013   2.851   0.391  16.293 -0.9713 -1.4301  0.4219
 4793SOL     OW26014   2.146   1.314  12.721 -0.7760 -0.0748 -0.2799
 4793SOL    HW126015   2.201   1.236  12.727 -2.8461 -1.4829  0.5594
 4793SOL    HW226016   2.170   1.358  12.803 -1.4061  0.9922 -0.6607
 4794SOL     OW26017   0.683   3.079   3.621 -0.5314 -0.0128  0.1398
 4794SOL    HW126018   0.687   3.039   3.534 -0.3844 -1.9471  1.0461
 4794SOL    HW226019   0.613   3.143   3.612 -0.8797 -0.4067  0.0250
 4795SOL     OW26020   0.817   3.729  16.578  0.1488  0.1418  0.2077
 4795SOL    HW126021   0.760   3.797  16.542 -0.4350  1.4462  3.5904
 4795SOL    HW226022   0.805   3.655  16.518 -0.3311  1.0041 -0.7729
 4796SOL     OW26023   2.742   2.247   5.218 -0.3169  0.4733  0.0723
 4796SOL    HW126024   2.780   2.274   5.134 -0.9517  0.9167 -0.0703
 4796SOL    HW226025   2.649   2.263   5.207 -0.1472  1.1111 -0.4633
 4797SOL     OW26026   2.597   3.437   3.544  0.5236 -0.2124 -0.1506
 4797SOL    HW126027   2.586   3.462   3.453  0.3998  1.9815  0.4633
 4797SOL    HW226028   2.505   3.417   3.562  0.5481  0.0284  0.2443
 4798SOL     OW26029   4.133   3.228  15.335  0.0593 -0.3413 -0.3521
 4798SOL    HW126030   4.187   3.281  15.393 -2.6152  1.0103  0.8666
 4798SOL    HW226031   4.199   3.204  15.269  0.1815  0.1114 -0.3918
 4799SOL     OW26032   1.794   1.626  17.058  0.2766 -0.1607  0.2531
 4799SOL    HW126033   1.837   1.670  16.985 -0.0269 -0.2276  0.0382
 4799SOL    HW226034   1.703   1.645  17.038  0.6221  1.4911  0.2668
 4800SOL     OW26035   2.175   2.688   8.510  0.1567 -0.1469  0.3046
 4800SOL    HW126036   2.268   2.692   8.532  0.3301  0.3407 -0.5126
 4800SOL    HW226037   2.164   2.618   8.574  0.4891 -0.4288  0.0555
 4801SOL     OW26038   0.589   4.721   6.320  0.1227  0.1499  0.0253
 4801SOL    HW126039   0.532   4.703   6.245  0.7907  1.5495 -0.8100
 4801SOL    HW226040   0.670   4.670   6.312 -0.5665 -1.1488  1.3546
 4802SOL     OW26041   4.241   4.313   2.848 -0.3106  0.1027  0.1229
 4802SOL    HW126042   4.185   4.235   2.849  1.5934 -1.2369  2.4800
 4802SOL    HW226043   4.255   4.331   2.755 -0.3708 -0.5510 -0.0154
 4803SOL     OW26044   2.178   0.671   3.540 -0.0492  0.6247 -0.1007
 4803SOL    HW126045   2.161   0.648   3.449 -2.5670  0.6300  0.3399
 4803SOL    HW226046   2.256   0.725   3.533 -1.3636  2.3471 -1.4669
 4804SOL     OW26047   4.414   0.808   6.696  0.7756 -0.2485  0.1149
 4804SOL    HW126048   4.401   0.903   6.701 -2.2764 -0.6943  0.9689
 4804SOL    HW226049   4.335   0.782   6.648  0.7634 -0.4760  0.2601
 4805SOL     OW26050   3.174   0.971   7.723  0.3779 -0.2992 -0.5259
 4805SOL    HW126051   3.227   1.023   7.784  2.1845  0.6743 -2.9384
 4805SOL    HW226052   3.208   1.020   7.648 -1.9507 -0.6400 -1.7746
 4806SOL     OW26053   3.838   2.059   7.791 -1.1694 -0.6043  0.3838
 4806SOL    HW126054   3.893   1.986   7.762 -2.0915 -0.6049 -1.3570
 4806SOL    HW226055   3.767   2.073   7.728 -0.3027 -2.2230 -0.9479
 4807SOL     OW26056   1.717   2.793   2.016 -0.6994 -0.0326  0.0108
 4807SOL    HW126057   1.771   2.793   2.096 -2.3157  0.7692  1.0999
 4807SOL    HW226058   1.629   2.824   2.038 -2.2411 -3.9470 -0.6323
 4808SOL     OW26059   1.503   1.959   4.379  0.5197 -0.2599  0.0485
 4808SOL    HW126060   1.548   1.931   4.299 -0.9819  0.7995 -1.1771
 4808SOL    HW226061   1.567   2.023   4.409  0.2146  0.3306 -0.5604
 4809SOL     OW26062   3.598   1.911  14.685 -0.0837 -0.4511  0.3721
 4809SOL    HW126063   3.523   1.853  14.676  0.5904 -1.1758 -0.4511
 4809SOL    HW226064   3.567   1.963  14.760 -0.7595  0.8475 -0.8054
 4810SOL     OW26065   2.258   4.413   3.454  0.4515 -0.0868 -1.0500
 4810SOL    HW126066   2.222   4.349   3.393  0.1108 -0.7320 -0.1706
 4810SOL    HW226067   2.341   4.373   3.481  0.0268 -0.4538 -0.3056
 4811SOL     OW26068   4.063   1.455  13.134 -0.1948  0.0555 -0.1865
 4811SOL    HW126069   4.038   1.486  13.221  2.7876  0.5744  0.4864
 4811SOL    HW226070   4.127   1.520  13.103  0.0260 -0.4087 -0.7121
 4812SOL     OW26071   1.425   3.444  10.740 -0.1333  0.3909  0.1682
 4812SOL    HW126072   1.392   3.418  10.826  0.7292  0.5951  0.5650
 4812SOL    HW226073   1.503   3.490  10.773 -0.2065  0.9189 -0.4194
 4813SOL     OW26074   2.283   0.326  12.707  0.1677  0.0291  0.1800
 4813SOL    HW126075   2.299   0.260  12.640  1.7518  1.6841 -1.0782
 4813SOL    HW226076   2.358   0.318  12.766  1.4160 -0.6833 -1.5176
 4814SOL     OW26077   0.306   0.468   0.397 -0.2775 -0.0422 -0.2857
 4814SOL    HW126078   0.396   0.434   0.400 -0.0969  0.3391 -1.3553
 4814SOL    HW226079   0.314   0.528   0.323  1.2599 -0.3004 -0.3344
 4815SOL     OW26080   2.885   4.148   7.036 -0.1519 -0.5682  0.7371
 4815SOL    HW126081   2.825   4.175   7.105 -0.7827 -2.1704  0.8163
 4815SOL    HW226082   2.825   4.105   6.976 -0.9456  0.5776  0.7028
 4816SOL     OW26083   4.358   0.077  14.417  0.4180  0.5821  0.0990
 4816SOL    HW126084   4.318   0.164  14.422  0.4037  0.7358 -2.8500
 4816SOL    HW226085   4.395   0.076  14.329  0.0724  1.4146 -0.0567
 4817SOL     OW26086   4.165   1.674   4.075 -0.6196  0.1238 -0.0480
 4817SOL    HW126087   4.258   1.691   4.058 -0.2760 -0.7987  0.9545
 4817SOL    HW226088   4.134   1.730   4.004 -1.3449  2.3459  1.9930
 4818SOL     OW26089   0.671   0.382   4.518  0.0510 -0.1167  0.0729
 4818SOL    HW126090   0.754   0.412   4.556 -0.5479 -0.5630  1.7475
 4818SOL    HW226091   0.613   0.425   4.581  0.4557  1.2776 -0.4913
 4819SOL     OW26092   0.848   2.728   9.517 -0.6856 -0.6243 -0.1879
 4819SOL    HW126093   0.759   2.741   9.551 -1.0317 -0.0307 -1.3326
 4819SOL    HW226094   0.838   2.761   9.428  0.2749 -1.5785 -0.6427
 4820SOL     OW26095   3.940   1.799  13.743 -0.2819  0.0088  0.0079
 4820SOL    HW126096   3.855   1.786  13.785  0.6289 -0.0562  1.8472
 4820SOL    HW226097   3.926   1.777  13.651 -1.6927 -1.2652  0.5360
 4821SOL     OW26098   1.670   0.331   8.132  0.3275 -0.3572  0.5392
 4821SOL    HW126099   1.658   0.252   8.079 -0.3128 -2.2685  3.5208
 4821SOL    HW226100   1.659   0.394   8.061  1.1506 -0.4307  0.3511
 4822SOL     OW26101   4.375   3.663   0.806  0.1731  0.2089  0.0752
 4822SOL    HW126102   4.425   3.616   0.739  0.1567  0.8443 -0.3801
 4822SOL    HW226103   4.439   3.724   0.840  1.5395 -0.0200 -2.0532
 4823SOL     OW26104   0.517   3.795   0.307  0.5575 -0.1127 -0.1875
 4823SOL    HW126105   0.554   3.866   0.358  0.3273 -0.8830  1.0742
 4823SOL    HW226106   0.507   3.724   0.371 -1.7076  1.1668  0.8896
 4824SOL     OW26107   2.086   2.636  14.085 -0.0936  0.3649  0.7527
 4824SOL    HW126108   2.068   2.729  14.072  0.7397  0.3058 -0.8585
 4824SOL    HW226109   2.033   2.610  14.160  1.0944 -2.0837  0.7496
 4825SOL     OW26110   1.811   1.746   8.095  0.2442 -0.2152  0.5077
 4825SOL    HW126111   1.891   1.797   8.085  0.2376 -0.4216 -0.7217
 4825SOL    HW226112   1.827   1.656   8.067  0.4507  0.3284 -1.1425
 4826SOL     OW26113   0.150   1.652   6.585  0.1423  0.0452 -0.1994
 4826SOL    HW126114   0.143   1.595   6.662 -0.5261  0.6971  0.2154
 4826SOL    HW226115   0.059   1.658   6.557  0.0480  2.3914  0.6275
 4827SOL     OW26116   1.644   4.542   5.792  0.2006  0.3052  0.1647
 4827SOL    HW126117   1.579   4.479   5.823  1.3510 -1.5313 -1.1294
 4827SOL    HW226118   1.723   4.511   5.838  1.8846  0.7534 -2.4098
 4828SOL     OW26119   0.652   2.781   5.404 -0.1832  0.0051  0.2266
 4828SOL    HW126120   0.638   2.850   5.469 -1.2746  0.8262 -0.8856
 4828SOL    HW226121   0.666   2.709   5.466  1.4939 -0.8245 -1.1299
 4829SOL     OW26122   4.231   4.727   3.480  0.3149  0.1054  0.4603
 4829SOL    HW126123   4.239   4.689   3.568  0.9057 -1.4348 -0.2639
 4829SOL    HW226124   4.141   0.023   3.471 -0.0197 -0.3545  2.2498
 4830SOL     OW26125   2.507   3.777   9.221 -1.1223  0.5913  0.4956
 4830SOL    HW126126   2.514   3.685   9.194 -1.8645  1.4622 -2.7313
 4830SOL    HW226127   2.412   3.782   9.227 -0.9127  2.1827  2.5546
 4831SOL     OW26128   0.369   1.981   3.911 -0.3836  0.0959 -0.0750
 4831SOL    HW126129   0.452   1.936   3.897 -0.9899 -0.7926 -0.8180
 4831SOL    HW226130   0.398   2.067   3.883 -1.7272  0.1912 -1.1505
 4832SOL     OW26131   3.591   4.534   7.638 -0.1147  0.0728  0.0349
 4832SOL    HW126132   3.672   4.564   7.678 -0.2724  0.8148 -0.1965
 4832SOL    HW226133   3.597   4.609   7.579  1.4635 -0.4337 -0.4532
 4833SOL     OW26134   4.126   3.835   2.641  0.0699 -0.5161  0.1846
 4833SOL    HW126135   4.189   3.878   2.700  1.1115  0.1364 -1.4036
 4833SOL    HW226136   4.044   3.864   2.681  0.2801  1.7495 -1.0162
 4834SOL     OW26137   1.120   4.214   3.954  0.3931  0.0518  0.8341
 4834SOL    HW126138   1.188   4.281   3.942 -0.0865  0.3111 -0.4922
 4834SOL    HW226139   1.135   4.181   4.043 -1.3784  0.5070  1.3065
 4835SOL     OW26140   4.484   2.993   3.964 -0.1597  0.3913 -0.1048
 4835SOL    HW126141   4.429   2.981   4.042  1.0831  1.3015  0.9251
 4835SOL    HW226142   4.433   2.959   3.891 -0.2040  2.8058 -1.1986
 4836SOL     OW26143   4.108   3.709   6.568 -0.0371 -0.2985  0.3479
 4836SOL    HW126144   4.203   3.714   6.564 -0.0144 -1.0640  0.0108
 4836SOL    HW226145   4.080   3.774   6.633  1.9880 -0.1346  1.0525
 4837SOL     OW26146   1.028   1.272   1.946 -0.6718 -0.1775 -0.0095
 4837SOL    HW126147   1.028   1.368   1.939  2.4196 -0.2608 -0.9373
 4837SOL    HW226148   0.935   1.261   1.968 -0.3649 -2.7192 -0.0559
 4838SOL     OW26149   3.613   1.536   9.750  0.1429 -0.2501  0.1066
 4838SOL    HW126150   3.630   1.446   9.778  0.9048 -0.5265 -1.2139
 4838SOL    HW226151   3.597   1.580   9.833 -2.6117 -0.1595 -0.4906
 4839SOL     OW26152   1.255   0.926   0.008  0.5745 -0.1170  0.3440
 4839SOL    HW126153   1.205   0.873   0.070 -1.1183 -1.4680 -2.1865
 4839SOL    HW226154   1.303   0.987   0.064 -0.0509  1.2128 -0.5718
 4840SOL     OW26155   3.287   4.032   8.627  0.5233 -0.1642 -0.2271
 4840SOL    HW126156   3.303   3.969   8.697 -0.6487 -1.0000 -0.7131
 4840SOL    HW226157   3.278   3.975   8.550 -0.3420  0.3724 -0.5286
 4841SOL     OW26158   3.366   1.705  14.367  0.1831 -0.3940  0.0896
 4841SOL    HW126159   3.410   1.728  14.285  0.1679 -2.3063 -0.4472
 4841SOL    HW226160   3.356   1.786  14.416  0.4489  1.2130 -2.4840
 4842SOL     OW26161   1.700   1.706   9.219 -0.1145 -0.2397 -0.2191
 4842SOL    HW126162   1.775   1.745   9.176 -1.2084 -0.1482 -2.0739
 4842SOL    HW226163   1.633   1.773   9.234  0.0319 -0.3273  0.8162
 4843SOL     OW26164   1.878   2.187  13.976 -0.1602 -0.0216 -0.0312
 4843SOL    HW126165   1.932   2.261  14.005 -1.5436  0.5922  0.9787
 4843SOL    HW226166   1.947   2.130  13.942  0.7729  2.0272 -1.5852
 4844SOL     OW26167   1.829   1.197   2.274  0.3170 -0.1107  0.2213
 4844SOL    HW126168   1.757   1.164   2.221 -0.3046  2.0924 -0.3403
 4844SOL    HW226169   1.771   1.244   2.334 -0.4934 -2.5684  1.3538
 4845SOL     OW26170   3.270   1.492   3.799 -0.3102 -0.3732  0.1102
 4845SOL    HW126171   3.209   1.448   3.739  1.1894 -1.2337 -0.7957
 4845SOL    HW226172   3.350   1.453   3.763 -1.0266 -2.0388  0.2777
 4846SOL     OW26173   4.343   3.066   4.745  0.5942 -0.3220 -0.0844
 4846SOL    HW126174   4.350   2.989   4.689 -1.9317 -2.0333  1.9270
 4846SOL    HW226175   4.250   3.062   4.770  0.5706  0.7213 -0.0142
 4847SOL     OW26176   1.550   3.038   7.134  0.6850  0.8402 -0.3278
 4847SOL    HW126177   1.542   3.029   7.039  0.6216  0.0194 -0.2430
 4847SOL    HW226178   1.565   3.132   7.147  2.2280  0.4258  0.8862
 4848SOL     OW26179   3.204   0.734   9.746  0.1946  0.4455 -0.5046
 4848SOL    HW126180   3.241   0.650   9.770 -2.5638 -1.4695 -2.9618
 4848SOL    HW226181   3.158   0.759   9.827 -1.0164 -0.1091 -1.0276
 4849SOL     OW26182   2.701   4.017   3.772 -0.5272  0.0718  0.5270
 4849SOL    HW126183   2.681   3.924   3.765  0.4800 -0.2083  1.4774
 4849SOL    HW226184   2.770   4.031   3.707 -0.7882  0.9641  0.4413
 4850SOL     OW26185   0.441   3.002   1.669  0.0248  0.2482  0.2707
 4850SOL    HW126186   0.441   3.067   1.739 -2.2995  1.1057 -0.5358
 4850SOL    HW226187   0.460   3.044   1.585 -1.6236  0.5835  0.0698
 4851SOL     OW26188   4.204   2.221   1.287 -0.2215  0.3562  0.2664
 4851SOL    HW126189   4.223   2.184   1.201 -0.3322 -1.5302  1.0439
 4851SOL    HW226190   4.120   2.263   1.272 -0.8811 -1.8637 -2.2689
 4852SOL     OW26191   1.827   3.957   1.562  0.4134 -0.1864 -0.3033
 4852SOL    HW126192   1.763   4.022   1.591 -0.4590 -1.6032  1.0027
 4852SOL    HW226193   1.907   3.985   1.606  0.9289 -0.3405 -1.1434
 4853SOL     OW26194   2.717   3.980   3.046  0.3489 -0.5449 -0.0459
 4853SOL    HW126195   2.711   4.050   3.110  2.3738 -1.2833  0.9541
 4853SOL    HW226196   2.648   3.922   3.077  0.6454  0.2053  1.9896
 4854SOL     OW26197   0.572   2.186   7.670  0.3758  0.1431  0.6027
 4854SOL    HW126198   0.590   2.113   7.610  2.0658 -0.3488  1.7151
 4854SOL    HW226199   0.564   2.255   7.605  2.2543  1.0344  1.3172
 4855SOL     OW26200   2.154   1.019   7.150  0.7422  0.4105  0.6698
 4855SOL    HW126201   2.125   0.980   7.067  0.6493  0.4485  0.6836
 4855SOL    HW226202   2.243   0.985   7.144  0.5191 -0.1251  0.4220
 4856SOL     OW26203   4.313   3.701  15.901 -0.4370  0.1426 -0.2698
 4856SOL    HW126204   4.295   3.751  15.981  2.1685  0.3524  0.1581
 4856SOL    HW226205   4.235   3.740  15.861 -0.4728  0.2432 -0.1023
 4857SOL     OW26206   0.725   0.431   9.713  0.2568 -0.3482  0.6424
 4857SOL    HW126207   0.776   0.489   9.656 -0.3575  0.1814  0.6313
 4857SOL    HW226208   0.660   0.398   9.651 -2.4209  1.0344  2.6901
 4858SOL     OW26209   0.187   1.691   2.783  0.1695  0.0439  0.1888
 4858SOL    HW126210   0.162   1.623   2.720 -1.3513  0.0807  0.7371
 4858SOL    HW226211   0.231   1.626   2.838 -0.2224  0.2194  0.7145
 4859SOL     OW26212   2.459   0.778   1.894 -0.3523 -0.1491 -0.0360
 4859SOL    HW126213   2.391   0.711   1.900  1.3228 -1.7234  1.6460
 4859SOL    HW226214   2.537   0.725   1.877 -0.1820 -0.1776  0.8249
 4860SOL     OW26215   3.108   1.040   0.352 -0.0816  0.2165 -0.0006
 4860SOL    HW126216   3.200   1.014   0.339 -0.9115 -2.0172 -1.3039
 4860SOL    HW226217   3.066   0.954   0.349  1.0714 -0.4089  1.4844
 4861SOL     OW26218   4.711   2.602   2.281 -0.3150 -0.9299  0.7218
 4861SOL    HW126219   4.616   2.595   2.290 -0.2534 -3.8606 -1.0360
 4861SOL    HW226220   4.716   2.525   2.224 -1.7289 -1.0046  0.7094
 4862SOL     OW26221   3.280   2.582   6.894 -0.3965 -0.4679  0.1569
 4862SOL    HW126222   3.347   2.592   6.827  1.8241 -1.2071  2.2330
 4862SOL    HW226223   3.277   2.487   6.908 -0.2536 -0.3890  0.7502
 4863SOL     OW26224   1.583   4.063   1.642 -0.1033 -0.2851 -0.1016
 4863SOL    HW126225   1.561   4.007   1.716  2.1230  2.0074  2.3600
 4863SOL    HW226226   1.580   3.993   1.577 -1.2242  1.6593 -2.1342
 4864SOL     OW26227   1.469   1.623   2.353 -0.1824 -0.3453 -0.5014
 4864SOL    HW126228   1.521   1.695   2.319 -0.1355 -0.0904  0.1169
 4864SOL    HW226229   1.378   1.650   2.353  0.4311  1.6814 -0.8680
 4865SOL     OW26230   3.868   0.715   8.128  0.2739 -0.2631 -0.0183
 4865SOL    HW126231   3.850   0.798   8.173  0.6765  0.6408 -1.5324
 4865SOL    HW226232   3.782   0.676   8.140  0.7724 -1.4722 -0.3229
 4866SOL     OW26233   3.133   1.594   0.572 -0.1243  0.4977 -1.0365
 4866SOL    HW126234   3.093   1.674   0.606  2.4485  1.9501 -1.4964
 4866SOL    HW226235   3.082   1.596   0.491 -1.5995 -1.3680 -0.1656
 4867SOL     OW26236   2.994   3.428   6.632  0.5069  0.0445 -0.2828
 4867SOL    HW126237   2.913   3.393   6.669  1.5008 -1.5986  0.3121
 4867SOL    HW226238   3.003   3.366   6.560 -1.7624  0.9349 -1.3296
 4868SOL     OW26239   0.796   3.818  10.815  0.3540 -0.5010  0.1198
 4868SOL    HW126240   0.730   3.828  10.746  0.3342  0.0860  0.2219
 4868SOL    HW226241   0.747   3.862  10.884  3.5997  1.8512  0.9262
 4869SOL     OW26242   4.399   1.880   4.465  0.0960  0.6222 -0.5256
 4869SOL    HW126243   4.433   1.797   4.499 -1.6273 -0.3097 -1.0970
 4869SOL    HW226244   4.482   1.913   4.429  0.6427 -1.5243 -1.2211
 4870SOL     OW26245   1.510   3.261   2.305  0.2514 -0.0527  1.0565
 4870SOL    HW126246   1.479   3.226   2.389 -0.9326  1.5488  1.2793
 4870SOL    HW226247   1.446   3.327   2.281  0.2037 -1.1180 -1.7807
 4871SOL     OW26248   3.883   0.221   1.167  0.0788  0.9934  0.3335
 4871SOL    HW126249   3.964   0.270   1.156 -0.1896  2.2175  3.7286
 4871SOL    HW226250   3.831   0.279   1.223 -1.9169  0.4036 -0.8988
 4872SOL     OW26251   4.387   1.199  13.654  0.0554 -0.0262 -0.0828
 4872SOL    HW126252   4.396   1.269  13.719  1.8808 -1.8580  1.6312
 4872SOL    HW226253   4.299   1.225  13.626  0.2827 -1.2500 -1.9234
 4873SOL     OW26254   3.489   0.222   8.633 -0.1488 -0.2508  0.0214
 4873SOL    HW126255   3.540   0.144   8.609 -1.1108 -0.6682 -0.6593
 4873SOL    HW226256   3.556   0.263   8.688 -0.0612 -0.0028 -0.2719
 4874SOL     OW26257   3.242   1.870   1.770  0.0880  0.0978 -0.4088
 4874SOL    HW126258   3.204   1.871   1.858 -0.0878  1.7011 -0.5046
 4874SOL    HW226259   3.271   1.778   1.769  2.6535  0.8759  3.4031
 4875SOL     OW26260   0.341   2.950   6.122 -0.3525  0.0979  0.2376
 4875SOL    HW126261   0.387   2.999   6.054 -0.7733  1.4127  0.9031
 4875SOL    HW226262   0.373   2.991   6.203  0.0047  1.7991 -0.7772
 4876SOL     OW26263   4.380   1.356   5.926 -0.2269 -0.9121  0.3533
 4876SOL    HW126264   4.368   1.284   5.864 -0.3021  1.0888 -1.9606
 4876SOL    HW226265   4.307   1.340   5.986  1.8133 -1.1181  2.7768
 4877SOL     OW26266   2.421   3.770   7.868  0.3334 -0.0802 -0.0323
 4877SOL    HW126267   2.412   3.675   7.881  0.8105 -0.4596 -2.5226
 4877SOL    HW226268   2.513   3.767   7.893  0.2384 -3.0675 -0.0432
 4878SOL     OW26269   1.012   1.473   5.754 -0.0773  0.3316 -0.1833
 4878SOL    HW126270   0.932   1.481   5.701  1.4324 -0.5881 -2.6482
 4878SOL    HW226271   1.039   1.389   5.715  0.2636  0.5677 -0.4599
 4879SOL     OW26272   2.995   2.763   0.404  0.2387  0.0941  0.2831
 4879SOL    HW126273   3.052   2.839   0.411  1.2988 -0.6704  0.0201
 4879SOL    HW226274   2.954   2.756   0.491  2.3773 -0.3564  1.2540
 4880SOL     OW26275   0.646   2.050  12.121  0.4893 -0.3880 -0.1473
 4880SOL    HW126276   0.731   2.057  12.164  0.6229  0.7595 -0.5913
 4880SOL    HW226277   0.647   2.121  12.057  0.1936  0.2550  0.5667
 4881SOL     OW26278   1.268   2.807   8.600 -0.3971 -0.3986  0.1571
 4881SOL    HW126279   1.308   2.882   8.554 -0.1742  0.4146  1.6736
 4881SOL    HW226280   1.177   2.823   8.577 -0.9266 -0.7641  2.0312
 4882SOL     OW26281   2.387   4.012   4.034 -0.0623 -0.7956 -0.0004
 4882SOL    HW126282   2.296   4.010   4.004 -0.2593  0.6181  0.5122
 4882SOL    HW226283   2.376   4.032   4.127 -0.7152  0.0086 -0.2558
 4883SOL     OW26284   3.671   4.564   3.896  0.6864 -0.2604  1.0642
 4883SOL    HW126285   3.702   4.654   3.900 -0.2018  0.1705 -1.6994
 4883SOL    HW226286   3.614   4.572   3.820 -1.7077  0.3552  2.9158
 4884SOL     OW26287   2.022   2.835  12.656  0.4574  0.6115  0.2658
 4884SOL    HW126288   1.986   2.914  12.696 -0.4308 -0.4585  1.5889
 4884SOL    HW226289   2.109   2.849  12.618  0.4728 -1.3434 -0.4276
 4885SOL     OW26290   2.977   3.148   6.217 -0.4270  0.2677 -0.2683
 4885SOL    HW126291   3.005   3.067   6.174  0.9542  0.6417 -0.0469
 4885SOL    HW226292   2.970   3.204   6.140  1.0985  0.1687 -0.4634
 4886SOL     OW26293   0.449   2.301   5.009  0.2308 -0.0009  0.4539
 4886SOL    HW126294   0.544   2.296   5.006  0.1985 -0.3261 -0.0801
 4886SOL    HW226295   0.434   2.391   4.979 -0.7161 -0.6663 -1.0966
 4887SOL     OW26296   0.797   1.453   5.952 -0.1452 -0.6997 -0.4446
 4887SOL    HW126297   0.886   1.451   5.917  0.7381  0.8760  1.7477
 4887SOL    HW226298   0.824   1.429   6.041 -1.4526  1.3091  0.4961
 4888SOL     OW26299   3.806   0.687   9.086 -0.4106 -0.1470  0.7213
 4888SOL    HW126300   3.798   0.627   9.161 -0.7181 -0.3414  0.5334
 4888SOL    HW226301   3.776   0.770   9.124 -1.3960 -0.1762  0.0085
 4889SOL     OW26302   0.382   4.666   6.774  0.1005  0.0138  0.4296
 4889SOL    HW126303   0.460   4.672   6.720  0.8696  1.1445  1.6716
 4889SOL    HW226304   0.413   4.693   6.861  0.6565 -1.3619  0.6486
 4890SOL     OW26305   1.484   2.771   3.981  0.4378  0.3522 -0.1895
 4890SOL    HW126306   1.505   2.776   4.074  1.6704  0.8276 -0.4878
 4890SOL    HW226307   1.511   2.852   3.938 -0.1418  0.0845 -1.0606
 4891SOL     OW26308   0.888   1.032   1.014 -0.1515  0.0284  0.3284
 4891SOL    HW126309   0.883   0.971   0.940  0.1882 -0.2817  0.5601
 4891SOL    HW226310   0.983   1.027   1.019 -0.4214 -1.0342  4.9792
 4892SOL     OW26311   4.598   4.696   5.666  0.2482  0.0613  0.1990
 4892SOL    HW126312   4.632   4.719   5.580  1.1207 -2.0617 -0.0121
 4892SOL    HW226313   4.671   4.640   5.694  1.9286  2.2507  0.1655
 4893SOL     OW26314   1.795   4.384   7.674 -0.1842  0.3150  0.0254
 4893SOL    HW126315   1.774   4.291   7.666  0.7933 -0.0186  1.3448
 4893SOL    HW226316   1.731   4.410   7.740 -1.0560 -0.4940 -0.4958
 4894SOL     OW26317   1.933   4.463  10.571  0.2705  0.2234 -0.3110
 4894SOL    HW126318   1.977   4.547  10.561 -0.7594  0.6814 -0.9350
 4894SOL    HW226319   1.996   4.402  10.611 -0.3436 -0.3206 -0.1739
 4895SOL     OW26320   1.918   4.366   5.253  0.1551 -0.5414 -0.0186
 4895SOL    HW126321   1.846   4.398   5.199 -0.7789 -0.4948  1.2485
 4895SOL    HW226322   1.944   4.448   5.296  1.6557  0.4357 -2.8057
 4896SOL     OW26323   0.126   4.712   2.424  0.1828 -0.5216 -0.0512
 4896SOL    HW126324   0.198   0.012   2.476 -0.5359  0.1019  0.5235
 4896SOL    HW226325   0.056   0.042   2.438 -3.3713 -3.3882 -4.5990
 4897SOL     OW26326   1.210   4.388   1.908  0.4367 -0.0379  0.1879
 4897SOL    HW126327   1.243   4.387   1.818 -0.9325  3.5409 -0.3408
 4897SOL    HW226328   1.146   4.318   1.897  0.4145 -0.4075  2.7465
 4898SOL     OW26329   3.855   4.533  14.066 -0.0675  0.0034 -0.3523
 4898SOL    HW126330   3.811   4.602  14.016 -1.1965  0.7854  1.7246
 4898SOL    HW226331   3.913   4.495  14.000 -0.0254  1.9553 -1.4354
 4899SOL     OW26332   0.035   2.433  13.292 -0.0123 -0.1306 -0.1552
 4899SOL    HW126333   0.019   2.442  13.386  2.2247  2.1075  0.0170
 4899SOL    HW226334   0.110   2.492  13.286  0.6557 -0.5624  3.8561
 4900SOL     OW26335   2.403   3.347   5.200 -0.4489  0.0457 -0.3625
 4900SOL    HW126336   2.482   3.387   5.237 -0.2706 -1.3053  0.7389
 4900SOL    HW226337   2.370   3.292   5.272 -0.5423 -0.3354 -0.6987
 4901SOL     OW26338   2.690   3.910   1.770 -0.0054  0.1351 -0.4139
 4901SOL    HW126339   2.653   3.955   1.694  0.6256 -1.1432 -1.4751
 4901SOL    HW226340   2.625   3.936   1.836  1.0628 -0.2272  0.7886
 4902SOL     OW26341   4.167   2.713   7.284 -0.1361 -0.3891 -0.2038
 4902SOL    HW126342   4.201   2.766   7.357  0.6209 -2.6148  1.0428
 4902SOL    HW226343   4.074   2.723   7.301  0.0485  1.3936 -0.2493
 4903SOL     OW26344   1.354   4.443   4.944  0.2886  0.0089 -0.0291
 4903SOL    HW126345   1.340   4.458   5.038  1.8924 -0.1456  0.2288
 4903SOL    HW226346   1.429   4.501   4.933 -1.3973  2.6683  2.5035
 4904SOL     OW26347   2.411   3.672  13.668 -0.5384 -0.4592  0.0947
 4904SOL    HW126348   2.396   3.742  13.731  1.0154  0.7307 -0.8450
 4904SOL    HW226349   2.330   3.670  13.617  0.1036  2.1360 -1.0116
 4905SOL     OW26350   1.593   0.531   4.279 -0.2634  0.5504  0.0320
 4905SOL    HW126351   1.569   0.581   4.357 -1.0492 -1.0029  0.7779
 4905SOL    HW226352   1.513   0.482   4.260  2.3318 -2.9210 -1.8958
 4906SOL     OW26353   4.692   1.701   0.922 -0.2474 -0.1418 -0.3476
 4906SOL    HW126354   0.019   1.737   0.858  0.5219  0.6644  0.8270
 4906SOL    HW226355   4.688   1.615   0.881  0.2233 -0.8348  1.0387
 4907SOL     OW26356   2.761   0.150   5.281  0.0500  0.0195  0.1058
 4907SOL    HW126357   2.835   0.201   5.249  0.6300 -0.6864  0.3249
 4907SOL    HW226358   2.746   0.098   5.202 -0.0449  0.5966 -0.2533
 4908SOL     OW26359   3.152   3.844  12.220  0.3012  0.0822 -0.1470
 4908SOL    HW126360   3.172   3.921  12.274  1.2068  1.1216 -1.9973
 4908SOL    HW226361   3.057   3.852  12.215  0.1766 -0.0734  1.9156
 4909SOL     OW26362   1.651   3.462   5.901 -0.2794  0.0021 -0.6757
 4909SOL    HW126363   1.720   3.396   5.901  0.5231  0.8126  1.9518
 4909SOL    HW226364   1.682   3.518   5.830  2.6300 -1.0187 -0.1868
 4910SOL     OW26365   3.351   1.231   7.132  0.0232 -0.3949 -0.0155
 4910SOL    HW126366   3.353   1.292   7.206 -0.3403 -0.3197 -0.0705
 4910SOL    HW226367   3.260   1.226   7.105  0.0600 -0.1324 -0.1878
 4911SOL     OW26368   2.735   2.407   3.324  0.2760  0.0095 -0.3679
 4911SOL    HW126369   2.752   2.359   3.405  4.2569  1.0485 -0.5793
 4911SOL    HW226370   2.816   2.457   3.319 -0.1774  0.7876  0.0098
 4912SOL     OW26371   0.774   4.554   6.283  1.0041  0.2648 -0.0281
 4912SOL    HW126372   0.870   4.550   6.284  1.0341  0.9602  0.5504
 4912SOL    HW226373   0.760   4.496   6.358 -1.1562  1.4228  0.4752
 4913SOL     OW26374   0.391   3.303  11.891 -0.2149  0.0491  0.1858
 4913SOL    HW126375   0.449   3.279  11.819  0.0048 -3.3192  1.4582
 4913SOL    HW226376   0.451   3.319  11.964  0.9662  1.8526 -1.1762
 4914SOL     OW26377   2.448   2.553   5.498 -0.2409 -0.3524 -0.1047
 4914SOL    HW126378   2.538   2.536   5.470 -1.0807 -0.7436 -2.5980
 4914SOL    HW226379   2.391   2.493   5.450  1.0419 -0.3386 -1.6344
 4915SOL     OW26380   2.928   3.852  15.603 -0.0118  0.2927  0.1930
 4915SOL    HW126381   2.940   3.764  15.567  0.6841 -0.5019  2.3025
 4915SOL    HW226382   2.909   3.833  15.695 -1.1132 -0.7451 -0.2514
 4916SOL     OW26383   2.103   2.450   7.793  0.2295 -0.0330  0.1843
 4916SOL    HW126384   2.153   2.369   7.792  0.0597 -0.1426  0.6389
 4916SOL    HW226385   2.085   2.454   7.699  0.5044 -0.7412  0.1023
 4917SOL     OW26386   1.188   2.892   0.531 -0.4603 -0.1171 -0.0683
 4917SOL    HW126387   1.233   2.931   0.606  0.1196  0.2928 -0.6382
 4917SOL    HW226388   1.137   2.965   0.496 -0.3071  1.5742  3.1817
 4918SOL     OW26389   4.190   1.917  12.059  0.1628 -0.0186 -0.5012
 4918SOL    HW126390   4.258   1.975  12.092 -0.1187 -0.0236  0.0899
 4918SOL    HW226391   4.231   1.836  12.029 -1.5463 -0.8904 -0.4892
 4919SOL     OW26392   2.343   0.366   5.550 -0.4475 -0.2769 -0.3478
 4919SOL    HW126393   2.286   0.307   5.501 -0.8304  1.2106 -1.7010
 4919SOL    HW226394   2.430   0.346   5.515 -0.7933 -3.3441  0.6071
 4920SOL     OW26395   0.334   2.460   7.570 -0.1892 -0.4741  0.0073
 4920SOL    HW126396   0.427   2.443   7.552 -0.4147  0.6805 -2.3043
 4920SOL    HW226397   0.331   2.556   7.579  0.1024 -0.5799  1.1704
 4921SOL     OW26398   2.805   0.401  13.491 -0.2785 -0.1716  0.2670
 4921SOL    HW126399   2.857   0.385  13.412 -0.0284  2.0539 -0.0417
 4921SOL    HW226400   2.848   0.341  13.551  0.0945  2.0033  2.1592
 4922SOL     OW26401   4.069   2.487   6.719  0.0179  0.1216  0.3509
 4922SOL    HW126402   4.139   2.443   6.768  1.0239 -0.0632 -1.2362
 4922SOL    HW226403   4.075   2.579   6.747  1.2047 -0.2007  1.1778
 4923SOL     OW26404   1.895   4.024   8.273 -0.2588 -0.0395  0.4071
 4923SOL    HW126405   1.972   3.998   8.222  0.5335 -0.9776  2.1142
 4923SOL    HW226406   1.832   4.036   8.202  0.4269  0.8649 -0.0575
 4924SOL     OW26407   3.911   0.250   9.421 -0.6031  0.0271 -0.2295
 4924SOL    HW126408   3.929   0.211   9.335  0.6093 -0.8380  0.4302
 4924SOL    HW226409   3.876   0.173   9.466  2.1601 -0.7258  0.6606
 4925SOL     OW26410   0.245   0.942   6.582  0.0391 -0.2876  0.2634
 4925SOL    HW126411   0.170   0.923   6.526 -0.5906  0.5850  0.8237
 4925SOL    HW226412   0.207   0.925   6.668  0.2956 -3.0719 -0.1796
 4926SOL     OW26413   0.802   3.331   3.019  0.5374  0.1848 -0.4494
 4926SOL    HW126414   0.840   3.388   2.952 -1.3469  2.0897  0.0757
 4926SOL    HW226415   0.716   3.371   3.031  1.1141  1.8337 -1.6851
 4927SOL     OW26416   0.742   0.522   3.046 -1.0937  0.4488  0.2327
 4927SOL    HW126417   0.781   0.458   3.105 -0.3372 -0.1589 -0.9320
 4927SOL    HW226418   0.811   0.542   2.982 -0.0297  0.8148  1.4762
 4928SOL     OW26419   3.421   1.531   8.980  0.6699 -0.5204  0.8761
 4928SOL    HW126420   3.381   1.606   8.935 -2.0264 -1.9977  0.7538
 4928SOL    HW226421   3.361   1.520   9.054 -0.5103  1.8777  0.2944
 4929SOL     OW26422   3.147   1.305   0.288  0.3119  0.3191 -0.2799
 4929SOL    HW126423   3.112   1.216   0.297 -0.4139  0.7012  0.6922
 4929SOL    HW226424   3.074   1.358   0.257 -1.3003 -1.3951  0.5886
 4930SOL     OW26425   3.946   3.067  15.204  0.1166 -0.4070 -0.1462
 4930SOL    HW126426   3.972   3.091  15.115 -0.1387  0.1956 -0.0553
 4930SOL    HW226427   4.004   3.125  15.253  0.2703 -1.2210  0.6419
 4931SOL     OW26428   2.227   0.582  12.834 -0.0050 -0.5476 -0.1256
 4931SOL    HW126429   2.140   0.547  12.855 -0.8145  0.7051 -1.3764
 4931SOL    HW226430   2.263   0.503  12.794  0.0215 -0.8374  0.4656
 4932SOL     OW26431   2.331   0.520   7.522  0.9753 -0.4633 -0.0321
 4932SOL    HW126432   2.338   0.523   7.618  0.6285  0.1573 -0.0283
 4932SOL    HW226433   2.416   0.485   7.495  1.6887  1.8673 -0.7897
 4933SOL     OW26434   3.591   2.098  13.330  0.4809 -0.2656 -0.3015
 4933SOL    HW126435   3.522   2.031  13.328  1.3834 -1.3053  2.1883
 4933SOL    HW226436   3.601   2.110  13.236  0.2604  0.6514 -0.2049
 4934SOL     OW26437   0.472   4.431   7.650 -0.1505  1.1963  0.0265
 4934SOL    HW126438   0.415   4.354   7.658  2.8432 -1.3683 -3.1218
 4934SOL    HW226439   0.537   4.402   7.587 -0.0226 -0.5654  0.9654
 4935SOL     OW26440   1.775   3.218   4.322  0.1923 -0.9589 -0.2953
 4935SOL    HW126441   1.752   3.287   4.384 -0.7643 -0.6940 -0.9474
 4935SOL    HW226442   1.743   3.140   4.367  0.6076  0.1677  1.9609
 4936SOL     OW26443   3.162   1.317   3.239 -0.7118  0.5569 -0.1957
 4936SOL    HW126444   3.172   1.264   3.160  0.2298  1.0935 -0.4364
 4936SOL    HW226445   3.080   1.365   3.224 -0.8387  0.0992 -1.0016
 4937SOL     OW26446   4.072   4.112  10.701  0.6212 -0.0810 -0.4824
 4937SOL    HW126447   4.136   4.171  10.662  1.1596 -1.4500 -1.6661
 4937SOL    HW226448   4.004   4.178  10.718  1.2460  0.3692  0.2815
 4938SOL     OW26449   4.508   3.489   0.615 -0.0375 -0.2024  0.2921
 4938SOL    HW126450   4.500   3.547   0.539 -1.0472  1.3699  1.6005
 4938SOL    HW226451   4.590   3.443   0.599  1.1296  2.0373 -0.0771
 4939SOL     OW26452   2.237   1.370   4.416  0.7048  0.2478 -0.3267
 4939SOL    HW126453   2.158   1.411   4.450 -1.0656 -3.5044  0.0585
 4939SOL    HW226454   2.301   1.415   4.471 -1.2208  0.8807  1.3591
 4940SOL     OW26455   0.207   1.217   7.766  0.0460  0.2996  0.0462
 4940SOL    HW126456   0.145   1.147   7.787 -0.3177 -0.4586 -3.4572
 4940SOL    HW226457   0.148   1.287   7.794 -0.0992  0.5392 -0.8497
 4941SOL     OW26458   3.263   0.056   8.970 -0.2044  0.4420 -0.0176
 4941SOL    HW126459   3.248   0.001   8.893 -1.4003  2.1627 -1.0113
 4941SOL    HW226460   3.250   0.140   8.927  1.6062  2.4714  3.4439
 4942SOL     OW26461   2.373   1.955   8.912  0.2207 -0.4011  0.4984
 4942SOL    HW126462   2.420   2.007   8.976 -0.0564  0.5019 -0.0279
 4942SOL    HW226463   2.337   1.876   8.954 -0.8640  0.9592  2.1161
 4943SOL     OW26464   2.432   0.133   5.702  0.1624  0.3159 -0.8485
 4943SOL    HW126465   2.383   0.195   5.648  1.7063  1.6951 -0.6902
 4943SOL    HW226466   2.518   0.176   5.701  0.1115  0.4449  0.3860
 4944SOL     OW26467   4.179   2.129   6.752  0.4966 -0.5262  0.3129
 4944SOL    HW126468   4.253   2.132   6.691  0.5667  1.5600  0.5011
 4944SOL    HW226469   4.201   2.204   6.807 -1.7275  0.7177 -0.4893
 4945SOL     OW26470   0.145   0.792   8.122 -0.1567  0.4325 -0.3446
 4945SOL    HW126471   0.230   0.758   8.093  0.6535  2.6042 -0.4985
 4945SOL    HW226472   0.090   0.788   8.044  0.4932  1.6669 -0.8709
 4946SOL     OW26473   2.241   3.225   6.981  0.1360  0.5254 -0.0275
 4946SOL    HW126474   2.147   3.210   6.976  0.3541 -0.9038  0.2115
 4946SOL    HW226475   2.273   3.135   6.981 -0.9971  0.1212  0.8870
 4947SOL     OW26476   0.606   2.028   9.520  0.2319 -0.3421  0.0505
 4947SOL    HW126477   0.631   2.025   9.428 -0.0876 -2.4167  0.0137
 4947SOL    HW226478   0.689   2.052   9.560  0.9100  0.2163 -1.7267
 4948SOL     OW26479   4.184   3.388  11.719  0.3190 -0.2729  0.2598
 4948SOL    HW126480   4.184   3.481  11.695  5.1741 -0.0665  1.0915
 4948SOL    HW226481   4.116   3.355  11.659  1.0298 -0.3052 -0.5250
 4949SOL     OW26482   4.332   0.744   6.396 -0.3469 -0.2052  0.0753
 4949SOL    HW126483   4.297   0.743   6.307 -0.0950 -0.7664 -0.0229
 4949SOL    HW226484   4.303   0.657   6.424 -0.2906 -0.2472  0.0061
 4950SOL     OW26485   1.263   3.998   3.217 -0.1185  0.1673 -0.3166
 4950SOL    HW126486   1.348   4.040   3.231  1.0862 -2.9396  1.7846
 4950SOL    HW226487   1.277   3.913   3.259  1.4794  0.3170 -0.5458
 4951SOL     OW26488   2.737   1.598  13.403  0.5479  0.0670 -0.1208
 4951SOL    HW126489   2.819   1.629  13.442  0.0371  1.4613 -0.1651
 4951SOL    HW226490   2.664   1.644  13.445  0.4096  0.7478 -1.1080
 4952SOL     OW26491   2.272   0.750   4.313  0.0618  0.4874  0.3680
 4952SOL    HW126492   2.342   0.737   4.249 -0.8416 -1.4500 -0.1999
 4952SOL    HW226493   2.316   0.719   4.392 -1.0492 -1.9104  0.0452
 4953SOL     OW26494   1.701   1.004   7.517  0.0675  0.1177  0.4690
 4953SOL    HW126495   1.765   1.061   7.560 -0.3238  0.1702  0.9760
 4953SOL    HW226496   1.735   1.013   7.428  0.6172  0.0160  0.6653
 4954SOL     OW26497   2.009   1.146  13.875  0.0034 -0.0109  0.3403
 4954SOL    HW126498   1.995   1.052  13.861 -0.1258 -0.2320  1.8583
 4954SOL    HW226499   1.976   1.157  13.964  1.8837  0.7681  0.9389
 4955SOL     OW26500   2.874   1.164   3.777  0.3112 -0.2850  0.0592
 4955SOL    HW126501   2.895   1.083   3.729  3.6089  0.7484 -0.2586
 4955SOL    HW226502   2.800   1.199   3.728  0.0425  1.9583  2.0564
 4956SOL     OW26503   2.895   1.949   4.913 -0.2639  0.3335 -0.7173
 4956SOL    HW126504   2.828   2.015   4.894 -1.0730 -0.5573 -1.0038
 4956SOL    HW226505   2.966   2.006   4.941  0.4669 -0.6746 -0.5579
 4957SOL     OW26506   2.137   0.391  15.613 -0.2858  0.6041 -0.1653
 4957SOL    HW126507   2.075   0.321  15.591 -0.8431  0.1135  3.0009
 4957SOL    HW226508   2.198   0.358  15.679 -0.7315  1.0842  0.4780
 4958SOL     OW26509   4.313   2.856   9.544 -0.0956  1.5611 -0.0878
 4958SOL    HW126510   4.408   2.854   9.535 -0.1630 -0.1493 -0.5980
 4958SOL    HW226511   4.308   2.950   9.561  1.4728  1.6250  0.0151
 4959SOL     OW26512   4.572   0.213   7.596  0.3345  0.4534  0.1867
 4959SOL    HW126513   4.498   0.235   7.652 -1.5204 -2.1192 -1.2751
 4959SOL    HW226514   4.556   0.126   7.559  0.3770  1.1661 -1.5312
 4960SOL     OW26515   1.260   0.647   5.444 -0.2549  0.2584  0.1296
 4960SOL    HW126516   1.351   0.657   5.416 -0.8045  3.5811 -0.5059
 4960SOL    HW226517   1.250   0.728   5.493  1.4178 -0.3949  1.5514
 4961SOL     OW26518   3.548   4.385   6.479 -0.4836 -0.5307  0.3225
 4961SOL    HW126519   3.592   4.334   6.411  0.5315  1.4979 -0.5693
 4961SOL    HW226520   3.603   4.371   6.556  1.0715  0.0064 -0.6946
 4962SOL     OW26521   3.120   1.174   2.051 -0.5728  0.1540  0.2337
 4962SOL    HW126522   3.202   1.211   2.018 -1.0420  1.2351  0.2758
 4962SOL    HW226523   3.151   1.094   2.095  1.2179  0.3206 -0.7034
 4963SOL     OW26524   4.413   3.605   8.689 -0.2126 -0.4463 -0.0805
 4963SOL    HW126525   4.452   3.691   8.675  0.4527 -0.6265  0.6880
 4963SOL    HW226526   4.332   3.641   8.726  0.9572  0.1992  1.8144
 4964SOL     OW26527   4.176   2.899  16.230 -0.1116  0.5057 -0.0939
 4964SOL    HW126528   4.261   2.894  16.273  0.1818  3.6637 -0.2907
 4964SOL    HW226529   4.165   2.994  16.230 -0.4312  0.4744 -1.5867
 4965SOL     OW26530   0.030   1.537   6.163  0.1920  0.0957 -0.0024
 4965SOL    HW126531   4.708   1.610   6.185  0.6942  0.2389  0.8192
 4965SOL    HW226532   0.111   1.554   6.211  1.5595  0.2690 -2.3598
 4966SOL     OW26533   2.629   2.199  13.818 -0.5045  0.4761  0.0583
 4966SOL    HW126534   2.576   2.256  13.874 -0.3271  1.0079 -0.3084
 4966SOL    HW226535   2.604   2.232  13.732 -1.8938  2.0730  1.0763
 4967SOL     OW26536   0.414   4.014  15.148  0.2636 -0.6760  0.1351
 4967SOL    HW126537   0.417   3.924  15.180  2.5623  0.5272  3.2681
 4967SOL    HW226538   0.385   4.003  15.058  0.1456 -0.2847  0.1224
 4968SOL     OW26539   1.258   3.567   0.256 -0.0960 -0.2285 -0.2897
 4968SOL    HW126540   1.254   3.539   0.347  2.0150 -2.8617 -0.9770
 4968SOL    HW226541   1.257   3.662   0.268  0.4754 -0.1176 -1.0951
 4969SOL     OW26542   2.352   2.617   9.835 -0.3194 -0.1423  0.3689
 4969SOL    HW126543   2.284   2.551   9.823  0.7787 -1.1213 -0.4472
 4969SOL    HW226544   2.386   2.604   9.923  1.8557  0.6697 -0.3705
 4970SOL     OW26545   3.782   2.560   4.883  0.2631 -0.5137  0.6803
 4970SOL    HW126546   3.753   2.535   4.795  0.8560  2.8035 -0.4642
 4970SOL    HW226547   3.873   2.585   4.866  0.3619 -0.3045  1.5358
 4971SOL     OW26548   1.443   4.109  15.576 -0.4423  0.3371 -0.0845
 4971SOL    HW126549   1.377   4.153  15.523 -3.3863 -1.4246  2.1616
 4971SOL    HW226550   1.520   4.153  15.540  0.0130  0.0475  0.5373
 4972SOL     OW26551   3.939   0.711  14.141  0.5727 -0.4902 -0.0446
 4972SOL    HW126552   3.886   0.774  14.189  0.5016 -0.5379 -0.0603
 4972SOL    HW226553   4.001   0.769  14.098 -0.4351  0.8155  0.2806
 4973SOL     OW26554   1.485   4.206   8.356  0.2766 -0.0881 -0.3986
 4973SOL    HW126555   1.479   4.282   8.298  0.2874 -0.9499 -1.5323
 4973SOL    HW226556   1.516   4.248   8.436 -0.4126 -0.3906  0.0220
 4974SOL     OW26557   3.450   4.180   2.571 -0.3848  0.1285 -0.0984
 4974SOL    HW126558   3.392   4.219   2.636 -2.0887  0.2365 -1.6933
 4974SOL    HW226559   3.398   4.130   2.509  0.3808  2.4117 -2.5852
 4975SOL     OW26560   2.578   0.642   3.670  0.1457 -0.3955  0.5195
 4975SOL    HW126561   2.563   0.709   3.604  0.0751  1.2688  2.2080
 4975SOL    HW226562   2.564   0.556   3.630 -1.4008  0.6687 -1.2038
 4976SOL     OW26563   0.031   0.100   3.128  0.3816 -0.0677 -0.5808
 4976SOL    HW126564   0.001   0.163   3.193  1.5315 -1.3129  1.1233
 4976SOL    HW226565   0.102   0.148   3.084  1.1624 -0.6128  0.0999
 4977SOL     OW26566   1.113   0.863  11.647  0.7463 -0.3126 -0.4584
 4977SOL    HW126567   1.040   0.824  11.695  0.4263 -1.0529 -1.5350
 4977SOL    HW226568   1.072   0.904  11.570  1.2179  1.7684  0.3936
 4978SOL     OW26569   2.778   2.753   5.093  0.3377 -0.2291  0.1389
 4978SOL    HW126570   2.732   2.708   5.022  0.8021 -1.9360  0.9246
 4978SOL    HW226571   2.864   2.762   5.054  0.8587 -1.5842  0.9788
 4979SOL     OW26572   4.294   4.733   1.543  0.0678 -0.4164  0.0899
 4979SOL    HW126573   4.348   4.679   1.600 -0.6322  0.5105  1.6165
 4979SOL    HW226574   4.232   0.023   1.611  3.1007  2.4517  1.8149
 4980SOL     OW26575   2.894   3.866   5.319  0.2349  0.3787 -0.2849
 4980SOL    HW126576   2.875   3.872   5.226 -1.6181  2.0240  0.1918
 4980SOL    HW226577   2.987   3.851   5.307 -0.1422 -0.8899 -1.5611
 4981SOL     OW26578   1.781   3.951  15.271 -0.5531 -0.6029  0.4725
 4981SOL    HW126579   1.798   3.949  15.365 -1.7142  1.3680  0.7348
 4981SOL    HW226580   1.687   3.968  15.271 -0.1767  1.3789 -1.9101
 4982SOL     OW26581   1.395   4.363   9.218  0.1874  0.5179  0.3161
 4982SOL    HW126582   1.429   4.423   9.152 -2.2445 -0.1599 -1.5846
 4982SOL    HW226583   1.461   4.294   9.217  2.0292  2.2936 -1.1442
 4983SOL     OW26584   2.314   2.302   9.019 -0.5758 -0.0492  0.7516
 4983SOL    HW126585   2.387   2.245   9.044 -0.8680 -0.3596  0.8951
 4983SOL    HW226586   2.357   2.387   9.029 -3.2433  1.6252 -1.9661
 4984SOL     OW26587   2.464   1.155   9.392 -0.2561  0.3241 -0.2128
 4984SOL    HW126588   2.392   1.160   9.455 -1.0389 -1.5601 -0.9516
 4984SOL    HW226589   2.419   1.180   9.311  0.1493 -0.1782 -0.5927
 4985SOL     OW26590   3.467   0.365   5.029  0.1376 -0.6285 -0.1108
 4985SOL    HW126591   3.413   0.440   5.051  1.9676 -0.1712  2.8355
 4985SOL    HW226592   3.511   0.408   4.956 -0.4127 -2.1466 -1.3470
 4986SOL     OW26593   0.170   3.000   1.242 -0.4926  0.0351 -0.1641
 4986SOL    HW126594   0.109   2.956   1.301  0.4233  1.6276  1.9331
 4986SOL    HW226595   0.144   2.957   1.160  2.5798 -0.0532 -1.1091
 4987SOL     OW26596   0.475   2.864   7.957 -0.7852  0.4076  0.2296
 4987SOL    HW126597   0.503   2.906   7.876 -0.5541 -2.4137 -1.1242
 4987SOL    HW226598   0.541   2.798   7.975 -0.3236  0.2225 -2.2194
 4988SOL     OW26599   2.916   1.914   6.420  0.2071  0.7888 -0.1588
 4988SOL    HW126600   2.902   1.877   6.507 -1.9159 -0.4429 -1.0369
 4988SOL    HW226601   2.829   1.922   6.381  0.3572  1.7371 -0.3030
 4989SOL     OW26602   2.143   1.950  14.091 -0.1028  0.1609  0.2651
 4989SOL    HW126603   2.085   1.930  14.017  1.2039 -1.1007 -0.4378
 4989SOL    HW226604   2.216   1.986  14.042 -1.1118  0.6515 -0.8806
 4990SOL     OW26605   3.457   0.665   7.609 -0.1253 -0.2220  0.5268
 4990SOL    HW126606   3.387   0.691   7.549  0.2781  0.8528  0.5148
 4990SOL    HW226607   3.490   0.590   7.559 -2.2536 -0.8547  0.0783
 4991SOL     OW26608   2.271   2.610  16.929  0.1745  0.1528  0.2011
 4991SOL    HW126609   2.248   2.523  16.961 -1.2959 -0.2790 -2.0830
 4991SOL    HW226610   2.194   2.652  16.967  0.6139  1.4012 -0.3031
 4992SOL     OW26611   4.726   3.964   4.710 -0.0655 -0.1089  0.3394
 4992SOL    HW126612   4.661   3.899   4.683  0.5598 -1.4501  2.0509
 4992SOL    HW226613   4.684   4.044   4.679 -1.6515 -0.8165  0.6376
 4993SOL     OW26614   4.645   0.885  10.760 -0.0988 -0.4961  0.3491
 4993SOL    HW126615   0.001   0.890  10.789  0.1608  3.2594 -1.0458
 4993SOL    HW226616   4.606   0.965  10.796 -0.1971 -0.6097  0.4908
 4994SOL     OW26617   4.668   3.099   9.798  0.1720  0.1567  0.9206
 4994SOL    HW126618   4.682   3.181   9.750 -0.3740 -0.2014  0.1401
 4994SOL    HW226619   4.688   3.032   9.732  1.0178  1.0399  0.2824
 4995SOL     OW26620   1.560   2.524   2.446  0.0413  0.1268 -0.2564
 4995SOL    HW126621   1.528   2.534   2.536  1.2313 -0.0479  0.1876
 4995SOL    HW226622   1.609   2.604   2.425  0.2507 -0.3457 -1.5507
 4996SOL     OW26623   2.005   1.400   2.270  0.0355  0.4903  0.4050
 4996SOL    HW126624   1.933   1.338   2.269  0.8985 -0.4893 -1.2471
 4996SOL    HW226625   2.001   1.450   2.351 -1.6866  1.4426 -0.2790
 4997SOL     OW26626   3.974   0.933   3.984  0.0546  0.1056 -0.0942
 4997SOL    HW126627   4.021   0.881   4.049 -0.2335 -2.5062 -1.9488
 4997SOL    HW226628   4.007   1.019   4.010 -0.7585  0.4143 -0.0881
 4998SOL     OW26629   3.534   4.538   5.921 -0.2275 -0.7315  0.0363
 4998SOL    HW126630   3.607   4.594   5.949 -1.2637  0.1199  1.0619
 4998SOL    HW226631   3.461   4.592   5.952 -0.8929 -2.0134  0.6913
 4999SOL     OW26632   0.736   1.294  11.960  0.0302  0.0765  0.7668
 4999SOL    HW126633   0.641   1.308  11.960  0.0016 -0.0385 -0.9550
 4999SOL    HW226634   0.759   1.382  11.931  0.3864 -0.1198  0.4547
 5000SOL     OW26635   1.778   1.664   2.288  0.2166 -0.1752 -0.3281
 5000SOL    HW126636   1.869   1.652   2.261  0.0561 -1.2570 -0.3795
 5000SOL    HW226637   1.787   1.713   2.370  2.7861  0.3901 -0.9478
 5001SOL     OW26638   3.757   0.061   2.227  0.2208 -0.2893  0.0014
 5001SOL    HW126639   3.694   0.017   2.284  1.6742  0.0332  1.8552
 5001SOL    HW226640   3.734   0.014   2.146 -0.0817  0.6015 -0.4339
 5002SOL     OW26641   0.885   3.378   2.454  0.2856  0.2339  0.1194
 5002SOL    HW126642   0.846   3.397   2.369  0.2459  0.2451  0.1400
 5002SOL    HW226643   0.979   3.399   2.449 -0.4245  3.2424 -0.6408
 5003SOL     OW26644   0.464   1.450   1.360  0.0448  0.0303 -0.6543
 5003SOL    HW126645   0.442   1.485   1.273 -2.5824 -1.3364 -0.5549
 5003SOL    HW226646   0.446   1.524   1.417  1.9525 -0.5689  0.7215
 5004SOL     OW26647   0.818   1.813  12.603 -0.0010  0.0432  0.5837
 5004SOL    HW126648   0.785   1.725  12.620 -2.2514  0.7369 -0.1228
 5004SOL    HW226649   0.911   1.802  12.585 -0.2155  0.5691 -0.8334
 5005SOL     OW26650   4.474   0.418   3.301 -0.5381  0.3897 -0.7875
 5005SOL    HW126651   4.449   0.328   3.323  2.4383  0.1709  1.7968
 5005SOL    HW226652   4.400   0.467   3.337  2.0786  3.2887  0.7054
 5006SOL     OW26653   4.290   4.311   4.091  0.4302  0.2487 -0.3319
 5006SOL    HW126654   4.297   4.402   4.119 -0.7705  0.0782  0.5245
 5006SOL    HW226655   4.283   4.264   4.174 -1.4446 -1.6058 -1.5353
 5007SOL     OW26656   4.513   4.044   6.702 -0.2810  0.2869  0.4130
 5007SOL    HW126657   4.597   4.003   6.720 -1.7260 -1.8433  2.3066
 5007SOL    HW226658   4.497   4.092   6.783  1.9028 -1.8077  2.0690
 5008SOL     OW26659   0.429   4.076   7.001 -0.0071  0.0192 -0.5192
 5008SOL    HW126660   0.361   4.011   7.012  0.4484 -0.1755  1.1018
 5008SOL    HW226661   0.489   4.017   6.956  0.0012 -0.1053 -0.3448
 5009SOL     OW26662   4.236   4.021   6.667 -0.1832 -0.0734  0.5466
 5009SOL    HW126663   4.210   3.944   6.717 -1.8318  2.4108  3.5432
 5009SOL    HW226664   4.330   4.008   6.666 -0.5682 -2.7298  0.7755
 5010SOL     OW26665   0.267   3.723  13.738  0.0253  0.0936 -0.3442
 5010SOL    HW126666   0.351   3.690  13.771  1.0628  2.0575 -1.0225
 5010SOL    HW226667   0.218   3.641  13.740  0.1681  0.0013 -0.6041
 5011SOL     OW26668   3.691   4.388  11.368 -0.3929  0.3965 -0.0422
 5011SOL    HW126669   3.687   4.471  11.414 -0.1783  0.7763 -0.7096
 5011SOL    HW226670   3.741   4.403  11.288 -2.7875 -1.9202 -1.9807
 5012SOL     OW26671   3.755   2.869   4.288 -0.2142  0.4710 -0.3078
 5012SOL    HW126672   3.758   2.958   4.252  1.8719  0.7297  0.4922
 5012SOL    HW226673   3.760   2.816   4.209 -0.8176 -0.7421  0.4788
 5013SOL     OW26674   0.451   2.132   8.939  0.0913  0.2059  0.0802
 5013SOL    HW126675   0.455   2.046   8.897 -0.8228 -0.2774  1.0053
 5013SOL    HW226676   0.482   2.175   8.859  0.6460 -0.7631 -0.2339
 5014SOL     OW26677   2.008   0.491   4.196 -0.2327 -0.1395 -0.1872
 5014SOL    HW126678   1.994   0.542   4.116 -0.9288  0.4862  0.3357
 5014SOL    HW226679   2.055   0.417   4.159 -0.4780 -0.0083 -0.7683
 5015SOL     OW26680   2.663   3.573   2.436  0.3441 -0.1034  0.0846
 5015SOL    HW126681   2.661   3.602   2.527 -1.1691  0.8251 -0.2303
 5015SOL    HW226682   2.569   3.555   2.431 -0.1951  2.5792  0.6179
 5016SOL     OW26683   1.343   1.500   7.514  0.0335  0.1415  0.1680
 5016SOL    HW126684   1.297   1.533   7.437  0.2871 -2.4874 -1.1314
 5016SOL    HW226685   1.412   1.449   7.472  0.3125  0.1860  0.5804
 5017SOL     OW26686   2.816   0.563   7.351  0.1512 -0.0760  0.0947
 5017SOL    HW126687   2.834   0.603   7.266 -1.5952  0.4411 -0.0396
 5017SOL    HW226688   2.898   0.593   7.391 -0.8849  1.7118  0.8507
 5018SOL     OW26689   0.601   2.923   7.706 -0.0338  0.0895 -0.5338
 5018SOL    HW126690   0.591   2.916   7.611  0.1542  2.3966 -0.7162
 5018SOL    HW226691   0.651   3.005   7.712  1.7695 -0.9678 -1.0494
 5019SOL     OW26692   1.816   3.024   0.818  0.0585 -0.0121  0.0139
 5019SOL    HW126693   1.815   2.969   0.896  0.4480 -1.8674 -1.2720
 5019SOL    HW226694   1.798   2.960   0.749  1.6764  1.4427 -1.7617
 5020SOL     OW26695   0.026   2.114  13.225  0.3157 -0.2012 -0.0346
 5020SOL    HW126696   0.109   2.156  13.249 -0.2795 -0.4892  2.5575
 5020SOL    HW226697   4.719   2.179  13.170 -0.0854  0.0816  0.6063
 5021SOL     OW26698   1.314   1.801   5.497 -0.7317 -0.2609 -0.0840
 5021SOL    HW126699   1.307   1.861   5.423  2.6748 -0.7180 -0.7512
 5021SOL    HW226700   1.402   1.814   5.532 -1.0504  2.6546 -0.3429
 5022SOL     OW26701   1.327   1.837   5.141 -0.1882 -0.2799  1.1504
 5022SOL    HW126702   1.327   1.851   5.046 -0.5667  1.8422  1.4649
 5022SOL    HW226703   1.418   1.863   5.156  0.8124 -1.4284 -2.7647
 5023SOL     OW26704   4.439   3.723   3.455  0.6428 -0.0277  0.2416
 5023SOL    HW126705   4.405   3.749   3.369  1.0144 -2.5557 -0.6568
 5023SOL    HW226706   4.502   3.792   3.473  1.2312 -0.2905 -0.8325
 5024SOL     OW26707   0.920   4.363   8.037  0.0887 -0.1287  0.1604
 5024SOL    HW126708   0.946   4.319   7.956  1.7089  0.2411  0.4923
 5024SOL    HW226709   0.968   4.329   8.112  0.0115  1.3061  0.8463
 5025SOL     OW26710   0.052   1.879  16.593 -0.2695 -0.2312  0.1177
 5025SOL    HW126711   0.141   1.905  16.568 -0.7758 -0.1809 -1.6445
 5025SOL    HW226712   0.064   1.900  16.686  1.3136  1.6113 -0.4917
 5026SOL     OW26713   0.598   4.065   8.492  0.1620  0.3740  0.4075
 5026SOL    HW126714   0.665   4.120   8.451  1.5788 -1.0618  0.7935
 5026SOL    HW226715   0.547   4.133   8.536 -1.8559 -0.9865  0.1788
 5027SOL     OW26716   1.179   4.049   6.439 -0.0919 -0.4404  0.0883
 5027SOL    HW126717   1.148   3.970   6.483  0.5914  0.2856  1.8670
 5027SOL    HW226718   1.269   4.042   6.472  0.0703 -1.4773 -0.5817
 5028SOL     OW26719   1.476   2.273   7.998  0.0448  0.3775  0.3838
 5028SOL    HW126720   1.483   2.365   8.023 -0.3768  0.5974 -0.3134
 5028SOL    HW226721   1.543   2.236   8.055 -0.0650  0.7777  0.7756
 5029SOL     OW26722   3.603   3.672   5.233  0.1511 -0.1496  0.0476
 5029SOL    HW126723   3.662   3.673   5.309  0.4961 -1.0400 -0.2070
 5029SOL    HW226724   3.555   3.751   5.258  0.3318  0.7177 -2.4217
 5030SOL     OW26725   4.325   0.694   3.129 -0.2764 -0.2181 -0.3466
 5030SOL    HW126726   4.235   0.695   3.099 -0.1685 -0.2898 -0.6698
 5030SOL    HW226727   4.350   0.774   3.176  0.7284  1.3091 -3.4486
 5031SOL     OW26728   2.000   0.731   8.819 -0.1550 -0.8336 -0.2438
 5031SOL    HW126729   1.946   0.752   8.895 -1.0929  1.5136 -1.5374
 5031SOL    HW226730   2.038   0.654   8.861  0.6432 -0.8629 -1.0152
 5032SOL     OW26731   3.524   2.684   6.540  0.4495 -0.1266  0.2598
 5032SOL    HW126732   3.605   2.660   6.495  0.3415 -0.9789  0.5191
 5032SOL    HW226733   3.498   2.600   6.578 -0.9919 -0.1143 -0.7025
 5033SOL     OW26734   2.620   2.332   4.356  0.0563  0.8622 -0.2994
 5033SOL    HW126735   2.622   2.270   4.283 -0.3639 -0.5574  0.9070
 5033SOL    HW226736   2.543   2.294   4.397  0.7687  0.7024  0.8915
 5034SOL     OW26737   2.353   4.022  13.527  0.2730 -0.2904  0.7352
 5034SOL    HW126738   2.326   3.932  13.512 -1.6114  0.6514 -1.6311
 5034SOL    HW226739   2.448   4.020  13.516  0.0482 -0.5724 -1.0941
 5035SOL     OW26740   0.076   2.444   7.046 -0.2901 -0.1613  0.1356
 5035SOL    HW126741   0.089   2.457   7.140 -2.1357 -1.5369  0.5843
 5035SOL    HW226742   0.092   2.352   7.026  0.2346 -0.3967  1.5609
 5036SOL     OW26743   1.154   2.924   1.714  0.3432 -0.1530 -0.3825
 5036SOL    HW126744   1.217   2.990   1.741  1.1759 -1.2706  0.4206
 5036SOL    HW226745   1.182   2.840   1.750 -0.0037 -0.2605 -0.3634
 5037SOL     OW26746   0.439   0.099   8.339  0.1186  0.0670 -0.4076
 5037SOL    HW126747   0.507   0.047   8.296 -0.1228  1.3003 -2.2533
 5037SOL    HW226748   0.363   0.042   8.335 -0.9819  1.6488 -1.7808
 5038SOL     OW26749   3.153   3.892   2.692  0.5513  0.0082  0.2775
 5038SOL    HW126750   3.124   3.801   2.696  0.2932  0.1136  0.7873
 5038SOL    HW226751   3.148   3.894   2.596 -0.1853 -0.4334  0.3043
 5039SOL     OW26752   1.657   0.101   9.654  0.3908 -0.7355  0.3549
 5039SOL    HW126753   1.751   0.082   9.655  0.4368 -0.5233 -0.5988
 5039SOL    HW226754   1.621   0.013   9.641 -0.5092 -0.5174  1.3940
 5040SOL     OW26755   2.753   1.190  13.900 -0.1560  0.2101 -0.1534
 5040SOL    HW126756   2.833   1.141  13.917 -0.2137  0.6661  1.4486
 5040SOL    HW226757   2.723   1.133  13.829  1.8562 -0.0271 -0.8094
 5041SOL     OW26758   2.074   0.398   4.980  0.3399  0.3496  0.0586
 5041SOL    HW126759   1.990   0.429   5.014  0.4894 -0.1729  0.8935
 5041SOL    HW226760   2.037   0.375   4.895 -0.0559  0.7449  0.1232
 5042SOL     OW26761   3.933   2.828  16.304  0.5312  0.0996  0.2109
 5042SOL    HW126762   4.022   2.856  16.281  1.1108 -1.8706  0.0853
 5042SOL    HW226763   3.917   2.883  16.381  2.2701  0.4074  0.3496
 5043SOL     OW26764   2.493   3.968  17.453  0.7784 -0.1859 -0.2684
 5043SOL    HW126765   2.478   4.059  17.428 -0.3519 -0.1453  0.6078
 5043SOL    HW226766   2.404   3.948  17.482  1.2013 -1.6994 -0.0119
 5044SOL     OW26767   0.105   1.063  12.200  0.0586  0.0716 -0.5046
 5044SOL    HW126768   0.114   1.151  12.163  3.0727 -0.3625 -0.7737
 5044SOL    HW226769   0.099   1.024  12.113 -0.3889 -0.4254 -0.2530
 5045SOL     OW26770   2.675   3.972  16.977  0.2017  0.8089  0.1478
 5045SOL    HW126771   2.695   3.984  16.884 -1.8445 -0.8146 -0.5167
 5045SOL    HW226772   2.582   3.949  16.967  0.7384 -1.0698 -0.4760
 5046SOL     OW26773   0.325   3.553  14.021 -0.3298  0.6084  0.0299
 5046SOL    HW126774   0.295   3.641  14.040  0.1098  1.1486 -1.6903
 5046SOL    HW226775   0.291   3.504  14.095 -1.1989  0.6742 -0.3323
 5047SOL     OW26776   1.240   0.173  15.935  0.5377 -0.0089  0.0714
 5047SOL    HW126777   1.211   0.228  16.007  0.2155  1.7130 -1.3497
 5047SOL    HW226778   1.275   0.241  15.876  2.7943 -0.8260  0.4488
 5048SOL     OW26779   0.403   1.338   3.943  0.5922 -0.6643  0.5924
 5048SOL    HW126780   0.412   1.343   3.848  2.0668  0.6144  0.7964
 5048SOL    HW226781   0.457   1.260   3.955  1.8792  0.1121 -0.2717
 5049SOL     OW26782   4.255   4.513   1.278 -0.0416 -0.4162 -0.0726
 5049SOL    HW126783   4.341   4.484   1.246  0.2991  0.7074 -0.1528
 5049SOL    HW226784   4.238   4.574   1.206 -0.8580 -0.0039  0.4731
 5050SOL     OW26785   1.749   2.513   4.576  0.0979 -0.3200 -0.2991
 5050SOL    HW126786   1.680   2.553   4.523  0.6126 -0.5674 -1.1570
 5050SOL    HW226787   1.708   2.516   4.662 -1.2246 -3.0377 -0.8020
 5051SOL     OW26788   3.558   0.031   9.664  0.2970 -0.4310 -0.1770
 5051SOL    HW126789   3.547   0.040   9.570  2.6351 -0.6227 -0.4744
 5051SOL    HW226790   3.470   0.010   9.694  0.0022  1.1162  0.0345
 5052SOL     OW26791   0.640   2.128   2.250 -0.2304  0.5376  0.1299
 5052SOL    HW126792   0.561   2.162   2.294  0.1215  0.7741  0.5766
 5052SOL    HW226793   0.652   2.197   2.185  1.3921  0.6477  0.5432
 5053SOL     OW26794   4.200   2.008  15.248  0.6017 -0.1588  0.1687
 5053SOL    HW126795   4.245   1.999  15.165  0.0168  0.4478 -0.2108
 5053SOL    HW226796   4.261   1.981  15.317  3.3361  1.8963 -1.4620
 5054SOL     OW26797   0.741   1.737   3.289  0.0456 -0.2735  0.0730
 5054SOL    HW126798   0.663   1.692   3.319 -1.2772  0.7083 -1.8754
 5054SOL    HW226799   0.746   1.708   3.198  1.7810 -0.1957  0.1374
 5055SOL     OW26800   3.587   2.628   2.497  0.2164 -0.0170 -0.4839
 5055SOL    HW126801   3.562   2.645   2.588  0.6285 -0.9000 -0.2028
 5055SOL    HW226802   3.675   2.665   2.504 -1.2913  3.4778 -0.0804
 5056SOL     OW26803   1.631   0.941   0.899  0.9665 -0.3536 -0.3062
 5056SOL    HW126804   1.652   0.873   0.963 -2.0941  0.5673  1.6741
 5056SOL    HW226805   1.722   0.970   0.893  0.4209  1.1625 -1.2558
 5057SOL     OW26806   1.846   3.316   2.008 -0.1080 -0.1034  0.0851
 5057SOL    HW126807   1.924   3.371   2.008  1.8268 -2.8471  1.1273
 5057SOL    HW226808   1.815   3.353   1.926 -0.7547  0.9849  0.8187
 5058SOL     OW26809   4.502   4.622   8.570 -0.1682 -0.8572 -0.2117
 5058SOL    HW126810   4.432   4.634   8.505  1.6067  1.8862 -1.6499
 5058SOL    HW226811   4.566   4.582   8.511 -1.9952 -1.1292 -2.0369
 5059SOL     OW26812   2.900   4.241   5.250  0.7978  0.2545 -0.6537
 5059SOL    HW126813   2.957   4.316   5.269  0.6812  0.0609  0.5011
 5059SOL    HW226814   2.962   4.168   5.239 -1.3786 -1.6522 -0.3582
 5060SOL     OW26815   1.982   3.033   4.768 -0.7525  0.1151  0.4272
 5060SOL    HW126816   2.012   3.014   4.857  3.3847 -0.9397 -1.1852
 5060SOL    HW226817   1.896   3.072   4.781 -1.0637 -0.7545  0.9904
 5061SOL     OW26818   0.532   1.488   1.672  0.1279  0.4286  0.3005
 5061SOL    HW126819   0.624   1.513   1.670 -0.3044  2.2498  2.4904
 5061SOL    HW226820   0.533   1.400   1.636  2.8106 -0.3952  2.3589
 5062SOL     OW26821   3.390   0.635   4.385 -0.1701 -0.1726 -0.0955
 5062SOL    HW126822   3.363   0.675   4.468  0.9218 -2.6131  1.4200
 5062SOL    HW226823   3.319   0.661   4.327  1.6647 -1.3246 -2.8324
 5063SOL     OW26824   1.524   1.812  17.110 -0.2964 -0.0860  0.4267
 5063SOL    HW126825   1.440   1.846  17.139  0.1035  1.1153  0.1789
 5063SOL    HW226826   1.580   1.850  17.179 -0.5672 -1.7705  1.5689
 5064SOL     OW26827   1.018   2.945   7.034 -0.6572  0.0787 -0.0156
 5064SOL    HW126828   0.928   2.967   7.058 -0.5340 -0.5662  1.0709
 5064SOL    HW226829   1.070   2.974   7.109 -1.0940  2.6675 -0.7296
 5065SOL     OW26830   1.090   1.147   8.754  0.9463 -0.2603 -0.1550
 5065SOL    HW126831   1.177   1.149   8.716  0.9770  0.7957 -0.0528
 5065SOL    HW226832   1.051   1.234   8.738 -1.4587 -1.5335 -1.2125
 5066SOL     OW26833   0.473   4.496   0.873 -0.4479 -0.4420 -0.3771
 5066SOL    HW126834   0.522   4.467   0.796  0.8830  0.2219  0.2200
 5066SOL    HW226835   0.383   4.476   0.846 -1.2349  2.4893  0.1613
 5067SOL     OW26836   2.037   1.215   4.797 -0.1504  0.4897 -0.5265
 5067SOL    HW126837   1.989   1.208   4.715 -1.1486  0.2434  0.0868
 5067SOL    HW226838   2.083   1.131   4.796  2.1509  1.7164  0.5387
 5068SOL     OW26839   1.994   2.676   7.337 -1.0321  0.5455 -0.1274
 5068SOL    HW126840   2.000   2.669   7.241  1.5847 -0.1344  0.0904
 5068SOL    HW226841   2.036   2.761   7.353  1.1492 -0.8157  1.3117
 5069SOL     OW26842   2.929   3.722   5.722  0.3555 -0.1775  0.6422
 5069SOL    HW126843   2.841   3.745   5.694 -0.3960 -0.5978  2.6597
 5069SOL    HW226844   2.970   3.807   5.735  0.9343 -0.0719 -1.7996
 5070SOL     OW26845   0.354   1.647   5.072 -0.0722  0.1364  0.1021
 5070SOL    HW126846   0.432   1.595   5.057  0.5238  2.2382 -4.1481
 5070SOL    HW226847   0.296   1.598   5.014 -2.1214  1.7089  0.7994
 5071SOL     OW26848   4.289   2.400   9.327  0.1046  0.1839  0.0074
 5071SOL    HW126849   4.213   2.434   9.281 -0.9422 -0.2845  1.4045
 5071SOL    HW226850   4.339   2.479   9.347  1.9776 -0.6202 -1.5245
 5072SOL     OW26851   2.569   4.353  14.445 -0.0414 -0.2963 -0.0875
 5072SOL    HW126852   2.490   4.318  14.487  0.1396 -0.5824  0.0147
 5072SOL    HW226853   2.554   4.344  14.351 -2.4627 -1.0206  0.3693
 5073SOL     OW26854   4.302   3.469   4.487  0.5101  0.0842  0.0558
 5073SOL    HW126855   4.247   3.518   4.549  2.8174  2.0569  0.5401
 5073SOL    HW226856   4.344   3.529   4.425 -1.6976  2.2962  0.7017
 5074SOL     OW26857   4.369   1.402   3.431 -0.1162 -0.0232 -1.0435
 5074SOL    HW126858   4.308   1.381   3.502  1.3312  0.5824  0.3857
 5074SOL    HW226859   4.321   1.379   3.352 -0.9221  2.4055 -1.2782
 5075SOL     OW26860   2.527   4.169  15.984 -0.4187 -0.3670 -0.3194
 5075SOL    HW126861   2.553   4.160  16.076 -0.5246 -2.5822 -0.4968
 5075SOL    HW226862   2.433   4.181  15.989 -0.6809 -2.6806  0.3358
 5076SOL     OW26863   1.573   0.717   4.493 -0.1166  0.2124 -0.2040
 5076SOL    HW126864   1.666   0.735   4.507 -0.6025  2.1714  0.4732
 5076SOL    HW226865   1.542   0.684   4.578  1.5731 -0.2632  0.2303
 5077SOL     OW26866   3.456   0.417   8.387  0.3572 -0.3288  0.2538
 5077SOL    HW126867   3.452   0.348   8.454  1.1149 -0.3915  0.2272
 5077SOL    HW226868   3.504   0.486   8.431  0.2054 -0.5977  0.8484
 5078SOL     OW26869   4.664   3.802   3.172  0.0098 -0.0272 -0.0442
 5078SOL    HW126870   4.662   3.723   3.226  0.8228  0.0089  0.0358
 5078SOL    HW226871   0.017   3.839   3.187  0.4113 -0.8488 -0.4043
 5079SOL     OW26872   2.182   1.567   2.043  0.2766 -0.1080 -0.4925
 5079SOL    HW126873   2.105   1.541   1.993  1.0849 -0.1883 -1.6965
 5079SOL    HW226874   2.171   1.530   2.131  1.8483  0.8973  0.1314
 5080SOL     OW26875   1.928   3.669   4.578  0.1138  0.0004 -0.4674
 5080SOL    HW126876   1.947   3.719   4.658 -0.6582 -0.8958  0.2720
 5080SOL    HW226877   1.906   3.585   4.618 -2.9604  1.7369  1.5164
 5081SOL     OW26878   3.919   0.192   5.654  0.5528  0.2008  0.1558
 5081SOL    HW126879   3.868   0.114   5.630 -0.8736  0.8619  0.9950
 5081SOL    HW226880   4.001   0.184   5.607  0.3389 -0.3681 -0.1243
 5082SOL     OW26881   4.552   0.152   8.027 -0.1813 -0.0139  0.1001
 5082SOL    HW126882   4.543   0.227   8.086 -1.1362  0.3165 -0.4762
 5082SOL    HW226883   4.467   0.113   8.048 -0.4575 -0.5294 -1.9822
 5083SOL     OW26884   1.965   4.438  10.124  0.3557 -0.0574  0.0119
 5083SOL    HW126885   2.054   4.404  10.126  0.4708  0.2097 -0.4816
 5083SOL    HW226886   1.963   4.478  10.037  0.7580  0.3478  0.1916
 5084SOL     OW26887   3.228   0.643   9.448  0.1382  0.3812 -0.3512
 5084SOL    HW126888   3.143   0.685   9.441  0.1298  0.1947 -1.3672
 5084SOL    HW226889   3.273   0.711   9.498 -0.7804  0.3300  0.5474
 5085SOL     OW26890   0.524   0.653  15.808  0.4500  0.2592 -0.0494
 5085SOL    HW126891   0.477   0.570  15.797  0.5841 -0.0548  1.7419
 5085SOL    HW226892   0.560   0.659  15.720  0.0319  0.0515 -0.2401
 5086SOL     OW26893   1.788   0.978   5.919  0.2976  0.1878  0.5586
 5086SOL    HW126894   1.818   0.999   5.830  2.4014 -2.9394  0.5193
 5086SOL    HW226895   1.757   0.889   5.900  3.5506 -0.6627 -0.8234
 5087SOL     OW26896   0.664   0.893  13.490 -0.6776  0.2035 -0.1950
 5087SOL    HW126897   0.642   0.821  13.430  1.3624  0.5910 -1.3941
 5087SOL    HW226898   0.735   0.936  13.442 -0.2268  1.4242  1.5507
 5088SOL     OW26899   2.335   1.044  10.955 -0.1253  0.0629 -0.2282
 5088SOL    HW126900   2.274   1.071  11.023 -2.4226 -0.2679 -2.1531
 5088SOL    HW226901   2.304   1.096  10.881  0.9102  0.4133 -0.4227
 5089SOL     OW26902   3.886   2.306   5.374  0.7392  0.0999 -0.1833
 5089SOL    HW126903   3.881   2.295   5.279  1.1462  0.4203 -0.2406
 5089SOL    HW226904   3.980   2.310   5.387  0.9822  0.7248 -2.0081
 5090SOL     OW26905   2.951   2.272  10.765 -0.0360 -0.5305  0.2181
 5090SOL    HW126906   3.002   2.344  10.802 -0.5822 -0.4980  0.9200
 5090SOL    HW226907   3.015   2.201  10.769  0.3466 -0.1274  1.2404
 5091SOL     OW26908   1.744   3.976  15.582 -0.2686  0.3754  0.0498
 5091SOL    HW126909   1.672   4.000  15.641  0.5225  2.3189  0.2394
 5091SOL    HW226910   1.798   4.055  15.580  1.6854 -0.9882 -0.8670
 5092SOL     OW26911   3.102   3.622   1.970  0.1820 -0.0614 -0.2736
 5092SOL    HW126912   3.049   3.551   2.005  1.0913 -0.5677  0.0658
 5092SOL    HW226913   3.073   3.701   2.017  0.9136  0.7913 -1.2507
 5093SOL     OW26914   0.711   2.362   5.038 -0.0197  0.2562  0.5127
 5093SOL    HW126915   0.741   2.377   5.128  0.2293  0.7432  0.3478
 5093SOL    HW226916   0.707   2.451   5.003  3.0232  0.1966  0.0002
 5094SOL     OW26917   3.342   2.315   3.484  0.6360  0.3508  0.3085
 5094SOL    HW126918   3.363   2.279   3.571  0.0139 -1.6869 -0.4090
 5094SOL    HW226919   3.275   2.254   3.454  0.0274  0.7533  0.8593
 5095SOL     OW26920   2.337   0.951  16.183 -0.4940  0.3576 -0.3383
 5095SOL    HW126921   2.317   0.956  16.277 -0.1609 -0.3074 -0.2342
 5095SOL    HW226922   2.307   0.864  16.159  0.2601  0.7916 -2.8275
 5096SOL     OW26923   1.019   2.790   3.341  0.0521 -0.1908  0.2752
 5096SOL    HW126924   0.972   2.828   3.267  1.1675  0.4506 -0.1037
 5096SOL    HW226925   0.955   2.730   3.379 -1.4139  1.2420  0.0378
 5097SOL     OW26926   3.358   3.755   5.109  0.1096 -0.2653 -0.4402
 5097SOL    HW126927   3.326   3.666   5.099 -0.5135 -0.0604 -0.2859
 5097SOL    HW226928   3.284   3.813   5.089  2.4457  3.6385  2.2221
 5098SOL     OW26929   1.325   1.797  12.235  0.2036 -0.4065 -0.5276
 5098SOL    HW126930   1.261   1.856  12.274 -0.8456  0.3523 -3.3864
 5098SOL    HW226931   1.362   1.861  12.174 -1.9860 -0.6665 -2.1218
 5099SOL     OW26932   2.147   0.233   5.198 -0.0276 -0.0920  0.5401
 5099SOL    HW126933   2.104   0.148   5.204 -0.5681 -0.1178 -3.9147
 5099SOL    HW226934   2.131   0.277   5.115 -0.3099 -0.9742  0.1187
 5100SOL     OW26935   3.458   1.508   2.847  0.2227  0.0464 -0.4572
 5100SOL    HW126936   3.393   1.559   2.800 -1.4860  0.3148  2.1774
 5100SOL    HW226937   3.439   1.416   2.826  1.3547  0.2047 -2.1597
 5101SOL     OW26938   3.958   0.059   3.455  0.1186  0.1215  0.1116
 5101SOL    HW126939   3.874   0.071   3.410 -0.2065 -0.6325  0.5010
 5101SOL    HW226940   3.950   4.710   3.501  3.0663 -0.0098  0.3728
 5102SOL     OW26941   2.734   2.100  11.870  0.7992 -0.7383 -0.3032
 5102SOL    HW126942   2.648   2.062  11.891  1.2605 -0.8371  1.3497
 5102SOL    HW226943   2.758   2.129  11.957  0.2843  0.9974 -0.7417
 5103SOL     OW26944   3.208   3.416   6.131 -0.0106 -0.3298 -0.4649
 5103SOL    HW126945   3.129   3.365   6.109 -0.5243  0.5380 -0.6219
 5103SOL    HW226946   3.165   3.501   6.139  1.0135  0.1312  0.0372
 5104SOL     OW26947   3.630   3.970  12.078  0.6132 -0.1923  0.6112
 5104SOL    HW126948   3.640   3.930  12.165  0.9629 -1.2988  0.0544
 5104SOL    HW226949   3.548   3.928  12.053 -0.1588  1.5108  0.2515
 5105SOL     OW26950   0.189   0.907   4.772  1.2282  0.4998  0.0066
 5105SOL    HW126951   0.228   0.936   4.690  1.7985  0.3854  0.2371
 5105SOL    HW226952   0.235   0.967   4.831  0.1979  0.1561  1.1625
 5106SOL     OW26953   2.146   2.939   2.567  0.2949  0.1294  0.2493
 5106SOL    HW126954   2.194   2.921   2.486  0.7802  0.8158  0.3894
 5106SOL    HW226955   2.133   3.032   2.545 -1.3534 -0.4292 -1.1946
 5107SOL     OW26956   4.198   3.190   2.946  0.3151 -0.0690 -0.1016
 5107SOL    HW126957   4.204   3.282   2.921  0.1349  0.1735  0.7351
 5107SOL    HW226958   4.279   3.173   2.995 -0.5171  0.4541  1.4464
 5108SOL     OW26959   2.065   4.166  15.196 -0.2390  0.3098  0.0630
 5108SOL    HW126960   1.990   4.214  15.232  0.2893  0.3212  1.1690
 5108SOL    HW226961   2.124   4.231  15.158 -2.1068  0.5193 -2.4877
 5109SOL     OW26962   3.050   1.936   9.857 -0.6325  0.4918 -0.8772
 5109SOL    HW126963   3.034   1.848   9.822 -1.6308 -0.4456  1.9084
 5109SOL    HW226964   2.975   1.944   9.916 -0.0364  0.2797 -0.0864
 5110SOL     OW26965   3.393   0.078   3.746 -0.7068  0.0764 -0.3979
 5110SOL    HW126966   3.340   0.101   3.670  0.7696 -0.3902 -1.5538
 5110SOL    HW226967   3.429   4.729   3.716  1.5255  0.7913  0.3548
 5111SOL     OW26968   4.111   2.075   1.968 -0.0239  0.6879 -0.1460
 5111SOL    HW126969   4.167   2.149   1.943  0.0273  0.6493 -0.1447
 5111SOL    HW226970   4.094   2.035   1.883  1.7608 -2.3535  0.9564
 5112SOL     OW26971   2.753   1.229   3.103 -0.5199 -0.3006  0.2068
 5112SOL    HW126972   2.734   1.145   3.146  0.8322 -0.4153  0.5977
 5112SOL    HW226973   2.812   1.199   3.033 -1.7603 -0.3369 -0.8140
 5113SOL     OW26974   2.749   0.911  10.684  0.6719  0.0332  0.2754
 5113SOL    HW126975   2.708   0.965  10.616 -2.6450 -0.8111  1.6065
 5113SOL    HW226976   2.715   0.961  10.758 -0.5805 -1.3107  0.5932
 5114SOL     OW26977   3.186   3.759   8.697  0.4481  0.0844 -0.4110
 5114SOL    HW126978   3.172   3.669   8.667 -0.1028 -0.1011  0.3907
 5114SOL    HW226979   3.094   3.786   8.705  0.4964 -0.0010  0.4446
 5115SOL     OW26980   0.436   2.669  15.055  0.0477  0.3531  0.1697
 5115SOL    HW126981   0.477   2.632  14.976  5.2584  2.5916  1.8284
 5115SOL    HW226982   0.418   2.759  15.029 -4.1945 -0.7067 -0.5509
 5116SOL     OW26983   0.900   2.291   7.477 -0.8462  0.5328 -0.3689
 5116SOL    HW126984   0.964   2.237   7.525 -1.9565  0.1964  0.7458
 5116SOL    HW226985   0.931   2.278   7.388 -1.9525 -0.5193 -0.6148
 5117SOL     OW26986   4.167   1.371   1.996 -0.3452  0.1456  0.4724
 5117SOL    HW126987   4.185   1.465   1.993  0.4232 -0.0327 -0.4170
 5117SOL    HW226988   4.145   1.370   2.090 -2.8301  0.9784 -0.0934
 5118SOL     OW26989   0.015   4.280  16.775 -0.7339 -0.5178  0.0807
 5118SOL    HW126990   0.066   4.240  16.846  0.0391 -2.5377 -1.5939
 5118SOL    HW226991   0.062   4.244  16.699  0.6012 -0.7645  1.0215
 5119SOL     OW26992   2.802   3.755  14.422 -0.5409  0.3103  0.4399
 5119SOL    HW126993   2.886   3.720  14.451 -0.5943 -2.4700 -2.7376
 5119SOL    HW226994   2.779   3.813  14.495 -0.4751  0.5866  0.2371
 5120SOL     OW26995   4.602   2.833   9.452 -0.1087  0.3632 -0.5881
 5120SOL    HW126996   4.622   2.895   9.382  2.7212 -2.8782 -2.6690
 5120SOL    HW226997   4.690   2.805   9.480 -0.5229 -0.1576  0.1856
 5121SOL     OW26998   3.134   0.262   4.817 -0.0408 -0.2072  0.1407
 5121SOL    HW126999   3.049   0.291   4.785  0.7035 -0.7283 -2.3632
 5121SOL    HW227000   3.159   0.183   4.768 -2.0041 -1.6310  1.4180
 5122SOL     OW27001   1.387   1.303   7.697 -0.3334  0.5136  0.0835
 5122SOL    HW127002   1.305   1.299   7.746 -0.4959 -0.7443 -0.3140
 5122SOL    HW227003   1.373   1.373   7.633 -1.7148 -1.4857 -1.7715
 5123SOL     OW27004   4.425   0.333   1.040 -0.6912  1.0719  0.2065
 5123SOL    HW127005   4.416   0.385   0.960 -0.7429  1.4452  0.4573
 5123SOL    HW227006   4.504   0.367   1.081  0.1784  0.4472 -0.9346
 5124SOL     OW27007   1.951   0.034   7.006 -0.1598 -0.1629  0.0641
 5124SOL    HW127008   1.940   0.126   6.983 -0.0096  0.1780  1.3923
 5124SOL    HW227009   2.045   0.033   7.024  0.3240  1.6977 -2.3126
 5125SOL     OW27010   3.206   1.638  13.967  0.1910 -0.4243  0.5901
 5125SOL    HW127011   3.166   1.695  13.901  1.4910  0.1983  0.3415
 5125SOL    HW227012   3.290   1.681  13.983  0.3234 -0.4211 -0.1191
 5126SOL     OW27013   0.112   0.681  11.114  0.1840 -0.0686  0.4996
 5126SOL    HW127014   0.146   0.593  11.131  0.7098  0.1534  0.5990
 5126SOL    HW227015   0.174   0.710  11.046  0.9904 -1.4798  0.6141
 5127SOL     OW27016   0.524   2.987   2.490 -0.3623 -0.0567  0.2076
 5127SOL    HW127017   0.559   3.056   2.434 -0.2309 -0.3381 -0.0590
 5127SOL    HW227018   0.484   3.040   2.560  3.3283 -0.7757  2.8401
 5128SOL     OW27019   4.411   2.822   4.637 -0.2086 -0.3146 -0.4231
 5128SOL    HW127020   4.500   2.823   4.673 -0.1219 -1.3213 -0.6224
 5128SOL    HW227021   4.436   2.829   4.545  1.4041  0.0577  0.0326
 5129SOL     OW27022   2.213   1.471   8.357 -0.1924 -0.2938  0.4755
 5129SOL    HW127023   2.178   1.383   8.369 -0.3934 -0.1934  0.6255
 5129SOL    HW227024   2.148   1.523   8.404  0.4908  1.7436 -0.8276
 5130SOL     OW27025   2.309   2.286   2.227 -0.2983  0.2245 -0.3611
 5130SOL    HW127026   2.268   2.354   2.281  1.3449  0.0946  1.0828
 5130SOL    HW227027   2.358   2.247   2.300 -1.2243  2.0373  1.2576
 5131SOL     OW27028   2.939   4.610   6.183 -0.3468  0.3578 -0.1424
 5131SOL    HW127029   2.948   4.611   6.279 -1.0983  0.0987 -0.0681
 5131SOL    HW227030   2.865   4.665   6.158 -0.2010  0.1069 -1.1127
 5132SOL     OW27031   4.419   2.780   8.613 -0.4078 -0.2643  0.8930
 5132SOL    HW127032   4.340   2.751   8.568 -0.3305 -0.1003  0.6524
 5132SOL    HW227033   4.377   2.825   8.687 -1.5843 -0.6809  0.4699
 5133SOL     OW27034   1.870   2.918  13.297  0.4630  0.9192  0.2298
 5133SOL    HW127035   1.836   2.857  13.363  0.1409  1.6696  0.7517
 5133SOL    HW227036   1.795   2.975  13.283 -0.9236 -0.5547  1.6267
 5134SOL     OW27037   0.247   1.462   8.882  0.0746  0.0770  0.2177
 5134SOL    HW127038   0.243   1.385   8.939  0.4443  0.3987  0.6733
 5134SOL    HW227039   0.317   1.434   8.823  2.2097  2.1299  1.7883
 5135SOL     OW27040   1.023   2.997  15.618  0.1337 -0.1034 -0.1572
 5135SOL    HW127041   1.011   3.054  15.694  3.7174 -1.3153  1.3240
 5135SOL    HW227042   1.117   2.983  15.621  0.1466 -0.2537 -1.0356
 5136SOL     OW27043   4.239   4.048   3.121 -0.5372 -0.6261 -0.5875
 5136SOL    HW127044   4.202   4.107   3.187  0.4105  1.4825 -1.9929
 5136SOL    HW227045   4.166   3.986   3.135 -1.0678  0.3135  0.8226
 5137SOL     OW27046   2.878   1.602  10.698  0.3283 -0.1110  0.1321
 5137SOL    HW127047   2.952   1.551  10.666 -0.2536 -0.0413 -1.3498
 5137SOL    HW227048   2.857   1.567  10.784 -0.6868  0.5864  0.1716
 5138SOL     OW27049   1.690   1.702   5.993 -0.1102 -0.0237 -0.2245
 5138SOL    HW127050   1.746   1.663   5.926  0.4557 -2.9514  1.9553
 5138SOL    HW227051   1.625   1.634   6.010 -2.4707  1.5927 -2.7115
 5139SOL     OW27052   0.601   4.331  15.191  0.1841  0.3567 -0.5793
 5139SOL    HW127053   0.619   4.408  15.137  2.1786 -0.0757 -0.5421
 5139SOL    HW227054   0.510   4.348  15.215  0.8441 -0.6002  2.6232
 5140SOL     OW27055   2.204   2.248   7.278  0.5201 -0.0776 -0.1515
 5140SOL    HW127056   2.159   2.199   7.347  0.1903 -0.2265 -0.4728
 5140SOL    HW227057   2.259   2.293   7.342  0.2428 -1.1145  0.8256
 5141SOL     OW27058   4.069   4.717   7.118  0.2045 -0.5225  0.2823
 5141SOL    HW127059   3.974   4.728   7.116  0.2160 -0.6066 -1.1458
 5141SOL    HW227060   4.085   4.735   7.025  0.5172 -2.4154 -0.0342
 5142SOL     OW27061   2.323   0.304   2.888  0.1859 -0.3304 -0.1287
 5142SOL    HW127062   2.348   0.272   2.801  0.0816 -2.5213  0.6398
 5142SOL    HW227063   2.256   0.239   2.910 -2.0508  2.8473  2.2852
 5143SOL     OW27064   1.257   4.204   5.290 -0.1307 -0.0337  0.1159
 5143SOL    HW127065   1.264   4.113   5.261 -3.2117  0.0255 -0.7680
 5143SOL    HW227066   1.176   4.217   5.241 -0.2191 -0.0814  0.2493
 5144SOL     OW27067   2.083   4.492   2.115  0.5244 -0.3780  0.3174
 5144SOL    HW127068   2.085   4.461   2.025 -0.1064 -2.1331  0.9146
 5144SOL    HW227069   2.096   4.406   2.156 -1.7775 -1.3336 -0.9598
 5145SOL     OW27070   0.256   3.493   8.785  0.4394  0.1623  0.0443
 5145SOL    HW127071   0.185   3.556   8.799 -0.3198 -0.7861  0.5405
 5145SOL    HW227072   0.278   3.509   8.694 -0.9595 -1.9087 -0.6525
 5146SOL     OW27073   3.406   3.157  17.212 -0.2117  0.8735 -0.1280
 5146SOL    HW127074   3.356   3.101  17.153 -1.2262  1.1783  0.4479
 5146SOL    HW227075   3.487   3.153  17.162  0.4879 -1.7707  1.2291
 5147SOL     OW27076   3.990   3.185   3.311  0.6720  0.2913  0.1274
 5147SOL    HW127077   3.991   3.089   3.305 -1.4516  0.3108 -0.5354
 5147SOL    HW227078   3.895   3.191   3.307  0.5052 -1.1174  2.0464
 5148SOL     OW27079   2.377   1.202   2.311  0.0790  0.4538  0.3045
 5148SOL    HW127080   2.335   1.191   2.397 -0.6841  0.2113 -0.0975
 5148SOL    HW227081   2.302   1.218   2.254  0.2413  0.3810  0.0709
 5149SOL     OW27082   1.662   2.406  11.220 -0.0823 -0.2657 -0.6284
 5149SOL    HW127083   1.733   2.469  11.226 -0.4292  0.2251 -1.6351
 5149SOL    HW227084   1.703   2.323  11.197 -0.1022  0.3263 -2.8111
 5150SOL     OW27085   0.010   2.740  15.472 -0.5807  0.0353 -0.5696
 5150SOL    HW127086   4.668   2.692  15.505  1.2069 -1.1728  1.8286
 5150SOL    HW227087   0.039   2.766  15.559 -0.1053  1.7769 -1.2605
 5151SOL     OW27088   3.101   3.171   5.359 -0.0518 -0.3036 -0.0458
 5151SOL    HW127089   3.043   3.241   5.331 -1.0374 -2.0951 -2.5263
 5151SOL    HW227090   3.059   3.094   5.321 -0.6110 -0.6614  1.2738
 5152SOL     OW27091   1.745   1.720   5.563  0.6946  0.5748  0.1475
 5152SOL    HW127092   1.682   1.792   5.573  2.2814  1.9520  0.2741
 5152SOL    HW227093   1.830   1.764   5.555 -0.0931  1.8649 -1.2589
 5153SOL     OW27094   4.134   3.383   7.991  0.3541  0.0665 -0.1871
 5153SOL    HW127095   4.112   3.475   7.975 -0.9749 -0.7164 -2.8739
 5153SOL    HW227096   4.226   3.386   8.016 -0.1914 -0.6624  1.8677
 5154SOL     OW27097   1.089   4.676   7.275  0.7125  0.1377  0.0490
 5154SOL    HW127098   1.014   4.689   7.333  1.9549  0.0021  1.6760
 5154SOL    HW227099   1.083   4.583   7.255 -1.1531  0.2588  0.0760
 5155SOL     OW27100   2.204   4.708   9.392 -0.1510  0.4584  0.0295
 5155SOL    HW127101   2.294   4.700   9.361  0.0094 -0.2675  0.6826
 5155SOL    HW227102   2.202   0.029   9.470  2.6471 -0.8699  1.0534
 5156SOL     OW27103   2.902   1.065   5.588  0.3424  0.0809 -0.1675
 5156SOL    HW127104   2.994   1.094   5.585  0.4131  0.2154  3.4921
 5156SOL    HW227105   2.897   0.973   5.614 -2.5757  0.2253 -0.2429
 5157SOL     OW27106   1.263   1.214   6.047  0.8619  0.3956 -0.0320
 5157SOL    HW127107   1.306   1.137   6.008 -1.3662 -1.0155  0.2805
 5157SOL    HW227108   1.340   1.240   6.097  2.3745 -3.5378 -0.3188
 5158SOL     OW27109   3.556   0.046   8.298  0.3693  0.5371  0.0493
 5158SOL    HW127110   3.612   4.708   8.326 -1.7861 -0.6547  1.3179
 5158SOL    HW227111   3.606   0.126   8.316  0.1640  0.4153  1.1709
 5159SOL     OW27112   0.798   2.118   1.361  0.1272 -0.0230 -0.1270
 5159SOL    HW127113   0.746   2.118   1.281 -2.5679  1.6645  1.5962
 5159SOL    HW227114   0.743   2.175   1.416  2.6906 -1.2854  3.7218
 5160SOL     OW27115   0.406   4.034   5.764 -0.1361 -0.2291  0.3410
 5160SOL    HW127116   0.345   3.987   5.707  0.9943 -0.8871 -0.3471
 5160SOL    HW227117   0.454   3.959   5.798  2.1375  1.4794  0.9409
 5161SOL     OW27118   4.632   1.149   3.307 -0.0939  0.0902  0.1347
 5161SOL    HW127119   4.709   1.135   3.253 -0.7289  2.5319 -1.4347
 5161SOL    HW227120   4.624   1.244   3.301 -1.7549  0.0150  1.0451
 5162SOL     OW27121   3.494   2.293  16.739 -0.2658 -0.7749 -0.0969
 5162SOL    HW127122   3.501   2.240  16.660 -1.0674  0.6191 -1.1005
 5162SOL    HW227123   3.428   2.359  16.720  0.4059  0.3683  1.5224
 5163SOL     OW27124   2.184   1.465  15.158  0.3742  0.2871 -0.2961
 5163SOL    HW127125   2.277   1.443  15.147  0.2248 -0.0290 -0.8741
 5163SOL    HW227126   2.176   1.474  15.253  1.5543 -1.3134 -0.0561
 5164SOL     OW27127   4.096   4.606  17.201  0.0550  0.2230 -0.2837
 5164SOL    HW127128   4.107   4.670  17.131  0.8452 -0.7356 -1.0346
 5164SOL    HW227129   4.171   4.623  17.259 -0.0822  1.0587 -0.3621
 5165SOL     OW27130   2.991   4.484  17.193 -0.1467 -0.4335 -0.0294
 5165SOL    HW127131   3.068   4.429  17.209 -1.9990 -2.7789  0.8578
 5165SOL    HW227132   3.022   4.573  17.179  1.2101 -0.7886  0.6625
 5166SOL     OW27133   4.089   3.124   1.015 -0.0007 -0.0297  0.2803
 5166SOL    HW127134   4.144   3.200   0.994  0.7213 -0.3900  0.8744
 5166SOL    HW227135   4.134   3.101   1.096  1.4660  1.2105 -0.1802
 5167SOL     OW27136   1.201   1.615   4.132  0.4094 -0.8238 -0.7468
 5167SOL    HW127137   1.280   1.562   4.130 -0.6984 -2.4973 -0.3455
 5167SOL    HW227138   1.217   1.676   4.060 -0.8333 -0.1618 -0.4643
 5168SOL     OW27139   1.467   0.728   0.257 -0.3249 -0.2438  0.0802
 5168SOL    HW127140   1.453   0.679   0.176 -0.2054  0.2934 -0.2686
 5168SOL    HW227141   1.527   0.798   0.230 -1.4909  0.5217 -0.4833
 5169SOL     OW27142   1.368   1.276   8.823 -0.3599  0.3536 -0.1908
 5169SOL    HW127143   1.418   1.347   8.782 -0.8414 -0.8430 -2.8005
 5169SOL    HW227144   1.306   1.329   8.873 -0.8985 -0.0670 -0.4241
 5170SOL     OW27145   0.371   4.637   7.975 -0.1310  0.0593  0.0468
 5170SOL    HW127146   0.467   4.643   7.983 -0.1954 -1.3250  1.7480
 5170SOL    HW227147   0.338   4.720   7.940  1.5442  0.9668  0.6148
 5171SOL     OW27148   0.111   3.286   6.694 -0.1933  0.1509  0.0034
 5171SOL    HW127149   0.043   3.234   6.651  0.0032 -1.7275  2.0215
 5171SOL    HW227150   0.188   3.234   6.675 -0.8900 -1.5390  1.8406
 5172SOL     OW27151   1.351   4.372   5.826  0.8848  0.5506 -0.3255
 5172SOL    HW127152   1.269   4.421   5.833  0.4234 -0.2927  0.1411
 5172SOL    HW227153   1.348   4.340   5.735  0.0587  1.3886 -0.5994
 5173SOL     OW27154   3.403   4.654   5.197 -0.4342  0.2849  0.0223
 5173SOL    HW127155   3.482   4.708   5.189  0.8096 -1.4486  0.5919
 5173SOL    HW227156   3.359   4.681   5.116  0.8056 -0.6313 -0.9541
 5174SOL     OW27157   1.402   3.454   6.819  0.1923 -0.0357  0.9359
 5174SOL    HW127158   1.336   3.394   6.853 -1.4804  2.5471  2.2324
 5174SOL    HW227159   1.445   3.478   6.901 -0.3815 -0.7970  1.4585
 5175SOL     OW27160   0.361   3.435   6.401  0.2592 -0.8118 -0.9292
 5175SOL    HW127161   0.306   3.394   6.335 -2.1827  1.5242 -0.3670
 5175SOL    HW227162   0.444   3.401   6.369 -0.2634  0.8453 -4.0379
 5176SOL     OW27163   2.228   0.357   3.410  0.2501 -0.0615  0.1440
 5176SOL    HW127164   2.156   0.414   3.383 -2.1555 -1.2259  3.9220
 5176SOL    HW227165   2.194   0.346   3.499 -3.3592  2.8136 -0.8895
 5177SOL     OW27166   0.846   3.291   3.289 -0.8510 -0.2039  0.0738
 5177SOL    HW127167   0.932   3.331   3.292 -0.4050 -1.2034  0.8299
 5177SOL    HW227168   0.822   3.313   3.199  0.5024 -0.8276 -0.4509
 5178SOL     OW27169   4.577   1.337  17.553 -0.0548 -0.2019  0.0788
 5178SOL    HW127170   4.582   1.300  17.465 -0.2990  1.0890 -0.4861
 5178SOL    HW227171   4.668   1.357  17.572  0.5011 -2.4646 -0.2032
 5179SOL     OW27172   3.850   0.808   7.431 -0.4777  0.2613  0.0740
 5179SOL    HW127173   3.933   0.850   7.410 -0.6220  0.6411  0.2752
 5179SOL    HW227174   3.800   0.870   7.484 -0.9233  1.6525 -1.9697
 5180SOL     OW27175   2.654   4.029   4.029 -0.1171 -0.0867  0.1582
 5180SOL    HW127176   2.669   4.035   3.935 -2.1551 -0.6085 -0.1785
 5180SOL    HW227177   2.559   4.040   4.027 -0.5749 -4.1561 -0.5565
 5181SOL     OW27178   0.271   3.534   5.952  0.2021 -0.2633 -0.0483
 5181SOL    HW127179   0.322   3.464   5.994 -0.3095  0.0535  1.0964
 5181SOL    HW227180   0.305   3.536   5.863 -0.0859  1.5246 -0.1093
 5182SOL     OW27181   0.507   0.211   5.098  0.5261  0.2678  0.4908
 5182SOL    HW127182   0.546   0.297   5.086  0.7454  0.3289  1.6178
 5182SOL    HW227183   0.520   0.173   5.012 -2.2699 -1.0342  0.6267
 5183SOL     OW27184   4.619   4.686   7.266 -0.4924 -0.2323 -0.0116
 5183SOL    HW127185   4.691   0.014   7.276 -3.4556  3.4599 -1.9850
 5183SOL    HW227186   4.662   4.600   7.271  0.0114  0.0154 -0.0679
 5184SOL     OW27187   0.528   4.523   4.182  0.4734  0.0787 -0.7369
 5184SOL    HW127188   0.470   4.476   4.242 -0.0389 -0.1520 -1.4073
 5184SOL    HW227189   0.615   4.507   4.218  0.3538  0.2901 -0.3592
 5185SOL     OW27190   3.420   0.499  13.871  0.1928  0.1641  0.3743
 5185SOL    HW127191   3.359   0.527  13.939  1.3079 -0.3508  1.6097
 5185SOL    HW227192   3.442   0.582  13.828  0.6210 -1.6015 -2.8205
 5186SOL     OW27193   3.917   1.040  17.514  0.4870  1.2797  0.4594
 5186SOL    HW127194   3.954   1.087  17.439 -2.8264  0.2135 -1.8554
 5186SOL    HW227195   3.829   1.033  17.476  0.8967 -0.5019 -0.1688
 5187SOL     OW27196   2.385   3.720   1.496 -0.4034 -0.3720 -0.4300
 5187SOL    HW127197   2.442   3.766   1.434  1.0442  0.1539  1.3061
 5187SOL    HW227198   2.340   3.680   1.422  0.6437  0.4023 -1.4877
 5188SOL     OW27199   3.042   4.113   2.024  0.0621 -0.5247 -0.3015
 5188SOL    HW127200   3.022   4.204   2.043  1.3661 -0.4727  0.8851
 5188SOL    HW227201   3.030   4.076   2.112  3.1931  1.7406  1.0884
 5189SOL     OW27202   0.764   1.624   1.702 -0.1170  0.1201  0.4976
 5189SOL    HW127203   0.734   1.648   1.790  2.0655  3.3668  0.3414
 5189SOL    HW227204   0.840   1.680   1.691  0.0368 -0.2788 -0.4547
 5190SOL     OW27205   3.615   2.210  11.585  0.7818  0.2626 -0.1658
 5190SOL    HW127206   3.558   2.284  11.564  1.4152 -0.0061 -2.8632
 5190SOL    HW227207   3.691   2.259  11.616  1.0772  0.0902 -0.6241
 5191SOL     OW27208   2.945   1.996   3.601 -0.3786 -0.0102 -0.4979
 5191SOL    HW127209   2.873   2.018   3.542  0.2369  0.3531 -1.1027
 5191SOL    HW227210   2.953   1.902   3.588 -0.4021  0.2942 -2.6350
 5192SOL     OW27211   1.734   1.443   2.446 -0.3736  0.1521  0.6186
 5192SOL    HW127212   1.728   1.520   2.389  1.8425  0.3541  0.6379
 5192SOL    HW227213   1.648   1.403   2.434  0.0482  0.0625 -2.0907
 5193SOL     OW27214   2.944   0.668   7.918 -0.1462  0.0367  0.0786
 5193SOL    HW127215   2.924   0.607   7.847 -0.2916 -0.9291  0.9556
 5193SOL    HW227216   2.959   0.611   7.993  1.4835 -1.7970 -1.6397
 5194SOL     OW27217   2.135   2.927  13.367 -0.1329 -0.2079 -0.0466
 5194SOL    HW127218   2.045   2.920  13.336 -0.1409  1.1135 -0.3245
 5194SOL    HW227219   2.153   2.838  13.396 -2.3701 -1.0651 -1.3110
 5195SOL     OW27220   3.469   3.381   3.771 -0.3817 -0.1324  0.0838
 5195SOL    HW127221   3.449   3.470   3.800 -0.3120  0.4474 -1.6382
 5195SOL    HW227222   3.535   3.369   3.839  0.6248 -0.0167 -0.8525
 5196SOL     OW27223   0.807   4.245   7.248 -0.0161 -0.0304 -0.5484
 5196SOL    HW127224   0.856   4.208   7.174  0.0137 -2.3939  0.6709
 5196SOL    HW227225   0.748   4.306   7.202  0.1063 -0.6001 -1.4634
 5197SOL     OW27226   1.328   2.983   8.348 -0.1695 -0.3740  0.1999
 5197SOL    HW127227   1.269   3.022   8.284  0.8478  0.5638 -0.1792
 5197SOL    HW227228   1.364   3.063   8.387 -0.1958 -0.4396  0.3596
 5198SOL     OW27229   1.131   0.254   6.783 -0.1854  0.5650  0.2443
 5198SOL    HW127230   1.110   0.160   6.791 -3.2685  1.4960  3.1651
 5198SOL    HW227231   1.156   0.257   6.875 -1.9256 -0.1677  0.7469
 5199SOL     OW27232   1.798   1.955  12.150 -0.0778 -0.5357  0.7240
 5199SOL    HW127233   1.755   1.870  12.160  0.5628 -1.1314 -1.8175
 5199SOL    HW227234   1.739   2.018  12.191  2.2553  1.5103  1.0006
 5200SOL     OW27235   3.411   2.239   2.715 -0.1179 -0.3109  0.4525
 5200SOL    HW127236   3.398   2.289   2.635  0.1549 -1.9025 -0.5930
 5200SOL    HW227237   3.498   2.204   2.697  0.4166  0.4089  1.6191
 5201SOL     OW27238   0.094   2.776  16.603  0.4484 -0.9454  0.1735
 5201SOL    HW127239   0.117   2.869  16.610 -0.0788 -0.7928 -0.0922
 5201SOL    HW227240   0.007   2.768  16.642  0.8190  1.8573  1.6081
 5202SOL     OW27241   4.365   2.055   8.441 -0.3102  0.3466 -0.6473
 5202SOL    HW127242   4.350   1.962   8.456 -1.6733  0.9144  1.4539
 5202SOL    HW227243   4.457   2.059   8.414 -0.5349  0.3999 -1.4086
 5203SOL     OW27244   1.828   0.464   5.089 -0.2800 -0.2432 -0.2530
 5203SOL    HW127245   1.787   0.473   5.175  0.1143  2.1527 -0.3234
 5203SOL    HW227246   1.768   0.400   5.050 -1.7571 -0.2565  2.0262
 5204SOL     OW27247   0.906   0.317   2.826 -0.2649  0.0322 -0.3452
 5204SOL    HW127248   0.969   0.246   2.808  0.7644  1.0144 -0.6059
 5204SOL    HW227249   0.906   0.317   2.922 -1.2214 -0.0340 -0.3449
 5205SOL     OW27250   4.679   1.520   4.944 -0.3010  0.2330 -0.0580
 5205SOL    HW127251   4.586   1.501   4.952  0.0129 -1.3398 -0.0686
 5205SOL    HW227252   4.699   1.578   5.017 -1.7029  1.0200 -0.3020
 5206SOL     OW27253   2.450   3.887  15.888 -0.1992 -0.0334  0.2146
 5206SOL    HW127254   2.459   3.959  15.950 -1.2340 -0.0691  0.4044
 5206SOL    HW227255   2.488   3.813  15.936  0.2927  1.3067  1.8995
 5207SOL     OW27256   0.554   3.335   1.601 -0.5820  0.8602  0.1802
 5207SOL    HW127257   0.582   3.382   1.523 -0.1164  1.7672  0.8996
 5207SOL    HW227258   0.551   3.412   1.656  4.2450  0.3193  1.1934
 5208SOL     OW27259   2.547   0.214   2.324  0.0882 -0.4338 -0.2935
 5208SOL    HW127260   2.463   0.172   2.342 -1.5582  3.0572  0.2884
 5208SOL    HW227261   2.568   0.146   2.260 -0.4736  0.1022 -1.0532
 5209SOL     OW27262   0.215   0.094   1.514  0.2371 -0.7518 -0.2428
 5209SOL    HW127263   0.234   0.123   1.425  1.4725 -0.7627  0.0299
 5209SOL    HW227264   0.230   0.178   1.558  0.9484 -0.2174 -1.5195
 5210SOL     OW27265   2.294   2.019   1.869  0.1253 -0.0487 -0.6700
 5210SOL    HW127266   2.267   1.958   1.800 -0.2284 -2.1950  1.3672
 5210SOL    HW227267   2.367   2.056   1.819 -0.8419  0.6710 -1.5371
 5211SOL     OW27268   2.159   0.097   2.989  0.2412 -0.1994  0.2190
 5211SOL    HW127269   2.127   0.107   3.079 -1.0657 -0.7819 -0.1699
 5211SOL    HW227270   2.163   0.002   2.974  1.6966  0.3051 -2.6007
 5212SOL     OW27271   2.323   0.501   6.869 -0.2471 -0.1609  0.7522
 5212SOL    HW127272   2.397   0.517   6.810 -0.6035 -1.1251  0.0432
 5212SOL    HW227273   2.370   0.473   6.947 -1.1703  1.0129  1.7349
 5213SOL     OW27274   4.578   2.941   2.474  0.1144  0.4849  0.4984
 5213SOL    HW127275   4.653   2.889   2.445 -0.2500  0.2816 -0.0764
 5213SOL    HW227276   4.624   3.024   2.485  1.8151 -0.4058  0.0657
 5214SOL     OW27277   0.168   3.905   1.158  0.2150  0.0362 -0.0319
 5214SOL    HW127278   0.081   3.886   1.122  0.5694  0.1979 -0.9650
 5214SOL    HW227279   0.176   3.836   1.224  0.6117 -1.0952 -1.2686
 5215SOL     OW27280   4.022   0.972  14.067  0.5076 -0.0921  0.5967
 5215SOL    HW127281   3.931   1.001  14.068  0.3714 -0.4228 -1.1864
 5215SOL    HW227282   4.061   1.035  14.006  0.2551  0.8305  1.3929
 5216SOL     OW27283   0.804   0.973   3.412 -0.0175 -0.0882 -0.7962
 5216SOL    HW127284   0.855   0.987   3.492  1.3950  3.0146 -2.2390
 5216SOL    HW227285   0.716   0.978   3.450  0.2502  1.1055 -0.3620
 5217SOL     OW27286   3.984   1.001   1.703 -0.3370 -0.2929 -0.3883
 5217SOL    HW127287   4.010   0.918   1.743  1.3944  0.2474 -0.3639
 5217SOL    HW227288   3.949   1.045   1.780 -1.5931 -0.6497 -0.7660
 5218SOL     OW27289   2.699   4.551   5.913  0.1961 -0.0747  0.0271
 5218SOL    HW127290   2.738   4.636   5.889 -1.7392 -0.3945 -4.2105
 5218SOL    HW227291   2.626   4.556   5.852 -0.4427 -2.7235  0.6015
 5219SOL     OW27292   3.010   1.030   2.473  0.0176 -0.8769 -0.6566
 5219SOL    HW127293   2.985   1.120   2.455 -3.8285 -2.2355 -2.0146
 5219SOL    HW227294   2.945   0.978   2.425  0.1376 -0.8187 -0.8834
 5220SOL     OW27295   0.704   3.923   4.701  0.0446  0.0239  0.0325
 5220SOL    HW127296   0.722   3.865   4.775  0.1650  0.6240  0.4677
 5220SOL    HW227297   0.608   3.926   4.703  0.0239 -0.9862  0.5696
 5221SOL     OW27298   2.326   3.144   4.722  0.5318  0.1063 -0.4121
 5221SOL    HW127299   2.414   3.121   4.693  0.3735 -2.5598  1.2894
 5221SOL    HW227300   2.318   3.105   4.809  0.4155  0.0015 -0.4695
 5222SOL     OW27301   1.948   0.810  17.650 -0.2728  0.1144 -0.0607
 5222SOL    HW127302   1.976   0.869  17.580  0.3938 -0.7845 -0.5555
 5222SOL    HW227303   1.915   0.737  17.597  2.1446 -0.4027 -0.8820
 5223SOL     OW27304   4.648   0.150   5.893 -0.0313 -0.1431  0.3278
 5223SOL    HW127305   4.565   0.148   5.940 -0.1601 -1.9676 -0.0017
 5223SOL    HW227306   4.633   0.089   5.822  0.9287  1.1083 -0.9618
 5224SOL     OW27307   3.675   0.365   3.872  0.3124  0.1092  0.4170
 5224SOL    HW127308   3.608   0.398   3.813  1.5653 -0.1945 -1.1521
 5224SOL    HW227309   3.620   0.296   3.908  1.3133 -0.6907  0.4205
 5225SOL     OW27310   3.824   0.442   5.463 -0.2473 -0.1853  0.7538
 5225SOL    HW127311   3.855   0.521   5.508  0.4839  0.9864 -1.8041
 5225SOL    HW227312   3.828   0.381   5.537 -1.5338  0.5082  1.4136
 5226SOL     OW27313   2.519   1.125   4.620 -0.4687  0.1103  0.3000
 5226SOL    HW127314   2.455   1.057   4.639 -0.3948  0.0559  0.3592
 5226SOL    HW227315   2.490   1.143   4.531  2.1218 -2.2738 -1.0447
 5227SOL     OW27316   2.684   1.481  13.115 -0.5459  0.3534  0.1052
 5227SOL    HW127317   2.591   1.495  13.097 -0.1637  1.0144 -1.3296
 5227SOL    HW227318   2.688   1.530  13.197  0.4372 -0.6036  0.6287
 5228SOL     OW27319   4.164   1.490  17.214 -0.1003 -0.5424 -0.5525
 5228SOL    HW127320   4.149   1.401  17.182 -0.8478 -0.3182 -0.8205
 5228SOL    HW227321   4.073   1.519  17.209 -0.1479 -0.6674 -0.3859
 5229SOL     OW27322   0.893   2.382   7.806  0.0503  0.0004 -0.0306
 5229SOL    HW127323   0.954   2.328   7.754  0.4574  1.5123 -1.1053
 5229SOL    HW227324   0.864   2.313   7.866  2.0101 -1.7388 -1.0507
 5230SOL     OW27325   3.218   0.412   4.561  0.7407  0.3864 -0.3569
 5230SOL    HW127326   3.270   0.429   4.639 -0.6667 -0.2737  0.7201
 5230SOL    HW227327   3.230   0.498   4.521 -0.9588  0.2346 -1.1775
 5231SOL     OW27328   1.311   4.235  13.404  0.1923 -0.0629  0.0634
 5231SOL    HW127329   1.217   4.221  13.419  0.2482 -2.3707 -1.8189
 5231SOL    HW227330   1.308   4.267  13.313  0.5026  0.2740  0.1694
 5232SOL     OW27331   2.528   0.030   6.896  0.5643 -0.0438 -0.1615
 5232SOL    HW127332   2.579   0.051   6.818  0.4076 -0.4284 -0.3673
 5232SOL    HW227333   2.577   0.082   6.959 -1.2522  0.6684  0.6523
 5233SOL     OW27334   2.229   3.376   8.901 -0.7859 -0.4200 -0.1542
 5233SOL    HW127335   2.135   3.391   8.909 -0.5211 -0.0354  2.2976
 5233SOL    HW227336   2.237   3.311   8.971 -1.1370 -1.2598 -0.8940
 5234SOL     OW27337   0.725   2.066  12.479 -0.1424 -0.2491  0.1588
 5234SOL    HW127338   0.760   1.995  12.534 -1.3045  1.1064  2.6438
 5234SOL    HW227339   0.654   2.086  12.540  1.5393 -0.2404  2.1196
 5235SOL     OW27340   3.955   3.142   6.908 -0.3388 -0.4636  0.1730
 5235SOL    HW127341   4.009   3.201   6.855 -1.9021  0.4335 -0.4092
 5235SOL    HW227342   3.878   3.131   6.853  0.1194 -3.7673  0.1420
 5236SOL     OW27343   1.804   2.987   3.037 -0.0334 -0.1251  0.3028
 5236SOL    HW127344   1.736   2.944   2.986  0.7810  0.1849 -1.0399
 5236SOL    HW227345   1.877   2.926   3.022  0.4192  0.1777  1.2515
 5237SOL     OW27346   1.503   1.992  10.583  0.2891 -0.2255 -0.5425
 5237SOL    HW127347   1.461   1.952  10.659  3.0610 -1.4779  0.3641
 5237SOL    HW227348   1.549   2.072  10.609 -0.7155 -0.3280  1.5536
 5238SOL     OW27349   2.661   1.758  17.668 -0.6229 -0.1864 -0.2794
 5238SOL    HW127350   2.595   1.715  17.614 -1.6433  1.3445 -0.2810
 5238SOL    HW227351   2.695   1.676  17.701  2.2820  0.9665 -0.4070
 5239SOL     OW27352   2.682   2.348   6.743  0.5652  0.1543 -0.0001
 5239SOL    HW127353   2.767   2.393   6.746  0.6915  0.0450 -2.6031
 5239SOL    HW227354   2.712   2.258   6.750 -0.0122 -0.2150 -2.5337
 5240SOL     OW27355   4.279   3.738  12.552 -0.5446  0.4383  0.1960
 5240SOL    HW127356   4.338   3.776  12.618  0.6267  1.3591 -1.4045
 5240SOL    HW227357   4.220   3.812  12.563  0.7471  1.4035  0.6591
 5241SOL     OW27358   4.438   0.714   3.431  0.4553 -0.5853  0.0747
 5241SOL    HW127359   4.504   0.669   3.484 -0.2324  0.4007  1.7619
 5241SOL    HW227360   4.364   0.653   3.424  1.0644 -1.3588  0.3325
 5242SOL     OW27361   1.052   3.745   9.175  0.3681 -0.4875  0.4462
 5242SOL    HW127362   0.968   3.726   9.133  0.0527  1.4829  0.1778
 5242SOL    HW227363   1.038   3.826   9.223 -0.2683  1.0049 -2.2453
 5243SOL     OW27364   0.077   2.528   3.180  0.0112  0.2341 -0.8914
 5243SOL    HW127365   0.121   2.610   3.203  0.1740  0.2747 -1.3392
 5243SOL    HW227366   4.730   2.556   3.138 -1.3831 -2.2582  0.1699
 5244SOL     OW27367   2.422   2.738   7.857  0.6624 -0.4279 -0.1760
 5244SOL    HW127368   2.502   2.696   7.889  1.7318 -0.0113 -2.3035
 5244SOL    HW227369   2.453   2.802   7.793  1.5251 -2.1904 -1.5171
 5245SOL     OW27370   4.484   0.517   3.044 -0.1036  0.2268 -0.0594
 5245SOL    HW127371   4.442   0.602   3.037 -0.3974 -0.0620 -1.7961
 5245SOL    HW227372   4.451   0.503   3.133  1.9769  2.4321  1.0753
 5246SOL     OW27373   1.202   1.151   6.322  0.4188 -0.0245  0.5300
 5246SOL    HW127374   1.194   1.149   6.417  1.2342  0.8547  0.6222
 5246SOL    HW227375   1.119   1.107   6.302 -1.2334  1.7207  3.5484
 5247SOL     OW27376   1.035   3.577  14.211 -0.0878  0.2814  0.4908
 5247SOL    HW127377   1.021   3.485  14.188 -0.1227  0.1151  1.1873
 5247SOL    HW227378   0.996   3.577  14.298 -2.7604  2.5084 -0.7320
 5248SOL     OW27379   1.409   2.231   1.516  0.4550  0.1790  0.5985
 5248SOL    HW127380   1.335   2.177   1.488  1.4653 -0.0486 -1.6204
 5248SOL    HW227381   1.480   2.167   1.514  3.0375  2.9959  1.4614
 5249SOL     OW27382   4.530   4.396   2.111 -0.5265 -0.3147 -0.0089
 5249SOL    HW127383   4.576   4.361   2.187  0.3176 -2.6275 -1.5914
 5249SOL    HW227384   4.569   4.483   2.103 -3.4313  1.0528  0.8369
 5250SOL     OW27385   4.387   3.748   6.601 -0.2426 -0.3835 -0.5985
 5250SOL    HW127386   4.443   3.690   6.550  2.0368  0.8251  0.5372
 5250SOL    HW227387   4.422   3.742   6.690 -0.3460 -0.3567 -0.5561
 5251SOL     OW27388   1.966   0.516   2.570 -0.5965 -0.4676 -0.7111
 5251SOL    HW127389   1.897   0.570   2.610 -0.8261 -2.5232  1.6282
 5251SOL    HW227390   2.019   0.589   2.539  0.7961 -0.1260  2.5891
 5252SOL     OW27391   2.508   2.016   9.455 -0.0250 -0.7216 -0.5275
 5252SOL    HW127392   2.598   2.033   9.480  0.7646 -0.5170 -3.4485
 5252SOL    HW227393   2.523   1.944   9.393 -0.4907 -0.7385 -0.6216
 5253SOL     OW27394   1.383   2.401   0.480 -0.3469  0.3711 -0.1807
 5253SOL    HW127395   1.464   2.404   0.530 -0.7638  1.2826  0.4287
 5253SOL    HW227396   1.315   2.432   0.539 -0.9258  0.1968 -0.7491
 5254SOL     OW27397   3.918   2.955   2.205  0.2987 -0.3769  0.3823
 5254SOL    HW127398   3.905   2.880   2.147  1.1961  0.7238 -1.2453
 5254SOL    HW227399   3.889   3.033   2.159  0.3646 -0.5320  0.0827
 5255SOL     OW27400   4.478   0.334   2.809 -0.0603  0.1837 -0.7664
 5255SOL    HW127401   4.382   0.336   2.810 -0.1034 -1.1484 -2.3907
 5255SOL    HW227402   4.485   0.330   2.904 -0.4828 -0.0690 -0.7460
 5256SOL     OW27403   0.623   3.882   6.246  0.1989 -0.8752  0.2912
 5256SOL    HW127404   0.655   3.913   6.331 -4.4776  1.6078  1.1319
 5256SOL    HW227405   0.548   3.825   6.260  0.3333 -0.8863  0.9732
 5257SOL     OW27406   3.867   0.843   7.862  0.3110 -0.3989  0.0524
 5257SOL    HW127407   3.850   0.813   7.952  2.9810  1.8576  1.3221
 5257SOL    HW227408   3.894   0.770   7.806  0.8698  0.1765 -0.4300
 5258SOL     OW27409   1.243   0.446   2.879  0.1741  0.0744  0.2693
 5258SOL    HW127410   1.286   0.500   2.814  2.3466 -0.7390  1.0270
 5258SOL    HW227411   1.278   0.362   2.848  0.7080  0.6562 -0.6945
 5259SOL     OW27412   0.874   1.465   7.471  0.1049 -0.5616  0.3154
 5259SOL    HW127413   0.906   1.429   7.388  1.2583  0.0984  0.4739
 5259SOL    HW227414   0.858   1.382   7.515  2.6484 -1.0941  0.2782
 5260SOL     OW27415   0.740   0.993   8.655 -0.3094  0.1338  0.5832
 5260SOL    HW127416   0.828   0.957   8.644 -0.1899  0.2850  1.0117
 5260SOL    HW227417   0.733   1.057   8.584 -0.4784  1.9463  2.2102
 5261SOL     OW27418   2.111   1.712   9.395 -0.2406 -0.1714  0.1945
 5261SOL    HW127419   2.160   1.774   9.449 -0.4675 -0.5657  0.8534
 5261SOL    HW227420   2.095   1.766   9.317 -1.7635 -0.0959  0.5574
 5262SOL     OW27421   0.765   4.297   4.881 -0.1668  0.1982 -0.5041
 5262SOL    HW127422   0.793   4.353   4.809  1.5396 -0.8626 -0.6862
 5262SOL    HW227423   0.816   4.338   4.950  0.5526  0.1725 -1.0115
 5263SOL     OW27424   1.092   0.695  12.092  0.0942  0.4229 -0.3556
 5263SOL    HW127425   1.002   0.666  12.106  0.3353  0.2911  0.8738
 5263SOL    HW227426   1.134   0.706  12.177 -2.1536 -0.9038  0.8988
 5264SOL     OW27427   2.707   1.050   4.817  0.5002 -0.3934 -0.2882
 5264SOL    HW127428   2.667   1.106   4.883  0.5167 -0.7336  0.0139
 5264SOL    HW227429   2.634   1.050   4.755 -1.4913  1.7732  2.0557
 5265SOL     OW27430   2.300   3.623   9.793  0.3674 -0.1517 -0.3761
 5265SOL    HW127431   2.244   3.573   9.734  3.8247 -2.1569 -1.9778
 5265SOL    HW227432   2.294   3.710   9.755  1.0477  1.5159  3.4503
 5266SOL     OW27433   0.228   3.957   0.180 -0.5931 -0.0742  0.1128
 5266SOL    HW127434   0.183   4.013   0.116  0.8586  0.0956 -0.7558
 5266SOL    HW227435   0.305   3.938   0.127 -0.6211  0.0681  0.0209
 5267SOL     OW27436   1.363   3.987   5.159  0.7877 -0.8206 -0.1914
 5267SOL    HW127437   1.415   3.913   5.191 -1.1173 -0.5990  3.2936
 5267SOL    HW227438   1.378   3.973   5.065 -2.0076 -0.9173 -0.6036
 5268SOL     OW27439   3.474   0.163   0.158 -0.9640 -0.9818 -0.4609
 5268SOL    HW127440   3.464   0.073   0.188 -0.8739 -1.5988 -2.2701
 5268SOL    HW227441   3.500   0.160   0.066  0.3637 -0.9257 -0.0910
 5269SOL     OW27442   0.669   1.432  10.381  0.0520  0.2348  0.4172
 5269SOL    HW127443   0.743   1.457  10.324  1.1874  0.4590  1.9903
 5269SOL    HW227444   0.666   1.504  10.444 -1.1210  0.5387 -0.0002
 5270SOL     OW27445   1.007   2.807  14.816  0.2802 -0.2392  0.5534
 5270SOL    HW127446   0.935   2.869  14.805  1.4598  1.1892  0.9652
 5270SOL    HW227447   1.042   2.829  14.902 -0.8267 -1.2147  1.2520
 5271SOL     OW27448   3.544   2.805   8.401 -0.4806 -1.1191 -0.4201
 5271SOL    HW127449   3.607   2.803   8.473  0.5152  0.0156 -1.2537
 5271SOL    HW227450   3.568   2.884   8.352 -0.9835  1.5442  3.6411
 5272SOL     OW27451   3.689   4.097   9.242  0.1108 -0.1304 -0.0219
 5272SOL    HW127452   3.594   4.092   9.243  0.0976 -0.2053 -2.7850
 5272SOL    HW227453   3.702   4.190   9.220  0.5499  0.2165  1.6753
 5273SOL     OW27454   0.931   2.291   4.737 -0.3718 -0.0505  0.0002
 5273SOL    HW127455   0.866   2.233   4.777  0.6648 -0.5419  1.0031
 5273SOL    HW227456   0.882   2.372   4.725 -1.5458 -0.7657 -0.0309
 5274SOL     OW27457   3.645   2.523   7.662  0.0406 -0.2024 -0.1450
 5274SOL    HW127458   3.633   2.441   7.615 -1.6734  1.0243 -1.8426
 5274SOL    HW227459   3.640   2.499   7.754  0.2056  0.7639  0.1169
 5275SOL     OW27460   1.621   4.336   7.992 -0.1583  0.2457  0.5546
 5275SOL    HW127461   1.650   4.357   8.080 -0.1850 -0.2632  0.6850
 5275SOL    HW227462   1.619   4.420   7.947 -0.6466 -0.9653 -1.6951
 5276SOL     OW27463   4.671   1.179   7.596  0.2752  0.3457  0.1209
 5276SOL    HW127464   0.008   1.146   7.649  1.7914  3.9341  0.3119
 5276SOL    HW227465   4.689   1.272   7.581  0.7923 -0.2666 -2.9180
 5277SOL     OW27466   1.603   3.439  11.316 -0.0463 -0.7896  0.5048
 5277SOL    HW127467   1.625   3.528  11.289  1.0220 -1.5085 -1.0173
 5277SOL    HW227468   1.641   3.427  11.403  0.2693 -1.0154  0.3361
 5278SOL     OW27469   0.071   3.538   1.694 -0.0503 -0.2400  0.4644
 5278SOL    HW127470   0.007   3.577   1.635 -1.0628 -2.5416  0.0187
 5278SOL    HW227471   0.079   3.447   1.664  0.7540  1.5903 -4.9189
 5279SOL     OW27472   2.806   4.132   7.819 -0.4713 -0.0217  0.4577
 5279SOL    HW127473   2.773   4.057   7.768 -0.2898  1.5971 -2.0112
 5279SOL    HW227474   2.898   4.107   7.830 -0.0223  1.5037  0.1514
 5280SOL     OW27475   2.748   3.467  17.208 -0.0703  0.1738 -0.3228
 5280SOL    HW127476   2.715   3.464  17.298  0.2963  1.2067 -0.1580
 5280SOL    HW227477   2.727   3.558  17.183  0.8682  1.0357  2.0653
 5281SOL     OW27478   2.676   3.466   0.209  0.7127  0.2113 -0.1695
 5281SOL    HW127479   2.714   3.551   0.187 -1.7265  1.5669  0.8893
 5281SOL    HW227480   2.717   3.417   0.138 -1.5644  1.4147 -2.3166
 5282SOL     OW27481   2.825   1.361   2.757 -0.3965  0.1205 -0.4739
 5282SOL    HW127482   2.831   1.280   2.807  4.3941  0.4883 -0.4022
 5282SOL    HW227483   2.908   1.351   2.710 -0.9144 -1.3980 -1.0715
 5283SOL     OW27484   1.760   0.719   7.772  0.0243 -0.4478 -0.4162
 5283SOL    HW127485   1.667   0.738   7.766  0.0475 -1.3790 -3.2471
 5283SOL    HW227486   1.762   0.637   7.724  2.5556 -1.1837  0.8969
 5284SOL     OW27487   1.135   3.019   9.276 -0.2660  0.2770 -0.3071
 5284SOL    HW127488   1.087   3.088   9.230 -1.8149  0.0226  0.9017
 5284SOL    HW227489   1.225   3.051   9.281 -0.1513 -0.3605  1.7809
 5285SOL     OW27490   0.101   3.992   8.511  1.1624  0.3370 -0.7901
 5285SOL    HW127491   0.074   4.006   8.601  0.5917  1.0035 -1.0669
 5285SOL    HW227492   0.177   4.050   8.504  0.5788  1.4125  1.9188
 5286SOL     OW27493   2.827   4.621  15.003 -0.1583  0.1848 -0.2399
 5286SOL    HW127494   2.858   4.591  15.089 -0.0721 -1.3153 -0.8044
 5286SOL    HW227495   2.783   4.541  14.976 -1.5586  0.6170  0.7353
 5287SOL     OW27496   2.730   2.766   4.334 -0.0662 -0.0695 -0.2056
 5287SOL    HW127497   2.691   2.838   4.383 -1.3050 -1.4573  0.8260
 5287SOL    HW227498   2.821   2.793   4.341  0.1827 -1.4361  1.6855
 5288SOL     OW27499   4.063   0.017  15.922  0.0673 -0.4858  0.3163
 5288SOL    HW127500   4.080   0.030  16.016  0.1218  3.0460 -0.1912
 5288SOL    HW227501   4.017   0.100  15.907  1.2051  0.2269  0.7290
 5289SOL     OW27502   1.512   0.225  10.541 -0.0821  0.2500  0.0335
 5289SOL    HW127503   1.559   0.159  10.593 -1.3851 -2.1655 -1.8285
 5289SOL    HW227504   1.566   0.222  10.462  1.7854  1.9323  1.2720
 5290SOL     OW27505   0.382   1.568   9.574 -0.2143 -0.0130  0.4674
 5290SOL    HW127506   0.357   1.657   9.599 -0.1774  0.9100 -2.8251
 5290SOL    HW227507   0.349   1.564   9.484  2.0976  1.9595 -0.4661
 5291SOL     OW27508   2.646   4.304   2.896  0.1277 -0.1728 -0.2748
 5291SOL    HW127509   2.635   4.328   2.988  0.1436  0.1133 -0.3464
 5291SOL    HW227510   2.709   4.369   2.863  0.2695 -0.5202 -0.6870
 5292SOL     OW27511   4.155   3.285   4.661  0.2894 -0.5308  0.2975
 5292SOL    HW127512   4.101   3.313   4.588 -0.8741 -2.2341  0.5243
 5292SOL    HW227513   4.224   3.259   4.599  1.5174 -0.3379  1.5745
 5293SOL     OW27514   2.453   3.595   5.523 -0.0511 -0.3358  0.3474
 5293SOL    HW127515   2.514   3.524   5.540 -0.1871 -1.0674 -2.1654
 5293SOL    HW227516   2.471   3.616   5.431  2.4117 -0.4525  0.8054
 5294SOL     OW27517   4.676   3.850   9.142  0.1914  0.2257  0.2426
 5294SOL    HW127518   4.636   3.875   9.059 -0.3831 -3.6964 -0.6735
 5294SOL    HW227519   4.681   3.754   9.136 -0.2180  0.3280 -1.5272
 5295SOL     OW27520   0.997   3.596   8.898  0.8143  0.1172 -0.3499
 5295SOL    HW127521   0.989   3.527   8.963 -1.2445 -0.6872 -1.4550
 5295SOL    HW227522   1.089   3.596   8.873 -0.0459 -1.5347 -3.4354
 5296SOL     OW27523   3.279   3.961   6.933 -0.0502  0.1407  0.4406
 5296SOL    HW127524   3.198   3.918   6.905  1.3957 -1.8195 -0.6789
 5296SOL    HW227525   3.340   3.888   6.938 -0.3500 -0.0746  0.9778
 5297SOL     OW27526   1.960   2.835   5.942 -0.1900 -0.2519  0.6959
 5297SOL    HW127527   1.949   2.787   6.024 -1.4909  0.6066  1.0175
 5297SOL    HW227528   1.999   2.763   5.892 -0.1362  0.2658 -0.0033
 5298SOL     OW27529   0.154   1.335   3.100 -0.4405 -0.0584 -0.2585
 5298SOL    HW127530   0.060   1.331   3.116 -0.7630  0.7805 -1.9287
 5298SOL    HW227531   0.168   1.309   3.009 -2.8507 -1.3319 -0.2535
 5299SOL     OW27532   2.634   0.912   5.721 -0.1605  0.7472  0.2928
 5299SOL    HW127533   2.720   0.914   5.680 -1.0755 -0.7162 -1.6632
 5299SOL    HW227534   2.654   0.863   5.801 -0.2334  1.1198  0.5449
 5300SOL     OW27535   1.834   3.815   0.150  0.5837  0.2589  0.9201
 5300SOL    HW127536   1.799   3.891   0.104  2.1512 -0.2907 -1.1827
 5300SOL    HW227537   1.769   3.751   0.122 -1.7285  2.5750  0.9740
 5301SOL     OW27538   2.407   0.987   0.117  0.2796 -0.3952 -0.4146
 5301SOL    HW127539   2.400   0.938   0.036 -1.4495  1.4371 -1.3623
 5301SOL    HW227540   2.502   0.988   0.134  0.1788 -0.0357  0.1603
 5302SOL     OW27541   2.751   1.556   6.431  0.4241 -0.2894 -0.1757
 5302SOL    HW127542   2.800   1.546   6.513  0.4641 -0.1649 -0.1844
 5302SOL    HW227543   2.688   1.626   6.449  0.9579  0.2490 -0.4261
 5303SOL     OW27544   0.232   4.632  10.656 -0.3804  0.2853  0.8639
 5303SOL    HW127545   0.204   4.718  10.625  1.0501 -0.0080 -1.2792
 5303SOL    HW227546   0.328   4.631  10.659 -0.3117  0.0212 -1.1611
 5304SOL     OW27547   1.443   3.387   0.175 -0.0089 -0.0388  0.2354
 5304SOL    HW127548   1.526   3.379   0.221 -0.5988 -1.5941  1.0577
 5304SOL    HW227549   1.397   3.464   0.207 -0.2778 -0.7317  1.5113
 5305SOL     OW27550   2.450   3.882   2.839 -0.5568 -0.2283 -0.4622
 5305SOL    HW127551   2.504   3.804   2.853  0.2390  0.1682 -1.3146
 5305SOL    HW227552   2.453   3.908   2.747  0.7548 -0.6444 -0.5417
 5306SOL     OW27553   4.598   3.150  12.674  0.3461  0.5516 -0.0502
 5306SOL    HW127554   4.633   3.068  12.640 -0.1475 -0.0596  0.9155
 5306SOL    HW227555   4.632   3.214  12.611  0.5061  2.4364  1.9445
 5307SOL     OW27556   4.402   1.090   6.716 -0.0684  0.2577 -0.2829
 5307SOL    HW127557   4.315   1.088   6.755 -0.5937  2.0727 -1.3150
 5307SOL    HW227558   4.431   1.151   6.783  1.0888 -0.1466 -0.4176
 5308SOL     OW27559   4.153   0.724   4.095 -0.4230  0.2732 -0.1428
 5308SOL    HW127560   4.170   0.769   4.178  0.8616 -0.6958  0.1302
 5308SOL    HW227561   4.205   0.646   4.115  0.8251  0.6814 -1.8278
 5309SOL     OW27562   1.245   2.004   1.450  0.4009 -0.5629 -0.6113
 5309SOL    HW127563   1.159   1.978   1.417 -0.5013 -0.5106  1.7172
 5309SOL    HW227564   1.231   2.024   1.542  0.0948 -0.7123 -0.6277
 5310SOL     OW27565   1.419   3.225   8.942  0.5464 -0.2318  0.0819
 5310SOL    HW127566   1.402   3.257   9.031  3.7415 -0.4115  0.7606
 5310SOL    HW227567   1.466   3.142   8.953  0.2316 -0.3095  0.8339
 5311SOL     OW27568   2.570   0.808   2.404 -0.2806 -0.0736  0.2458
 5311SOL    HW127569   2.529   0.841   2.324 -0.5713  1.1168  0.8768
 5311SOL    HW227570   2.501   0.841   2.463 -1.8982 -0.9512 -1.1829
 5312SOL     OW27571   2.172   1.621   5.621 -0.2097 -0.4470 -0.0207
 5312SOL    HW127572   2.202   1.556   5.558  1.2332 -0.4039  0.6186
 5312SOL    HW227573   2.169   1.578   5.707 -1.6520 -0.3854 -0.0318
 5313SOL     OW27574   0.144   0.659  16.258 -0.1664  0.1101 -0.3390
 5313SOL    HW127575   0.070   0.705  16.220 -0.4123  0.1632  0.1989
 5313SOL    HW227576   0.179   0.723  16.321  2.2352 -1.0445 -0.4897
 5314SOL     OW27577   2.230   3.547  12.407  0.0863  0.3390 -0.4088
 5314SOL    HW127578   2.270   3.587  12.330  0.9000  0.4439  0.0693
 5314SOL    HW227579   2.301   3.524  12.466 -0.1004 -0.0101 -0.3184
 5315SOL     OW27580   1.344   2.777   9.982  0.0152 -0.3551 -0.5624
 5315SOL    HW127581   1.378   2.729  10.058  1.2462 -0.3876 -1.1251
 5315SOL    HW227582   1.266   2.721   9.979 -0.6993  0.3892  3.6336
 5316SOL     OW27583   2.730   2.701  10.080  0.3177 -0.4532 -0.3357
 5316SOL    HW127584   2.703   2.777  10.028 -2.4570 -1.6342 -0.5969
 5316SOL    HW227585   2.657   2.640  10.068 -0.2067  0.0362  0.4261
 5317SOL     OW27586   0.979   1.273   7.937  0.4640  0.7761  0.1619
 5317SOL    HW127587   0.931   1.352   7.963  0.2154  1.3122 -1.9482
 5317SOL    HW227588   1.066   1.310   7.923  1.3008 -2.0149 -2.0694
 5318SOL     OW27589   0.139   2.123   2.359  0.5987 -0.7052 -0.4168
 5318SOL    HW127590   0.065   2.066   2.337  1.2272 -0.7362 -2.3838
 5318SOL    HW227591   0.090   2.206   2.365 -0.7471 -1.3535 -2.4389
 5319SOL     OW27592   0.963   0.284   5.112  0.1530 -0.6230 -0.2020
 5319SOL    HW127593   1.025   0.247   5.049 -0.1431  0.0957 -0.9126
 5319SOL    HW227594   1.016   0.351   5.156 -2.3687  0.9850  0.3596
 5320SOL     OW27595   3.508   1.822   2.390  0.2736  0.3450  0.4025
 5320SOL    HW127596   3.577   1.869   2.345  0.6745 -1.0104 -0.3972
 5320SOL    HW227597   3.448   1.801   2.318  3.3735 -2.5444 -1.3228
 5321SOL     OW27598   1.321   4.541   7.929 -0.1967 -0.1153  0.0714
 5321SOL    HW127599   1.328   4.449   7.953 -3.6465 -0.7709 -1.4434
 5321SOL    HW227600   1.250   4.545   7.864 -1.0333 -1.0072  0.9349
 5322SOL     OW27601   0.987   4.402  10.109  0.1562  0.0427 -0.0998
 5322SOL    HW127602   1.037   4.451  10.045  0.4124  1.6308  1.3202
 5322SOL    HW227603   1.065   4.351  10.132  0.8513  1.4976  0.7476
 5323SOL     OW27604   4.129   1.906   6.905 -0.7478 -0.4130  0.2086
 5323SOL    HW127605   4.151   1.979   6.848 -0.6692  0.2206  1.0559
 5323SOL    HW227606   4.073   1.955   6.964 -0.0249  1.8030 -0.9512
 5324SOL     OW27607   0.103   2.482   3.468  0.0789  0.2790 -0.2626
 5324SOL    HW127608   0.093   2.500   3.374  1.5988  0.0738 -0.4692
 5324SOL    HW227609   0.094   2.387   3.472 -0.4501  0.2687 -1.6393
 5325SOL     OW27610   1.092   1.280   8.269  0.3500  0.3727  0.0782
 5325SOL    HW127611   1.056   1.362   8.235 -1.2608 -0.5198 -0.3207
 5325SOL    HW227612   1.142   1.246   8.195 -0.7610  0.0456 -0.5069
 5326SOL     OW27613   0.730   3.025   3.345  0.0477 -0.2641 -0.6414
 5326SOL    HW127614   0.760   3.116   3.339  0.6509 -0.2267  2.8583
 5326SOL    HW227615   0.798   2.989   3.287  0.0958 -1.8399  0.4013
 5327SOL     OW27616   0.864   2.119   2.559  0.4165  0.2053 -0.5486
 5327SOL    HW127617   0.829   2.133   2.647  0.8060 -2.7578  0.0566
 5327SOL    HW227618   0.958   2.126   2.577  0.7327  0.1529 -2.1558
 5328SOL     OW27619   3.590   0.444  15.908 -0.1508  0.2440 -0.1536
 5328SOL    HW127620   3.631   0.367  15.948  0.6340 -0.1054 -1.6500
 5328SOL    HW227621   3.515   0.396  15.873  1.3436 -1.9237 -0.3628
 5329SOL     OW27622   0.713   2.669   4.474  0.1759  0.2459  0.2100
 5329SOL    HW127623   0.620   2.651   4.488  0.3339 -1.8551 -1.5131
 5329SOL    HW227624   0.730   2.749   4.523  1.3054 -0.5505  1.1290
 5330SOL     OW27625   0.064   0.765   7.177 -0.1054  0.5239  0.1333
 5330SOL    HW127626   0.069   0.814   7.259 -0.2586 -1.5828  1.3929
 5330SOL    HW227627   0.096   0.830   7.114  0.5020  1.1423  1.0646
 5331SOL     OW27628   4.023   3.866   3.064  0.1422 -0.2152  0.3423
 5331SOL    HW127629   3.940   3.871   3.017  0.2624  0.2439  0.1797
 5331SOL    HW227630   4.017   3.771   3.071  2.8742 -0.4122  0.3082
 5332SOL     OW27631   1.017   2.983   6.731 -0.0681  0.4890  0.1873
 5332SOL    HW127632   1.033   2.916   6.797 -0.6852 -1.5285 -1.7354
 5332SOL    HW227633   0.939   2.942   6.694  0.7824  0.5714 -1.7021
 5333SOL     OW27634   4.678   2.038   3.971  0.3981  0.0821  0.1695
 5333SOL    HW127635   4.687   1.947   3.999  2.9360  0.7677  1.5809
 5333SOL    HW227636   4.591   2.046   4.010  0.2336 -2.8029  0.4287
 5334SOL     OW27637   0.450   2.425   8.095 -0.1564 -0.1049  0.1571
 5334SOL    HW127638   0.378   2.486   8.087 -0.3643 -0.5130 -1.1486
 5334SOL    HW227639   0.496   2.427   8.011 -0.2487  3.0268  0.1906
 5335SOL     OW27640   2.808   1.491  15.999  0.3491 -0.1622  0.1403
 5335SOL    HW127641   2.830   1.508  16.091 -0.5857 -0.2794  0.3922
 5335SOL    HW227642   2.874   1.547  15.959  0.6437 -0.2397  0.5190
 5336SOL     OW27643   1.237   0.747  10.960 -0.0011  0.4839 -0.2709
 5336SOL    HW127644   1.271   0.828  10.998 -2.3077  0.9225  0.8871
 5336SOL    HW227645   1.159   0.724  11.010  0.9750  0.2834  1.1974
 5337SOL     OW27646   4.227   3.282   7.041 -0.1102 -0.3105 -0.7467
 5337SOL    HW127647   4.271   3.293   6.957 -1.1945  0.1250 -1.2639
 5337SOL    HW227648   4.286   3.217   7.078 -0.4688 -0.3483 -0.2383
 5338SOL     OW27649   2.760   1.511   5.714 -0.4078 -0.0106 -0.3157
 5338SOL    HW127650   2.771   1.605   5.726 -0.0232 -0.2148  0.9633
 5338SOL    HW227651   2.715   1.479   5.792  3.0117  1.5035  2.3111
 5339SOL     OW27652   3.948   0.506   0.058 -0.1569 -0.0725  0.3579
 5339SOL    HW127653   3.897   0.582   0.085 -0.2129  1.2358 -3.4343
 5339SOL    HW227654   3.889   0.438   0.090  0.4316 -0.6599  0.2037
 5340SOL     OW27655   2.483   0.846   3.840 -0.1862 -0.2400  0.1879
 5340SOL    HW127656   2.483   0.765   3.788  2.5101 -0.7265  0.9882
 5340SOL    HW227657   2.396   0.876   3.811 -0.3166 -2.0858 -1.3446
 5341SOL     OW27658   3.999   0.195   9.140 -0.0192  0.7644  0.2535
 5341SOL    HW127659   4.028   0.118   9.091  1.2335  0.4374  1.5042
 5341SOL    HW227660   3.908   0.204   9.113 -0.4623 -0.7618  1.2179
 5342SOL     OW27661   1.573   2.105  12.241  0.9980 -0.0473  0.5893
 5342SOL    HW127662   1.488   2.087  12.201 -0.1606  0.1738  2.9890
 5342SOL    HW227663   1.545   2.135  12.327 -0.8212  0.5296 -0.2009
 5343SOL     OW27664   0.274   1.247   8.538  0.0596 -0.0839  0.3095
 5343SOL    HW127665   0.203   1.237   8.601  0.0218  0.5692  0.3722
 5343SOL    HW227666   0.296   1.338   8.559 -1.0603  0.7175 -1.8744
 5344SOL     OW27667   2.121   0.838   9.864 -0.2084 -0.0062 -0.5159
 5344SOL    HW127668   2.185   0.906   9.843  0.4356 -0.9915 -1.7307
 5344SOL    HW227669   2.164   0.788   9.933  1.2190  1.5157 -0.2827
 5345SOL     OW27670   2.369   1.954   5.421 -0.1447  0.7350  0.1057
 5345SOL    HW127671   2.327   1.936   5.505  1.6734  2.0282  1.2702
 5345SOL    HW227672   2.342   2.040   5.389 -5.1913 -1.3803 -1.3279
 5346SOL     OW27673   3.847   0.772   5.984  0.1714 -0.3910 -0.0511
 5346SOL    HW127674   3.776   0.726   6.029  3.0302 -0.8251  3.9761
 5346SOL    HW227675   3.856   0.699   5.922  0.8053 -0.7363  0.4452
 5347SOL     OW27676   2.494   2.975   8.358  0.1049  0.2642 -0.3522
 5347SOL    HW127677   2.589   2.982   8.368  0.2680 -0.2106 -1.5634
 5347SOL    HW227678   2.495   2.899   8.299 -0.1099 -1.3283  1.7143
 5348SOL     OW27679   3.495   2.219   5.563  0.3535 -0.2842 -0.0472
 5348SOL    HW127680   3.585   2.203   5.534  1.2551  0.7757  2.1817
 5348SOL    HW227681   3.504   2.200   5.656 -0.6657  0.7820  0.2704
 5349SOL     OW27682   1.222   4.354   2.171 -0.2349 -0.4109  0.6074
 5349SOL    HW127683   1.153   4.408   2.210 -0.8834 -0.6446 -0.2237
 5349SOL    HW227684   1.211   4.379   2.080 -2.9530 -2.1903  0.4531
 5350SOL     OW27685   0.105   3.619   0.781  0.7221 -0.7928  0.1773
 5350SOL    HW127686   0.118   3.619   0.686 -0.0721 -1.5155  0.0749
 5350SOL    HW227687   0.102   3.524   0.795 -1.4820 -0.6545  0.6380
 5351SOL     OW27688   2.720   3.103   3.403 -0.1481 -0.5337 -0.4305
 5351SOL    HW127689   2.812   3.092   3.427 -0.4454  1.2957  1.5571
 5351SOL    HW227690   2.673   3.123   3.485 -0.7926 -0.3650 -0.8352
 5352SOL     OW27691   1.381   1.108  11.808 -0.7084  0.2760 -0.2545
 5352SOL    HW127692   1.458   1.054  11.791 -0.4633  0.3206  0.6830
 5352SOL    HW227693   1.357   1.081  11.897 -1.5481 -0.0530 -0.5808
 5353SOL     OW27694   2.625   1.179  13.595 -0.1623  0.5447 -0.1556
 5353SOL    HW127695   2.659   1.230  13.521 -0.9279  0.4094 -0.5965
 5353SOL    HW227696   2.542   1.223  13.611 -0.3643 -0.4900  1.6258
 5354SOL     OW27697   4.012   3.800   7.473 -0.2891 -0.3612 -0.3246
 5354SOL    HW127698   3.958   3.748   7.414  0.8396 -1.3470 -0.5054
 5354SOL    HW227699   4.029   3.879   7.422  0.5298  0.6161  1.4932
 5355SOL     OW27700   4.150   1.968   4.358 -0.2514  0.1900  0.2569
 5355SOL    HW127701   4.075   1.912   4.380  1.1684 -2.4627 -1.6390
 5355SOL    HW227702   4.223   1.915   4.391 -0.0514  0.0790 -0.3810
 5356SOL     OW27703   1.309   3.619   4.495  0.1817  0.0192 -0.0034
 5356SOL    HW127704   1.376   3.680   4.466  0.8019 -0.7055 -0.0908
 5356SOL    HW227705   1.225   3.660   4.472 -0.9464 -1.9918  0.4985
 5357SOL     OW27706   2.173   0.517   2.202 -0.2703 -0.2532 -0.2858
 5357SOL    HW127707   2.204   0.482   2.285  2.0687  2.1377 -0.1676
 5357SOL    HW227708   2.113   0.447   2.177  1.2884 -2.0622  1.0066
 5358SOL     OW27709   2.844   2.998  11.625  0.6010 -0.0745 -0.0517
 5358SOL    HW127710   2.907   3.030  11.560  2.1385  1.5447  2.2042
 5358SOL    HW227711   2.853   2.903  11.616 -3.1586 -0.4022 -0.3634
 5359SOL     OW27712   0.981   0.953   5.062  0.5655  0.5939 -0.1179
 5359SOL    HW127713   0.930   0.972   5.141 -1.9169  1.4106 -1.9195
 5359SOL    HW227714   1.044   0.891   5.100  0.6593  0.5146 -0.4000
 5360SOL     OW27715   2.228   4.672   9.982 -0.1164  0.0629  0.6923
 5360SOL    HW127716   2.271   0.003   9.928 -0.7780 -0.3321 -0.3080
 5360SOL    HW227717   2.176   4.730  10.038 -0.9886 -2.3078  2.3665
 5361SOL     OW27718   3.843   1.155   3.315 -0.1535  0.1328 -0.1620
 5361SOL    HW127719   3.803   1.204   3.243 -0.9362 -1.8838 -1.0881
 5361SOL    HW227720   3.862   1.226   3.378 -2.4176  1.5862 -1.1075
 5362SOL     OW27721   1.297   4.141   4.695 -0.1805  0.1945  0.5001
 5362SOL    HW127722   1.313   4.077   4.626 -0.8888  3.8321 -3.0710
 5362SOL    HW227723   1.211   4.175   4.667  0.8241  0.2965 -2.4766
 5363SOL     OW27724   2.690   1.745   1.812  0.1088  0.0645 -0.6538
 5363SOL    HW127725   2.680   1.670   1.871  1.1106  1.4509  1.2790
 5363SOL    HW227726   2.601   1.748   1.776 -0.2625 -1.8358  0.0841
 5364SOL     OW27727   2.529   4.598   3.214  0.7678 -0.5128 -0.4171
 5364SOL    HW127728   2.495   4.632   3.131 -2.9068  0.8759  1.6653
 5364SOL    HW227729   2.464   4.628   3.277  0.2975 -0.7458 -0.7917
 5365SOL     OW27730   0.716   1.870   7.607 -0.0619 -0.0258 -0.4375
 5365SOL    HW127731   0.793   1.884   7.553  1.9733 -1.4140  2.0964
 5365SOL    HW227732   0.649   1.920   7.560  1.7193  2.8497  0.1009
 5366SOL     OW27733   0.706   2.144   3.755 -0.1785 -0.3242 -0.0662
 5366SOL    HW127734   0.684   2.176   3.668  0.6120  0.3111 -0.0346
 5366SOL    HW227735   0.722   2.228   3.798 -2.6938  0.6856 -1.0845
 5367SOL     OW27736   3.279   0.270  10.578  0.0557  0.8168  0.2595
 5367SOL    HW127737   3.253   0.241  10.665  0.4838 -0.0657  0.0959
 5367SOL    HW227738   3.196   0.262  10.532  1.0351 -0.6082 -1.2925
 5368SOL     OW27739   3.483   3.103   3.075 -0.0865  0.4781  0.1534
 5368SOL    HW127740   3.518   3.086   2.987 -0.1322  1.3551 -0.0337
 5368SOL    HW227741   3.545   3.050   3.125  0.2512  0.9174  0.1996
 5369SOL     OW27742   3.601   4.699   6.436 -0.0258  0.0798  0.0871
 5369SOL    HW127743   3.572   4.612   6.462 -0.0834  0.2130  0.4565
 5369SOL    HW227744   3.687   4.680   6.398  1.3357  0.6322  2.9036
 5370SOL     OW27745   3.859   2.301   5.946 -0.6327  0.1649  0.0886
 5370SOL    HW127746   3.949   2.311   5.977 -1.1289  0.9911  1.2826
 5370SOL    HW227747   3.831   2.391   5.931 -0.1627  0.5183  1.3176
 5371SOL     OW27748   2.502   1.838  14.101 -0.0950 -0.3573 -0.6432
 5371SOL    HW127749   2.542   1.888  14.172 -0.5209 -1.4800  0.4098
 5371SOL    HW227750   2.541   1.865  14.019  1.3210 -2.6310 -0.7301
 5372SOL     OW27751   0.708   3.003   7.037 -0.3222 -0.2056  0.3032
 5372SOL    HW127752   0.647   3.008   6.964  0.8355  3.3116 -0.4083
 5372SOL    HW227753   0.712   3.093   7.070  0.0280 -0.5000  1.0684
 5373SOL     OW27754   1.675   3.805   6.336  0.5081  0.3826  0.0434
 5373SOL    HW127755   1.715   3.764   6.260 -1.7180  1.4368 -1.6803
 5373SOL    HW227756   1.611   3.859   6.290 -0.4405 -0.3667  0.4776
 5374SOL     OW27757   1.404   2.079   6.078 -0.3153  0.3312 -0.5806
 5374SOL    HW127758   1.348   2.002   6.065  1.6393 -1.0213 -0.9876
 5374SOL    HW227759   1.338   2.142   6.108 -0.8440 -0.8407  0.7011
 5375SOL     OW27760   1.738   1.860   1.227  0.4195  0.2407 -0.4265
 5375SOL    HW127761   1.663   1.825   1.178 -0.3692  0.7675  0.3903
 5375SOL    HW227762   1.779   1.898   1.149  0.1585  0.0694 -0.6475
 5376SOL     OW27763   1.474   2.533   8.094  0.0015  0.2091  0.4870
 5376SOL    HW127764   1.399   2.591   8.106 -1.2611 -0.7358 -2.5475
 5376SOL    HW227765   1.546   2.575   8.139  1.5965 -2.5127  0.4616
 5377SOL     OW27766   2.684   3.724   5.915 -0.0167  0.1885 -0.3247
 5377SOL    HW127767   2.621   3.703   5.847  0.2538  1.9193 -1.1023
 5377SOL    HW227768   2.645   3.700   5.999  2.9326  1.4976  1.4499
 5378SOL     OW27769   0.542   4.226   1.393 -0.0878 -0.1841 -0.3062
 5378SOL    HW127770   0.535   4.139   1.430  1.7139 -0.1692  0.0621
 5378SOL    HW227771   0.476   4.218   1.324  1.3378  3.2281 -2.1083
 5379SOL     OW27772   3.273   0.634   6.650 -0.6433  0.4821  0.1329
 5379SOL    HW127773   3.189   0.595   6.675 -0.3547 -1.6799 -2.2288
 5379SOL    HW227774   3.250   0.727   6.647  1.1122  0.8979 -0.2754
 5380SOL     OW27775   1.161   1.424   6.247  0.1827 -0.0954  0.0461
 5380SOL    HW127776   1.194   1.416   6.336 -1.3569 -3.1116  0.3404
 5380SOL    HW227777   1.163   1.333   6.218 -0.4059 -0.8154  2.2426
 5381SOL     OW27778   4.346   1.949  10.718 -0.0033  0.1168  0.2566
 5381SOL    HW127779   4.435   1.962  10.752 -0.4336  0.9456  1.0758
 5381SOL    HW227780   4.320   2.037  10.692 -0.1457 -0.2093 -0.6952
 5382SOL     OW27781   1.243   2.019   3.338  0.1078 -0.2180 -0.3188
 5382SOL    HW127782   1.256   2.104   3.297 -2.4648 -0.4059 -1.5393
 5382SOL    HW227783   1.288   1.964   3.274  1.4469  0.8050 -0.2468
 5383SOL     OW27784   4.383   1.137   8.156 -0.8657 -0.3215  0.2953
 5383SOL    HW127785   4.369   1.231   8.144 -0.3545 -0.1390  1.1055
 5383SOL    HW227786   4.299   1.110   8.194 -0.4439  0.7996  2.0649
 5384SOL     OW27787   1.182   2.756  16.765  0.2061  0.5024 -0.5790
 5384SOL    HW127788   1.222   2.727  16.683 -0.1388 -2.2726  0.2264
 5384SOL    HW227789   1.143   2.841  16.745 -1.1407  0.0376  0.0680
 5385SOL     OW27790   4.389   4.509  11.100 -0.1548  0.5210  0.4183
 5385SOL    HW127791   4.433   4.493  11.184 -1.9490  0.5907  1.3631
 5385SOL    HW227792   4.464   4.543  11.051 -0.2924  0.6511  0.3009
 5386SOL     OW27793   3.716   1.755  16.951 -0.1689 -0.5442 -0.0280
 5386SOL    HW127794   3.706   1.725  16.861  1.1787 -2.8666  0.6034
 5386SOL    HW227795   3.807   1.785  16.950 -0.8373  1.5103 -0.4154
 5387SOL     OW27796   0.462   3.018   9.102  0.0988 -0.1921 -1.0574
 5387SOL    HW127797   0.425   3.087   9.156  2.1166 -0.9297  1.2692
 5387SOL    HW227798   0.386   3.006   9.045 -0.6477  0.9298 -0.2713
 5388SOL     OW27799   2.231   1.928   8.692  0.2540 -0.0880  0.6000
 5388SOL    HW127800   2.274   1.946   8.776  1.0232  0.5035  0.0770
 5388SOL    HW227801   2.165   1.997   8.703 -0.6046 -1.0587  1.5237
 5389SOL     OW27802   4.187   2.134   4.156 -0.3697  0.0078 -0.6111
 5389SOL    HW127803   4.188   2.097   4.244  2.6797 -1.1396 -1.1153
 5389SOL    HW227804   4.094   2.148   4.142 -0.2607  1.7061  0.3022
 5390SOL     OW27805   2.495   4.144   7.644 -0.5337  0.3631 -0.1773
 5390SOL    HW127806   2.513   4.064   7.694 -0.7059 -0.4565 -1.4197
 5390SOL    HW227807   2.424   4.111   7.587  0.3000  0.3185 -1.1945
 5391SOL     OW27808   0.847   2.921   3.131 -0.5090 -0.5821  0.4943
 5391SOL    HW127809   0.759   2.885   3.115  0.1034 -1.8406 -0.0069
 5391SOL    HW227810   0.868   2.973   3.053 -0.2113 -1.3894  0.0390
 5392SOL     OW27811   3.213   4.494   5.582  0.1500 -0.2767 -0.3767
 5392SOL    HW127812   3.224   4.553   5.507 -3.2772  1.2351  0.2882
 5392SOL    HW227813   3.305   4.490   5.605 -0.9221 -2.0703  3.6304
 5393SOL     OW27814   0.148   2.458   1.630  0.3685 -0.1685  0.1015
 5393SOL    HW127815   0.231   2.492   1.663 -0.0208 -0.9122  1.9024
 5393SOL    HW227816   0.155   2.364   1.648  0.3903  0.1485  1.7600
 5394SOL     OW27817   2.798   3.633   6.521 -0.3655  0.4949  0.2790
 5394SOL    HW127818   2.861   3.661   6.454 -0.7954  3.1838  0.9982
 5394SOL    HW227819   2.858   3.579   6.573  1.4040  3.0391  0.9083
 5395SOL     OW27820   4.350   2.862   8.277  0.2481  0.3629  0.0759
 5395SOL    HW127821   4.321   2.784   8.230 -1.8803  0.4629  1.2198
 5395SOL    HW227822   4.342   2.828   8.366  0.5440  0.1078  0.0033
 5396SOL     OW27823   0.515   3.799   1.970 -0.4102 -0.0317  0.1181
 5396SOL    HW127824   0.457   3.791   2.046  1.5002  0.9287  1.6661
 5396SOL    HW227825   0.465   3.752   1.904 -0.2143  0.2419 -0.2213
 5397SOL     OW27826   4.492   1.747  14.203 -0.1119 -0.0489  0.0178
 5397SOL    HW127827   4.523   1.835  14.225  1.1432  0.4034 -3.6008
 5397SOL    HW227828   4.520   1.701  14.281 -2.8905 -2.3430 -0.3194
 5398SOL     OW27829   2.622   0.727   4.675 -0.6709  0.3582 -0.5274
 5398SOL    HW127830   2.595   0.697   4.761  0.0271 -1.0801 -0.8206
 5398SOL    HW227831   2.662   0.646   4.645  0.7728  0.4011  1.3169
 5399SOL     OW27832   3.512   4.554   3.687 -0.2705 -0.2370  0.4351
 5399SOL    HW127833   3.460   4.482   3.724 -1.6210 -0.8037 -2.5350
 5399SOL    HW227834   3.539   4.519   3.602  0.0824  0.6672  0.1725
 5400SOL     OW27835   4.447   1.098   6.196  0.5931  0.2187 -0.2187
 5400SOL    HW127836   4.412   1.176   6.239  2.8330  0.2363  1.5466
 5400SOL    HW227837   4.475   1.045   6.270 -1.5281  1.9307  1.8223
 5401SOL     OW27838   3.382   3.756   9.038  0.8817 -0.3784 -0.5669
 5401SOL    HW127839   3.377   3.661   9.029 -1.6189 -0.1553 -1.5823
 5401SOL    HW227840   3.391   3.776   8.945  0.2031  1.5498 -0.2309
 5402SOL     OW27841   0.061   0.842   3.471  0.2768 -0.1843  0.3580
 5402SOL    HW127842   0.086   0.750   3.461 -0.1480 -0.1720 -0.8262
 5402SOL    HW227843   0.044   0.859   3.378  0.3622 -0.1779  0.3434
 5403SOL     OW27844   3.338   4.365   4.215 -0.0961 -0.2958 -0.8735
 5403SOL    HW127845   3.429   4.380   4.190 -0.4078  1.6792 -0.8127
 5403SOL    HW227846   3.344   4.321   4.300 -0.7544  0.2890 -0.5303
 5404SOL     OW27847   0.101   1.109  16.530  0.2510  0.0235 -0.1595
 5404SOL    HW127848   0.125   1.017  16.547 -1.8349 -0.7567 -1.3518
 5404SOL    HW227849   0.123   1.109  16.437  1.3099 -1.5797  0.0807
 5405SOL     OW27850   0.591   4.685  16.717  0.0042 -0.1006 -0.1165
 5405SOL    HW127851   0.661   4.690  16.652 -0.9370 -0.6205 -1.1871
 5405SOL    HW227852   0.619   0.020  16.776 -0.0953  0.0609 -0.2592
 5406SOL     OW27853   3.729   0.453   7.030 -0.1445 -0.5517  0.1482
 5406SOL    HW127854   3.716   0.369   6.986 -0.5383 -0.1122 -0.5779
 5406SOL    HW227855   3.718   0.500   6.948  2.6057  0.3030  0.2872
 5407SOL     OW27856   3.509   0.392   4.382  0.2202 -0.6381  0.6228
 5407SOL    HW127857   3.494   0.486   4.391 -0.7739 -0.9582  2.3468
 5407SOL    HW227858   3.584   0.387   4.441 -0.0760  3.6904  1.3737
 5408SOL     OW27859   0.619   1.922   3.831 -0.4070 -0.0602  0.2891
 5408SOL    HW127860   0.634   1.879   3.747  0.0547 -1.2404  0.9766
 5408SOL    HW227861   0.675   1.997   3.808 -0.9082 -0.1010 -1.0725
 5409SOL     OW27862   0.456   0.033   4.608 -0.7330 -0.1362  0.1172
 5409SOL    HW127863   0.388   0.064   4.667 -0.9797 -0.5287  0.0448
 5409SOL    HW227864   0.424   0.063   4.523  3.8693  0.3754 -1.4767
 5410SOL     OW27865   2.616   3.843  12.107 -0.6025 -0.6589 -0.5845
 5410SOL    HW127866   2.593   3.886  12.189  0.1459 -0.0593 -0.6913
 5410SOL    HW227867   2.595   3.752  12.128 -1.7714 -0.2775 -0.1410
 5411SOL     OW27868   2.731   3.061   5.438  0.0741  0.4267  0.0111
 5411SOL    HW127869   2.817   3.054   5.397 -0.5149 -0.5509 -1.0563
 5411SOL    HW227870   2.752   2.982   5.488 -0.5391  1.3096  1.6847
 5412SOL     OW27871   0.638   4.613   2.395  0.7606 -0.2405  0.1060
 5412SOL    HW127872   0.650   4.527   2.435  0.1863 -0.1501  0.4733
 5412SOL    HW227873   0.589   4.651   2.468 -0.4717 -1.3652 -0.1206
 5413SOL     OW27874   0.212   2.252   9.712 -0.0579  0.2460  0.1261
 5413SOL    HW127875   0.132   2.205   9.738 -1.0415  2.0676  0.4166
 5413SOL    HW227876   0.257   2.169   9.702 -1.2691 -0.6557  2.0160
 5414SOL     OW27877   3.872   0.819   9.700 -0.3742 -0.5483  0.2450
 5414SOL    HW127878   3.888   0.892   9.641 -2.0284  0.6800  1.3103
 5414SOL    HW227879   3.879   0.856   9.788  2.2589 -0.4416 -0.0074
 5415SOL     OW27880   3.674   2.099   0.035  0.1738 -0.1706  0.5309
 5415SOL    HW127881   3.620   2.178   0.025 -0.8780 -0.9804 -0.0993
 5415SOL    HW227882   3.703   2.121   0.124  0.8095 -0.9309  0.5112
 5416SOL     OW27883   0.834   0.860  13.068  0.1337 -0.7758  0.2966
 5416SOL    HW127884   0.785   0.783  13.097 -0.9376  0.0527  0.7028
 5416SOL    HW227885   0.842   0.850  12.974  0.1992 -0.1519  0.2345
 5417SOL     OW27886   2.465   2.186   5.121 -0.3523  0.3043  0.3537
 5417SOL    HW127887   2.471   2.091   5.125 -0.6231  0.3221  1.3132
 5417SOL    HW227888   2.406   2.194   5.047  0.6059 -0.8214 -0.5255
 5418SOL     OW27889   2.132   3.819   8.701 -0.0761 -0.6730  0.9165
 5418SOL    HW127890   2.122   3.855   8.612  0.9739  0.2996  1.1892
 5418SOL    HW227891   2.100   3.895   8.750 -0.2914 -0.5171  0.5341
 5419SOL     OW27892   0.779   3.859   2.685 -0.1755  0.1961 -0.1601
 5419SOL    HW127893   0.867   3.824   2.701  0.4662  1.8446 -0.1446
 5419SOL    HW227894   0.769   3.844   2.591 -4.2093 -0.5631  0.4250
 5420SOL     OW27895   3.986   0.138   4.911  0.1789  0.5640 -0.5128
 5420SOL    HW127896   3.987   0.225   4.950 -1.1628  1.6670 -2.9171
 5420SOL    HW227897   4.081   0.135   4.903  0.1547 -2.6984  0.2568
 5421SOL     OW27898   4.581   3.626   1.565  0.0887  0.2984 -0.6144
 5421SOL    HW127899   4.555   3.576   1.487 -0.3238 -1.6442  0.7736
 5421SOL    HW227900   4.508   3.685   1.583  0.2923  0.2977  0.2127
 5422SOL     OW27901   2.893   0.859   3.129 -0.3149 -0.3236  1.0571
 5422SOL    HW127902   2.807   0.901   3.140 -0.5670 -0.2216 -1.4167
 5422SOL    HW227903   2.911   0.841   3.221  2.5696 -1.1298  0.3364
 5423SOL     OW27904   1.218   3.259   6.176 -0.0792 -0.1166 -0.4576
 5423SOL    HW127905   1.220   3.305   6.260  1.0078 -0.1603 -0.4548
 5423SOL    HW227906   1.305   3.283   6.145  0.3827  1.4871  2.0806
 5424SOL     OW27907   0.098   0.657   1.038 -0.6535  0.5692  0.5816
 5424SOL    HW127908   0.150   0.588   0.996  0.3424  1.8261 -0.2292
 5424SOL    HW227909   0.075   0.710   0.962  0.6252 -0.6775 -0.6782
 5425SOL     OW27910   4.472   0.517   5.766  0.3611 -0.1905 -0.1998
 5425SOL    HW127911   4.445   0.578   5.834  3.6362  0.5154  0.4324
 5425SOL    HW227912   4.551   0.477   5.802 -0.1940  0.5486  1.8455
 5426SOL     OW27913   2.354   4.488   5.498  0.3825 -0.1178 -0.5869
 5426SOL    HW127914   2.405   4.506   5.577 -0.0702  1.2640 -0.6184
 5426SOL    HW227915   2.417   4.420   5.476  1.0831  0.9588 -1.8940
 5427SOL     OW27916   0.607   3.892  11.013 -0.6420 -0.4753  0.1867
 5427SOL    HW127917   0.642   3.953  11.078  1.1131  1.4210 -2.5438
 5427SOL    HW227918   0.570   3.824  11.070  0.0634  0.2504  1.5056
 5428SOL     OW27919   4.564   1.494   8.219 -0.5330  0.0177 -0.1370
 5428SOL    HW127920   4.554   1.506   8.313 -0.7410 -1.3897  0.0121
 5428SOL    HW227921   4.645   1.536   8.190  1.1902 -1.8931  1.9336
 5429SOL     OW27922   0.800   2.861   8.235 -0.0456 -0.2585  0.2031
 5429SOL    HW127923   0.806   2.830   8.145 -0.8596  1.8775 -0.6042
 5429SOL    HW227924   0.718   2.819   8.258 -0.2097  0.8926  1.7340
 5430SOL     OW27925   3.109   0.941   8.952  0.2086  0.6333 -0.1219
 5430SOL    HW127926   3.053   0.996   8.897  0.8203 -0.2606 -1.6442
 5430SOL    HW227927   3.042   0.886   8.992  1.8399 -1.5561 -0.3990
 5431SOL     OW27928   0.713   1.702   5.738  0.0316 -0.3101 -0.0174
 5431SOL    HW127929   0.780   1.747   5.790 -0.1218 -0.0115 -0.0793
 5431SOL    HW227930   0.654   1.681   5.811 -1.6104 -1.0990 -1.5694
 5432SOL     OW27931   3.339   2.405   2.495  0.1497  0.2874  0.9934
 5432SOL    HW127932   3.335   2.465   2.570 -1.5703 -0.1230  1.2277
 5432SOL    HW227933   3.298   2.464   2.431  1.7505 -0.6834 -0.8892
 5433SOL     OW27934   4.613   4.672   2.806  0.0224 -0.4014  0.3280
 5433SOL    HW127935   4.555   4.653   2.733  0.1042  0.3944  0.0566
 5433SOL    HW227936   4.558   4.651   2.881  0.5712 -1.9162  0.3073
 5434SOL     OW27937   0.015   3.326  12.506 -0.3591 -0.2255 -0.2886
 5434SOL    HW127938   4.718   3.407  12.545 -1.8456 -2.1092  2.3982
 5434SOL    HW227939   0.025   3.345  12.413  0.0307  0.1804 -0.1642
 5435SOL     OW27940   2.666   0.518   5.784  0.3507 -0.1325  0.1255
 5435SOL    HW127941   2.706   0.532   5.699  0.0953  0.0047  0.0280
 5435SOL    HW227942   2.653   0.605   5.823 -1.4609 -1.6526  2.9183
 5436SOL     OW27943   4.710   0.793   2.721 -0.7644 -0.0578  0.0255
 5436SOL    HW127944   4.633   0.828   2.764 -0.4691  1.1333 -0.4282
 5436SOL    HW227945   4.701   0.698   2.733 -3.0053  0.1607 -0.0860
 5437SOL     OW27946   3.267   1.742   9.484  0.3654 -0.5029  0.0636
 5437SOL    HW127947   3.272   1.729   9.579 -1.3664 -0.3455  0.1728
 5437SOL    HW227948   3.336   1.681   9.456  0.2368 -0.6232  0.0107
 5438SOL     OW27949   2.381   3.736   4.009 -0.1563 -0.2510 -0.3089
 5438SOL    HW127950   2.361   3.708   4.098  1.0638 -0.4892 -0.1190
 5438SOL    HW227951   2.390   3.830   4.024 -1.0062  0.3302 -3.4249
 5439SOL     OW27952   0.713   1.470   3.723 -0.0767  0.4599  0.0037
 5439SOL    HW127953   0.694   1.406   3.791 -1.2893 -0.1040 -0.8641
 5439SOL    HW227954   0.741   1.410   3.654  0.7845  0.2641  0.5293
 5440SOL     OW27955   3.773   1.821   5.986  0.1218  0.6494  0.2859
 5440SOL    HW127956   3.857   1.818   6.032  0.8455  0.2660 -1.0739
 5440SOL    HW227957   3.776   1.905   5.941 -0.7978  0.7671  0.4344
 5441SOL     OW27958   2.001   3.748  12.415 -0.2995 -0.0909  0.6881
 5441SOL    HW127959   1.965   3.681  12.357 -0.6599 -0.9807  1.9539
 5441SOL    HW227960   2.083   3.704  12.438 -0.5283  0.1916  2.0370
 5442SOL     OW27961   1.697   0.016  16.316  0.5032 -0.4691 -0.0759
 5442SOL    HW127962   1.677   0.050  16.404  1.3012  0.2608 -0.1708
 5442SOL    HW227963   1.658   0.081  16.258 -1.4233 -0.8844  0.7449
 5443SOL     OW27964   0.060   4.220  16.447 -0.1669  0.6253 -0.1231
 5443SOL    HW127965   4.721   4.210  16.386 -0.1797 -2.4576  0.4106
 5443SOL    HW227966   0.088   4.306  16.415 -2.0571  1.3724  0.2079
 5444SOL     OW27967   2.422   2.711   3.860  0.3317 -0.2435  0.0744
 5444SOL    HW127968   2.386   2.758   3.785 -1.0112  0.5747  1.2566
 5444SOL    HW227969   2.379   2.759   3.930 -0.3850 -1.3777  0.4087
 5445SOL     OW27970   0.012   3.466   1.946  0.0943  0.1274  0.5054
 5445SOL    HW127971   0.046   3.523   1.876  0.8662 -1.2397 -0.2260
 5445SOL    HW227972   4.654   3.483   1.927 -0.0335  0.5899  1.5425
 5446SOL     OW27973   0.935   0.492   5.807  0.5570 -0.1512 -0.4492
 5446SOL    HW127974   0.861   0.519   5.862  0.9797 -0.5146  0.2944
 5446SOL    HW227975   1.015   0.531   5.842  2.2358 -0.9708 -3.3985
 5447SOL     OW27976   2.867   4.596  11.553  0.3974  0.0754 -0.6193
 5447SOL    HW127977   2.954   4.631  11.570 -0.9481  2.4419  1.3464
 5447SOL    HW227978   2.862   4.581  11.458  0.4858 -2.5311 -0.2300
 5448SOL     OW27979   0.002   0.189   1.002 -0.0856 -0.4024  0.1113
 5448SOL    HW127980   4.696   0.261   1.050  0.1414  0.0929 -0.4550
 5448SOL    HW227981   4.699   0.188   0.914 -0.1028  0.0860  0.1161
 5449SOL     OW27982   0.295   0.635   5.909  0.1999  0.3798 -0.2632
 5449SOL    HW127983   0.218   0.614   5.961  0.2582  0.3937 -0.1699
 5449SOL    HW227984   0.294   0.729   5.890  0.6186  0.0715 -1.8203
 5450SOL     OW27985   0.013   4.583  16.936 -0.4011  0.2756 -0.6083
 5450SOL    HW127986   4.705   4.641  16.998 -0.4985 -2.8600  2.2857
 5450SOL    HW227987   4.687   4.509  16.939  2.6103 -2.1130  2.6594
 5451SOL     OW27988   2.261   4.443   6.764  0.7243  0.3479 -0.7460
 5451SOL    HW127989   2.207   4.488   6.699 -0.3460  0.0945 -0.0376
 5451SOL    HW227990   2.221   4.356   6.758  0.2756  0.4794  0.2218
 5452SOL     OW27991   0.151   2.215   7.921 -0.1861  0.3032  1.2040
 5452SOL    HW127992   0.178   2.302   7.891 -0.0544 -0.1747 -0.0927
 5452SOL    HW227993   0.165   2.224   8.015  0.2606 -0.0672  1.1726
 5453SOL     OW27994   4.501   0.829  15.709  0.0548 -0.3293  0.1837
 5453SOL    HW127995   4.478   0.754  15.654 -1.7632 -0.3127  0.8947
 5453SOL    HW227996   4.595   0.825  15.723 -0.0699 -0.6119  0.9567
 5454SOL     OW27997   1.991   4.343   2.729  0.1287  0.2716  0.1810
 5454SOL    HW127998   1.910   4.292   2.719  0.9188 -1.2260  1.6101
 5454SOL    HW227999   1.987   4.370   2.820 -2.3043 -0.4947  0.3089
 5455SOL     OW28000   3.333   4.711   5.978  0.4531 -0.6893 -0.1424
 5455SOL    HW128001   3.239   4.725   5.968  0.5922 -1.0764 -2.0245
 5455SOL    HW228002   3.372   0.063   5.967 -2.3331  0.5847  0.2129
 5456SOL     OW28003   1.888   1.123   7.953 -0.1047 -0.0246  0.5950
 5456SOL    HW128004   1.812   1.155   7.904 -0.8462 -0.2356  1.6261
 5456SOL    HW228005   1.915   1.053   7.893 -0.5268  0.1782  0.1627
 5457SOL     OW28006   3.461   0.658   6.838  0.0381  0.0807 -0.1320
 5457SOL    HW128007   3.406   0.646   6.760  0.3879  0.2989 -0.4179
 5457SOL    HW228008   3.460   0.753   6.850  2.9410  0.2049 -0.7059
 5458SOL     OW28009   2.298   3.213   2.001 -0.0994 -0.0154 -0.8897
 5458SOL    HW128010   2.242   3.184   2.073  1.2940 -1.3436 -0.3258
 5458SOL    HW228011   2.342   3.278   2.058 -0.7806 -0.5773  0.2770
 5459SOL     OW28012   4.035   4.499   1.707 -0.4033 -0.0297  0.2033
 5459SOL    HW128013   3.964   4.451   1.750 -0.9544  1.1598  0.6168
 5459SOL    HW228014   3.991   4.578   1.677  0.2562  0.5002  0.6209
 5460SOL     OW28015   2.339   3.993   2.281 -0.2602 -1.0654 -0.1918
 5460SOL    HW128016   2.393   4.071   2.297 -0.4340 -0.8453 -0.6851
 5460SOL    HW228017   2.408   3.926   2.283  0.7777 -0.0134 -0.8740
 5461SOL     OW28018   3.075   1.220  13.537  0.0828  0.0841  0.0723
 5461SOL    HW128019   3.049   1.183  13.452 -1.5369  0.9055  0.2077
 5461SOL    HW228020   3.127   1.296  13.513 -0.7766  0.1743 -1.4958
 5462SOL     OW28021   0.694   3.279   1.227  0.1852 -0.0021  0.4928
 5462SOL    HW128022   0.735   3.353   1.272  0.7986  2.0345 -3.3400
 5462SOL    HW228023   0.620   3.328   1.188 -1.7264 -1.2009  2.6402
 5463SOL     OW28024   3.545   1.873   9.901  0.2562 -0.2263 -0.1432
 5463SOL    HW128025   3.628   1.909   9.872  0.1723 -1.0944 -1.4387
 5463SOL    HW228026   3.474   1.928   9.867  0.5951 -0.3264 -0.9984
 5464SOL     OW28027   3.366   0.954   8.210 -0.6606 -0.0242 -0.2091
 5464SOL    HW128028   3.284   0.951   8.163 -1.1504 -1.4639  0.7352
 5464SOL    HW228029   3.417   0.924   8.135 -1.3706 -2.7129  0.3928
 5465SOL     OW28030   3.313   0.587   5.176  0.0665 -0.6476 -0.1409
 5465SOL    HW128031   3.318   0.527   5.250 -0.2941 -0.9032 -0.3237
 5465SOL    HW228032   3.219   0.583   5.156  0.1776 -4.8929  0.1820
 5466SOL     OW28033   1.323   4.532   6.735  0.0895  0.4142  0.0637
 5466SOL    HW128034   1.406   4.571   6.761 -0.5184 -0.6917  3.6261
 5466SOL    HW228035   1.346   4.439   6.727  1.7014  0.6950  1.3642
 5467SOL     OW28036   2.455   0.081  17.250 -0.0046  0.1733  0.4038
 5467SOL    HW128037   2.375   0.047  17.210  0.3405  0.3490 -0.4508
 5467SOL    HW228038   2.528   0.036  17.206  0.6849  0.2560  1.4540
 5468SOL     OW28039   1.903   2.488   2.712  0.2235 -0.1371 -0.2191
 5468SOL    HW128040   1.907   2.509   2.805  2.5018 -0.6469 -0.2047
 5468SOL    HW228041   1.832   2.423   2.712  0.1318 -0.0356  0.0028
 5469SOL     OW28042   1.908   3.714   0.718 -0.4031  0.2674 -0.0809
 5469SOL    HW128043   1.946   3.650   0.658 -3.3078  0.0409 -1.6706
 5469SOL    HW228044   1.951   3.799   0.704  0.6387 -0.4324 -1.1066
 5470SOL     OW28045   2.803   4.415   7.719  0.1012  0.0547 -0.4835
 5470SOL    HW128046   2.708   4.412   7.719  0.2192 -2.9644 -0.5053
 5470SOL    HW228047   2.821   4.333   7.765 -1.7383  0.0578  0.2178
 5471SOL     OW28048   3.090   1.965  16.800 -0.1067  0.1935 -0.0867
 5471SOL    HW128049   3.047   1.891  16.758  2.6858 -0.5242 -1.7080
 5471SOL    HW228050   3.160   1.996  16.742 -1.7449  1.8054 -1.1918
 5472SOL     OW28051   2.562   3.652  15.318  0.3471 -0.6128 -0.3020
 5472SOL    HW128052   2.607   3.695  15.245  0.1911 -0.7459 -0.4743
 5472SOL    HW228053   2.516   3.590  15.262 -0.1099 -1.4411  1.0019
 5473SOL     OW28054   3.156   2.134   5.641  0.1385 -0.1935 -0.3030
 5473SOL    HW128055   3.243   2.122   5.680 -0.3236  1.9174  1.3634
 5473SOL    HW228056   3.168   2.194   5.567  0.6077  0.3225  0.1972
 5474SOL     OW28057   0.112   2.964   9.159 -0.8258 -0.4840 -0.6150
 5474SOL    HW128058   0.172   3.030   9.194 -2.0662 -0.4830  1.4849
 5474SOL    HW228059   0.028   2.980   9.202 -0.9824 -0.8016 -0.8043
 5475SOL     OW28060   3.260   4.616   4.149 -0.0448 -0.1443 -0.4689
 5475SOL    HW128061   3.293   4.536   4.190 -1.0884  0.7836  2.2316
 5475SOL    HW228062   3.322   4.688   4.166 -0.3040 -0.2587  1.0163
 5476SOL     OW28063   0.239   1.317   1.075 -0.1160 -0.2862 -0.7378
 5476SOL    HW128064   0.245   1.406   1.109 -0.7573 -1.4294  2.3024
 5476SOL    HW228065   0.278   1.264   1.145 -0.8585 -0.9543 -0.8301
 5477SOL     OW28066   4.637   0.871   4.187  0.1638 -0.3937 -0.2684
 5477SOL    HW128067   4.633   0.900   4.096 -1.6459  0.3784  0.0594
 5477SOL    HW228068   4.659   0.779   4.170  0.1351 -0.3564 -0.5154
 5478SOL     OW28069   4.446   0.889   2.815  0.5392 -0.0651 -0.0556
 5478SOL    HW128070   4.425   0.924   2.728  0.5256 -0.7788 -0.3362
 5478SOL    HW228071   4.404   0.803   2.810  0.3466  0.1448 -2.0447
 5479SOL     OW28072   0.870   4.355   5.677  0.0950  0.0217 -0.4647
 5479SOL    HW128073   0.916   4.422   5.627 -1.0203  0.7751 -0.4893
 5479SOL    HW228074   0.789   4.406   5.669 -0.1329 -0.1472  0.7710
 5480SOL     OW28075   1.954   4.629  12.549 -0.5419  0.4560  0.0908
 5480SOL    HW128076   1.960   4.724  12.547  1.2685  0.3687  1.3641
 5480SOL    HW228077   1.866   4.614  12.584 -0.4043  1.5290  0.8682
 5481SOL     OW28078   3.216   3.975   0.328 -0.1162 -0.2241  0.2764
 5481SOL    HW128079   3.240   4.035   0.398  0.2525 -1.9539  1.6299
 5481SOL    HW228080   3.192   4.042   0.264 -0.3951  0.2027  0.8292
 5482SOL     OW28081   4.261   4.156   1.893 -0.0276  0.6581  0.8500
 5482SOL    HW128082   4.234   4.232   1.945 -0.2429  1.8034 -0.9411
 5482SOL    HW228083   4.350   4.181   1.869 -0.3475  0.8967 -0.1076
 5483SOL     OW28084   3.229   2.987   8.951 -0.7216 -0.0802 -0.5608
 5483SOL    HW128085   3.267   3.014   9.035 -1.4775 -1.3046  0.1870
 5483SOL    HW228086   3.290   3.025   8.888 -0.0049  1.6013  1.1346
 5484SOL     OW28087   0.313   3.692   1.759 -0.5799 -0.2050 -0.4361
 5484SOL    HW128088   0.250   3.621   1.747 -1.0057 -0.0488  0.8780
 5484SOL    HW228089   0.292   3.744   1.681 -1.4815  1.7260  1.1120
 5485SOL     OW28090   4.390   0.249   4.698 -0.6630  0.1972  0.4047
 5485SOL    HW128091   4.465   0.197   4.671 -0.6136  0.5862 -0.2206
 5485SOL    HW228092   4.432   0.319   4.747 -0.4438  0.7335 -0.5541
 5486SOL     OW28093   2.874   1.426   0.298 -0.2256 -0.9204  0.2983
 5486SOL    HW128094   2.792   1.418   0.346  1.4231 -2.1217  2.9045
 5486SOL    HW228095   2.909   1.505   0.340  0.5109 -1.7723  1.2839
 5487SOL     OW28096   4.658   0.429   1.130  0.1134 -0.0342 -0.1859
 5487SOL    HW128097   4.725   0.497   1.124  1.0429 -0.9820 -0.6237
 5487SOL    HW228098   4.632   0.438   1.222  1.4443  3.0796 -0.1180
 5488SOL     OW28099   4.369   3.427  10.665  0.6384 -0.1766  0.0889
 5488SOL    HW128100   4.367   3.449  10.572 -0.1166 -0.5912  0.0112
 5488SOL    HW228101   4.307   3.491  10.699  0.1586  0.0410 -1.2206
 5489SOL     OW28102   0.242   2.350   3.069  0.2381 -0.0274  0.7164
 5489SOL    HW128103   0.264   2.284   3.135 -0.3412 -1.2229 -0.2928
 5489SOL    HW228104   0.168   2.403   3.101 -0.2064  0.6647 -1.4763
 5490SOL     OW28105   3.242   4.248   2.762 -0.0497 -0.1977  0.4612
 5490SOL    HW128106   3.286   4.169   2.793 -0.9455 -0.0776  2.0213
 5490SOL    HW228107   3.155   4.244   2.801 -0.3419 -0.0593 -0.1853
 5491SOL     OW28108   0.706   3.820   3.268 -0.6642 -0.1324 -0.0523
 5491SOL    HW128109   0.726   3.740   3.219 -3.3671  0.1124 -1.5831
 5491SOL    HW228110   0.617   3.845   3.244  0.7415  3.9177 -1.0184
 5492SOL     OW28111   1.727   3.430   4.878  0.2478 -0.2179 -0.5675
 5492SOL    HW128112   1.732   3.521   4.850  2.7898 -0.0486  0.4742
 5492SOL    HW228113   1.652   3.433   4.938  3.1823  3.2534  2.8955
 5493SOL     OW28114   0.252   2.930  17.406  0.6465 -0.4106  0.4485
 5493SOL    HW128115   0.215   2.998  17.464  0.3568 -1.3305  1.3397
 5493SOL    HW228116   0.174   2.879  17.387 -0.2950  2.0054 -2.1243
 5494SOL     OW28117   2.197   4.566   2.934 -0.0228 -0.2283  0.3743
 5494SOL    HW128118   2.223   4.493   2.879  1.7637 -0.2908  1.3144
 5494SOL    HW228119   2.129   4.526   2.989  1.2856  1.4951  3.2745
 5495SOL     OW28120   2.135   3.121   2.196 -0.6446 -0.4412  0.3120
 5495SOL    HW128121   2.046   3.100   2.167 -0.9399  0.5395  0.4985
 5495SOL    HW228122   2.113   3.178   2.270 -0.3705 -1.5882  1.2840
 5496SOL     OW28123   0.811   0.783   5.853  0.2163 -0.0417  0.2316
 5496SOL    HW128124   0.781   0.732   5.778  2.1246 -1.9081  0.7181
 5496SOL    HW228125   0.753   0.755   5.924  0.6775  1.4754  1.2221
 5497SOL     OW28126   2.284   1.150   8.603  0.1384  0.1099 -0.7040
 5497SOL    HW128127   2.216   1.158   8.536  0.2821 -2.8253 -1.1996
 5497SOL    HW228128   2.274   1.059   8.629  1.9896  0.2062  0.3996
 5498SOL     OW28129   0.197   0.084   5.944 -0.9135 -0.4311 -0.0027
 5498SOL    HW128130   0.104   0.104   5.930 -0.4872  1.4387 -0.2443
 5498SOL    HW228131   0.228   0.063   5.856 -1.1970  3.1885 -0.9676
 5499SOL     OW28132   4.401   1.643   3.024 -0.1829  0.4011 -0.3597
 5499SOL    HW128133   4.356   1.586   2.962 -2.0552  0.7570  0.6614
 5499SOL    HW228134   4.455   1.691   2.962  1.7205 -1.3940 -0.0755
 5500SOL     OW28135   3.475   1.178   3.088 -0.0989 -0.3938 -0.2137
 5500SOL    HW128136   3.425   1.221   3.018  0.1925  1.5398  0.7668
 5500SOL    HW228137   3.567   1.188   3.062 -0.5798 -2.1095 -2.5913
 5501SOL     OW28138   3.950   4.020   5.925 -1.1674  0.0258 -0.2033
 5501SOL    HW128139   4.001   3.972   5.990  1.4276 -0.6690 -2.7600
 5501SOL    HW228140   3.859   4.003   5.949 -1.1714 -0.4534 -0.5525
 5502SOL     OW28141   3.931   4.103   5.661  0.5962  0.1926  0.6497
 5502SOL    HW128142   4.009   4.158   5.664  0.6558  0.2670 -2.0712
 5502SOL    HW228143   3.950   4.045   5.734 -1.3074  0.4740  1.3734
 5503SOL     OW28144   2.857   4.560   3.775 -0.4993  0.0455 -0.1836
 5503SOL    HW128145   2.766   4.539   3.755 -1.4527  1.3713  2.8552
 5503SOL    HW228146   2.858   4.553   3.870  2.3435  1.5695 -0.0879
 5504SOL     OW28147   3.859   2.039   1.658  0.0983  0.1431 -0.2818
 5504SOL    HW128148   3.773   2.004   1.634  0.2321  0.1859 -0.8397
 5504SOL    HW228149   3.841   2.133   1.645  0.9075  0.4339  0.7399
 5505SOL     OW28150   0.310   2.491   6.818  0.5567 -0.6074  0.3703
 5505SOL    HW128151   0.238   2.505   6.879  0.6612  1.9356 -0.0829
 5505SOL    HW228152   0.265   2.429   6.761 -1.6272 -0.2567  1.7354
 5506SOL     OW28153   2.182   0.498   6.412  0.5749  0.4770  0.1435
 5506SOL    HW128154   2.175   0.495   6.507  0.3007 -0.1754  0.0991
 5506SOL    HW228155   2.166   0.592   6.399  2.5382  0.6393 -1.1222
 5507SOL     OW28156   1.281   3.540   1.844  0.1407 -0.1286  0.1781
 5507SOL    HW128157   1.313   3.629   1.857  0.9799 -0.2538 -0.9876
 5507SOL    HW228158   1.257   3.529   1.936 -2.1166  0.6413 -0.3398
 5508SOL     OW28159   1.301   0.168   3.069  0.0031 -0.2632  0.7277
 5508SOL    HW128160   1.208   0.148   3.083 -0.4167  1.6715  0.6701
 5508SOL    HW228161   1.294   0.246   3.015 -2.4843  1.4990  3.6399
 5509SOL     OW28162   2.958   2.515  15.158 -0.0969 -0.4868 -0.1440
 5509SOL    HW128163   3.051   2.500  15.145  0.0518  0.6222 -0.3589
 5509SOL    HW228164   2.919   2.428  15.168 -0.2903 -0.2711  0.9566
 5510SOL     OW28165   3.131   2.821   3.623 -0.1277 -0.6112 -0.0246
 5510SOL    HW128166   3.164   2.736   3.592  1.6201 -0.6131  1.8790
 5510SOL    HW228167   3.040   2.794   3.638 -0.2129 -0.8669 -0.9839
 5511SOL     OW28168   1.135   2.423  17.290  0.1780  0.6433  0.1245
 5511SOL    HW128169   1.081   2.465  17.224  0.0654 -0.4500 -0.4867
 5511SOL    HW228170   1.086   2.341  17.303  0.5472  0.4824  0.5267
 5512SOL     OW28171   3.121   4.206   6.867  0.2459 -0.0024  0.0505
 5512SOL    HW128172   3.051   4.192   6.932  0.6220 -2.2785 -0.0054
 5512SOL    HW228173   3.180   4.134   6.889  2.1568  2.2496  2.2347
 5513SOL     OW28174   1.380   4.260   6.860 -0.0926 -0.6610  0.0837
 5513SOL    HW128175   1.463   4.276   6.904 -0.2138  0.8930 -0.2662
 5513SOL    HW228176   1.389   4.165   6.852 -0.3237 -0.8289  1.9728
 5514SOL     OW28177   1.769   3.625   8.067 -0.4457 -0.1235 -0.3553
 5514SOL    HW128178   1.826   3.684   8.116  1.5571 -2.7969  0.5009
 5514SOL    HW228179   1.705   3.602   8.134  1.6114 -0.6570  1.3839
 5515SOL     OW28180   0.525   0.062   4.123  0.2979 -0.1732 -0.1311
 5515SOL    HW128181   0.602   0.067   4.066  1.6193  0.6648  1.7037
 5515SOL    HW228182   0.518   4.704   4.146  0.3634  0.4315  2.3605
 5516SOL     OW28183   2.998   3.071   3.519  0.5288  0.4359  0.0747
 5516SOL    HW128184   3.081   3.069   3.472  1.5140  2.9643  1.6827
 5516SOL    HW228185   3.009   2.994   3.574  3.9785  2.0719  1.6493
 5517SOL     OW28186   4.441   4.031   6.439  0.5102  0.3689  0.2693
 5517SOL    HW128187   4.528   4.046   6.403  0.5197 -1.9341 -0.7019
 5517SOL    HW228188   4.468   4.029   6.531  0.7064  3.4328  0.2646
 5518SOL     OW28189   2.593   3.333  17.012 -0.2617  0.2152  0.2931
 5518SOL    HW128190   2.651   3.383  17.069 -0.0118 -0.6706  0.8063
 5518SOL    HW228191   2.508   3.338  17.057  0.4219  1.0310  1.4695
 5519SOL     OW28192   2.702   4.643   7.251 -0.3947 -0.0962  0.1318
 5519SOL    HW128193   2.753   4.689   7.184 -0.5360 -1.1122 -0.6791
 5519SOL    HW228194   2.681   4.713   7.314  0.1224  1.9725 -1.9790
 5520SOL     OW28195   3.730   1.437   3.948 -0.0923  0.1497 -0.0433
 5520SOL    HW128196   3.694   1.522   3.923 -0.0567 -0.5051 -2.3355
 5520SOL    HW228197   3.708   1.375   3.878 -0.5734 -0.4553  0.6433
 5521SOL     OW28198   2.785   4.283   9.694 -0.0772 -0.2486  0.2002
 5521SOL    HW128199   2.867   4.252   9.733 -1.3953 -1.5919  1.8973
 5521SOL    HW228200   2.800   4.378   9.690  0.3128 -0.4675 -3.9295
 5522SOL     OW28201   0.494   2.294  17.248  0.1208  0.4271  0.1798
 5522SOL    HW128202   0.477   2.282  17.155  0.4584  0.7188  0.0767
 5522SOL    HW228203   0.510   2.388  17.260 -0.5506  0.3052  2.0834
 5523SOL     OW28204   0.047   2.906  13.661  0.1711 -0.0748  0.0310
 5523SOL    HW128205   4.724   2.881  13.589  0.5469  0.1222 -0.3411
 5523SOL    HW228206   0.120   2.945  13.613  0.0063 -1.5257 -1.4061
 5524SOL     OW28207   1.617   1.182   1.689 -0.0522 -0.2352  0.0214
 5524SOL    HW128208   1.569   1.209   1.610  1.2679 -0.7085 -0.9379
 5524SOL    HW228209   1.703   1.169   1.648 -0.1335  0.1466 -0.2821
 5525SOL     OW28210   1.629   0.957   0.234  0.8478  0.1347  0.4193
 5525SOL    HW128211   1.665   1.001   0.311  0.2368 -2.7894  2.3829
 5525SOL    HW228212   1.553   1.014   0.223  1.2581 -0.0997 -3.7576
 5526SOL     OW28213   1.828   2.202   8.504  0.1262  0.1174 -0.2253
 5526SOL    HW128214   1.820   2.221   8.411 -2.1434 -1.5434 -0.3764
 5526SOL    HW228215   1.752   2.247   8.541  1.0545  0.8470  0.8258
 5527SOL     OW28216   1.247   0.842   5.147 -0.3842 -0.0504  0.2532
 5527SOL    HW128217   1.275   0.753   5.124  0.0091 -0.2560  1.5408
 5527SOL    HW228218   1.318   0.875   5.203  0.0533 -0.0469 -0.3013
 5528SOL     OW28219   1.185   1.376   8.997 -0.0024 -0.2210  0.3138
 5528SOL    HW128220   1.228   1.373   9.082 -0.6948 -0.0751  0.6674
 5528SOL    HW228221   1.098   1.346   9.025 -1.5585  3.5376 -0.5434
 5529SOL     OW28222   1.025   2.498  16.595 -0.4871 -0.2417  0.0478
 5529SOL    HW128223   1.042   2.447  16.515 -3.0963  1.0632 -1.3470
 5529SOL    HW228224   0.943   2.465  16.631 -0.8697  0.4100 -0.2226
 5530SOL     OW28225   0.919   3.952   4.519 -0.1324 -0.9603 -0.2145
 5530SOL    HW128226   0.835   3.965   4.563 -0.6300  1.2470 -1.8513
 5530SOL    HW228227   0.903   4.002   4.440  0.8340  1.3362  1.0310
 5531SOL     OW28228   0.098   1.236   6.621 -0.0196 -0.1665 -0.6700
 5531SOL    HW128229   0.019   1.290   6.630  0.1704 -0.0093  0.1199
 5531SOL    HW228230   0.070   1.148   6.644 -1.1246  0.1787 -0.6872
 5532SOL     OW28231   2.761   0.931   4.493  0.2750 -0.1938 -0.4917
 5532SOL    HW128232   2.751   0.840   4.467 -0.9120 -0.1650 -0.1062
 5532SOL    HW228233   2.696   0.948   4.561  1.8341  2.2404  0.3836
 5533SOL     OW28234   4.017   0.647   3.347 -0.5862 -0.7547 -0.1120
 5533SOL    HW128235   3.931   0.626   3.310 -0.7284 -0.9395  0.3198
 5533SOL    HW228236   4.035   0.723   3.291  0.3594 -0.6956  0.2712
 5534SOL     OW28237   1.188   3.113   5.725 -0.0575  0.0248 -0.0180
 5534SOL    HW128238   1.165   3.114   5.632 -0.8428  1.6098  0.1878
 5534SOL    HW228239   1.207   3.206   5.733 -1.4548  0.3261 -0.1398
 5535SOL     OW28240   2.232   1.822   2.925 -0.4223 -0.4185  0.1777
 5535SOL    HW128241   2.294   1.749   2.918  1.7576  1.4570 -0.1263
 5535SOL    HW228242   2.182   1.799   3.003  0.5383  1.9586  1.5089
 5536SOL     OW28243   2.484   2.710   8.532  0.0873 -0.0209 -0.2705
 5536SOL    HW128244   2.504   2.797   8.498  2.0031  0.2343  1.5060
 5536SOL    HW228245   2.545   2.698   8.605  1.2262  1.4703 -1.0081
 5537SOL     OW28246   2.872   0.150  13.170  0.2683 -0.1035  0.2048
 5537SOL    HW128247   2.805   0.149  13.101  1.5232  0.2417 -1.0033
 5537SOL    HW228248   2.818   0.104  13.235 -0.8117  1.5383  0.4832
 5538SOL     OW28249   1.342   4.359  11.105  0.2200 -0.4919  0.4727
 5538SOL    HW128250   1.325   4.453  11.093  0.4442 -0.6318 -0.9695
 5538SOL    HW228251   1.297   4.313  11.034 -0.3485  1.1895 -0.2536
 5539SOL     OW28252   2.146   0.805   2.224 -0.1977  0.0198  0.1274
 5539SOL    HW128253   2.111   0.721   2.192 -1.4584  0.0785  1.3750
 5539SOL    HW228254   2.156   0.853   2.142 -1.7469  1.0684  0.5590
 5540SOL     OW28255   0.129   2.585   2.740  0.2573 -0.9385 -0.2272
 5540SOL    HW128256   0.037   2.613   2.732  0.1517 -1.1392  0.2880
 5540SOL    HW228257   0.157   2.574   2.650  0.3913 -0.1611 -0.2780
 5541SOL     OW28258   2.297   4.463   5.096 -0.3618 -0.0288 -0.2758
 5541SOL    HW128259   2.236   4.529   5.128 -1.5617 -1.5455  0.5421
 5541SOL    HW228260   2.268   4.448   5.006 -0.6525 -3.1379  0.3148
 5542SOL     OW28261   1.735   4.198  17.545  0.1283  0.2196  0.8382
 5542SOL    HW128262   1.681   4.162  17.474  2.2161 -0.7491 -0.2563
 5542SOL    HW228263   1.687   4.280  17.562 -0.2927  0.2133 -0.2659
 5543SOL     OW28264   0.770   3.957  13.449 -0.3569  0.2046  0.0616
 5543SOL    HW128265   0.696   3.931  13.503  0.9795 -0.0174  1.7958
 5543SOL    HW228266   0.797   3.867  13.427 -1.5006  0.1386 -1.0568
 5544SOL     OW28267   2.915   0.294   2.311 -0.3346  0.3955 -0.0406
 5544SOL    HW128268   2.826   0.328   2.319 -0.8269 -0.8322 -0.4460
 5544SOL    HW228269   2.948   0.326   2.395 -1.5965 -2.8836  1.6622
 5545SOL     OW28270   2.212   3.532   7.594 -0.4986  0.6946 -0.8443
 5545SOL    HW128271   2.123   3.537   7.628 -0.1970  1.1817 -0.1212
 5545SOL    HW228272   2.266   3.494   7.663 -0.8251 -0.1766 -1.0707
 5546SOL     OW28273   0.571   2.158  10.524  0.7299  0.3618  0.1557
 5546SOL    HW128274   0.602   2.178  10.436  1.7043  0.9129  0.6259
 5546SOL    HW228275   0.535   2.244  10.546 -1.5203 -0.5466 -0.0234
 5547SOL     OW28276   1.998   0.242   8.671  0.0758  0.0945  0.3143
 5547SOL    HW128277   1.946   0.322   8.669 -1.2571 -0.7771  0.4131
 5547SOL    HW228278   2.060   0.234   8.744  1.9610  0.7237 -1.2175
 5548SOL     OW28279   4.172   0.035   8.589 -0.0524 -0.0810 -0.6854
 5548SOL    HW128280   4.107   0.085   8.638  1.9482 -0.0895  1.9853
 5548SOL    HW228281   4.191   4.699   8.651 -1.7054  0.6002  0.6064
 5549SOL     OW28282   1.881   1.215   7.643 -0.2423  0.3486 -0.0230
 5549SOL    HW128283   1.814   1.219   7.712 -0.6589  2.3906 -0.5401
 5549SOL    HW228284   1.872   1.301   7.601 -2.1886 -0.1963 -0.7309
 5550SOL     OW28285   3.493   1.780   9.265 -0.5167  0.2796 -0.1563
 5550SOL    HW128286   3.494   1.865   9.219 -2.5938  0.7012  0.5571
 5550SOL    HW228287   3.585   1.765   9.285 -0.6798 -0.0488  0.3270
 5551SOL     OW28288   0.465   2.803   8.339 -0.1001  0.4890 -0.6188
 5551SOL    HW128289   0.496   2.723   8.381 -1.9373 -0.2187 -0.6221
 5551SOL    HW228290   0.384   2.770   8.302  1.0731 -2.0777 -0.9060
 5552SOL     OW28291   2.769   3.756  12.728  0.5504 -1.1117 -0.2770
 5552SOL    HW128292   2.782   3.844  12.692 -0.6856 -0.3594  1.0979
 5552SOL    HW228293   2.748   3.699  12.654  0.5664 -1.3190 -0.1205
 5553SOL     OW28294   0.303   2.958   0.592  0.6189  0.2620 -0.4117
 5553SOL    HW128295   0.373   2.925   0.648  0.2339  1.4887  0.8089
 5553SOL    HW228296   0.325   2.916   0.509  0.1085 -1.5061  0.3406
 5554SOL     OW28297   1.787   0.701   2.647  0.2941 -0.2813  0.3454
 5554SOL    HW128298   1.692   0.708   2.662 -0.0316  0.1961 -1.8366
 5554SOL    HW228299   1.825   0.786   2.667 -0.2493 -0.0893  0.5670
 5555SOL     OW28300   2.947   1.904   3.300  0.1248 -0.8997 -0.3514
 5555SOL    HW128301   2.859   1.886   3.331  0.4172 -2.0070 -0.1527
 5555SOL    HW228302   2.982   1.815   3.304  0.0777 -0.8780  0.6278
 5556SOL     OW28303   1.543   3.734   5.919 -0.1658  0.3024 -0.1345
 5556SOL    HW128304   1.466   3.736   5.976  0.6169  1.2279  0.8991
 5556SOL    HW228305   1.616   3.719   5.979 -0.6206  0.8370  0.5533
 5557SOL     OW28306   1.726   3.327   0.565  0.2415 -0.5471  0.1531
 5557SOL    HW128307   1.682   3.250   0.602  0.6987 -1.0007 -0.2434
 5557SOL    HW228308   1.665   3.400   0.578  0.1482 -0.2017 -2.3793
 5558SOL     OW28309   0.162   2.528   7.358 -0.4371 -0.1417  0.2139
 5558SOL    HW128310   0.212   2.577   7.292 -0.9406 -0.2407 -0.2415
 5558SOL    HW228311   0.227   2.494   7.419 -0.2226 -0.1937 -0.0471
 5559SOL     OW28312   1.623   1.595   7.023  0.4826  0.0064 -0.5168
 5559SOL    HW128313   1.543   1.577   6.975  1.1353 -0.7240 -1.3262
 5559SOL    HW228314   1.602   1.624   7.112 -1.0914 -2.6195 -0.0302
 5560SOL     OW28315   2.850   1.701   7.715  0.4838 -0.0904  0.8223
 5560SOL    HW128316   2.811   1.613   7.707 -0.5560  0.4908 -0.5481
 5560SOL    HW228317   2.920   1.678   7.776  1.7454 -0.3397 -0.7211
 5561SOL     OW28318   3.379   1.237   5.235 -0.1950  0.2130 -0.2903
 5561SOL    HW128319   3.289   1.204   5.229  0.0174 -0.2826 -0.8405
 5561SOL    HW228320   3.377   1.285   5.317 -2.5921 -1.3864  0.5806
 5562SOL     OW28321   0.474   3.553   4.139 -0.1982  0.2256 -0.3490
 5562SOL    HW128322   0.546   3.606   4.103 -0.9368  1.4849  0.0155
 5562SOL    HW228323   0.403   3.596   4.092  0.8339  2.5719  0.2216
 5563SOL     OW28324   4.179   3.293   6.417  0.1110  0.5391  0.0161
 5563SOL    HW128325   4.148   3.346   6.343  0.3855 -0.8959 -1.1267
 5563SOL    HW228326   4.145   3.209   6.387  0.8207 -0.0812  0.9760
 5564SOL     OW28327   4.610   3.862   2.907  0.4372  0.3247 -0.3990
 5564SOL    HW128328   4.639   3.853   2.998 -0.4979  3.4290  0.2376
 5564SOL    HW228329   4.586   3.771   2.892  1.6394  0.2859 -2.1241
 5565SOL     OW28330   2.664   3.734   3.736 -0.1388  0.0079 -0.4593
 5565SOL    HW128331   2.595   3.668   3.744 -0.4731  0.1335 -2.1919
 5565SOL    HW228332   2.743   3.681   3.723 -0.2423 -0.2222 -0.1273
 5566SOL     OW28333   0.338   2.845   4.640  0.2336 -0.0287  0.0006
 5566SOL    HW128334   0.405   2.901   4.679 -0.6463  1.9118 -1.2977
 5566SOL    HW228335   0.289   2.914   4.595 -1.1935 -0.8064  0.3427
 5567SOL     OW28336   0.453   3.861   4.868  0.8744  0.5788  0.0909
 5567SOL    HW128337   0.450   3.861   4.963 -0.9941 -0.0841  0.0371
 5567SOL    HW228338   0.502   3.781   4.850  3.2029  1.6585  1.6388
 5568SOL     OW28339   0.200   3.136   5.777 -0.5204  0.3614 -0.1838
 5568SOL    HW128340   0.291   3.119   5.801 -0.4098 -0.7706 -1.4287
 5568SOL    HW228341   0.154   3.083   5.842 -1.9209  1.3623 -0.3647
 5569SOL     OW28342   1.505   1.100   6.591 -0.2461  0.0241 -0.0710
 5569SOL    HW128343   1.467   1.012   6.590  0.7856 -0.4219  0.1690
 5569SOL    HW228344   1.518   1.096   6.496 -2.0594  1.1580 -0.3773
 5570SOL     OW28345   0.387   1.670   8.252 -0.5880  0.4568  0.3489
 5570SOL    HW128346   0.318   1.725   8.214  0.3740  0.1991 -1.7878
 5570SOL    HW228347   0.417   1.630   8.170  1.9642  0.5006  1.2755
 5571SOL     OW28348   0.521   4.065   0.806  0.3327 -0.4995 -0.2689
 5571SOL    HW128349   0.503   4.153   0.837 -0.4116 -0.4585 -0.8099
 5571SOL    HW228350   0.452   4.019   0.854  1.2567  0.8794  2.3760
 5572SOL     OW28351   1.756   4.079  11.142  0.1878 -0.5137 -0.0595
 5572SOL    HW128352   1.746   4.072  11.048  1.3441  0.2864 -0.2424
 5572SOL    HW228353   1.681   4.037  11.184 -0.4035  0.3171 -0.2864
 5573SOL     OW28354   0.411   3.177   1.858 -0.3069  0.1657  0.0842
 5573SOL    HW128355   0.422   3.269   1.834 -0.4390  0.1478 -0.0458
 5573SOL    HW228356   0.322   3.165   1.891 -0.4160 -1.0076 -0.6533
 5574SOL     OW28357   3.197   1.169   7.524  0.2800 -0.2185 -0.0735
 5574SOL    HW128358   3.182   1.144   7.433 -0.6338 -1.0367  0.3075
 5574SOL    HW228359   3.287   1.203   7.518  0.7330 -1.1796  1.1992
 5575SOL     OW28360   1.193   0.529   0.761 -0.2123 -0.8384 -0.6376
 5575SOL    HW128361   1.241   0.612   0.754 -0.5961 -0.4562  1.3479
 5575SOL    HW228362   1.266   0.471   0.739 -0.6733 -0.7457 -2.4082
 5576SOL     OW28363   1.372   0.037   2.448  0.4730 -0.0647 -0.2968
 5576SOL    HW128364   1.421   0.119   2.456  1.1350 -0.4365 -0.5848
 5576SOL    HW228365   1.321   0.054   2.369  1.0891  0.3912 -0.5957
 5577SOL     OW28366   3.203   2.556   7.652  0.3287 -0.4652 -0.2997
 5577SOL    HW128367   3.215   2.579   7.560 -3.0746 -0.0016 -0.6049
 5577SOL    HW228368   3.141   2.483   7.651 -0.4745  0.2114  0.3149
 5578SOL     OW28369   3.728   0.815   8.603 -0.2658 -0.4071 -0.5002
 5578SOL    HW128370   3.725   0.772   8.688 -0.5485  1.0330  0.2268
 5578SOL    HW228371   3.820   0.796   8.586  0.3483 -1.1779  3.8418
 5579SOL     OW28372   4.610   0.468  15.815 -0.0481  0.2205  0.2763
 5579SOL    HW128373   4.517   0.462  15.836  0.0307  0.0458  0.5863
 5579SOL    HW228374   4.626   0.436  15.727 -2.7122  3.4239 -1.3728
 5580SOL     OW28375   2.740   1.270   1.629  0.0763 -0.2508 -0.5704
 5580SOL    HW128376   2.749   1.271   1.724 -1.4593  0.4818 -0.4298
 5580SOL    HW228377   2.809   1.330   1.603 -1.7830  1.8988 -0.5784
 5581SOL     OW28378   0.671   1.213   8.487  0.3476 -0.4823  0.3614
 5581SOL    HW128379   0.578   1.199   8.471 -0.2106  1.8339  1.6911
 5581SOL    HW228380   0.680   1.289   8.430  1.6129 -0.6766  0.3067
 5582SOL     OW28381   4.295   1.111  14.724  0.3760 -0.8991  1.2704
 5582SOL    HW128382   4.385   1.094  14.752  1.2255  0.1799 -0.8564
 5582SOL    HW228383   4.264   1.175  14.789  0.3459 -0.0367  0.4105
 5583SOL     OW28384   3.356   0.355   9.054 -0.3296 -0.0443 -0.1056
 5583SOL    HW128385   3.268   0.388   9.035 -0.5286 -1.4194 -1.5167
 5583SOL    HW228386   3.346   0.276   9.107  0.9756  0.3510  0.7555
 5584SOL     OW28387   0.512   4.270   8.664 -0.0711  0.2872  0.4151
 5584SOL    HW128388   0.490   4.246   8.754  5.1631 -0.5175  1.5025
 5584SOL    HW228389   0.589   4.324   8.684 -1.9371  3.0035  0.2024
 5585SOL     OW28390   1.479   0.441  13.689  0.8729  0.0135 -0.1207
 5585SOL    HW128391   1.509   0.528  13.661  1.3388 -0.5553 -1.3793
 5585SOL    HW228392   1.509   0.444  13.780  0.2833  0.7212  0.0573
 5586SOL     OW28393   3.534   3.232   5.005 -0.2388  0.2572  0.5484
 5586SOL    HW128394   3.614   3.206   5.050  0.4243 -2.2153 -2.0232
 5586SOL    HW228395   3.523   3.314   5.052 -0.0894  1.0160 -0.7415
 5587SOL     OW28396   0.147   1.628   5.485 -0.3045  0.3946  0.1696
 5587SOL    HW128397   0.052   1.637   5.496 -0.3340 -0.4148  0.6039
 5587SOL    HW228398   0.161   1.686   5.410 -1.7663  1.9116  1.0606
 5588SOL     OW28399   2.471   0.725   3.186 -0.7249 -0.6404 -0.4949
 5588SOL    HW128400   2.386   0.696   3.156 -1.5569 -0.0079  1.2671
 5588SOL    HW228401   2.524   0.655   3.148  0.1443  0.1716 -0.8031
 5589SOL     OW28402   4.385   2.576   8.139  0.1016  0.0059 -0.1402
 5589SOL    HW128403   4.393   2.498   8.195 -1.2030  1.5745  2.2473
 5589SOL    HW228404   4.291   2.567   8.123  0.2816 -1.1003 -0.5509
 5590SOL     OW28405   1.746   2.017   2.103  0.1597  0.1058  0.1414
 5590SOL    HW128406   1.734   2.105   2.068 -1.6937 -0.8329 -1.5573
 5590SOL    HW228407   1.836   2.024   2.136 -0.1440 -0.8302  1.1912
 5591SOL     OW28408   3.619   3.504   8.486  0.2117 -0.2483  0.7217
 5591SOL    HW128409   3.574   3.498   8.570  1.2058 -1.3873  1.1629
 5591SOL    HW228410   3.688   3.439   8.501  0.4469 -0.7560 -2.4854
 5592SOL     OW28411   2.424   3.142  10.816  0.3868  0.2210 -0.2113
 5592SOL    HW128412   2.375   3.062  10.800  3.3569 -1.6800  0.0790
 5592SOL    HW228413   2.366   3.217  10.803  1.0921  0.3318 -2.8371
 5593SOL     OW28414   3.749   1.709   9.049  0.3633 -0.4764 -0.1188
 5593SOL    HW128415   3.712   1.708   8.960  0.4227  0.0131 -0.1504
 5593SOL    HW228416   3.759   1.803   9.064 -1.5427 -0.6816  2.2313
 5594SOL     OW28417   0.665   3.877   5.909  0.0439  0.0064  0.4647
 5594SOL    HW128418   0.670   3.888   6.004 -0.8791 -0.1668  0.5337
 5594SOL    HW228419   0.703   3.960   5.882 -1.2490  1.4976  3.2370
 5595SOL     OW28420   0.965   2.600   6.144  0.5622  0.0842 -0.1401
 5595SOL    HW128421   1.038   2.650   6.109  1.5268 -0.5285  1.0343
 5595SOL    HW228422   0.927   2.552   6.070  1.0202 -1.5684  0.7230
 5596SOL     OW28423   3.056   4.356   8.904 -0.2441 -0.1173  0.1381
 5596SOL    HW128424   3.063   4.412   8.827 -0.3615  0.0510  0.2495
 5596SOL    HW228425   3.120   4.398   8.962  0.6800 -1.1044 -0.1795
 5597SOL     OW28426   1.357   0.957   2.852  0.0171  0.2831  0.1621
 5597SOL    HW128427   1.301   1.033   2.841 -1.4794 -1.0024 -1.0906
 5597SOL    HW228428   1.286   0.904   2.888 -0.5349  0.6674 -0.3592
 5598SOL     OW28429   3.110   1.262   3.533  0.2979  0.2708 -0.2873
 5598SOL    HW128430   3.080   1.183   3.487 -1.2577  0.2979  0.6543
 5598SOL    HW228431   3.114   1.322   3.460 -0.0676  1.1811  0.4408
 5599SOL     OW28432   2.856   1.926   4.485  0.1671 -0.1196  0.1167
 5599SOL    HW128433   2.766   1.913   4.457  0.0610  0.6089  0.1252
 5599SOL    HW228434   2.892   1.839   4.503 -0.6530 -0.3755  0.5134
 5600SOL     OW28435   3.009   0.073   3.741  0.8893  0.0880 -0.2009
 5600SOL    HW128436   3.046   0.079   3.829  2.4004  0.8565 -0.9030
 5600SOL    HW228437   2.969   4.721   3.741 -1.5811  1.2308  3.9725
 5601SOL     OW28438   3.484   2.337   7.267  0.2078  0.4757 -0.0718
 5601SOL    HW128439   3.510   2.429   7.268  0.6297  0.3614 -0.7527
 5601SOL    HW228440   3.410   2.346   7.328  0.1440 -0.4248 -0.0052
 5602SOL     OW28441   4.601   3.800   5.747 -0.0505 -0.2504  0.0719
 5602SOL    HW128442   4.680   3.749   5.766  0.0360  0.1651  0.8089
 5602SOL    HW228443   4.544   3.771   5.817 -0.3291 -2.4033 -1.0441
 5603SOL     OW28444   1.440   2.373   8.362  0.2178  0.5793  0.0188
 5603SOL    HW128445   1.456   2.449   8.306  0.2657  0.9847  0.5854
 5603SOL    HW228446   1.345   2.372   8.370  0.2336  1.4495  0.3481
 5604SOL     OW28447   4.485   2.410   6.360  0.7837 -0.8530  0.4902
 5604SOL    HW128448   4.555   2.361   6.317  0.8624  1.2672 -1.7703
 5604SOL    HW228449   4.531   2.493   6.372 -1.3383  0.3093  0.5947
 5605SOL     OW28450   3.733   4.071  17.003  0.1482 -0.1669  0.6467
 5605SOL    HW128451   3.674   4.012  17.050 -0.8934  0.0121 -0.4519
 5605SOL    HW228452   3.773   4.104  17.084  1.9120 -0.0396 -0.2710
 5606SOL     OW28453   0.536   2.841  12.151 -0.7053 -0.0198  0.2102
 5606SOL    HW128454   0.484   2.850  12.071  0.8134  0.6577 -0.7094
 5606SOL    HW228455   0.523   2.933  12.173  0.4856  0.7226 -2.1452
 5607SOL     OW28456   4.520   3.019   1.657 -0.2703  0.4736  0.8042
 5607SOL    HW128457   4.470   2.939   1.676  0.0084  0.4469  1.4248
 5607SOL    HW228458   4.513   3.058   1.744 -1.0271 -1.1579  1.4809
 5608SOL     OW28459   0.603   2.373   6.923  0.4076 -0.0100  0.0734
 5608SOL    HW128460   0.672   2.350   6.860  0.0223  0.1956 -0.4191
 5608SOL    HW228461   0.578   2.459   6.891 -1.8804 -0.9394 -0.5860
 5609SOL     OW28462   3.112   1.380  12.597  0.1421  0.3247  0.9982
 5609SOL    HW128463   3.095   1.349  12.508 -0.1804  1.7667  0.5653
 5609SOL    HW228464   3.058   1.458  12.589 -0.6574 -0.2870  0.4574
 5610SOL     OW28465   3.858   1.312   7.556 -0.0724  0.7294  0.6592
 5610SOL    HW128466   3.827   1.272   7.637 -2.0066  0.7616 -0.0519
 5610SOL    HW228467   3.780   1.368   7.550 -0.1212  0.4857 -1.0238
 5611SOL     OW28468   3.906   2.202   8.487  0.0146 -0.0875 -0.1361
 5611SOL    HW128469   3.974   2.188   8.552 -0.4048 -0.6377  0.1844
 5611SOL    HW228470   3.945   2.257   8.419 -0.8265 -1.4544 -1.7333
 5612SOL     OW28471   3.453   0.084   4.520 -0.2705  0.0840 -0.7010
 5612SOL    HW128472   3.364   0.117   4.509 -1.0245 -2.0585 -1.0370
 5612SOL    HW228473   3.460   0.039   4.604  1.1025  1.3174 -0.1509
 5613SOL     OW28474   3.422   4.248   0.827  0.0333  0.1496  0.1998
 5613SOL    HW128475   3.355   4.185   0.798  0.5405 -0.8710  1.2519
 5613SOL    HW228476   3.405   4.240   0.920 -1.3185  1.1260  0.0428
 5614SOL     OW28477   1.434   3.300  14.797  0.0435  0.1243 -0.1371
 5614SOL    HW128478   1.401   3.386  14.822 -1.7310 -0.7100  0.3414
 5614SOL    HW228479   1.524   3.319  14.771 -0.7418  1.3554 -1.9128
 5615SOL     OW28480   1.396   4.674   7.192 -0.2648  0.0316  0.1118
 5615SOL    HW128481   1.419   4.583   7.178 -4.3853 -1.0096 -0.0392
 5615SOL    HW228482   1.303   4.677   7.215 -0.9751 -1.7656 -2.5954
 5616SOL     OW28483   2.094   4.558   8.268 -0.0310 -0.3711 -0.1479
 5616SOL    HW128484   2.010   4.564   8.222  0.3704 -1.0889 -0.9681
 5616SOL    HW228485   2.089   4.462   8.273 -1.1546 -0.2384  1.4601
 5617SOL     OW28486   1.485   3.279  15.628 -0.0472  0.9973 -0.0394
 5617SOL    HW128487   1.425   3.243  15.693  1.4540 -1.2996  0.0913
 5617SOL    HW228488   1.477   3.213  15.560  3.7688  0.3126  0.1427
 5618SOL     OW28489   0.280   0.200   7.945 -0.4752  0.0956  0.2366
 5618SOL    HW128490   0.208   0.169   8.000 -0.6438 -0.3999 -0.2649
 5618SOL    HW228491   0.320   0.267   8.001  1.2954 -0.3674 -0.4848
 5619SOL     OW28492   2.253   3.017   4.940 -0.0853  0.0161 -0.3105
 5619SOL    HW128493   2.163   2.999   4.968 -0.3690 -0.4348 -1.4940
 5619SOL    HW228494   2.302   2.961   5.000 -0.4837  0.5302  0.4913
 5620SOL     OW28495   2.995   2.069   7.657  0.2688 -0.2093  0.2661
 5620SOL    HW128496   3.061   2.013   7.617  1.8670  0.9494  1.2779
 5620SOL    HW228497   3.038   2.153   7.673 -0.0181 -0.0284  0.0903
 5621SOL     OW28498   0.327   1.610  14.207 -0.4997 -0.2949  0.0447
 5621SOL    HW128499   0.373   1.539  14.252 -1.4930  1.0359  3.1057
 5621SOL    HW228500   0.350   1.669  14.278 -1.6334  0.3713 -0.1413
 5622SOL     OW28501   1.483   0.027  12.794 -0.8283  0.0805 -0.1210
 5622SOL    HW128502   1.444   4.688  12.747  1.1581  0.0124 -1.6745
 5622SOL    HW228503   1.427   0.037  12.871 -1.4836  1.3379 -0.7700
 5623SOL     OW28504   1.439   2.004  16.026 -0.6179  0.3919  0.4132
 5623SOL    HW128505   1.489   1.925  16.005  1.1917  1.5311  0.4027
 5623SOL    HW228506   1.410   1.976  16.112  0.0412  1.3051  0.9324
 5624SOL     OW28507   3.486   1.364  13.012 -0.2270 -0.1341  0.1822
 5624SOL    HW128508   3.416   1.320  13.060 -0.3270 -0.9805 -0.7554
 5624SOL    HW228509   3.450   1.391  12.927 -0.7094  0.5127  0.5873
 5625SOL     OW28510   2.373   3.188   3.268 -0.3649 -0.0928 -0.2863
 5625SOL    HW128511   2.419   3.265   3.300  0.3922 -0.5996 -0.1489
 5625SOL    HW228512   2.281   3.211   3.282  0.4514  2.6557  0.4161
 5626SOL     OW28513   1.099   1.729  14.600 -0.1326  0.6264 -0.1072
 5626SOL    HW128514   1.122   1.717  14.693  2.7294 -1.5549 -1.0585
 5626SOL    HW228515   1.186   1.747  14.564  0.3235  0.8214  1.0547
 5627SOL     OW28516   1.623   0.482  13.912 -0.1194  0.2171 -0.2830
 5627SOL    HW128517   1.672   0.557  13.946 -0.5693  0.4445 -0.1411
 5627SOL    HW228518   1.566   0.455  13.984  1.3205  0.3140  0.8859
 5628SOL     OW28519   3.383   1.173   1.948  0.1554  0.0396  0.0009
 5628SOL    HW128520   3.351   1.095   1.902  0.6590 -0.2771  0.1847
 5628SOL    HW228521   3.465   1.193   1.904 -0.5359  1.9253 -0.4430
 5629SOL     OW28522   1.238   2.854   6.544 -0.6902 -0.2823 -0.2586
 5629SOL    HW128523   1.217   2.761   6.546 -1.6998 -0.0154  1.9614
 5629SOL    HW228524   1.157   2.887   6.582  0.2904  1.7979  0.0188
 5630SOL     OW28525   4.569   1.650  15.698 -0.2486  0.3546 -0.4599
 5630SOL    HW128526   4.488   1.618  15.658 -1.6424 -0.1637  2.8550
 5630SOL    HW228527   4.586   1.567  15.742  0.6099  0.0078 -1.4330
 5631SOL     OW28528   3.174   4.125   8.076  0.1848 -0.3828 -0.4168
 5631SOL    HW128529   3.115   4.055   8.104 -0.4649  0.6717  0.8837
 5631SOL    HW228530   3.156   4.117   7.982  1.1149 -1.8631 -0.4637
 5632SOL     OW28531   1.552   0.623   3.031  0.0475 -0.8143  0.2312
 5632SOL    HW128532   1.627   0.680   3.047 -1.1427  0.0609  2.8028
 5632SOL    HW228533   1.555   0.574   3.113  0.5986 -0.2179  0.5748
 5633SOL     OW28534   2.634   0.072   9.622 -0.0037  0.6803  0.0492
 5633SOL    HW128535   2.654   0.078   9.529  0.1300 -2.1206 -0.0943
 5633SOL    HW228536   2.625   0.166   9.640 -0.6587  0.7036 -0.4337
 5634SOL     OW28537   0.914   3.675   3.117 -0.0774 -0.0053  0.2713
 5634SOL    HW128538   0.923   3.752   3.060  0.1994  0.9105  1.5478
 5634SOL    HW228539   0.882   3.623   3.044 -0.7358  0.7891 -0.0002
 5635SOL     OW28540   0.420   2.275   3.899 -0.0639  0.4249  0.2010
 5635SOL    HW128541   0.459   2.341   3.956  0.6575  0.9322 -0.8922
 5635SOL    HW228542   0.331   2.254   3.926 -0.7330 -0.5586 -2.7969
 5636SOL     OW28543   1.138   1.748   4.393  0.1744  0.3311  0.0758
 5636SOL    HW128544   1.127   1.662   4.435 -0.1076  0.3908  0.1265
 5636SOL    HW228545   1.136   1.729   4.299  0.4370  2.2122 -0.3032
 5637SOL     OW28546   1.257   1.494   4.961  0.5901 -0.1603 -0.3340
 5637SOL    HW128547   1.329   1.553   4.941 -0.5052  1.2005 -0.2213
 5637SOL    HW228548   1.258   1.502   5.057 -0.1558 -1.2764 -0.2337
 5638SOL     OW28549   0.702   1.236  14.303 -0.5420  0.8764  0.3593
 5638SOL    HW128550   0.752   1.194  14.233 -0.7509  1.0766  0.0903
 5638SOL    HW228551   0.721   1.165  14.365  2.1969  0.6058 -0.7928
 5639SOL     OW28552   2.579   0.005   2.148 -0.2289  0.2566  0.7132
 5639SOL    HW128553   2.507   4.676   2.143  0.8204 -1.0120  1.6715
 5639SOL    HW228554   2.663   4.695   2.152 -1.1327 -1.5792 -0.4045
 5640SOL     OW28555   3.304   2.660   4.353  0.1215 -0.3221 -0.6502
 5640SOL    HW128556   3.223   2.638   4.308 -1.1011  0.6402  1.0776
 5640SOL    HW228557   3.355   2.581   4.333  0.9765 -0.3709  1.6207
 5641SOL     OW28558   2.533   1.707   6.453  0.0502 -0.0935 -0.0724
 5641SOL    HW128559   2.580   1.780   6.493  0.1341 -0.7559  1.0516
 5641SOL    HW228560   2.447   1.705   6.496 -0.0123 -1.4570 -0.2539
 5642SOL     OW28561   3.313   0.422  14.811 -0.0618  0.0069 -0.2061
 5642SOL    HW128562   3.252   0.350  14.827 -1.2025  1.1152  0.4218
 5642SOL    HW228563   3.401   0.385  14.808 -0.6655 -1.4119 -0.1439
 5643SOL     OW28564   3.394   1.360   2.482 -0.6220 -0.0137 -0.1965
 5643SOL    HW128565   3.349   1.442   2.459  0.4681  0.3722 -0.9530
 5643SOL    HW228566   3.356   1.289   2.430  0.0928 -1.9206  1.9248
 5644SOL     OW28567   1.734   1.284   1.308 -0.1548 -0.9712 -0.3659
 5644SOL    HW128568   1.761   1.233   1.384  0.2816 -0.1971  0.0013
 5644SOL    HW228569   1.674   1.351   1.342 -0.1165  0.0079 -2.2291
 5645SOL     OW28570   3.436   3.421   4.843  0.3866  0.2554  0.5184
 5645SOL    HW128571   3.490   3.351   4.880  0.5574  1.4529  2.5587
 5645SOL    HW228572   3.479   3.502   4.869  1.2322  0.1650 -0.6387
 5646SOL     OW28573   3.427   2.686   6.230  0.1771  0.7267  0.4973
 5646SOL    HW128574   3.447   2.594   6.215 -0.6175  0.4040  1.4361
 5646SOL    HW228575   3.399   2.686   6.321 -0.1919  0.2086  0.3872
 5647SOL     OW28576   2.744   1.782   2.682  0.0853 -0.7072 -0.2965
 5647SOL    HW128577   2.690   1.821   2.750 -2.4543 -2.2324 -1.4704
 5647SOL    HW228578   2.692   1.762   2.604  1.6545 -0.0316 -1.5294
 5648SOL     OW28579   1.746   1.330   4.176  0.1923  0.0566 -0.4982
 5648SOL    HW128580   1.823   1.366   4.220  0.0469 -0.6742  0.3527
 5648SOL    HW228581   1.737   1.249   4.227  0.3209 -0.0520 -0.6496
 5649SOL     OW28582   3.422   2.821   7.905  0.2455  0.9288  0.2309
 5649SOL    HW128583   3.396   2.730   7.893  1.8983  0.1723  2.3342
 5649SOL    HW228584   3.516   2.806   7.911  0.5757  2.8315  0.0098
 5650SOL     OW28585   2.832   3.188   9.296 -0.1279 -0.5469 -0.1579
 5650SOL    HW128586   2.880   3.114   9.259  0.4767  0.8616 -2.1911
 5650SOL    HW228587   2.753   3.138   9.316  0.6193 -0.5275  2.7742
 5651SOL     OW28588   3.247   1.741  16.603 -0.0529  0.0930 -0.0635
 5651SOL    HW128589   3.206   1.781  16.526  1.2688  3.3552  0.9061
 5651SOL    HW228590   3.277   1.659  16.566 -0.9539 -0.5406  0.6157
 5652SOL     OW28591   4.347   4.556  11.458 -0.5983 -0.0114 -0.2493
 5652SOL    HW128592   4.257   4.564  11.489 -0.8072 -2.1363 -0.3764
 5652SOL    HW228593   4.351   4.462  11.443  0.0377  0.2174 -1.4919
 5653SOL     OW28594   2.006   0.739   5.198  0.4021  0.0349  0.3274
 5653SOL    HW128595   2.009   0.715   5.105  0.3993 -0.3033  0.4172
 5653SOL    HW228596   2.046   0.655   5.219 -0.2219 -0.2561  0.3416
 5654SOL     OW28597   1.684   4.125  12.751 -0.8880  0.0350 -0.5929
 5654SOL    HW128598   1.678   4.043  12.702  2.0823  0.7022 -2.1182
 5654SOL    HW228599   1.715   4.098  12.838 -0.8453  0.5947 -0.4370
 5655SOL     OW28600   0.677   1.064   4.712 -0.5394  0.6310 -0.2179
 5655SOL    HW128601   0.656   1.084   4.621  0.7308 -0.8915 -0.8586
 5655SOL    HW228602   0.668   1.155   4.741  1.3001  0.7931 -0.1134
 5656SOL     OW28603   2.410   2.901   0.702 -0.1506 -0.4858  1.0127
 5656SOL    HW128604   2.412   2.839   0.629  0.4650  0.0796  0.5453
 5656SOL    HW228605   2.316   2.894   0.719 -0.6329  0.1637 -1.4975
 5657SOL     OW28606   4.213   2.141   3.686 -0.3610  1.0052  0.3867
 5657SOL    HW128607   4.141   2.085   3.660  0.8292 -0.4368  0.1971
 5657SOL    HW228608   4.246   2.152   3.597 -0.7086  2.9769  0.5037
 5658SOL     OW28609   4.077   2.774   8.635 -0.0971  0.0502 -0.2230
 5658SOL    HW128610   4.131   2.844   8.671 -0.3375 -0.1532  0.5276
 5658SOL    HW228611   4.121   2.755   8.552 -3.3128 -0.1401 -1.8688
 5659SOL     OW28612   3.406   2.735   0.555 -0.3358 -0.2347  0.4536
 5659SOL    HW128613   3.333   2.687   0.515  1.7061 -1.6874 -1.5622
 5659SOL    HW228614   3.364   2.820   0.564  1.1569  0.9060 -3.0611
 5660SOL     OW28615   0.197   1.225   3.581  0.1020 -0.0565 -0.1405
 5660SOL    HW128616   0.140   1.284   3.531 -0.1257 -0.0607  0.1096
 5660SOL    HW228617   0.194   1.149   3.524  2.1074  0.8429 -1.4455
 5661SOL     OW28618   4.264   0.625  16.992 -0.6744 -0.0536 -0.0529
 5661SOL    HW128619   4.221   0.657  16.913  1.5467 -1.7726 -1.9614
 5661SOL    HW228620   4.350   0.605  16.954 -1.2555 -2.1474 -0.2683
 5662SOL     OW28621   2.784   4.001  11.968 -0.1993  0.0894  0.4144
 5662SOL    HW128622   2.723   4.044  11.908 -0.3021 -1.0358 -0.2907
 5662SOL    HW228623   2.722   3.956  12.026  1.0151 -0.2783  1.4300
 5663SOL     OW28624   2.043   2.062  10.362 -0.1089  0.3523 -0.6457
 5663SOL    HW128625   2.072   1.999  10.296 -2.3152 -1.2769 -0.0553
 5663SOL    HW228626   2.123   2.113  10.378 -0.1255  0.0679  0.3336
 5664SOL     OW28627   2.154   2.293  12.888  0.1047 -0.1066 -1.1384
 5664SOL    HW128628   2.148   2.282  12.794 -1.0093 -0.8924 -0.9680
 5664SOL    HW228629   2.156   2.389  12.889  1.1487 -0.1270  0.9322
 5665SOL     OW28630   0.558   1.855   6.442  0.4988 -0.0200  0.0902
 5665SOL    HW128631   0.588   1.780   6.389  1.4289  0.2536  0.2349
 5665SOL    HW228632   0.532   1.814   6.525  1.6290  0.8354  0.8536
 5666SOL     OW28633   0.974   2.970   4.632 -0.2888  0.0863 -0.0117
 5666SOL    HW128634   1.024   2.938   4.557  1.7535  2.1298  0.4909
 5666SOL    HW228635   0.883   2.954   4.607 -0.1615  0.1195 -0.4941
 5667SOL     OW28636   0.853   2.543   4.074  0.2515  0.0850  0.1042
 5667SOL    HW128637   0.837   2.495   4.156 -0.9838  0.3778  0.0229
 5667SOL    HW228638   0.779   2.603   4.072  1.0519  1.0648 -0.1268
 5668SOL     OW28639   3.847   2.313   7.929 -0.3413  0.0926 -0.0788
 5668SOL    HW128640   3.832   2.266   7.848 -0.6164  0.4340 -0.2254
 5668SOL    HW228641   3.795   2.272   7.998 -1.0218 -0.9313 -1.2159
 5669SOL     OW28642   2.550   2.068  12.755 -0.4505  0.1282 -0.5035
 5669SOL    HW128643   2.515   2.127  12.688  0.5352  0.3055 -0.8569
 5669SOL    HW228644   2.470   2.035  12.795 -0.9548  1.0263 -0.7748
 5670SOL     OW28645   4.442   2.647   9.334  0.1215 -0.1254  0.1480
 5670SOL    HW128646   4.497   2.689   9.401 -0.7293 -0.3278  0.9649
 5670SOL    HW228647   4.508   2.596   9.287  0.5975  0.0935  0.5817
 5671SOL     OW28648   3.656   3.953   4.456  0.3640 -0.3620 -0.5593
 5671SOL    HW128649   3.567   3.925   4.437  0.5779 -1.7012  0.4136
 5671SOL    HW228650   3.679   4.027   4.400  2.1898 -2.1224 -2.1409
 5672SOL     OW28651   4.366   4.652   8.312  0.1257  0.4145 -0.2620
 5672SOL    HW128652   4.302   4.705   8.360  2.6599  1.8575  1.5419
 5672SOL    HW228653   4.318   4.570   8.308 -0.1236  0.5069  0.9684
 5673SOL     OW28654   0.128   2.172   7.041  0.1825 -0.5871  0.5620
 5673SOL    HW128655   0.153   2.083   7.068  2.4490  0.6687  2.5951
 5673SOL    HW228656   0.219   2.199   7.031 -0.4111  0.6162 -1.5993
 5674SOL     OW28657   1.921   3.741   0.993  0.0806 -0.2666 -0.0168
 5674SOL    HW128658   1.908   3.718   0.901  0.7896  1.8850 -0.6394
 5674SOL    HW228659   1.880   3.667   1.040  0.7353 -0.9053 -0.4605
 5675SOL     OW28660   1.411   0.785   3.643 -0.3472 -0.2540  1.0814
 5675SOL    HW128661   1.410   0.859   3.705 -0.9949 -0.9193  1.8608
 5675SOL    HW228662   1.349   0.730   3.691 -0.5415 -0.5294  0.5054
 5676SOL     OW28663   2.933   1.083   6.701 -0.2649  0.3781  0.3840
 5676SOL    HW128664   2.844   1.114   6.719 -0.4905  0.9522 -1.6971
 5676SOL    HW228665   2.916   0.989   6.699 -1.7797  0.6532 -0.4419
 5677SOL     OW28666   2.045   3.278   9.943 -0.3761 -0.3129  0.1484
 5677SOL    HW128667   2.017   3.208   9.884  3.6988 -0.4586 -1.5880
 5677SOL    HW228668   1.968   3.271  10.000  1.3123 -0.1642  2.4495
 5678SOL     OW28669   3.069   1.895   9.368  0.2621 -0.0304 -0.2977
 5678SOL    HW128670   3.087   1.964   9.432 -1.4458 -0.6081  0.8166
 5678SOL    HW228671   3.094   1.813   9.411 -1.4990  0.0696  0.9146
 5679SOL     OW28672   2.087   0.372   7.517 -0.0523 -0.1101  0.4302
 5679SOL    HW128673   2.138   0.294   7.496  2.2724  1.6387 -0.4101
 5679SOL    HW228674   2.158   0.434   7.535  2.0665 -2.0741 -1.2198
 5680SOL     OW28675   2.141   4.712   4.393 -0.1855 -0.5282 -0.3623
 5680SOL    HW128676   2.083   0.046   4.425  1.7572  1.5146 -1.2427
 5680SOL    HW228677   2.219   0.033   4.397 -0.4767 -0.1083 -0.5160
 5681SOL     OW28678   4.454   1.455  11.052 -0.4246  0.4758  0.7150
 5681SOL    HW128679   4.506   1.519  11.004  1.2747 -1.2938  0.2026
 5681SOL    HW228680   4.390   1.450  10.981  1.7885  0.2631 -1.2639
 5682SOL     OW28681   1.493   2.143   6.800 -0.0503  0.6175 -0.1011
 5682SOL    HW128682   1.467   2.106   6.715  2.4341 -2.0619  0.2754
 5682SOL    HW228683   1.588   2.131   6.798  0.3074  3.5040 -0.5528
 5683SOL     OW28684   2.304   0.440   8.104 -0.2069 -0.1214 -0.3952
 5683SOL    HW128685   2.229   0.447   8.045  1.6259 -2.0013 -2.9033
 5683SOL    HW228686   2.254   0.441   8.186 -4.2481  0.3626 -2.8455
 5684SOL     OW28687   0.530   0.502   6.162  0.2745 -0.1872 -0.1681
 5684SOL    HW128688   0.497   0.469   6.245  0.4622  0.2812  0.0890
 5684SOL    HW228689   0.530   0.593   6.191 -0.5282 -0.4135  0.5353
 5685SOL     OW28690   0.199   2.378   9.480  0.1003  0.5532 -0.0408
 5685SOL    HW128691   0.268   2.325   9.440  0.6890 -0.0829  1.8237
 5685SOL    HW228692   0.199   2.338   9.567  1.5814  0.5467 -0.0466
 5686SOL     OW28693   3.677   3.323   3.540  0.5404 -0.0967 -0.1468
 5686SOL    HW128694   3.612   3.319   3.610  0.8766  1.2509  0.2400
 5686SOL    HW228695   3.754   3.277   3.574 -1.7634 -1.7796  2.7576
 5687SOL     OW28696   3.735   0.325  12.819 -0.0055 -0.1700  0.3979
 5687SOL    HW128697   3.668   0.353  12.758  0.7260  0.6759 -0.0202
 5687SOL    HW228698   3.757   0.408  12.863  1.8891 -0.5710  0.2241
 5688SOL     OW28699   3.436   2.142  10.347 -0.2590  0.6968  0.6903
 5688SOL    HW128700   3.530   2.138  10.362 -0.6042 -0.9310  2.5192
 5688SOL    HW228701   3.430   2.171  10.256 -0.5336 -0.6311  0.2840
 5689SOL     OW28702   1.183   0.068   6.371 -0.0793 -0.2588 -0.1055
 5689SOL    HW128703   1.201   0.148   6.420  0.8119  0.3650 -1.4542
 5689SOL    HW228704   1.249   0.082   6.303  2.2930 -1.3020  2.0002
 5690SOL     OW28705   4.382   3.202   8.630 -0.3407 -0.3841 -0.3612
 5690SOL    HW128706   4.460   3.229   8.679 -1.2220  1.5187 -0.0010
 5690SOL    HW228707   4.358   3.280   8.580  0.1195  0.7416  1.1576
 5691SOL     OW28708   3.047   2.602   9.316  0.2028 -0.2621  0.0734
 5691SOL    HW128709   2.976   2.644   9.365  0.1308 -0.7997  0.4279
 5691SOL    HW228710   3.101   2.574   9.390  0.4466  1.9490  0.7461
 5692SOL     OW28711   4.538   3.945   4.093 -0.1220  0.1420  0.6431
 5692SOL    HW128712   4.484   3.979   4.021  0.5196  1.6142  0.8497
 5692SOL    HW228713   4.621   3.925   4.050 -1.4091  0.8283 -2.2148
 5693SOL     OW28714   3.183   2.521   3.654  0.3063 -0.2466  0.0817
 5693SOL    HW128715   3.199   2.451   3.591 -2.0025 -0.0484 -0.7307
 5693SOL    HW228716   3.213   2.485   3.737  0.5846  1.3825  0.6870
 5694SOL     OW28717   1.232   4.713   4.171  0.5842  0.2015 -0.0617
 5694SOL    HW128718   1.215   0.003   4.080  1.0389 -0.2365 -0.2640
 5694SOL    HW228719   1.322   0.009   4.179  0.4633  0.8149 -1.0245
 5695SOL     OW28720   2.177   4.244   9.186 -0.9386  0.0914 -0.2818
 5695SOL    HW128721   2.157   4.337   9.174 -2.3523 -0.4593 -2.3088
 5695SOL    HW228722   2.263   4.244   9.226 -0.8804 -3.0440 -0.3814
 5696SOL     OW28723   0.816   1.758  13.059 -0.0209 -0.1710 -0.2134
 5696SOL    HW128724   0.734   1.730  13.099  0.3400 -0.0627  0.5972
 5696SOL    HW228725   0.873   1.684  13.079  0.5672  0.0406 -1.0735
 5697SOL     OW28726   0.817   0.226   6.726 -0.0570 -0.1573  0.2165
 5697SOL    HW128727   0.782   0.211   6.638 -1.9386 -2.2478  1.3090
 5697SOL    HW228728   0.898   0.273   6.706  0.2002 -1.3044 -1.4323
 5698SOL     OW28729   3.233   3.030   1.800  0.0139 -0.1361 -0.1074
 5698SOL    HW128730   3.211   2.950   1.847 -1.5023 -0.1326 -0.7952
 5698SOL    HW228731   3.194   3.100   1.853 -1.3370 -2.0874  1.4889
 5699SOL     OW28732   0.331   4.010   4.089  0.0610 -0.2833  0.1978
 5699SOL    HW128733   0.343   4.097   4.051 -1.5380 -0.3323 -0.4014
 5699SOL    HW228734   0.371   3.947   4.030  0.5812 -1.6244  1.9881
 5700SOL     OW28735   1.446   3.492   9.484 -0.3827  0.0048  0.0611
 5700SOL    HW128736   1.390   3.559   9.522 -0.4965  1.5176 -2.7381
 5700SOL    HW228737   1.387   3.418   9.474  0.2394 -0.2250 -2.1106
 5701SOL     OW28738   0.031   2.010   7.795  0.0094 -0.5288  0.3044
 5701SOL    HW128739   0.050   2.095   7.836  1.6378 -1.5091  1.5780
 5701SOL    HW228740   0.005   1.955   7.870  2.9672  0.4375  2.0403
 5702SOL     OW28741   4.721   3.154   6.990 -0.0070 -0.0704  0.3678
 5702SOL    HW128742   0.065   3.209   6.988 -0.4835  0.5747 -0.5589
 5702SOL    HW228743   4.733   3.108   7.073  0.1788  0.6393  0.7359
 5703SOL     OW28744   0.738   2.489   4.720 -0.4758 -0.4973 -0.4270
 5703SOL    HW128745   0.680   2.417   4.697 -0.5036 -0.6750  0.1910
 5703SOL    HW228746   0.730   2.556   4.652 -0.3305 -1.1738 -1.1099
 5704SOL     OW28747   2.723   4.553  14.569 -0.1399 -0.3179  0.2209
 5704SOL    HW128748   2.661   4.622  14.546  1.3111  0.1530 -2.2829
 5704SOL    HW228749   2.680   4.472  14.542 -0.0517  0.2510 -1.6651
 5705SOL     OW28750   3.971   4.229  10.978  0.4041 -0.1830  0.1021
 5705SOL    HW128751   4.063   4.246  10.999  0.5376  1.7435 -2.0317
 5705SOL    HW228752   3.977   4.134  10.984  0.7920 -0.2831 -1.8515
 5706SOL     OW28753   4.617   2.156   4.282  0.0353  0.4798  0.7268
 5706SOL    HW128754   4.543   2.133   4.226 -0.4379  0.5090  1.3469
 5706SOL    HW228755   4.628   2.078   4.336  0.8351  0.8271  1.0723
 5707SOL     OW28756   2.900   2.387   3.781  0.3981  0.7975  0.8851
 5707SOL    HW128757   2.858   2.447   3.843 -0.8802 -0.1168  0.9090
 5707SOL    HW228758   2.992   2.408   3.794 -0.0704  1.7203  2.7013
 5708SOL     OW28759   4.299   1.136  17.486  0.0988  0.7700  0.3164
 5708SOL    HW128760   4.226   1.171  17.436 -1.1876 -1.7955  0.4383
 5708SOL    HW228761   4.311   1.050  17.447  2.0385  1.9392 -1.6441
 5709SOL     OW28762   3.381   2.875  15.962  0.0346  0.3737  0.7867
 5709SOL    HW128763   3.361   2.931  15.886 -0.4067 -0.1400  0.5222
 5709SOL    HW228764   3.318   2.907  16.026 -0.4393 -0.9714  0.9924
 5710SOL     OW28765   3.167   1.128   8.606 -0.1382  0.7253 -0.1500
 5710SOL    HW128766   3.151   1.180   8.684 -0.4765 -0.0976  0.3324
 5710SOL    HW228767   3.224   1.186   8.555 -0.7999  0.5609 -1.0735
 5711SOL     OW28768   3.473   3.864   6.646  0.0338  0.6035 -0.3716
 5711SOL    HW128769   3.541   3.902   6.591  2.5285 -2.0112  0.9097
 5711SOL    HW228770   3.509   3.891   6.731  1.8685 -1.0500 -0.6179
 5712SOL     OW28771   0.492   3.515   3.034  0.0659 -0.5333 -0.0795
 5712SOL    HW128772   0.443   3.575   2.978  0.1054 -1.6153 -1.2787
 5712SOL    HW228773   0.454   3.538   3.119 -0.7661  0.8332 -0.8268
 5713SOL     OW28774   2.425   0.960  13.571 -0.3247 -0.0393  0.1386
 5713SOL    HW128775   2.451   1.052  13.584  1.5195 -0.7218  1.2430
 5713SOL    HW228776   2.330   0.966  13.562 -0.2856 -2.1371 -1.6052
 5714SOL     OW28777   0.102   4.470  12.518 -0.7370 -0.4849 -0.1778
 5714SOL    HW128778   0.192   4.436  12.519 -0.0434  1.4268  0.7431
 5714SOL    HW228779   0.104   4.562  12.491 -2.8635  0.0688  1.5931
 5715SOL     OW28780   1.877   2.959  12.360 -0.2944  0.1465 -0.2525
 5715SOL    HW128781   1.876   2.870  12.394  0.8473 -0.1560 -1.0015
 5715SOL    HW228782   1.850   2.999  12.443  2.0278 -1.0333  1.0748
 5716SOL     OW28783   4.294   1.142   9.665 -0.7070 -0.3161 -0.3483
 5716SOL    HW128784   4.334   1.208   9.721 -0.9958  0.0314 -0.5438
 5716SOL    HW228785   4.336   1.162   9.581 -0.7613 -2.1236 -0.7908
 5717SOL     OW28786   3.020   1.912  10.659 -0.0441  0.0236 -0.2122
 5717SOL    HW128787   2.928   1.891  10.673 -0.4551  1.5936 -0.5434
 5717SOL    HW228788   3.023   1.899  10.564 -3.0420 -2.7572  0.0963
 5718SOL     OW28789   2.945   0.282   5.974 -0.5443  0.2022 -0.4522
 5718SOL    HW128790   2.855   0.281   5.941 -0.4250  2.6830 -0.8510
 5718SOL    HW228791   2.937   0.230   6.054  2.2857  0.4220 -0.0490
 5719SOL     OW28792   0.148   4.153   8.772  0.2038 -0.5271  0.2664
 5719SOL    HW128793   0.213   4.179   8.838  1.0491  2.0245 -1.5334
 5719SOL    HW228794   0.155   4.058   8.782  1.2336 -0.3668  1.0918
 5720SOL     OW28795   1.484   3.547   6.264 -0.0072 -0.6992 -0.0041
 5720SOL    HW128796   1.473   3.642   6.264 -1.1052 -0.8089  3.7645
 5720SOL    HW228797   1.579   3.549   6.279 -0.4378  1.1694  2.4534
 5721SOL     OW28798   3.683   0.394   1.237 -0.5248 -0.4779  0.3521
 5721SOL    HW128799   3.672   0.488   1.252 -1.4844 -0.2821 -1.6786
 5721SOL    HW228800   3.605   0.385   1.183 -1.1092  2.6040  0.6802
 5722SOL     OW28801   1.209   1.401   7.894  0.1895 -0.0284 -0.7738
 5722SOL    HW128802   1.158   1.478   7.871  1.8128  0.2107 -3.4511
 5722SOL    HW228803   1.281   1.438   7.945 -0.1149  1.6976 -1.6128
 5723SOL     OW28804   2.715   1.669  16.780  0.3270  0.2175 -0.1088
 5723SOL    HW128805   2.732   1.612  16.855  1.3516 -0.2938 -0.7332
 5723SOL    HW228806   2.689   1.600  16.720  1.6246 -0.3128 -0.0643
 5724SOL     OW28807   1.200   3.523   5.434  0.3247  0.6259 -0.2490
 5724SOL    HW128808   1.171   3.614   5.441  0.4401  0.5204  1.4821
 5724SOL    HW228809   1.276   3.513   5.491 -0.4514  3.5021  1.2663
 5725SOL     OW28810   1.603   1.251   2.141 -0.0627  0.0620  0.0207
 5725SOL    HW128811   1.517   1.246   2.098 -0.3955 -0.2282  0.7044
 5725SOL    HW228812   1.656   1.290   2.072  0.2960  1.8270  1.3093
 5726SOL     OW28813   4.262   0.084   4.889 -0.1103 -0.2814 -0.3946
 5726SOL    HW128814   4.350   0.071   4.925  0.4596  1.3768 -1.1842
 5726SOL    HW228815   4.286   0.123   4.805 -3.4224  0.4903 -0.9565
 5727SOL     OW28816   3.616   1.770  17.647  0.4688  0.1099  0.3064
 5727SOL    HW128817   3.549   1.725  17.698  0.9006 -0.4931  0.3500
 5727SOL    HW228818   3.568   1.800  17.570  0.0775 -0.8455  0.1822
 5728SOL     OW28819   1.833   0.468   9.521  0.0584  0.2708 -0.0636
 5728SOL    HW128820   1.838   0.488   9.427  1.8571 -1.9232 -0.4249
 5728SOL    HW228821   1.906   0.522   9.553  0.0781  0.4693 -0.4334
 5729SOL     OW28822   3.050   1.566   8.933  0.4643 -0.7651  0.3650
 5729SOL    HW128823   2.954   1.573   8.926  0.4322 -1.3959  0.2462
 5729SOL    HW228824   3.082   1.652   8.906 -1.6853 -0.5674 -1.5589
 5730SOL     OW28825   4.233   1.021   9.910  0.8638  0.1604 -0.3087
 5730SOL    HW128826   4.256   1.073   9.833 -0.1363  0.0040 -0.7207
 5730SOL    HW228827   4.280   1.063   9.982  1.7814  1.2209 -1.5296
 5731SOL     OW28828   2.168   3.570   8.555 -0.2534 -0.9787  0.7393
 5731SOL    HW128829   2.218   3.649   8.574 -1.4257  0.7082 -3.2655
 5731SOL    HW228830   2.086   3.596   8.597 -0.6244  0.4178 -0.8710
 5732SOL     OW28831   4.071   3.592  16.140 -0.1132  0.2523  0.3091
 5732SOL    HW128832   4.065   3.680  16.102 -0.3145 -0.5272 -1.4231
 5732SOL    HW228833   3.994   3.549  16.104  0.6366 -2.1531  1.5857
 5733SOL     OW28834   3.047   0.795  11.159  0.0580  0.1102 -0.8307
 5733SOL    HW128835   3.059   0.700  11.156  2.2288  0.2988  1.4187
 5733SOL    HW228836   2.963   0.805  11.114 -1.3410 -0.4028  1.6546
 5734SOL     OW28837   2.828   4.563  11.285 -0.2063 -0.2464  0.3903
 5734SOL    HW128838   2.741   4.542  11.252  0.7703  0.1277 -2.4759
 5734SOL    HW228839   2.892   4.498  11.254  2.2749  3.2799 -1.8577
 5735SOL     OW28840   3.349   1.316   8.521 -0.1417  0.0478 -0.3940
 5735SOL    HW128841   3.443   1.306   8.529 -0.1224  0.8397  0.3213
 5735SOL    HW228842   3.341   1.364   8.438 -2.8187 -0.6208 -0.5387
 5736SOL     OW28843   1.328   1.357   9.244 -0.0585  0.9112  0.5205
 5736SOL    HW128844   1.245   1.391   9.279 -0.5488  1.0395 -0.7461
 5736SOL    HW228845   1.362   1.307   9.318  1.2318 -0.0474 -0.7235
 5737SOL     OW28846   3.191   3.165  10.423  0.6174 -0.2338 -0.0857
 5737SOL    HW128847   3.147   3.105  10.363 -1.1718 -0.7524  1.7527
 5737SOL    HW228848   3.281   3.148  10.395  0.6680  1.8230 -1.1583
 5738SOL     OW28849   4.443   2.497   2.136 -0.4963  0.0445  0.1245
 5738SOL    HW128850   4.443   2.580   2.087 -0.3912 -0.3638 -0.5652
 5738SOL    HW228851   4.479   2.440   2.068 -1.6641  1.0583 -1.3452
 5739SOL     OW28852   2.211   1.959   0.205 -0.7301  0.0849 -0.3416
 5739SOL    HW128853   2.284   1.911   0.244 -1.3020  0.6595  1.4482
 5739SOL    HW228854   2.209   1.922   0.116 -4.4813 -0.3192 -0.0903
 5740SOL     OW28855   0.051   3.509   5.503  0.1584  0.3423  0.0358
 5740SOL    HW128856   0.042   3.434   5.561  0.3150 -0.5370 -1.0820
 5740SOL    HW228857   0.082   3.469   5.421  1.5735 -0.6951  1.0868
 5741SOL     OW28858   0.070   3.288   0.723  0.4551  0.1614 -0.1031
 5741SOL    HW128859   4.714   3.265   0.741  0.4160  0.5124  0.1361
 5741SOL    HW228860   0.084   3.242   0.640 -2.5692 -0.4038 -0.2968
 5742SOL     OW28861   4.326   4.211   7.426  0.2496 -0.2698 -0.8970
 5742SOL    HW128862   4.293   4.298   7.403  0.8212  0.4640  1.0526
 5742SOL    HW228863   4.285   4.154   7.360 -0.1406 -3.2099  1.8782
 5743SOL     OW28864   2.221   0.707   4.797  0.0792  0.0329 -0.2886
 5743SOL    HW128865   2.295   0.658   4.834 -1.5061 -0.1518  2.6523
 5743SOL    HW228866   2.162   0.636   4.772  0.1194  0.1013 -0.5700
 5744SOL     OW28867   4.041   2.282   6.401 -0.4259  0.4766 -0.4805
 5744SOL    HW128868   3.970   2.282   6.337 -1.3320  0.8992  0.5389
 5744SOL    HW228869   4.057   2.376   6.413 -0.5610  0.5171 -0.6277
 5745SOL     OW28870   3.324   4.143  17.221 -0.3992  0.7099  0.1224
 5745SOL    HW128871   3.289   4.211  17.279 -1.7458 -0.9155  1.2269
 5745SOL    HW228872   3.251   4.082  17.217 -0.4034  0.8475 -1.8906
 5746SOL     OW28873   3.724   4.022   3.799 -0.3357  0.2148  0.3515
 5746SOL    HW128874   3.706   3.976   3.717 -0.5466 -0.7340  0.9284
 5746SOL    HW228875   3.819   4.014   3.803 -0.2798  0.7368  0.1094
 5747SOL     OW28876   2.989   1.750   6.210  0.4095  0.6087  0.1868
 5747SOL    HW128877   3.002   1.803   6.131  1.5484 -1.7015 -1.1851
 5747SOL    HW228878   2.965   1.815   6.276 -0.9189 -0.0873  0.4010
 5748SOL     OW28879   3.964   4.691   3.047 -0.1043 -0.0805 -0.1515
 5748SOL    HW128880   3.943   4.674   2.955  0.6400  2.2851 -0.7562
 5748SOL    HW228881   4.033   4.625   3.060 -1.3947 -1.1196  1.3254
 5749SOL     OW28882   3.529   1.353  13.605  0.1986 -0.0550  0.4236
 5749SOL    HW128883   3.524   1.286  13.537 -1.3382  0.7355 -0.2399
 5749SOL    HW228884   3.457   1.320  13.660 -1.2952 -0.3219 -1.7167
 5750SOL     OW28885   2.261   1.983   7.030 -0.3455  0.2398 -0.2453
 5750SOL    HW128886   2.305   1.934   7.099 -1.2054 -1.6484 -1.0477
 5750SOL    HW228887   2.272   1.933   6.949  0.7148 -0.9937  0.6620
 5751SOL     OW28888   0.733   1.742   3.667 -0.2122 -0.2797  0.4978
 5751SOL    HW128889   0.713   1.653   3.696  1.3964 -0.6298  0.5346
 5751SOL    HW228890   0.827   1.743   3.682 -0.1235  2.2563 -0.1931
 5752SOL     OW28891   4.241   0.087   2.222 -0.2388 -0.5237  0.2345
 5752SOL    HW128892   4.157   0.042   2.236 -1.4381  1.2039 -1.4073
 5752SOL    HW228893   4.217   0.148   2.152  2.9280  0.4686  0.0356
 5753SOL     OW28894   0.054   0.135   4.232 -0.2580 -0.3606 -0.5239
 5753SOL    HW128895   4.719   0.188   4.194  0.5323  0.9819 -0.1104
 5753SOL    HW228896   0.073   0.205   4.294 -0.9504  0.6185 -1.4118
 5754SOL     OW28897   1.729   0.821  13.926 -0.1810 -0.6137  0.2900
 5754SOL    HW128898   1.726   0.906  13.971 -1.7883  0.8416 -2.6147
 5754SOL    HW228899   1.667   0.837  13.855 -0.4088  1.0833  0.8709
 5755SOL     OW28900   1.927   2.776   4.712 -0.0653  0.5689 -0.1848
 5755SOL    HW128901   1.963   2.862   4.734  0.9463  0.0498  0.2000
 5755SOL    HW228902   1.837   2.787   4.743 -0.0453  1.2348 -0.3647
 5756SOL     OW28903   4.323   0.526   9.552  0.2903 -0.0509 -0.3633
 5756SOL    HW128904   4.337   0.465   9.625  1.7241 -1.2984 -1.6835
 5756SOL    HW228905   4.238   0.506   9.515  0.9998 -1.0555 -1.4361
 5757SOL     OW28906   0.562   1.888  16.327 -0.5295  0.6060 -0.0233
 5757SOL    HW128907   0.610   1.835  16.264  0.8058  1.5531  0.1976
 5757SOL    HW228908   0.595   1.975  16.305 -0.0111  0.9646  2.1909
 5758SOL     OW28909   2.641   1.408   3.283 -0.0304  0.2971 -0.1307
 5758SOL    HW128910   2.587   1.466   3.229 -0.1826  0.1039 -0.1860
 5758SOL    HW228911   2.675   1.354   3.211  2.4747  1.8677 -0.1247
 5759SOL     OW28912   1.773   2.540  17.538 -0.0038  0.3426 -0.2113
 5759SOL    HW128913   1.817   2.619  17.571  0.6119 -0.0982  0.0132
 5759SOL    HW228914   1.793   2.469  17.599 -0.8445  1.1392  0.9861
 5760SOL     OW28915   2.763   2.408   4.053  0.5385 -0.3640  0.0102
 5760SOL    HW128916   2.783   2.411   4.147 -0.6923 -1.1983  0.2969
 5760SOL    HW228917   2.731   2.496   4.032 -0.7957 -0.7921  0.2264
 5761SOL     OW28918   4.651   2.377   4.914 -0.2938 -0.3192  0.4508
 5761SOL    HW128919   4.726   2.320   4.895  0.0136 -0.6440  2.6630
 5761SOL    HW228920   4.685   2.407   4.998  1.5686  0.4418 -0.5666
 5762SOL     OW28921   4.017   1.893   5.809  0.8068  0.7575 -0.2043
 5762SOL    HW128922   3.931   1.895   5.767  1.8025 -0.8754 -2.3028
 5762SOL    HW228923   4.034   1.986   5.823  0.6395  0.7913 -0.2248
 5763SOL     OW28924   0.762   0.725   7.421 -0.6540 -0.3183 -0.3833
 5763SOL    HW128925   0.755   0.762   7.509  0.8966  0.7438 -0.7156
 5763SOL    HW228926   0.706   0.648   7.434  0.2159 -0.3907  2.9659
 5764SOL     OW28927   2.048   0.138   2.250  0.2725  0.2834  0.1271
 5764SOL    HW128928   2.027   0.173   2.164  1.4633  0.3499 -0.1259
 5764SOL    HW228929   1.970   0.084   2.267  0.2958  0.6085  1.2597
 5765SOL     OW28930   2.248   1.376  12.999 -0.4334  0.1380  0.3103
 5765SOL    HW128931   2.209   1.347  13.081  1.7169  0.0588  1.2906
 5765SOL    HW228932   2.261   1.294  12.951  0.1853 -0.3573  1.3472
 5766SOL     OW28933   1.021   1.052   7.081  0.1181  0.3397 -0.0186
 5766SOL    HW128934   0.957   0.994   7.122 -0.1689 -0.8334 -2.1189
 5766SOL    HW228935   1.085   1.069   7.150  2.3409 -1.7895 -1.5571
 5767SOL     OW28936   4.089   4.115   3.538  0.2247 -0.1821  0.4191
 5767SOL    HW128937   4.015   4.133   3.481 -0.2789  3.1711  2.1600
 5767SOL    HW228938   4.040   4.099   3.619 -0.7685  0.2201 -0.1110
 5768SOL     OW28939   3.654   3.705  13.541  0.1801 -0.1695 -0.1074
 5768SOL    HW128940   3.706   3.629  13.567  0.0987  0.2884  1.3859
 5768SOL    HW228941   3.572   3.670  13.505  0.0249 -0.3280  0.3911
 5769SOL     OW28942   1.712   4.499   6.469  0.3747 -0.1787 -0.6698
 5769SOL    HW128943   1.651   4.552   6.520 -0.1835 -0.7898 -0.7138
 5769SOL    HW228944   1.788   4.552   6.494 -0.9295  0.2554  2.3894
 5770SOL     OW28945   4.687   3.616  10.585 -0.5684  0.2202  0.1354
 5770SOL    HW128946   4.706   3.522  10.584  0.8189  0.5311 -1.9843
 5770SOL    HW228947   4.596   3.601  10.612 -0.7053  2.5914  1.0247
 5771SOL     OW28948   3.784   4.688   0.034 -0.0175 -0.3001  0.7569
 5771SOL    HW128949   3.717   0.014   0.002 -0.7998 -0.6123  1.8133
 5771SOL    HW228950   3.768   4.613  17.714  0.0028  0.4418 -0.2256
 5772SOL     OW28951   1.409   3.385   3.818 -0.1730 -0.6189  0.5767
 5772SOL    HW128952   1.451   3.328   3.753  1.2563 -0.3681  1.2640
 5772SOL    HW228953   1.449   3.466   3.788 -1.8183 -0.4780 -1.1746
 5773SOL     OW28954   2.040   0.635   9.636 -0.3725  0.1945 -0.2454
 5773SOL    HW128955   2.133   0.625   9.615 -0.0610  2.4594  0.0558
 5773SOL    HW228956   2.053   0.715   9.688 -0.0059  0.3080 -0.5084
 5774SOL     OW28957   3.932   1.042   8.070 -0.1684  0.2199  0.0155
 5774SOL    HW128958   3.917   1.106   8.000 -1.4586 -1.1374 -0.9514
 5774SOL    HW228959   3.840   1.023   8.086 -0.6170 -1.3356 -4.3763
 5775SOL     OW28960   4.694   3.398  10.819  0.6788  0.6705 -0.0074
 5775SOL    HW128961   0.011   3.421  10.896  0.2848 -0.0416  0.4762
 5775SOL    HW228962   4.615   3.442  10.851 -0.4156 -1.4685  0.2385
 5776SOL     OW28963   4.343   2.062   7.100  0.0673  0.7651 -0.3231
 5776SOL    HW128964   4.276   1.993   7.104  0.7095  0.0759 -1.4751
 5776SOL    HW228965   4.308   2.144   7.134  0.8614  0.3044  1.6229
 5777SOL     OW28966   4.374   1.773   8.500  0.2405 -0.1080  0.5739
 5777SOL    HW128967   4.453   1.721   8.494  0.0007 -0.6538  2.3211
 5777SOL    HW228968   4.337   1.732   8.578  1.2526 -2.1502 -0.0277
 5778SOL     OW28969   2.410   0.210  17.476  0.0610  0.5729  0.7851
 5778SOL    HW128970   2.316   0.210  17.494 -0.2071 -1.9223 -0.5257
 5778SOL    HW228971   2.422   0.162  17.394  0.7658  2.7295 -0.3714
 5779SOL     OW28972   0.311   2.767   9.056  0.7316  1.1936 -0.0344
 5779SOL    HW128973   0.323   2.814   8.974 -0.3020  1.3458 -0.1001
 5779SOL    HW228974   0.236   2.821   9.080 -0.4214  0.1909 -1.3727
 5780SOL     OW28975   0.102   1.859   6.296 -0.0001 -0.3926 -0.1305
 5780SOL    HW128976   0.062   1.811   6.368  1.4190 -0.6609  0.4963
 5780SOL    HW228977   0.174   1.903   6.343  0.5610 -0.3960 -0.9839
 5781SOL     OW28978   3.636   2.477  16.128 -0.2034  0.9617  0.0564
 5781SOL    HW128979   3.709   2.522  16.170  0.1367 -0.4125  0.9197
 5781SOL    HW228980   3.613   2.549  16.069  1.1462  1.0088 -0.4031
 5782SOL     OW28981   3.571   4.012   2.802  0.0789  0.2465 -0.3588
 5782SOL    HW128982   3.551   3.955   2.727  0.3995 -0.7068  0.2805
 5782SOL    HW228983   3.480   4.018   2.831  0.1339 -2.2828  0.3449
 5783SOL     OW28984   2.542   2.159   2.351 -0.4103 -0.0075 -0.1519
 5783SOL    HW128985   2.538   2.157   2.447  2.1868  1.3428 -0.0054
 5783SOL    HW228986   2.525   2.070   2.319 -1.6325 -0.7118  2.4128
 5784SOL     OW28987   2.065   0.985   5.136  0.2131 -0.6535  0.0657
 5784SOL    HW128988   2.039   0.895   5.153  2.2037 -1.1930  0.2007
 5784SOL    HW228989   2.154   0.982   5.170  0.4243  0.2088 -0.4143
 5785SOL     OW28990   4.425   3.240   6.282 -0.2346  0.8756  0.3976
 5785SOL    HW128991   4.491   3.227   6.350  1.2023  0.4511 -1.0842
 5785SOL    HW228992   4.353   3.273   6.337  0.4589  1.3802  1.0043
 5786SOL     OW28993   0.678   2.620   7.707  0.0808 -0.1184 -0.5196
 5786SOL    HW128994   0.711   2.549   7.652  0.3076 -0.9078  0.6477
 5786SOL    HW228995   0.724   2.685   7.654  2.2173  0.3604  1.9665
 5787SOL     OW28996   2.682   2.699   5.346 -0.4780 -0.0493 -0.3962
 5787SOL    HW128997   2.699   2.705   5.252 -1.0073 -1.8478 -0.5983
 5787SOL    HW228998   2.688   2.604   5.357  2.1277  0.2611  0.9282
 5788SOL     OW28999   2.103   3.207   3.301 -0.7896 -0.1359 -0.2397
 5788SOL    HW129000   2.031   3.149   3.277 -0.3929 -0.3103 -0.9857
 5788SOL    HW229001   2.070   3.227   3.389  0.7889  0.6347  0.1983
 5789SOL     OW29002   4.344   2.006   2.879  0.6139  0.0625 -0.3445
 5789SOL    HW129003   4.437   2.024   2.893  1.0490 -2.1087 -0.4477
 5789SOL    HW229004   4.332   1.927   2.827  1.0608  0.4573 -1.0534
 5790SOL     OW29005   2.613   3.175   9.051 -0.0543  0.2696 -0.1916
 5790SOL    HW129006   2.638   3.219   9.133 -0.8218  2.0840 -0.9322
 5790SOL    HW229007   2.582   3.242   8.990  2.4442  0.5594 -1.1382
 5791SOL     OW29008   1.054   1.542  12.673  0.5790  0.2609  0.3041
 5791SOL    HW129009   0.985   1.497  12.625  1.1293 -2.1599  1.7779
 5791SOL    HW229010   1.095   1.465  12.713  0.3144  0.9169  1.8640
 5792SOL     OW29011   1.256   4.333   3.140 -0.2359 -0.2434 -0.2733
 5792SOL    HW129012   1.234   4.331   3.047  1.3964  1.2744 -0.6859
 5792SOL    HW229013   1.297   4.419   3.140 -0.5865 -0.0787 -0.3716
 5793SOL     OW29014   0.065   1.653   4.266  0.6738 -0.7596 -0.3563
 5793SOL    HW129015   0.044   1.595   4.339 -1.0328 -0.9357 -0.9849
 5793SOL    HW229016   0.112   1.593   4.208  0.2064  0.2595 -1.7813
 5794SOL     OW29017   4.220   4.550  12.479  0.0629 -0.0699 -0.7913
 5794SOL    HW129018   4.274   4.600  12.540  0.5928 -0.6695 -0.7717
 5794SOL    HW229019   4.282   4.488  12.441  0.2540 -1.2425  1.3926
 5795SOL     OW29020   0.439   4.656  16.959 -0.3707  0.3889 -0.4551
 5795SOL    HW129021   0.357   4.663  16.910 -0.7502  0.2142  0.1518
 5795SOL    HW229022   0.498   4.658  16.884  0.5191  1.9025  0.2913
 5796SOL     OW29023   4.261   4.399   2.024  0.1819 -0.4065 -0.2074
 5796SOL    HW129024   4.349   4.382   2.057  0.8538 -1.6450 -2.6627
 5796SOL    HW229025   4.215   4.402   2.108  0.0370  2.2690 -0.3818
 5797SOL     OW29026   2.260   0.445   4.062 -0.3329 -0.3333  0.2882
 5797SOL    HW129027   2.237   0.532   4.029 -0.9637 -1.1299 -1.3685
 5797SOL    HW229028   2.323   0.468   4.130 -1.3954  2.8946  0.1866
 5798SOL     OW29029   3.087   1.826  15.025 -0.1464 -0.2004 -0.1273
 5798SOL    HW129030   3.122   1.863  15.106 -2.9330 -1.2446  1.5352
 5798SOL    HW229031   3.164   1.816  14.970 -0.9971 -0.8484 -1.2012
 5799SOL     OW29032   2.095   1.820   3.500  0.3396  0.1676  0.3559
 5799SOL    HW129033   2.170   1.866   3.540  0.8427 -1.0976  0.8715
 5799SOL    HW229034   2.024   1.832   3.563  0.2928  0.3448  0.2708
 5800SOL     OW29035   2.372   4.289  12.897 -0.3588  0.3790 -0.3880
 5800SOL    HW129036   2.349   4.202  12.863  0.2776  0.1145 -0.1513
 5800SOL    HW229037   2.309   4.351  12.860  0.0538  0.6384 -0.6549
 5801SOL     OW29038   0.764   3.922   1.724 -0.4927  0.9719 -0.0451
 5801SOL    HW129039   0.740   3.965   1.806 -0.8861 -1.8398  1.3082
 5801SOL    HW229040   0.837   3.980   1.701 -1.1116  1.0639 -1.7927
 5802SOL     OW29041   4.390   4.077  13.933  0.7918 -0.5408 -0.0158
 5802SOL    HW129042   4.415   4.169  13.943  1.4054 -0.7754  0.5677
 5802SOL    HW229043   4.370   4.072  13.839  0.2891 -1.8860  0.1723
 5803SOL     OW29044   4.169   3.059   4.485  0.6926  0.5437 -0.2313
 5803SOL    HW129045   4.139   2.981   4.437 -1.1405  1.6146 -0.8129
 5803SOL    HW229046   4.096   3.072   4.545  0.2316 -5.5792  0.5753
 5804SOL     OW29047   0.670   2.326   2.038 -0.0494  0.0233  0.2625
 5804SOL    HW129048   0.684   2.416   2.007 -1.1917  0.8366  2.1190
 5804SOL    HW229049   0.740   2.283   1.988  0.3270  0.4500  0.4228
 5805SOL     OW29050   4.217   0.620   1.115 -0.4148  0.6556 -0.3147
 5805SOL    HW129051   4.231   0.612   1.209  0.5931 -1.5164 -0.6509
 5805SOL    HW229052   4.283   0.686   1.093  0.1737  0.6364  1.4107
 5806SOL     OW29053   3.138   0.726   7.724  0.3880  0.2810 -0.1326
 5806SOL    HW129054   3.135   0.821   7.715 -0.6860  0.0578 -2.1393
 5806SOL    HW229055   3.088   0.720   7.805  0.9929 -0.8163  0.1578
 5807SOL     OW29056   1.637   1.617   1.763 -0.0634 -0.1093  0.6409
 5807SOL    HW129057   1.663   1.658   1.680 -0.1236 -0.5366  0.4085
 5807SOL    HW229058   1.699   1.650   1.828  0.3488  1.4156 -0.5360
 5808SOL     OW29059   1.448   2.392   4.055  0.5863 -0.1589  0.2701
 5808SOL    HW129060   1.416   2.407   3.966  2.5275 -0.5416 -0.4894
 5808SOL    HW229061   1.382   2.434   4.111 -0.0338  2.4262 -2.4290
 5809SOL     OW29062   0.535   0.615  12.569  0.3219 -0.0253 -0.0562
 5809SOL    HW129063   0.487   0.656  12.496 -0.9155  0.3766  0.9924
 5809SOL    HW229064   0.568   0.535  12.528 -0.5215 -0.0537 -0.7103
 5810SOL     OW29065   3.173   1.665  17.101  0.5931  0.2847 -0.1816
 5810SOL    HW129066   3.210   1.738  17.051 -1.2643  1.7516  0.6067
 5810SOL    HW229067   3.080   1.682  17.091  0.5664  1.3580  1.7890
 5811SOL     OW29068   0.825   1.066   7.325  0.0175 -0.2982 -0.1558
 5811SOL    HW129069   0.761   1.052   7.395 -0.6828 -1.8712 -1.0889
 5811SOL    HW229070   0.844   0.974   7.306 -0.2872 -0.4684  0.3544
 5812SOL     OW29071   1.992   3.094   5.271  0.4892  0.1465  0.2568
 5812SOL    HW129072   1.906   3.084   5.311  1.8755 -1.2453  2.9376
 5812SOL    HW229073   2.015   3.182   5.302 -0.8720 -0.2312  2.2994
 5813SOL     OW29074   3.603   2.757   4.742 -0.3263 -0.3044 -0.1915
 5813SOL    HW129075   3.614   2.725   4.652 -0.6032 -0.0119 -0.3295
 5813SOL    HW229076   3.621   2.682   4.798 -0.4118 -2.1951 -2.6681
 5814SOL     OW29077   3.444   2.758   3.506 -0.4752  0.1615  0.2431
 5814SOL    HW129078   3.386   2.694   3.465  0.8681 -2.6852  2.7988
 5814SOL    HW229079   3.497   2.693   3.552 -0.2184  0.7171  0.7286
 5815SOL     OW29080   2.758   4.439   0.616  0.1249  0.3937  0.3530
 5815SOL    HW129081   2.736   4.524   0.655 -0.7987 -0.2549  1.2527
 5815SOL    HW229082   2.667   4.411   0.606  0.1428  0.1718  0.7858
 5816SOL     OW29083   1.067   4.533   5.853 -0.2887 -0.6096  0.1303
 5816SOL    HW129084   0.979   4.539   5.816 -0.9014 -3.0860  1.1223
 5816SOL    HW229085   1.113   4.613   5.829 -1.0935  0.1138  1.0391
 5817SOL     OW29086   4.614   0.997   5.282 -0.1695 -0.0776  0.1486
 5817SOL    HW129087   4.570   0.929   5.231 -0.3746 -0.0695  0.3138
 5817SOL    HW229088   4.697   1.001   5.235 -0.7176  0.4349 -0.7937
 5818SOL     OW29089   0.745   2.979  12.874  0.1490  0.3526  0.1808
 5818SOL    HW129090   0.822   3.017  12.831  0.8960  0.3702  1.5602
 5818SOL    HW229091   0.753   2.886  12.856  0.1767  0.6607 -1.4886
 5819SOL     OW29092   0.016   3.845   7.833 -0.4874 -0.1322  0.4034
 5819SOL    HW129093   0.097   3.800   7.857  0.2953  1.3553  0.5567
 5819SOL    HW229094   0.042   3.901   7.759  1.5648 -0.9015  0.5303
 5820SOL     OW29095   4.053   1.451   8.469 -0.0912  0.3109  0.0710
 5820SOL    HW129096   3.973   1.502   8.451  0.3844  1.2016  0.4445
 5820SOL    HW229097   4.075   1.475   8.559 -0.5766 -0.7548  0.4676
 5821SOL     OW29098   2.272   1.908   6.762 -0.3835 -0.3682 -0.2015
 5821SOL    HW129099   2.275   1.834   6.701 -0.1096  0.4858 -1.2274
 5821SOL    HW229100   2.357   1.944   6.735 -0.5964 -2.3674 -3.5846
 5822SOL     OW29101   1.569   2.958   3.816 -0.1804 -0.7266  0.1963
 5822SOL    HW129102   1.570   3.046   3.779 -3.3879 -0.9462 -0.4254
 5822SOL    HW229103   1.545   2.905   3.740 -0.8928  0.2105 -0.2286
 5823SOL     OW29104   2.374   4.458  13.106  0.0315  0.3051 -0.1966
 5823SOL    HW129105   2.378   4.402  13.028  2.5809 -2.7113  2.0801
 5823SOL    HW229106   2.413   4.389  13.159  1.8566 -0.0078 -1.9135
 5824SOL     OW29107   2.604   2.213   3.203  0.4559 -0.2360  0.2705
 5824SOL    HW129108   2.550   2.267   3.146  1.0152  1.4848  1.3869
 5824SOL    HW229109   2.651   2.274   3.260 -1.6684  1.2208  0.4474
 5825SOL     OW29110   4.272   4.369  15.685 -0.0060 -0.1334  0.1519
 5825SOL    HW129111   4.282   4.432  15.757 -0.0420  1.5343 -1.3149
 5825SOL    HW229112   4.217   4.302  15.724 -1.2458  0.2135 -1.0205
 5826SOL     OW29113   2.992   1.007   3.486 -0.4333  0.4436 -0.4259
 5826SOL    HW129114   2.994   0.919   3.449  1.8052  0.5403 -0.5218
 5826SOL    HW229115   2.897   1.011   3.477 -0.6229  2.2613  2.1268
 5827SOL     OW29116   0.040   3.919   4.437 -0.0877 -0.5516 -0.5186
 5827SOL    HW129117   0.117   3.909   4.492 -0.9975 -0.5614  0.7644
 5827SOL    HW229118   0.002   3.831   4.440  1.0680 -1.0673 -0.9378
 5828SOL     OW29119   1.247   0.108  16.994 -0.2164 -0.1377  0.7139
 5828SOL    HW129120   1.201   0.025  17.005  0.3667 -0.8686 -2.2321
 5828SOL    HW229121   1.192   0.166  17.047 -0.0355  0.4312  0.2843
 5829SOL     OW29122   1.520   1.023   1.876  0.5938 -0.6493  1.0954
 5829SOL    HW129123   1.546   1.086   1.809  0.2880  0.6895  2.2164
 5829SOL    HW229124   1.426   1.034   1.870  0.7505 -0.1155 -0.3627
 5830SOL     OW29125   4.712   4.576  10.784  0.5602 -0.0141  0.7368
 5830SOL    HW129126   0.061   4.611  10.754 -0.1609  0.5544 -0.6581
 5830SOL    HW229127   4.665   4.576  10.700 -0.7337 -0.2912  1.4558
 5831SOL     OW29128   3.373   2.554  12.470 -0.5048 -0.1895 -0.2742
 5831SOL    HW129129   3.283   2.530  12.448 -0.5150  0.2978 -0.7538
 5831SOL    HW229130   3.392   2.496  12.544 -1.7578  0.5607  0.6424
 5832SOL     OW29131   0.970   4.320   7.764  0.2490  0.5830 -0.0935
 5832SOL    HW129132   0.971   4.226   7.745 -1.1071  0.1219  2.1063
 5832SOL    HW229133   1.006   4.350   7.681 -0.7376  1.6016 -0.1436
 5833SOL     OW29134   3.618   1.279   8.488  0.3920 -0.0156 -0.3291
 5833SOL    HW129135   3.660   1.285   8.574 -1.1867  0.7734  0.3873
 5833SOL    HW229136   3.598   1.186   8.479  1.0896 -0.0913 -1.0563
 5834SOL     OW29137   1.235   2.646   2.808 -0.5403 -0.3509 -0.2810
 5834SOL    HW129138   1.242   2.729   2.855 -0.5335 -1.4193  1.6233
 5834SOL    HW229139   1.167   2.665   2.744 -1.5183 -0.8318  0.6171
 5835SOL     OW29140   0.475   1.995   6.809  0.3762 -0.9482 -0.6606
 5835SOL    HW129141   0.525   1.922   6.845  0.1562  0.7081  2.9700
 5835SOL    HW229142   0.390   1.955   6.795 -0.5594  0.2319  1.6474
 5836SOL     OW29143   0.239   4.457   4.563  0.1405  0.0638 -0.4081
 5836SOL    HW129144   0.331   4.467   4.588  0.8496 -3.6742 -1.5504
 5836SOL    HW229145   0.219   4.374   4.607 -0.2842 -0.2622 -1.2164
 5837SOL     OW29146   0.572   4.246   5.672 -0.7924  0.4429 -0.0493
 5837SOL    HW129147   0.524   4.278   5.595  1.6811  1.4228 -1.1920
 5837SOL    HW229148   0.512   4.176   5.695 -0.2131 -0.4691 -1.2852
 5838SOL     OW29149   1.120   3.108  14.929 -0.0606  0.7046 -0.6508
 5838SOL    HW129150   1.117   3.031  14.986 -1.3297  0.4263 -1.0985
 5838SOL    HW229151   1.203   3.096  14.883  0.0433 -0.2001 -0.2338
 5839SOL     OW29152   2.714   4.711   8.899 -0.2301 -0.0134  0.1270
 5839SOL    HW129153   2.810   4.712   8.897 -0.1148 -4.3904  2.6427
 5839SOL    HW229154   2.698   4.638   8.840  0.1705 -0.1050  0.1284
 5840SOL     OW29155   4.502   2.775   2.014  0.0804  0.0271 -0.4370
 5840SOL    HW129156   4.591   2.762   1.982 -0.0006 -1.4388 -0.1010
 5840SOL    HW229157   4.509   2.848   2.076  1.2580 -0.5240  0.0789
 5841SOL     OW29158   2.947   2.920   2.871 -0.5151  0.0600 -0.2133
 5841SOL    HW129159   2.914   2.831   2.873  1.3597 -0.6735 -3.2591
 5841SOL    HW229160   3.010   2.925   2.800  0.4604 -0.6473  0.5950
 5842SOL     OW29161   1.948   2.400   6.484 -0.0404 -0.0587  0.0397
 5842SOL    HW129162   1.963   2.305   6.480 -2.4047 -0.4891  1.8217
 5842SOL    HW229163   1.919   2.407   6.575  0.7988  1.7685  0.1651
 5843SOL     OW29164   0.964   0.984   6.308 -0.5118  0.1952 -0.1396
 5843SOL    HW129165   0.902   1.044   6.266 -1.5308 -1.2946 -0.7613
 5843SOL    HW229166   0.928   0.988   6.397  1.3102 -0.3150  0.6189
 5844SOL     OW29167   4.074   1.990   2.965  0.0580  0.0370  0.2272
 5844SOL    HW129168   4.162   2.005   2.931  0.1134 -1.6637 -0.3998
 5844SOL    HW229169   4.093   1.920   3.027 -2.0041 -0.4817  0.2957
 5845SOL     OW29170   0.510   0.770   9.981 -0.1253 -0.5067  0.4654
 5845SOL    HW129171   0.477   0.771   9.891  0.4874 -3.0591  0.2203
 5845SOL    HW229172   0.573   0.699   9.984 -0.0791 -0.4364  1.1432
 5846SOL     OW29173   3.133   1.626   4.908  0.0692 -0.2406 -0.7236
 5846SOL    HW129174   3.227   1.622   4.889  0.1221  1.1314 -0.6831
 5846SOL    HW229175   3.112   1.548   4.959  1.6943  1.1782  2.0670
 5847SOL     OW29176   3.821   2.595   1.779  0.3649 -0.5228 -0.3202
 5847SOL    HW129177   3.845   2.573   1.689  0.3006  2.4494 -1.0808
 5847SOL    HW229178   3.876   2.549   1.842  0.4091  0.1043  0.1006
 5848SOL     OW29179   1.514   0.686   8.463 -0.2553  0.6178 -0.8297
 5848SOL    HW129180   1.516   0.668   8.557  0.7150  1.1524 -0.7479
 5848SOL    HW229181   1.608   0.690   8.445  0.2580 -0.7710  1.6315
 5849SOL     OW29182   2.001   4.309   1.758 -0.5043 -0.5604  0.3345
 5849SOL    HW129183   1.994   4.226   1.711 -0.0667 -0.8436  0.7678
 5849SOL    HW229184   1.964   4.294   1.845 -0.6549 -0.9765  0.2013
 5850SOL     OW29185   4.474   4.031  16.859 -0.2397  0.3353 -0.4843
 5850SOL    HW129186   4.460   4.116  16.818 -0.8695 -0.4701 -1.9210
 5850SOL    HW229187   4.399   3.978  16.832  0.7641 -1.3242 -0.0184
 5851SOL     OW29188   4.665   3.618   4.443  0.2537 -0.0838  0.0130
 5851SOL    HW129189   4.636   3.679   4.511 -0.9827  0.1689 -0.7450
 5851SOL    HW229190   4.691   3.539   4.490 -1.1952  0.7288  2.2004
 5852SOL     OW29191   3.901   3.982   7.225  0.1164  0.1968  0.6183
 5852SOL    HW129192   3.814   4.020   7.213 -0.7476 -1.6302  1.0950
 5852SOL    HW229193   3.909   3.921   7.152  0.0804 -0.4107  1.1181
 5853SOL     OW29194   2.719   3.908  14.167 -0.0420 -0.0527 -0.2105
 5853SOL    HW129195   2.798   3.938  14.120 -1.0183  2.0826 -0.4810
 5853SOL    HW229196   2.742   3.843  14.234 -2.4449  0.3684  1.0028
 5854SOL     OW29197   2.418   0.838  10.807  0.0397  0.4304 -0.1507
 5854SOL    HW129198   2.511   0.858  10.808  0.2221 -0.4830  1.8852
 5854SOL    HW229199   2.383   0.917  10.849 -3.9905 -1.6833  0.4860
 5855SOL     OW29200   4.546   4.728   3.231  0.7256  0.3414  0.0230
 5855SOL    HW129201   4.621   0.032   3.186 -0.7394  0.1603 -2.5507
 5855SOL    HW229202   4.581   4.719   3.320  1.9601  1.0761 -0.3808
 5856SOL     OW29203   4.336   4.509   0.253 -0.0274  0.4069 -0.0823
 5856SOL    HW129204   4.402   4.540   0.314 -1.0937  2.6813 -0.0832
 5856SOL    HW229205   4.258   4.524   0.306 -1.1611 -0.4079 -1.5000
 5857SOL     OW29206   3.077   2.264  11.498 -0.5186 -0.5910  0.2181
 5857SOL    HW129207   3.097   2.171  11.500 -1.9669 -0.9662 -1.8692
 5857SOL    HW229208   3.120   2.307  11.572  0.5694 -1.5104  0.1077
 5858SOL     OW29209   1.364   2.620  10.198 -0.4674 -0.1527 -0.2157
 5858SOL    HW129210   1.290   2.638  10.255  0.6449  0.0048  1.1891
 5858SOL    HW229211   1.363   2.524  10.191  1.4152 -0.1372 -0.8134
 5859SOL     OW29212   1.325   0.732   8.269 -0.3354  0.2700  0.4078
 5859SOL    HW129213   1.393   0.727   8.336  1.1980  1.5892 -1.0580
 5859SOL    HW229214   1.335   0.827   8.256 -3.0337  0.1737 -2.3138
 5860SOL     OW29215   2.678   4.331  12.765 -0.1297  0.2249 -0.2083
 5860SOL    HW129216   2.735   4.264  12.804  1.1010  2.0707  1.1609
 5860SOL    HW229217   2.597   4.300  12.806 -0.0581  1.1815  0.6649
 5861SOL     OW29218   2.988   1.429   1.466 -0.6572 -0.1824  0.1151
 5861SOL    HW129219   2.984   1.503   1.406 -3.6881  0.3255  0.9572
 5861SOL    HW229220   2.933   1.469   1.533  0.7201  0.1087  1.0860
 5862SOL     OW29221   1.635   1.168   7.815  0.0774 -0.3562 -0.7216
 5862SOL    HW129222   1.556   1.211   7.783 -0.2498  0.0414  0.6107
 5862SOL    HW229223   1.598   1.110   7.881 -1.3151 -0.8682 -1.9433
 5863SOL     OW29224   0.401   0.731  12.364 -0.1780 -0.3627  0.2124
 5863SOL    HW129225   0.330   0.794  12.377  1.1396  0.4901  3.1259
 5863SOL    HW229226   0.388   0.705  12.273  1.7337 -2.1841  0.4645
 5864SOL     OW29227   3.249   1.193  16.928  0.0156  0.1315 -0.2341
 5864SOL    HW129228   3.275   1.173  17.018 -2.8429 -0.4222  0.4712
 5864SOL    HW229229   3.253   1.287  16.914 -0.3410  0.0921 -0.5968
 5865SOL     OW29230   1.096   1.161   6.583  0.2285  0.4786 -0.3246
 5865SOL    HW129231   1.115   1.074   6.618 -2.0934 -0.4675 -1.4140
 5865SOL    HW229232   1.075   1.209   6.664 -2.2631  1.6079 -1.6222
 5866SOL     OW29233   1.707   3.380   8.303 -0.0300 -0.0986 -0.0764
 5866SOL    HW129234   1.732   3.305   8.249 -2.9992 -0.2181 -1.2955
 5866SOL    HW229235   1.772   3.382   8.373  1.3750 -0.5956 -1.3630
 5867SOL     OW29236   2.660   4.453   9.458  0.0708  0.3123 -0.7300
 5867SOL    HW129237   2.681   4.470   9.550  0.6273 -1.2289 -0.5615
 5867SOL    HW229238   2.743   4.422   9.421  0.5385 -0.1698  0.6918
 5868SOL     OW29239   0.191   2.869   8.270  0.4809  0.7514 -0.1094
 5868SOL    HW129240   0.209   2.943   8.330 -0.2628  0.3759  0.5718
 5868SOL    HW229241   0.098   2.881   8.253 -0.2051 -0.8892  2.4442
 5869SOL     OW29242   0.505   0.574  10.608  0.1469 -0.6489  0.7725
 5869SOL    HW129243   0.410   0.569  10.614  0.1147  0.2126  1.0353
 5869SOL    HW229244   0.541   0.529  10.684 -0.5409 -0.8447  0.9758
 5870SOL     OW29245   1.394   3.411  12.342 -0.4130 -0.2196  0.4536
 5870SOL    HW129246   1.325   3.419  12.276 -1.6419  1.0923  1.8847
 5870SOL    HW229247   1.401   3.505  12.359 -0.8012 -0.1722  0.3562
 5871SOL     OW29248   4.459   2.840   5.468  0.2869 -0.3379 -0.2400
 5871SOL    HW129249   4.411   2.900   5.526 -0.4221 -0.8517 -0.2988
 5871SOL    HW229250   4.441   2.883   5.385 -2.2004 -1.1865 -0.1487
 5872SOL     OW29251   2.365   4.446   7.356 -0.3119  0.1830 -0.4896
 5872SOL    HW129252   2.403   4.358   7.352 -0.1609  0.3286 -2.0788
 5872SOL    HW229253   2.390   4.480   7.270 -0.7914 -0.9927 -1.0852
 5873SOL     OW29254   2.084   0.213   8.262 -0.1274 -0.5705 -0.0477
 5873SOL    HW129255   2.034   0.254   8.191 -0.9286 -0.1529  0.7485
 5873SOL    HW229256   2.009   0.187   8.315 -1.3676  3.3420  0.0993
 5874SOL     OW29257   2.311   3.880   8.375 -0.2366  1.3091 -0.5290
 5874SOL    HW129258   2.338   3.963   8.415  1.5794  0.7966 -0.7040
 5874SOL    HW229259   2.237   3.917   8.327  0.4908  2.6995 -0.5791
 5875SOL     OW29260   4.342   2.402   3.293 -0.0690  0.6072 -0.1223
 5875SOL    HW129261   4.272   2.443   3.343 -0.7646 -1.8165  0.8966
 5875SOL    HW229262   4.338   2.311   3.321 -0.9774  0.9263  0.7805
 5876SOL     OW29263   4.113   1.478   4.881  0.6522 -0.5454  0.2387
 5876SOL    HW129264   4.018   1.488   4.885  0.6042 -0.9566  0.1214
 5876SOL    HW229265   4.136   1.535   4.808  0.4851  0.9354  1.3450
 5877SOL     OW29266   0.894   0.631  13.777  0.5300  0.3621 -0.2495
 5877SOL    HW129267   0.845   0.644  13.858  3.4717 -3.7153  2.2177
 5877SOL    HW229268   0.850   0.561  13.730  0.3607  0.9837 -0.9990
 5878SOL     OW29269   2.068   3.275   8.686  0.4065  0.4887  0.0089
 5878SOL    HW129270   2.162   3.287   8.673  0.5045 -1.4478 -1.0533
 5878SOL    HW229271   2.071   3.179   8.692  1.5088  0.5214 -0.0291
 5879SOL     OW29272   4.270   4.576   5.773  0.0162 -0.0586 -1.0157
 5879SOL    HW129273   4.315   4.553   5.854  0.0779  0.4417 -0.9087
 5879SOL    HW229274   4.274   4.671   5.769  0.5852 -0.1722 -3.6035
 5880SOL     OW29275   0.960   1.606   5.329 -0.3317  0.0249 -0.4086
 5880SOL    HW129276   1.044   1.576   5.364 -0.7703 -1.5232 -0.6806
 5880SOL    HW229277   0.903   1.557   5.388  2.1341  0.8187  2.6596
 5881SOL     OW29278   2.753   1.185   1.347  0.1469  0.2421  0.2957
 5881SOL    HW129279   2.840   1.145   1.345  0.7081  1.3499  2.4454
 5881SOL    HW229280   2.737   1.179   1.441 -4.0396 -0.4166 -0.4625
 5882SOL     OW29281   1.521   2.530   5.957  0.3764  0.4815 -0.5227
 5882SOL    HW129282   1.442   2.475   5.954 -0.7814  2.1091 -0.3152
 5882SOL    HW229283   1.486   2.620   5.956  1.7248  1.0027  1.0901
 5883SOL     OW29284   1.097   0.205   2.524  0.1001 -0.1216 -0.5449
 5883SOL    HW129285   1.109   0.132   2.584 -1.5718  1.0316  1.1786
 5883SOL    HW229286   1.076   0.279   2.581  2.8922 -0.7068  1.2330
 5884SOL     OW29287   0.266   4.367  10.714 -0.0543 -0.4636 -0.2341
 5884SOL    HW129288   0.259   4.459  10.688  0.1451 -1.0099 -2.1988
 5884SOL    HW229289   0.221   4.362  10.799  2.6680  1.0491  1.3124
 5885SOL     OW29290   4.633   1.662  16.631  0.2914  0.5097  0.0043
 5885SOL    HW129291   4.681   1.737  16.594  1.8089 -0.1747  0.5669
 5885SOL    HW229292   4.597   1.708  16.707 -2.2837 -0.0626 -0.9091
 5886SOL     OW29293   3.897   2.278   8.952 -0.4329 -1.0604  0.4840
 5886SOL    HW129294   3.820   2.278   9.009 -2.0884 -0.6051 -1.7345
 5886SOL    HW229295   3.863   2.314   8.870 -0.8259 -0.3943  0.9427
 5887SOL     OW29296   3.330   2.058  13.647  0.1078  0.1998 -0.1977
 5887SOL    HW129297   3.365   2.057  13.736  2.0417  1.8359 -0.9297
 5887SOL    HW229298   3.382   2.134  13.622  1.3378 -0.5508  0.0916
 5888SOL     OW29299   2.140   3.897   4.692  0.4260  0.2167  0.8553
 5888SOL    HW129300   2.102   3.969   4.742  1.7507  1.6471 -0.2036
 5888SOL    HW229301   2.084   3.829   4.730  0.6246 -0.3327  0.1523
 5889SOL     OW29302   1.849   2.783  11.054  0.3009  0.2358  0.3149
 5889SOL    HW129303   1.880   2.705  11.100 -0.8308  0.2709  1.1296
 5889SOL    HW229304   1.854   2.849  11.124 -1.1399 -0.8061  1.3882
 5890SOL     OW29305   0.822   0.924   2.205 -0.8660 -0.3623 -0.0791
 5890SOL    HW129306   0.895   0.881   2.161 -0.6012 -2.3800  2.3534
 5890SOL    HW229307   0.779   0.849   2.247 -0.1461 -0.5076  0.3833
 5891SOL     OW29308   2.200   0.435   9.198  0.1662  0.4909  0.1373
 5891SOL    HW129309   2.292   0.413   9.186  0.3038  0.6316  0.9034
 5891SOL    HW229310   2.168   0.345   9.207 -1.6831  1.1136 -0.2428
 5892SOL     OW29311   2.936   2.973   3.864  0.3097  0.4648 -0.0045
 5892SOL    HW129312   2.963   3.021   3.942  0.0917 -0.6206  0.7393
 5892SOL    HW229313   2.854   2.931   3.890  1.3976 -1.4643  0.2951
 5893SOL     OW29314   0.694   4.531  14.469  0.0922  0.2493 -0.6923
 5893SOL    HW129315   0.668   4.442  14.446  1.3309 -0.2320 -0.2138
 5893SOL    HW229316   0.757   4.529  14.541  0.7600  2.2364 -1.2221
 5894SOL     OW29317   2.286   0.467  11.505  0.3813  0.0178 -0.2135
 5894SOL    HW129318   2.345   0.457  11.430  1.7436 -0.1614  0.9001
 5894SOL    HW229319   2.272   0.561  11.492  0.1413 -0.0704 -0.6025
 5895SOL     OW29320   2.034   4.035   1.696 -0.1171 -0.2097  0.2827
 5895SOL    HW129321   2.053   4.035   1.790 -0.7212 -1.6395  0.4024
 5895SOL    HW229322   2.113   3.996   1.659  1.6854  2.6235  1.0802
 5896SOL     OW29323   0.983   1.563   8.434  0.4340  0.1175  0.2023
 5896SOL    HW129324   0.999   1.588   8.343 -3.0471  1.8481  0.0458
 5896SOL    HW229325   1.062   1.596   8.475 -0.3215  2.4193 -0.1816
 5897SOL     OW29326   1.469   2.326   7.616 -0.5308 -0.0798 -0.0357
 5897SOL    HW129327   1.511   2.304   7.533 -1.9105 -0.1910 -0.6956
 5897SOL    HW229328   1.397   2.379   7.581 -0.2544 -0.7857 -1.6768
 5898SOL     OW29329   2.634   0.561   7.838 -0.2876  0.1336 -0.0849
 5898SOL    HW129330   2.686   0.520   7.769 -0.3493 -2.9455  1.6901
 5898SOL    HW229331   2.579   0.487   7.866  0.1600  0.3204  1.2774
 5899SOL     OW29332   3.326   4.629   3.342  0.2258  0.6627  0.6357
 5899SOL    HW129333   3.249   4.671   3.379 -2.1897 -0.9696 -2.5747
 5899SOL    HW229334   3.285   4.601   3.260  1.0567  1.7688 -0.1529
 5900SOL     OW29335   4.022   1.299   9.750  0.0434  0.4474 -0.2478
 5900SOL    HW129336   4.108   1.292   9.791 -0.2129 -3.4452 -0.3686
 5900SOL    HW229337   4.023   1.389   9.717  2.7539  0.4409 -0.1873
 5901SOL     OW29338   1.516   1.457   8.491  0.2389 -0.1855  0.7307
 5901SOL    HW129339   1.433   1.410   8.490 -1.0609  2.1008  0.9847
 5901SOL    HW229340   1.531   1.484   8.400 -2.6728 -1.0892  0.0015
 5902SOL     OW29341   0.063   0.144   6.939  0.0408  0.4161 -0.0660
 5902SOL    HW129342   0.136   0.190   6.979 -0.5984  0.6616  0.8092
 5902SOL    HW229343   0.041   0.215   6.879 -2.2019 -2.1190 -2.2462
 5903SOL     OW29344   1.377   2.434   2.058 -0.3560 -0.0304 -0.1612
 5903SOL    HW129345   1.377   2.438   2.153 -0.7049 -3.1310 -0.0105
 5903SOL    HW229346   1.444   2.500   2.041  2.0905 -1.7355  2.7704
 5904SOL     OW29347   2.906   4.470   7.225 -0.3688  0.1538 -0.0005
 5904SOL    HW129348   2.819   4.509   7.232 -0.8417 -0.8808  0.0229
 5904SOL    HW229349   2.902   4.388   7.176 -0.0490 -0.0263  0.2692
 5905SOL     OW29350   0.769   0.714   4.674  0.1399  0.8033 -0.2261
 5905SOL    HW129351   0.790   0.782   4.611  1.2816  0.2893 -0.3872
 5905SOL    HW229352   0.806   0.755   4.752  0.8598  2.1027 -1.2630
 5906SOL     OW29353   2.387   3.413   7.088 -0.3473  0.4031 -0.0736
 5906SOL    HW129354   2.327   3.351   7.047  0.5790  0.6314 -1.7827
 5906SOL    HW229355   2.374   3.387   7.179  3.2079  1.1732  0.6246
 5907SOL     OW29356   4.535   4.254   1.821 -0.0721  0.3247  0.9046
 5907SOL    HW129357   4.494   4.321   1.876  0.6087 -0.7103  2.6865
 5907SOL    HW229358   4.625   4.284   1.811 -1.2255  2.3544 -3.3451
 5908SOL     OW29359   1.209   1.069   9.235  0.2102 -0.1675 -0.2682
 5908SOL    HW129360   1.168   1.058   9.149  1.5136  0.8879 -1.0212
 5908SOL    HW229361   1.259   1.149   9.217  0.6572 -0.2324  0.6997
 5909SOL     OW29362   3.447   2.399  11.475  0.4334  0.5744 -0.2498
 5909SOL    HW129363   3.470   2.479  11.428  0.7045  1.0962  0.7740
 5909SOL    HW229364   3.370   2.362  11.430  1.1480 -0.3565 -0.7163
 5910SOL     OW29365   3.010   3.823   3.062 -0.3326  0.1214 -0.4211
 5910SOL    HW129366   2.927   3.793   3.099 -1.6938  2.6556 -1.4343
 5910SOL    HW229367   2.991   3.887   2.993  0.6405  0.4750 -0.3610
 5911SOL     OW29368   1.477   0.500   3.343 -0.2981 -0.3021  0.0792
 5911SOL    HW129369   1.560   0.478   3.301 -0.1443  0.6143 -0.1054
 5911SOL    HW229370   1.442   0.412   3.359  1.9805 -1.1911  0.1966
 5912SOL     OW29371   2.609   4.012  13.593 -0.3150  0.2704  0.0997
 5912SOL    HW129372   2.570   4.038  13.677  2.3044  2.4074  0.6767
 5912SOL    HW229373   2.646   3.928  13.618 -1.4365 -0.1825  0.2295
 5913SOL     OW29374   2.520   0.918   8.638 -0.1963  0.1087 -0.2140
 5913SOL    HW129375   2.541   1.005   8.604 -0.0103 -0.6061 -1.8947
 5913SOL    HW229376   2.539   0.922   8.732  0.7897  2.0076 -0.4927
 5914SOL     OW29377   2.736   3.579  15.520  0.1980 -0.2925 -0.0802
 5914SOL    HW129378   2.700   3.648  15.575  0.3303 -2.0216  2.1805
 5914SOL    HW229379   2.681   3.592  15.443  0.8220  1.3170 -0.2672
 5915SOL     OW29380   2.811   1.490  10.940 -0.1475 -0.2213 -0.0740
 5915SOL    HW129381   2.742   1.542  10.981 -0.8916 -2.0466  0.9967
 5915SOL    HW229382   2.840   1.438  11.015 -1.1595  1.5405  1.5567
 5916SOL     OW29383   4.591   3.183   4.273  0.4740 -0.3097 -0.1769
 5916SOL    HW129384   4.549   3.110   4.318 -2.8584  1.2109 -0.8103
 5916SOL    HW229385   4.593   3.241   4.349  0.9049 -1.0943  0.4103
 5917SOL     OW29386   2.324   0.808   7.853  0.4394  0.2653  0.1963
 5917SOL    HW129387   2.263   0.739   7.826 -0.7081  1.1745  0.4616
 5917SOL    HW229388   2.329   0.794   7.948  0.9662 -1.3925 -0.0602
 5918SOL     OW29389   2.356   4.666  16.238 -0.3627 -0.3196  0.2296
 5918SOL    HW129390   2.344   4.599  16.171  1.4665 -0.0419 -0.3580
 5918SOL    HW229391   2.381   0.005  16.183  0.3338  0.3721  1.4617
 5919SOL     OW29392   4.696   3.473   7.802 -0.4346  0.0451  0.4170
 5919SOL    HW129393   4.620   3.498   7.749  0.7963  0.2800 -1.2669
 5919SOL    HW229394   0.030   3.536   7.779 -0.0067 -0.9651 -1.0759
 5920SOL     OW29395   2.294   3.743   0.360 -0.2793 -0.5077 -0.0139
 5920SOL    HW129396   2.229   3.800   0.319 -0.6424 -1.0563 -0.1990
 5920SOL    HW229397   2.318   3.791   0.439 -1.9397 -1.4971  1.1023
 5921SOL     OW29398   2.149   3.251   6.270 -0.3616 -0.7020  0.0553
 5921SOL    HW129399   2.130   3.228   6.178  0.0861  1.2816 -0.5180
 5921SOL    HW229400   2.141   3.346   6.270 -2.0079 -0.8170 -2.6197
 5922SOL     OW29401   3.949   1.553   2.131  0.4952  0.3334  0.2129
 5922SOL    HW129402   3.986   1.568   2.045 -0.8646 -3.1967 -0.9820
 5922SOL    HW229403   3.919   1.463   2.129  2.2280 -0.2522  0.5675
 5923SOL     OW29404   3.642   4.265   4.554 -0.1870 -0.0728 -0.3134
 5923SOL    HW129405   3.640   4.233   4.644 -0.4765  0.4737 -0.1265
 5923SOL    HW229406   3.683   4.350   4.572 -0.1522  0.0618 -1.0141
 5924SOL     OW29407   1.932   0.003   9.680 -0.1066 -0.4489 -0.5184
 5924SOL    HW129408   1.897   4.703   9.598  2.4588 -1.7982 -1.0196
 5924SOL    HW229409   1.955   4.668   9.741 -2.2577  1.3103  2.3529
 5925SOL     OW29410   0.572   1.546   3.975 -0.1626 -0.0168  0.0472
 5925SOL    HW129411   0.523   1.487   3.917 -2.6670 -0.3808  2.5226
 5925SOL    HW229412   0.500   1.594   4.017 -0.3214  0.3496 -0.6436
 5926SOL     OW29413   0.115   0.838   6.788 -0.0617  0.0792  0.8534
 5926SOL    HW129414   0.080   0.906   6.845  0.2075  0.4661  0.5558
 5926SOL    HW229415   0.033   0.791   6.777  0.4365 -0.7018  0.4512
 5927SOL     OW29416   2.507   4.492   1.817  0.0356  0.1895 -0.5762
 5927SOL    HW129417   2.499   4.486   1.722 -1.2999 -0.8706 -0.3928
 5927SOL    HW229418   2.425   4.450   1.843 -0.7224  2.5025  0.7144
 5928SOL     OW29419   2.564   4.005   5.556 -0.0287 -0.0261 -0.4435
 5928SOL    HW129420   2.629   4.072   5.536 -0.2588  0.3046 -0.0788
 5928SOL    HW229421   2.618   3.926   5.555  0.5005  0.3266  0.8343
 5929SOL     OW29422   2.640   2.733   2.147 -0.0643  0.1520 -0.2586
 5929SOL    HW129423   2.610   2.647   2.176 -0.6339 -0.2041 -1.9412
 5929SOL    HW229424   2.649   2.720   2.053 -0.7738 -0.9148 -0.1799
 5930SOL     OW29425   0.985   0.350   6.149 -0.2640 -0.7085 -0.3975
 5930SOL    HW129426   0.951   0.263   6.167 -0.6394 -0.6464 -0.8079
 5930SOL    HW229427   0.944   0.409   6.212 -1.5202 -2.6824  0.6225
 5931SOL     OW29428   3.226   2.449  15.179 -0.0268  0.6513 -0.0355
 5931SOL    HW129429   3.317   2.466  15.205 -0.1130  2.6911 -1.0397
 5931SOL    HW229430   3.228   2.355  15.165  0.7094  0.9065 -1.7494
 5932SOL     OW29431   0.800   2.067  10.665  0.5322  0.2051 -0.2179
 5932SOL    HW129432   0.797   1.973  10.650  0.8676 -0.0359  1.2323
 5932SOL    HW229433   0.723   2.104  10.620  0.2422  1.4887  1.3264
 5933SOL     OW29434   3.722   1.092   5.377  0.4185 -0.4587  0.2070
 5933SOL    HW129435   3.641   1.053   5.346  0.8508  0.2323 -1.8051
 5933SOL    HW229436   3.784   1.023   5.353  1.2485 -0.6179  2.8299
 5934SOL     OW29437   0.854   3.946  12.895  0.1839  0.2453 -0.2117
 5934SOL    HW129438   0.813   3.980  12.975 -0.3355 -0.1815 -0.2958
 5934SOL    HW229439   0.815   3.859  12.904 -2.1580  1.2515 -0.6678
 5935SOL     OW29440   2.119   2.978  17.452 -0.3442  0.1768  0.1613
 5935SOL    HW129441   2.113   2.932  17.368  1.4736  0.3865 -0.0843
 5935SOL    HW229442   2.046   3.038  17.463 -1.1294 -1.0522  1.6520
 5936SOL     OW29443   1.126   2.107   4.729  0.1759  0.3166 -0.6595
 5936SOL    HW129444   1.055   2.171   4.730 -0.7838 -0.7586 -0.3704
 5936SOL    HW229445   1.089   2.032   4.776 -0.5123 -0.0827 -1.8394
 5937SOL     OW29446   1.755   4.187   3.784  0.3682  0.3525  0.1681
 5937SOL    HW129447   1.783   4.239   3.859 -0.3244 -1.1827  1.5054
 5937SOL    HW229448   1.839   4.147   3.762 -0.6122 -2.4249  1.3794
 5938SOL     OW29449   3.394   3.217   6.223  0.6505  0.0279 -0.1399
 5938SOL    HW129450   3.339   3.287   6.187 -1.0629  0.6662  3.7212
 5938SOL    HW229451   3.329   3.178   6.282  3.7083 -1.7646  2.0166
 5939SOL     OW29452   1.826   0.800   5.632  0.4262  0.0841  0.4007
 5939SOL    HW129453   1.784   0.715   5.647  0.1848 -0.1363 -1.5110
 5939SOL    HW229454   1.837   0.801   5.537 -0.0303  0.4765  0.3508
 5940SOL     OW29455   1.187   3.091  12.961  0.5467  0.7281  0.0833
 5940SOL    HW129456   1.213   3.006  12.924 -2.4461  0.0962 -0.5504
 5940SOL    HW229457   1.097   3.101  12.931  0.6809  1.4625 -0.0801
 5941SOL     OW29458   4.140   2.526   8.919 -0.4023 -0.4406 -0.4675
 5941SOL    HW129459   4.110   2.573   8.997  0.5834  1.8424 -1.4425
 5941SOL    HW229460   4.119   2.439   8.952 -0.9546  0.3495  1.2481
 5942SOL     OW29461   3.454   1.546   9.486  0.0618  0.0362 -0.0335
 5942SOL    HW129462   3.535   1.566   9.439  1.4360 -0.5951  2.1076
 5942SOL    HW229463   3.489   1.506   9.565 -1.9835 -0.7769  0.4645
 5943SOL     OW29464   4.676   1.008   4.404 -0.4924  0.1808 -0.5727
 5943SOL    HW129465   0.005   1.068   4.366 -0.5324  0.7559  0.2820
 5943SOL    HW229466   4.670   0.954   4.325  2.7329 -0.3984 -0.4122
 5944SOL     OW29467   3.060   0.415   3.245 -0.0541 -0.9641  0.1907
 5944SOL    HW129468   2.988   0.379   3.193  1.4411 -1.3871 -1.5775
 5944SOL    HW229469   3.058   0.504   3.211  1.8821 -1.2499 -0.6562
 5945SOL     OW29470   1.014   3.656   3.395  0.0307  0.1693  0.3118
 5945SOL    HW129471   0.979   3.649   3.306  0.9831 -1.8321  0.0847
 5945SOL    HW229472   0.967   3.589   3.445  1.6654 -2.5200 -1.7394
 5946SOL     OW29473   4.618   3.541   2.614 -0.8677 -0.3661 -0.1809
 5946SOL    HW129474   4.563   3.603   2.663 -0.6099 -0.8216  0.6832
 5946SOL    HW229475   4.598   3.457   2.656  2.0552 -2.1430 -2.3881
 5947SOL     OW29476   4.479   4.457   5.422 -0.1368  0.1481  0.1005
 5947SOL    HW129477   4.436   4.542   5.433 -0.1673  0.1629 -0.1241
 5947SOL    HW229478   4.468   4.442   5.328  0.2896 -2.7745  0.5153
 5948SOL     OW29479   1.674   2.437  10.190 -0.2259 -0.2181  0.3053
 5948SOL    HW129480   1.733   2.388  10.247 -0.2646  0.1211  0.6367
 5948SOL    HW229481   1.588   2.412  10.224  0.0040  2.4526  2.7756
 5949SOL     OW29482   3.259   2.489   6.005  0.0995 -0.2946 -0.4857
 5949SOL    HW129483   3.237   2.407   5.961  0.6492  0.1158 -1.5098
 5949SOL    HW229484   3.341   2.460   6.045  0.2453 -1.6927 -1.7816
 5950SOL     OW29485   2.593   0.182   7.360  0.2704  0.7745 -0.0357
 5950SOL    HW129486   2.686   0.168   7.346  1.0128  1.6597  3.8754
 5950SOL    HW229487   2.573   0.274   7.344  0.4069  0.8098 -0.0057
 5951SOL     OW29488   4.011   1.554  10.847  0.5024 -0.2052 -0.2810
 5951SOL    HW129489   4.018   1.643  10.812  0.7298 -0.8518 -1.9051
 5951SOL    HW229490   3.918   1.533  10.849  0.6075 -0.9671 -3.0376
 5952SOL     OW29491   2.534   1.328  14.033  0.0907  0.1729 -0.5532
 5952SOL    HW129492   2.599   1.284  13.978  1.1344  0.5171  0.4180
 5952SOL    HW229493   2.584   1.404  14.063 -0.5218  0.4325 -0.2000
 5953SOL     OW29494   3.098   3.599   7.339 -0.0168 -0.0561  0.1245
 5953SOL    HW129495   3.110   3.666   7.271  0.4987  0.4907  0.7617
 5953SOL    HW229496   3.176   3.546   7.322 -2.7945 -3.8251 -0.9413
 5954SOL     OW29497   0.349   0.639  12.776 -0.6192  0.5336  0.0107
 5954SOL    HW129498   0.348   0.548  12.806 -0.4134  1.3461  2.4372
 5954SOL    HW229499   0.417   0.638  12.708  0.8899 -0.1303  1.5402
 5955SOL     OW29500   4.494   1.502  16.455  0.5808 -0.7608 -0.4841
 5955SOL    HW129501   4.526   1.549  16.377  1.6964 -0.8965 -0.1039
 5955SOL    HW229502   4.548   1.550  16.518  1.5004 -0.4874 -1.4763
 5956SOL     OW29503   3.722   1.844   5.475 -0.1180 -0.6242 -0.2855
 5956SOL    HW129504   3.644   1.897   5.457 -0.4272 -0.6920  0.7955
 5956SOL    HW229505   3.688   1.794   5.550 -0.1325  1.3860  1.0687
 5957SOL     OW29506   0.532   2.417   9.751 -0.1708  0.1115 -0.6661
 5957SOL    HW129507   0.576   2.429   9.667  1.1203 -0.1293 -0.0308
 5957SOL    HW229508   0.532   2.322   9.763 -1.0021  0.0765 -0.9352
 5958SOL     OW29509   2.474   4.440   0.535  0.3705 -0.2803  0.0049
 5958SOL    HW129510   2.476   4.479   0.622 -1.1721  1.0160 -0.5427
 5958SOL    HW229511   2.495   4.514   0.478  1.5193 -1.0647 -0.5910
 5959SOL     OW29512   2.360   1.858  10.947  0.0032  0.1795  0.0897
 5959SOL    HW129513   2.437   1.915  10.956  2.1284 -2.6128 -0.6329
 5959SOL    HW229514   2.325   1.877  10.860 -0.5756 -0.0468  0.2775
 5960SOL     OW29515   2.827   1.652   3.622  0.2350  0.2780 -0.2255
 5960SOL    HW129516   2.876   1.571   3.637  0.6854  0.4297 -0.8545
 5960SOL    HW229517   2.803   1.676   3.711 -1.5502 -1.6686 -0.1942
 5961SOL     OW29518   3.321   2.530  14.082  0.0491 -0.2264  0.4264
 5961SOL    HW129519   3.266   2.494  14.151 -0.9737 -0.6463 -0.6009
 5961SOL    HW229520   3.358   2.610  14.118  0.1423 -0.6636  1.2829
 5962SOL     OW29521   3.692   0.517   7.314 -0.3887 -0.3401 -0.0843
 5962SOL    HW129522   3.607   0.558   7.303 -0.5576 -0.7967 -0.4863
 5962SOL    HW229523   3.722   0.508   7.223  1.3434 -1.9887  0.6309
 5963SOL     OW29524   2.099   3.871   0.233 -0.0087  0.2851 -0.4031
 5963SOL    HW129525   2.014   3.847   0.196 -0.0535 -0.2561  0.0375
 5963SOL    HW229526   2.133   3.946   0.184  2.4530 -0.6707 -0.1839
 5964SOL     OW29527   0.380   3.617   4.414 -0.2614 -0.0902  0.3126
 5964SOL    HW129528   0.315   3.555   4.448 -1.0864  2.1518  2.8823
 5964SOL    HW229529   0.424   3.560   4.351  0.6454 -0.8012  1.5858
 5965SOL     OW29530   2.265   4.022  12.853  0.5640 -0.0657 -0.1463
 5965SOL    HW129531   2.231   3.934  12.837  0.6895  0.0876 -1.2424
 5965SOL    HW229532   2.218   4.070  12.785  1.4988  0.3646 -0.4865
 5966SOL     OW29533   3.484   2.505  15.201 -0.4759  0.7806 -0.4570
 5966SOL    HW129534   3.539   2.583  15.214  1.4847 -0.7117  0.1201
 5966SOL    HW229535   3.547   2.433  15.204 -2.9324 -1.3970 -1.3324
 5967SOL     OW29536   0.692   4.021   8.167 -0.5934 -0.4669  0.1059
 5967SOL    HW129537   0.774   3.980   8.142  0.0922  2.0249 -1.7355
 5967SOL    HW229538   0.662   4.051   8.080 -0.2728 -0.9406 -0.1646
 5968SOL     OW29539   0.946   0.305   3.088 -0.1760 -0.3907  0.7329
 5968SOL    HW129540   0.950   0.215   3.120 -3.4724 -0.2602  1.4221
 5968SOL    HW229541   1.029   0.344   3.116  0.1522 -0.0756 -0.7107
 5969SOL     OW29542   0.788   1.124  14.545 -0.1468  0.6378 -0.0688
 5969SOL    HW129543   0.854   1.186  14.514  1.4853 -0.6349  0.8746
 5969SOL    HW229544   0.832   1.041  14.563 -0.7665  0.2815 -0.1958
 5970SOL     OW29545   1.985   1.780   3.091 -0.3240  0.0060  0.3786
 5970SOL    HW129546   1.989   1.821   3.178  0.0597  1.6782 -0.4133
 5970SOL    HW229547   2.002   1.688   3.108 -1.7664 -0.6427 -1.7456
 5971SOL     OW29548   0.315   2.960   4.137 -0.4259 -0.4074 -0.6629
 5971SOL    HW129549   0.225   2.964   4.171 -0.1215 -3.2627  0.5074
 5971SOL    HW229550   0.337   2.867   4.150 -0.3495 -0.3766 -0.5683
 5972SOL     OW29551   4.540   4.187  16.295 -0.1780  0.3481  0.2629
 5972SOL    HW129552   4.520   4.223  16.209  0.7705  0.1125 -0.0593
 5972SOL    HW229553   4.455   4.194  16.338 -0.5988 -1.9833 -0.1684
 5973SOL     OW29554   4.472   4.541   6.009 -0.4695 -0.3555  0.7865
 5973SOL    HW129555   4.567   4.531   6.003 -0.7890 -3.5312  0.6796
 5973SOL    HW229556   4.460   4.607   6.077  0.4793  1.2727 -0.6148
 5974SOL     OW29557   1.828   0.969   2.941  1.0135  0.3068  0.0607
 5974SOL    HW129558   1.744   0.986   2.897  0.3602 -2.4075  0.2338
 5974SOL    HW229559   1.816   1.036   3.008 -0.6643  1.7306 -1.6735
 5975SOL     OW29560   1.910   4.624   7.597 -0.2181  0.1274  0.2225
 5975SOL    HW129561   1.879   4.537   7.623 -2.1420  0.9495  0.7210
 5975SOL    HW229562   1.936   4.610   7.506 -0.1403 -1.9754  0.5775
 5976SOL     OW29563   0.307   3.620   9.826 -0.2713 -0.2470  0.1673
 5976SOL    HW129564   0.219   3.610   9.790  0.9354 -1.1829 -2.4664
 5976SOL    HW229565   0.358   3.559   9.773 -0.7523 -2.1662  1.9347
 5977SOL     OW29566   0.278   2.451   2.052  0.2172  0.5783 -0.1285
 5977SOL    HW129567   0.308   2.466   2.141  0.2936  2.1651 -0.4236
 5977SOL    HW229568   0.182   2.452   2.054  0.1941  1.1222 -1.2938
 5978SOL     OW29569   1.297   4.368   1.645 -0.3454  0.8828  0.2852
 5978SOL    HW129570   1.205   4.358   1.618  0.7021 -1.6506 -2.3486
 5978SOL    HW229571   1.330   4.278   1.641  0.8383  1.4031 -1.3633
 5979SOL     OW29572   2.762   0.080   8.438  0.1975 -0.1209 -0.1860
 5979SOL    HW129573   2.749   4.723   8.415 -0.2551 -0.2589  0.5886
 5979SOL    HW229574   2.849   0.083   8.477  0.4172 -0.1027 -0.6762
 5980SOL     OW29575   1.105   3.216   3.652 -0.5370  0.1387  0.3078
 5980SOL    HW129576   1.126   3.308   3.637  0.9129 -0.1721  0.4591
 5980SOL    HW229577   1.072   3.192   3.565 -2.4686  0.0025  1.0620
 5981SOL     OW29578   1.511   0.126   8.052  0.4575 -0.4937 -0.7940
 5981SOL    HW129579   1.454   0.050   8.038  0.9095 -1.0172  0.2236
 5981SOL    HW229580   1.452   0.196   8.024  1.0870 -0.5527 -2.2275
 5982SOL     OW29581   3.941   0.880   4.391 -1.0070 -0.3469 -0.1221
 5982SOL    HW129582   3.934   0.975   4.386 -1.7048 -0.4417 -0.8707
 5982SOL    HW229583   4.031   0.862   4.363 -1.9154 -1.9239 -1.9809
 5983SOL     OW29584   3.300   2.671   8.756 -0.9520 -0.2153  0.4532
 5983SOL    HW129585   3.245   2.604   8.714 -0.7119  0.1321 -0.4130
 5983SOL    HW229586   3.234   2.720   8.805 -0.8777  0.4787 -0.1476
 5984SOL     OW29587   2.683   3.761   4.086 -0.5418 -0.3517 -0.0138
 5984SOL    HW129588   2.739   3.727   4.016  1.0302 -0.8720  1.5158
 5984SOL    HW229589   2.683   3.854   4.063 -0.9351 -0.2330  0.4733
 5985SOL     OW29590   2.953   4.175  13.201 -0.3076 -0.1349 -0.2600
 5985SOL    HW129591   2.949   4.083  13.175  1.9391  0.1832 -1.7547
 5985SOL    HW229592   2.942   4.171  13.296 -0.8138  0.9992 -0.2726
 5986SOL     OW29593   1.579   4.402  13.447 -0.1767 -0.3053 -0.6518
 5986SOL    HW129594   1.618   4.378  13.531 -2.1182 -1.2097 -0.0116
 5986SOL    HW229595   1.487   4.410  13.473  1.0944  0.0846  3.7252
 5987SOL     OW29596   4.100   1.909   1.198  0.0715  0.1130  0.7737
 5987SOL    HW129597   4.150   1.872   1.124 -0.8412 -1.4628  0.9363
 5987SOL    HW229598   4.009   1.880   1.193  0.1499  0.1787 -0.9940
 5988SOL     OW29599   0.989   2.053  10.846 -0.3124 -0.3446 -0.0677
 5988SOL    HW129600   1.050   2.069  10.774  3.4778 -1.6288  2.8352
 5988SOL    HW229601   0.910   2.045  10.793  0.1417  0.2616 -0.8290
 5989SOL     OW29602   0.741   4.107  11.182 -0.7495  0.4938 -0.5651
 5989SOL    HW129603   0.659   4.140  11.145 -0.2872 -0.0267 -2.0304
 5989SOL    HW229604   0.798   4.141  11.113 -0.2395  0.7042 -0.0381
 5990SOL     OW29605   1.872   3.659   6.981  0.2930  0.2133 -0.4326
 5990SOL    HW129606   1.928   3.616   7.045  1.2936  1.1304 -0.6856
 5990SOL    HW229607   1.864   3.749   7.013 -1.9054  0.5967 -2.0400
 5991SOL     OW29608   0.697   3.693   7.287 -0.0398  0.1431 -0.3118
 5991SOL    HW129609   0.789   3.687   7.315 -0.7951  0.0847  2.1781
 5991SOL    HW229610   0.699   3.639   7.208  0.6762 -0.1993 -0.0594
 5992SOL     OW29611   1.075   2.030   8.492  0.0707  0.0550  0.6316
 5992SOL    HW129612   1.088   1.987   8.577 -1.3330  0.3579  0.9963
 5992SOL    HW229613   1.037   2.110   8.528  1.6796  1.4325 -0.7659
 5993SOL     OW29614   0.110   4.619   2.964 -0.5941  0.0166 -0.3773
 5993SOL    HW129615   0.044   4.648   2.901  0.1692  4.0171  0.6456
 5993SOL    HW229616   0.107   4.688   3.031 -0.0651  0.5474 -0.9055
 5994SOL     OW29617   1.369   2.361   6.387 -0.0324 -0.2490  0.3624
 5994SOL    HW129618   1.325   2.433   6.341  1.3823  0.9811  0.9393
 5994SOL    HW229619   1.426   2.333   6.315 -1.0858 -0.8551 -0.2487
 5995SOL     OW29620   4.450   0.853   4.878  0.4545  0.6591 -0.5022
 5995SOL    HW129621   4.455   0.758   4.887 -0.9057  0.5651 -0.6851
 5995SOL    HW229622   4.529   0.867   4.827  0.4941 -2.8983 -1.4448
 5996SOL     OW29623   0.717   0.862  15.656  0.1064 -0.0212  0.1585
 5996SOL    HW129624   0.629   0.891  15.678 -0.3420  0.3824 -2.1346
 5996SOL    HW229625   0.779   0.933  15.671 -0.2773  0.4582 -0.5370
 5997SOL     OW29626   1.837   2.319  12.217 -0.2939 -0.3117  0.1764
 5997SOL    HW129627   1.853   2.290  12.127  0.4788 -0.1299  0.2509
 5997SOL    HW229628   1.746   2.294  12.232 -1.2203  1.5777 -2.3784
 5998SOL     OW29629   1.926   2.549  11.213 -0.2219  0.5733 -0.1568
 5998SOL    HW129630   1.985   2.616  11.248 -1.2471  0.0146  2.6285
 5998SOL    HW229631   1.983   2.497  11.156 -2.5926 -0.4568 -1.6071
 5999SOL     OW29632   4.316   3.045   7.155  0.4792 -0.2869  0.0151
 5999SOL    HW129633   4.328   3.017   7.065 -0.5890 -2.0022  0.3975
 5999SOL    HW229634   4.242   2.991   7.181 -0.2877  2.0129  2.5879
 6000SOL     OW29635   0.584   2.883   7.439  0.3938 -0.0957 -0.5574
 6000SOL    HW129636   0.599   2.797   7.399 -2.7598 -0.6660 -0.4384
 6000SOL    HW229637   0.663   2.919   7.398  1.5511 -1.7761  0.1792
 6001SOL     OW29638   4.398   3.807   1.602 -0.2462 -0.2879 -0.2495
 6001SOL    HW129639   4.412   3.877   1.665 -1.9747 -1.9314  1.9419
 6001SOL    HW229640   4.390   3.868   1.529 -1.4098  1.2173  1.1425
 6002SOL     OW29641   0.203   4.091   4.301 -0.3055  0.0931  0.1315
 6002SOL    HW129642   0.230   4.050   4.219  2.8884 -0.5245  1.4724
 6002SOL    HW229643   0.121   4.045   4.315 -0.6101 -0.0986 -2.3441
 6003SOL     OW29644   3.567   0.425   3.435  0.2918  0.0057 -0.1405
 6003SOL    HW129645   3.608   0.391   3.356  3.4945  2.0715  0.5901
 6003SOL    HW229646   3.505   0.356   3.456 -0.3852  0.6974  0.1075
 6004SOL     OW29647   1.720   2.659   7.505  0.6377 -0.1918  0.2343
 6004SOL    HW129648   1.648   2.640   7.446  2.0963  0.7566 -1.8224
 6004SOL    HW229649   1.778   2.702   7.443 -0.9746 -1.2781 -2.0262
 6005SOL     OW29650   2.275   2.444  10.683  0.1565 -0.9821  0.3024
 6005SOL    HW129651   2.253   2.481  10.597 -1.5927 -2.1021  0.2661
 6005SOL    HW229652   2.365   2.474  10.696  0.0466 -1.6743  2.6040
 6006SOL     OW29653   3.636   0.807  16.674  0.2694 -0.1682 -0.0983
 6006SOL    HW129654   3.729   0.809  16.698 -0.0185  1.7399  0.8325
 6006SOL    HW229655   3.602   0.725  16.708  1.7152 -1.1226 -0.9250
 6007SOL     OW29656   2.740   3.433  12.679 -0.2178 -0.8124 -0.1035
 6007SOL    HW129657   2.697   3.436  12.765 -1.2495 -3.9971 -0.5237
 6007SOL    HW229658   2.825   3.464  12.713 -1.8340  2.6547  0.7571
 6008SOL     OW29659   4.213   0.846   4.338  0.4659 -0.2933  0.7152
 6008SOL    HW129660   4.268   0.923   4.323  0.4315 -0.5080 -0.4773
 6008SOL    HW229661   4.248   0.807   4.418  0.7794 -0.4184  0.5160
 6009SOL     OW29662   3.976   4.360   8.738 -0.3311  0.4831 -0.0932
 6009SOL    HW129663   3.913   4.293   8.766  0.1815  0.0704  0.0788
 6009SOL    HW229664   4.037   4.359   8.812  1.7461 -0.7749 -1.8171
 6010SOL     OW29665   2.404   1.337  13.579 -0.1301 -0.0040 -0.3142
 6010SOL    HW129666   2.366   1.394  13.512  3.1156 -1.0612 -3.0991
 6010SOL    HW229667   2.445   1.411  13.623  0.1160 -0.4440  0.1950
 6011SOL     OW29668   3.893   0.880   5.340 -0.7999  0.0425 -0.0803
 6011SOL    HW129669   3.875   0.792   5.307  0.6015 -0.1703 -0.2414
 6011SOL    HW229670   3.986   0.899   5.337 -1.1077  1.3386 -1.3597
 6012SOL     OW29671   0.984   1.767   4.851 -0.3631  0.4604 -0.5480
 6012SOL    HW129672   0.924   1.696   4.872  0.0946  0.5492  1.0941
 6012SOL    HW229673   0.955   1.838   4.908 -0.0719  1.3116 -1.4610
 6013SOL     OW29674   4.249   3.461   3.864 -0.3097 -0.2964  0.7454
 6013SOL    HW129675   4.243   3.461   3.960 -1.6402 -2.4321  0.6636
 6013SOL    HW229676   4.315   3.393   3.850  0.2083  0.2207  0.7028
 6014SOL     OW29677   4.482   2.200   7.589 -0.6429 -0.4898 -0.2533
 6014SOL    HW129678   4.557   2.250   7.622 -1.6769  1.4510 -0.8369
 6014SOL    HW229679   4.420   2.193   7.661 -0.1778 -2.4671 -0.0492
 6015SOL     OW29680   3.916   1.324  16.852 -0.0471 -0.1060  0.6406
 6015SOL    HW129681   3.962   1.319  16.769 -2.4903  0.5870 -0.7422
 6015SOL    HW229682   3.973   1.272  16.909  3.5540  2.4747 -0.6012
 6016SOL     OW29683   4.579   0.267   4.116 -0.1494  0.4954  0.1761
 6016SOL    HW129684   4.530   0.269   4.198 -0.5856 -0.9961 -0.0470
 6016SOL    HW229685   4.509   0.249   4.053 -0.2755  2.4841 -0.2743
 6017SOL     OW29686   4.437   3.292   5.410 -0.5969  0.4506 -0.2430
 6017SOL    HW129687   4.385   3.268   5.487  0.2045 -3.6490 -0.9790
 6017SOL    HW229688   4.440   3.388   5.416 -0.4369  0.3297  1.5522
 6018SOL     OW29689   0.893   4.586  11.753  0.0451  0.5107 -0.8809
 6018SOL    HW129690   0.865   4.582  11.845 -1.3895 -2.4873 -1.4486
 6018SOL    HW229691   0.814   4.551  11.711 -1.1879 -0.0978  1.9277
 6019SOL     OW29692   3.007   0.536   2.085  0.0474  0.0978 -0.0432
 6019SOL    HW129693   2.966   0.508   2.167 -0.2071  1.3445  0.2563
 6019SOL    HW229694   3.091   0.556   2.127  0.1545  1.0170 -0.6979
 6020SOL     OW29695   1.968   1.899  13.861 -0.3115  0.1841 -0.2113
 6020SOL    HW129696   1.951   1.953  13.784 -2.1640 -0.5617 -0.3375
 6020SOL    HW229697   1.899   1.834  13.842  0.7756 -0.5838 -1.5122
 6021SOL     OW29698   2.586   0.995   2.842  0.1710 -0.3977 -0.4725
 6021SOL    HW129699   2.568   1.069   2.783  0.2538  2.2766  2.8401
 6021SOL    HW229700   2.656   1.029   2.898  0.0352  1.6107 -1.5010
 6022SOL     OW29701   2.795   2.359   2.980 -0.0196 -0.6215  0.0262
 6022SOL    HW129702   2.889   2.341   2.992 -0.0484 -0.0443  1.1229
 6022SOL    HW229703   2.774   2.365   2.887 -1.6689  0.0043  0.4519
 6023SOL     OW29704   3.954   2.524   3.606  0.2847 -0.2170  0.6300
 6023SOL    HW129705   3.935   2.431   3.621 -0.0432 -0.3418 -0.5540
 6023SOL    HW229706   4.015   2.534   3.679  1.3093 -0.2843 -0.2165
 6024SOL     OW29707   0.407   0.339   2.721  0.3420 -0.0510 -0.0773
 6024SOL    HW129708   0.333   0.351   2.780 -1.0206 -2.0039 -1.4026
 6024SOL    HW229709   0.467   0.413   2.730  1.0732 -0.7115  0.4307
 6025SOL     OW29710   0.965   2.683   8.622 -0.0315  0.0888 -1.1815
 6025SOL    HW129711   0.883   2.682   8.573  1.1694  2.4494 -3.2695
 6025SOL    HW229712   0.985   2.777   8.619 -3.6522  0.9238  2.3727
 6026SOL     OW29713   1.235   4.070  17.375  0.3320  0.7769 -0.4112
 6026SOL    HW129714   1.208   3.981  17.397  0.4182  0.7607 -0.3715
 6026SOL    HW229715   1.253   4.068  17.281  0.8149  1.3205 -0.3279
 6027SOL     OW29716   4.680   0.128  14.386 -0.0717 -0.2136  0.4260
 6027SOL    HW129717   4.724   0.212  14.399  0.4490 -0.3230 -0.6322
 6027SOL    HW229718   0.012   0.062  14.404  1.2878  0.9420 -0.3816
 6028SOL     OW29719   1.636   3.892   2.118  0.0829 -0.3463 -0.0346
 6028SOL    HW129720   1.709   3.950   2.139 -0.9957  0.0768  2.6471
 6028SOL    HW229721   1.640   3.905   2.024  1.8833  1.0127  0.2136
 6029SOL     OW29722   3.345   1.488  16.459  0.3159  0.0786  0.1096
 6029SOL    HW129723   3.374   1.470  16.369 -0.6485 -2.2721  0.2911
 6029SOL    HW229724   3.420   1.464  16.513  0.3586 -0.2346 -0.0862
 6030SOL     OW29725   0.182   4.473  16.391 -0.3396 -0.1732 -0.0542
 6030SOL    HW129726   0.128   4.501  16.465 -2.7894  0.0764 -1.9594
 6030SOL    HW229727   0.271   4.479  16.427 -1.3293 -0.9731  2.5609
 6031SOL     OW29728   2.972   0.793   9.469  0.2015 -0.3080 -0.0634
 6031SOL    HW129729   3.004   0.861   9.410  3.4021 -0.4670  1.4531
 6031SOL    HW229730   2.891   0.762   9.429  1.2306 -0.9990 -1.6375
 6032SOL     OW29731   4.239   1.331   1.384  0.0156  0.0699 -0.5348
 6032SOL    HW129732   4.324   1.335   1.427  0.0598 -0.2369 -0.5895
 6032SOL    HW229733   4.194   1.253   1.418 -1.7961  0.4136 -2.1032
 6033SOL     OW29734   2.758   0.068   5.007  0.2956 -0.3025 -0.6682
 6033SOL    HW129735   2.810   4.726   5.029  2.8483  1.0743 -1.8319
 6033SOL    HW229736   2.766   0.060   4.912 -0.7842  2.6438 -1.0035
 6034SOL     OW29737   3.150   4.002   9.343  0.4373 -0.0531 -0.0423
 6034SOL    HW129738   3.123   3.954   9.265 -0.4141  2.5188 -1.3047
 6034SOL    HW229739   3.068   4.040   9.377  1.2742  1.4771  0.2608
 6035SOL     OW29740   2.880   2.285   5.505 -0.2944  0.1742 -0.0958
 6035SOL    HW129741   2.874   2.258   5.597 -1.3478  1.5185  0.2263
 6035SOL    HW229742   2.877   2.205   5.454 -0.1365  0.7017 -0.9324
 6036SOL     OW29743   2.182   3.413  13.422 -0.0695 -0.2622 -0.4270
 6036SOL    HW129744   2.113   3.479  13.434 -1.4882 -2.2105  2.1488
 6036SOL    HW229745   2.180   3.401  13.327  1.8621 -2.1723 -0.2244
 6037SOL     OW29746   4.580   4.354  17.529  0.0673 -0.5577  0.0565
 6037SOL    HW129747   4.523   4.394  17.464 -1.4949 -2.8543 -0.0180
 6037SOL    HW229748   4.549   4.414  17.598  3.5026 -0.7299  1.7234
 6038SOL     OW29749   0.196   0.024   5.042  0.3429 -0.0988 -0.1215
 6038SOL    HW129750   0.259   0.014   5.114  0.6609 -0.1648 -0.4059
 6038SOL    HW229751   0.122   4.722   5.089  0.4446 -1.4503 -1.0185
 6039SOL     OW29752   2.652   2.900   0.468  0.4254 -0.5329 -0.5896
 6039SOL    HW129753   2.693   2.922   0.384  4.0399 -2.0502  0.7547
 6039SOL    HW229754   2.600   2.826   0.438  0.4394 -0.2402 -1.3220
 6040SOL     OW29755   2.659   0.395   6.307  0.8954 -0.0541  0.5012
 6040SOL    HW129756   2.684   0.366   6.219  0.5351  2.1636 -0.3431
 6040SOL    HW229757   2.566   0.407   6.288  0.5107 -3.2826  0.3377
 6041SOL     OW29758   0.953   1.374   8.632 -0.0281  0.1854  0.0703
 6041SOL    HW129759   0.977   1.404   8.544  0.1824 -1.5638 -0.4837
 6041SOL    HW229760   0.857   1.372   8.634 -0.0017 -0.0602  0.8563
 6042SOL     OW29761   1.074   1.238   5.652 -0.4424  0.1485  0.2253
 6042SOL    HW129762   1.121   1.191   5.584  1.3051 -0.4261  1.8461
 6042SOL    HW229763   0.986   1.199   5.649 -0.1262 -0.6222  0.8636
 6043SOL     OW29764   2.453   3.796  14.476  0.1414 -0.4055  0.7184
 6043SOL    HW129765   2.388   3.830  14.414 -1.7324 -0.8926  2.4107
 6043SOL    HW229766   2.512   3.870  14.470 -0.6077 -0.1309 -3.2301
 6044SOL     OW29767   4.537   1.995  10.481  0.4931  0.5107 -0.5500
 6044SOL    HW129768   4.582   1.975  10.563  1.9816  2.5411 -0.8746
 6044SOL    HW229769   4.614   2.035  10.440  0.6421  1.2086  0.4239
 6045SOL     OW29770   2.101   4.353  12.822  0.4045 -0.6393 -0.2346
 6045SOL    HW129771   2.146   4.394  12.748  0.3872  0.0175  0.1199
 6045SOL    HW229772   2.011   4.357  12.790 -0.1715 -2.9974  1.0792
 6046SOL     OW29773   1.826   2.074   1.404  0.3950  0.1471  0.2673
 6046SOL    HW129774   1.773   2.153   1.392  0.8186  0.8061  2.7206
 6046SOL    HW229775   1.770   2.000   1.382  0.7864 -0.6283  1.9484
 6047SOL     OW29776   2.537   3.699   3.282  0.0647  0.0566  0.8789
 6047SOL    HW129777   2.466   3.645   3.248 -0.1217  1.1273 -0.4147
 6047SOL    HW229778   2.509   3.790   3.269  0.7849  0.1853  0.2165
 6048SOL     OW29779   1.653   4.449   0.010 -0.3708  0.8520  0.3726
 6048SOL    HW129780   1.616   4.362   0.024  2.2406 -0.3166  0.0199
 6048SOL    HW229781   1.583   4.514   0.003  0.3283  1.6633  0.8979
 6049SOL     OW29782   3.678   0.359  13.889 -0.0623 -0.4263  0.3801
 6049SOL    HW129783   3.669   0.392  13.799 -0.5465 -1.4673  0.0439
 6049SOL    HW229784   3.638   0.425  13.946 -0.5910 -1.0005  0.6651
 6050SOL     OW29785   1.735   2.817   7.891 -0.1152  0.3141  0.0254
 6050SOL    HW129786   1.788   2.863   7.827 -0.1025  0.4100  0.1045
 6050SOL    HW229787   1.704   2.742   7.841 -2.5853  0.6177  1.0712
 6051SOL     OW29788   1.517   1.081  16.355  0.2099  0.1972  0.0014
 6051SOL    HW129789   1.606   1.048  16.361  0.1144  0.2806  1.9051
 6051SOL    HW229790   1.503   1.079  16.260 -1.0900  1.1765  0.1656
 6052SOL     OW29791   0.184   4.494  14.105 -0.0318 -0.1440  0.0413
 6052SOL    HW129792   0.152   4.474  14.193 -0.7785  2.0385  0.2728
 6052SOL    HW229793   0.275   4.468  14.120 -0.7303 -2.1815  0.6952
 6053SOL     OW29794   3.468   2.379   4.224 -0.2934 -0.4252 -0.5192
 6053SOL    HW129795   3.542   2.402   4.279 -3.0683  2.3819  2.0356
 6053SOL    HW229796   3.414   2.336   4.291  0.8657 -0.1342  0.5965
 6054SOL     OW29797   1.037   2.810   3.611  0.3910 -0.1788 -0.4484
 6054SOL    HW129798   1.124   2.823   3.647  1.0156 -1.3767 -1.5339
 6054SOL    HW229799   1.049   2.795   3.517  0.4027 -1.6376 -0.2070
 6055SOL     OW29800   4.535   3.758  11.504  0.0204 -0.0976  0.0293
 6055SOL    HW129801   4.576   3.765  11.591  1.3291 -1.2636 -0.4810
 6055SOL    HW229802   4.498   3.670  11.501 -0.8874  0.2905  0.0306
 6056SOL     OW29803   1.789   4.009   0.400 -0.6340  0.2481 -0.2146
 6056SOL    HW129804   1.745   4.010   0.485  3.6435  1.1976  2.0123
 6056SOL    HW229805   1.861   3.947   0.410 -0.2351  0.5863 -0.9731
 6057SOL     OW29806   4.373   1.661   1.638  0.2513 -0.2716 -0.3972
 6057SOL    HW129807   4.331   1.599   1.578 -0.2150 -0.4963  0.1584
 6057SOL    HW229808   4.373   1.739   1.583 -0.2977  1.8926  2.7196
 6058SOL     OW29809   1.672   1.827   8.322  0.0194  0.4843  0.2031
 6058SOL    HW129810   1.753   1.836   8.372  0.6403  1.5250 -1.0037
 6058SOL    HW229811   1.709   1.796   8.240  1.4101  0.5749  0.8073
 6059SOL     OW29812   4.398   2.322   5.003  0.3504 -0.1430  0.4578
 6059SOL    HW129813   4.433   2.290   5.085 -1.7213 -0.4638  1.2278
 6059SOL    HW229814   4.478   2.309   4.953  0.7794 -0.4129  1.2296
 6060SOL     OW29815   2.579   0.985   4.207  0.4101 -0.0276 -0.1609
 6060SOL    HW129816   2.551   1.049   4.272 -1.2208  1.5248 -2.3875
 6060SOL    HW229817   2.596   1.042   4.133  0.9709 -2.2382 -1.7536
 6061SOL     OW29818   1.067   3.976   9.324  0.2222  0.1991  0.0461
 6061SOL    HW129819   1.130   4.029   9.276  0.0935  0.6698  0.3994
 6061SOL    HW229820   1.125   3.971   9.400  0.5026 -2.8773 -0.3693
 6062SOL     OW29821   0.475   0.472   5.788 -0.4194 -0.3699  0.6194
 6062SOL    HW129822   0.415   0.520   5.846  0.0740  3.1274 -1.7512
 6062SOL    HW229823   0.441   0.510   5.707  0.5633 -0.6540  0.0870
 6063SOL     OW29824   4.232   3.266   4.310  0.3457  0.0073  0.1057
 6063SOL    HW129825   4.195   3.200   4.368 -1.1130 -1.3752 -2.4057
 6063SOL    HW229826   4.242   3.337   4.374  1.2058 -0.3845  0.3973
 6064SOL     OW29827   0.576   2.161   3.239 -0.4402 -0.4699  0.0990
 6064SOL    HW129828   0.582   2.221   3.165 -1.4811  1.7720  1.8309
 6064SOL    HW229829   0.482   2.169   3.252 -0.2900 -0.4889  1.2396
 6065SOL     OW29830   4.343   2.562   6.556 -0.7597 -0.2235  0.2062
 6065SOL    HW129831   4.270   2.577   6.495 -2.1849  1.9540  2.4476
 6065SOL    HW229832   4.405   2.510   6.505  0.1296 -0.0067  1.0704
 6066SOL     OW29833   2.017   3.082   7.968 -0.2304  0.5803  0.0954
 6066SOL    HW129834   2.037   3.028   7.891 -0.5333  0.7384 -0.0945
 6066SOL    HW229835   2.037   3.026   8.043  0.5381 -0.3800 -0.8279
 6067SOL     OW29836   2.039   3.240  17.048  0.7094  0.1946 -0.2237
 6067SOL    HW129837   2.002   3.152  17.055  0.0244  0.5131  0.1634
 6067SOL    HW229838   2.130   3.209  17.054  1.1500  1.7592  0.9729
 6068SOL     OW29839   1.797   1.699   4.594 -0.5695 -0.5267 -0.0043
 6068SOL    HW129840   1.708   1.677   4.567 -0.2568 -2.1344  0.2681
 6068SOL    HW229841   1.793   1.696   4.690 -2.9305  1.4527 -0.0644
 6069SOL     OW29842   3.240   3.120   3.184  0.1112  0.4083 -0.5929
 6069SOL    HW129843   3.318   3.107   3.130  2.1672  0.0082  2.4650
 6069SOL    HW229844   3.249   3.036   3.229  0.6292  0.6620 -0.2143
 6070SOL     OW29845   2.674   4.346   4.356  0.2875  0.4255 -0.3983
 6070SOL    HW129846   2.624   4.427   4.369 -0.8396  0.0557 -2.3040
 6070SOL    HW229847   2.686   4.349   4.261  0.2477 -1.0098 -0.4363
 6071SOL     OW29848   2.200   3.835   7.706 -0.1950  0.1226  0.2613
 6071SOL    HW129849   2.143   3.766   7.742  0.3658 -0.3409  0.2524
 6071SOL    HW229850   2.281   3.806   7.748 -0.2890  0.3461  0.5966
 6072SOL     OW29851   2.713   3.335   5.694  0.1565 -0.3194  0.1825
 6072SOL    HW129852   2.789   3.290   5.732  2.0578  1.6053 -1.3802
 6072SOL    HW229853   2.731   3.423   5.727 -1.3001  1.1560 -2.9653
 6073SOL     OW29854   4.293   2.675  17.063  0.3409  0.0902  0.4939
 6073SOL    HW129855   4.222   2.611  17.064  0.6497 -0.2666  0.0534
 6073SOL    HW229856   4.263   2.749  17.115 -0.8134 -0.1207  0.1207
 6074SOL     OW29857   4.511   1.131   3.553  0.3678 -0.3186 -0.3002
 6074SOL    HW129858   4.559   1.113   3.472 -0.2684 -0.9952 -0.5296
 6074SOL    HW229859   4.468   1.211   3.525 -1.6744 -1.1916  0.4008
 6075SOL     OW29860   0.848   2.575   6.388  0.0084 -0.1058 -0.1468
 6075SOL    HW129861   0.883   2.586   6.300 -0.2235  0.7327 -0.1370
 6075SOL    HW229862   0.772   2.632   6.379  0.4470  0.6199  0.7185
 6076SOL     OW29863   0.431   3.516  15.345 -0.6310  0.7831  0.1135
 6076SOL    HW129864   0.356   3.481  15.296 -0.4375 -0.4270  0.6790
 6076SOL    HW229865   0.408   3.505  15.438 -0.1897  0.0529  0.1316
 6077SOL     OW29866   2.527   0.522   9.291 -0.2165 -0.0913 -0.2945
 6077SOL    HW129867   2.569   0.491   9.210 -1.1878 -4.6327  0.9726
 6077SOL    HW229868   2.493   0.443   9.333  1.3696 -2.1670 -2.9180
 6078SOL     OW29869   1.314   1.879   3.634 -0.1772 -0.1438  0.0694
 6078SOL    HW129870   1.294   1.830   3.554 -2.0146  0.3789  0.2040
 6078SOL    HW229871   1.405   1.903   3.618  0.2012 -0.2664  1.9954
 6079SOL     OW29872   0.145   3.567   2.154 -0.2084  0.1790 -0.8839
 6079SOL    HW129873   0.111   3.515   2.080  0.6693 -0.5540 -0.7755
 6079SOL    HW229874   0.068   3.578   2.210  0.5647 -2.3394  0.6683
 6080SOL     OW29875   2.166   4.593   3.826  0.5962  0.2069  0.6056
 6080SOL    HW129876   2.187   4.591   3.919  0.5069 -0.8079  0.6040
 6080SOL    HW229877   2.214   4.672   3.800 -4.1255  1.3234 -4.6953
 6081SOL     OW29878   2.375   3.977   4.991 -0.3359 -0.3463  0.6952
 6081SOL    HW129879   2.391   4.010   4.902 -0.0507 -1.9160  0.1676
 6081SOL    HW229880   2.284   3.948   4.985 -0.0615 -0.9122 -0.8101
 6082SOL     OW29881   1.652   2.834   6.047  0.3046 -0.1662 -0.9460
 6082SOL    HW129882   1.657   2.921   6.008 -1.3001  0.4240  0.1667
 6082SOL    HW229883   1.667   2.772   5.976  1.7330 -1.3396  0.3618
 6083SOL     OW29884   4.708   2.485   7.709 -0.3228  0.2024 -0.9612
 6083SOL    HW129885   4.656   2.528   7.777  0.3637  0.1746 -0.4125
 6083SOL    HW229886   0.039   2.440   7.762 -1.5781 -1.4993 -0.8449
 6084SOL     OW29887   2.608   3.020   4.387  0.1149 -0.1380 -0.0798
 6084SOL    HW129888   2.576   3.110   4.397  0.2944 -0.0596 -0.2163
 6084SOL    HW229889   2.526   2.972   4.381  0.5981 -0.5745 -3.7166
 6085SOL     OW29890   0.251   2.923   2.034 -0.2127  0.6620  0.5074
 6085SOL    HW129891   0.297   2.926   2.119  0.1224  2.2573  0.2628
 6085SOL    HW229892   0.205   3.006   2.029  0.3594  0.9418 -0.0672
 6086SOL     OW29893   2.681   2.376   3.637  0.5002 -0.4806 -0.3461
 6086SOL    HW129894   2.679   2.440   3.565 -1.1495  2.5388  2.3792
 6086SOL    HW229895   2.765   2.401   3.676  0.1277  1.1990 -0.6016
 6087SOL     OW29896   0.528   0.510   3.745  0.2313  0.7263  0.4214
 6087SOL    HW129897   0.550   0.417   3.755  1.8867  1.1544  0.8577
 6087SOL    HW229898   0.444   0.515   3.789  0.1479 -2.0771  0.6294
 6088SOL     OW29899   3.161   0.011   4.637  0.1329  0.0152  0.0169
 6088SOL    HW129900   3.126   4.668   4.592 -0.7365  1.7462 -2.2903
 6088SOL    HW229901   3.169   4.704   4.723 -3.1925  1.2509  0.8965
 6089SOL     OW29902   4.602   4.537  15.150  0.3697 -0.8719  0.1318
 6089SOL    HW129903   4.599   4.441  15.146  3.5666 -1.0514  1.4861
 6089SOL    HW229904   4.640   4.558  15.236  1.9041 -1.8589 -0.3054
 6090SOL     OW29905   0.763   2.866   6.027  0.1112  0.1007  0.0357
 6090SOL    HW129906   0.730   2.803   5.963  1.7813  1.1219 -1.8094
 6090SOL    HW229907   0.847   2.899   5.995  0.8313  1.5680  3.3882
 6091SOL     OW29908   2.262   3.336   6.484  0.1558  0.4179 -0.3187
 6091SOL    HW129909   2.266   3.262   6.545  0.6102 -1.4522 -2.6295
 6091SOL    HW229910   2.225   3.288   6.411  0.0266  0.7035 -0.4403
 6092SOL     OW29911   2.799   3.871   5.061  0.2865  0.5632 -0.1646
 6092SOL    HW129912   2.715   3.826   5.056  0.3328  0.3694  0.7687
 6092SOL    HW229913   2.787   3.936   4.992 -0.8663 -1.4043 -1.8045
 6093SOL     OW29914   2.538   1.407   5.554 -0.1877  0.1180 -0.3114
 6093SOL    HW129915   2.571   1.323   5.585  0.3830  0.8315  1.0440
 6093SOL    HW229916   2.606   1.461   5.596  1.1475 -1.7423 -0.0990
 6094SOL     OW29917   4.652   4.415   4.920 -0.0435 -0.5930  0.4117
 6094SOL    HW129918   0.006   4.427   4.887 -0.7829  0.9597 -0.9982
 6094SOL    HW229919   4.604   4.406   4.838 -1.6443 -2.0175  1.5089
 6095SOL     OW29920   0.118   2.692   5.430 -0.0302  0.1346  0.2659
 6095SOL    HW129921   0.161   2.769   5.470  0.5204  0.4062 -0.8551
 6095SOL    HW229922   0.110   2.626   5.499  1.0200  0.7093  0.9426
 6096SOL     OW29923   2.472   1.225   4.324 -0.5212  0.3308  0.0058
 6096SOL    HW129924   2.506   1.265   4.245  0.3764  2.7669  1.6319
 6096SOL    HW229925   2.401   1.287   4.341 -0.5586  0.5332 -0.8907
 6097SOL     OW29926   1.790   3.873  17.230  0.9386 -0.1522 -0.4451
 6097SOL    HW129927   1.786   3.815  17.306 -0.7545  0.1898 -0.2712
 6097SOL    HW229928   1.742   3.948  17.263  1.0630 -0.6414  0.8382
 6098SOL     OW29929   4.272   0.269   1.992  0.0043 -1.0122  0.2005
 6098SOL    HW129930   4.336   0.286   1.922  1.4186  0.0366  1.7452
 6098SOL    HW229931   4.262   0.355   2.033  1.1903 -0.6938 -0.1453
 6099SOL     OW29932   3.786   3.440   5.200  0.1033 -0.7336 -0.0539
 6099SOL    HW129933   3.772   3.346   5.214 -1.0088 -0.7578 -1.2834
 6099SOL    HW229934   3.821   3.440   5.111  0.2232 -1.7572 -0.0122
 6100SOL     OW29935   0.297   4.187   8.473  0.4047 -0.1274  0.0290
 6100SOL    HW129936   0.336   4.234   8.547  0.3815 -0.4703  0.2565
 6100SOL    HW229937   0.287   4.256   8.407  0.2984 -0.4892 -0.3325
 6101SOL     OW29938   2.213   3.362   3.835  0.3401  0.2468  0.1372
 6101SOL    HW129939   2.207   3.278   3.881  2.9386  0.9676  1.7660
 6101SOL    HW229940   2.201   3.420   3.910  0.5332  0.1953  0.2062
 6102SOL     OW29941   4.340   4.114   3.438 -0.0737  0.5380 -0.1499
 6102SOL    HW129942   4.266   4.099   3.496 -0.2300 -2.5376 -1.1203
 6102SOL    HW229943   4.295   4.138   3.357 -0.6689 -0.4895 -0.1272
 6103SOL     OW29944   1.130   3.660   7.636  0.1886  0.0824  0.4090
 6103SOL    HW129945   1.186   3.736   7.650  0.7523 -0.5581  1.6243
 6103SOL    HW229946   1.165   3.606   7.707 -2.7705 -0.6507  1.3013
 6104SOL     OW29947   3.861   1.296   2.119 -0.2912  0.3918  0.2618
 6104SOL    HW129948   3.906   1.260   2.196  1.0614 -0.5219 -0.9537
 6104SOL    HW229949   3.769   1.275   2.131 -0.7506  2.1188 -0.1997
 6105SOL     OW29950   4.116   1.269  11.135  0.4862  0.2170  0.2575
 6105SOL    HW129951   4.055   1.246  11.205 -0.6724  1.6321 -0.2830
 6105SOL    HW229952   4.103   1.364  11.133  1.5022  0.3392 -0.4740
 6106SOL     OW29953   4.513   1.652   7.358  0.0916 -0.0644  0.1887
 6106SOL    HW129954   4.500   1.747   7.349 -1.5907 -0.2782  0.4511
 6106SOL    HW229955   4.513   1.639   7.452  0.1191  1.3211  0.3819
 6107SOL     OW29956   2.578   2.728  12.239 -0.8802 -0.4717  0.4735
 6107SOL    HW129957   2.522   2.763  12.170  0.5070  0.6378 -0.0831
 6107SOL    HW229958   2.522   2.742  12.316  0.5551 -1.5986  1.7306
 6108SOL     OW29959   4.632   1.409   3.214  0.5608  0.4991 -0.0326
 6108SOL    HW129960   4.545   1.397   3.177  0.1211  2.0797  0.4921
 6108SOL    HW229961   4.620   1.495   3.252  1.1185  1.3486 -1.7622
 6109SOL     OW29962   0.934   3.408   5.022  0.0164 -0.0634  0.2765
 6109SOL    HW129963   0.980   3.488   5.048 -0.4080 -0.3990  2.0730
 6109SOL    HW229964   0.843   3.418   5.053 -0.1307  0.4231 -0.3151
 6110SOL     OW29965   2.379   0.908   2.548 -0.4449 -0.6243  0.1292
 6110SOL    HW129966   2.310   0.974   2.539 -1.3313 -1.3012  1.9498
 6110SOL    HW229967   2.366   0.863   2.631  3.3208 -1.2485  0.3700
 6111SOL     OW29968   1.598   0.367   2.819  0.2493  0.2684  0.6400
 6111SOL    HW129969   1.598   0.432   2.889 -1.0217  0.4526  0.4733
 6111SOL    HW229970   1.552   0.423   2.755  1.0125 -1.0904 -1.0971
 6112SOL     OW29971   0.921   1.329   6.439 -0.4549  0.4834  0.2495
 6112SOL    HW129972   0.912   1.415   6.481 -1.6762  1.1678 -1.4155
 6112SOL    HW229973   0.978   1.285   6.502  1.1454 -0.6583 -2.0199
 6113SOL     OW29974   0.800   3.125   2.667 -0.0038 -0.6843  0.3079
 6113SOL    HW129975   0.714   3.086   2.657 -0.1706  0.0698 -1.1989
 6113SOL    HW229976   0.851   3.076   2.602  0.7635  0.2957  0.1665
 6114SOL     OW29977   0.499   0.693   0.585 -0.4929  0.1030 -0.2474
 6114SOL    HW129978   0.499   0.613   0.637 -0.3897 -0.7035 -1.4988
 6114SOL    HW229979   0.590   0.720   0.575 -0.1913 -0.0665  2.0475
 6115SOL     OW29980   2.321   4.498  13.682 -0.0028 -0.4913 -0.1743
 6115SOL    HW129981   2.298   4.432  13.616 -2.3419 -0.0907  0.2302
 6115SOL    HW229982   2.387   4.553  13.641 -1.8717  1.7969 -0.1403
 6116SOL     OW29983   2.664   1.797   8.030 -0.0884 -0.0771 -0.1277
 6116SOL    HW129984   2.697   1.855   7.961 -1.9058  0.8549 -0.2004
 6116SOL    HW229985   2.572   1.808   8.007 -0.5824 -2.2812  0.8060
 6117SOL     OW29986   3.817   1.068   1.902  0.8767 -0.3595 -0.3446
 6117SOL    HW129987   3.769   1.147   1.875 -0.2967 -0.6706  0.8869
 6117SOL    HW229988   3.811   1.085   1.996  0.2093 -1.7103 -0.1526
 6118SOL     OW29989   3.651   3.425   6.041  0.3524  0.3832 -0.4729
 6118SOL    HW129990   3.646   3.418   6.137 -0.3431  1.8913 -0.3999
 6118SOL    HW229991   3.559   3.435   6.015 -0.1685 -0.6683  0.9734
 6119SOL     OW29992   0.251   1.550   6.321 -0.3651 -0.0287 -0.6473
 6119SOL    HW129993   0.243   1.608   6.397 -1.0822 -1.7836  0.6094
 6119SOL    HW229994   0.343   1.527   6.333 -0.5735 -0.2524  0.5507
 6120SOL     OW29995   1.781   4.477   4.171 -0.2000  0.1336  0.0006
 6120SOL    HW129996   1.806   4.562   4.208  2.5719 -1.0150  0.7064
 6120SOL    HW229997   1.698   4.502   4.129  0.9246 -1.6523 -3.2295
 6121SOL     OW29998   2.480   3.513  12.572  0.0510  0.7699  0.4713
 6121SOL    HW129999   2.552   3.459  12.605 -0.1803  0.6671  0.8103
 6121SOL    HW230000   2.446   3.545  12.655 -1.6328 -1.6253  0.7304
 6122SOL     OW30001   1.941   3.774   8.416  0.7278  0.4680 -0.2556
 6122SOL    HW130002   2.001   3.757   8.344  0.9795  1.8713 -0.3798
 6122SOL    HW230003   1.926   3.868   8.408 -1.1950  0.4115  2.4053
 6123SOL     OW30004   2.450   3.439  13.949 -0.3506 -0.2534 -0.4863
 6123SOL    HW130005   2.391   3.437  14.024 -1.7158  0.2370 -1.5456
 6123SOL    HW230006   2.397   3.388  13.887  1.8383 -1.3566 -1.4592
 6124SOL     OW30007   2.450   2.330   2.979  0.3427  0.4106 -0.0128
 6124SOL    HW130008   2.477   2.365   2.894 -1.8958 -0.7246 -1.1924
 6124SOL    HW230009   2.425   2.241   2.954 -0.5694  0.7132 -0.1711
 6125SOL     OW30010   0.306   0.255   1.311 -0.2562  0.6114  0.2368
 6125SOL    HW130011   0.347   0.339   1.333 -2.8358  1.7565  0.7271
 6125SOL    HW230012   0.294   0.260   1.216 -0.6304 -3.3007  0.0882
 6126SOL     OW30013   2.939   4.651  14.698  0.4980  0.2467 -1.3222
 6126SOL    HW130014   2.872   4.598  14.655 -0.4117 -0.0217  0.3936
 6126SOL    HW230015   2.903   0.005  14.704 -1.2412 -0.6215  1.2254
 6127SOL     OW30016   3.965   0.772  10.183 -0.2722  0.3472  0.2888
 6127SOL    HW130017   3.947   0.716  10.259  0.0503 -0.7254 -0.4324
 6127SOL    HW230018   4.045   0.811  10.217  0.6711  1.5774 -3.3686
 6128SOL     OW30019   0.137   4.681  13.909  0.2598  0.4379  0.1852
 6128SOL    HW130020   0.169   4.629  13.834  1.4118 -0.4388  1.2759
 6128SOL    HW230021   0.134   4.616  13.979 -0.0119  0.5334  0.2626
 6129SOL     OW30022   1.172   1.969   5.335  0.7816  0.4654  0.0393
 6129SOL    HW130023   1.207   1.910   5.268  1.2699 -1.3996  1.9321
 6129SOL    HW230024   1.078   1.955   5.325  0.9103 -0.1239 -0.2951
 6130SOL     OW30025   1.470   2.424  12.001 -0.4514  0.1021  0.3735
 6130SOL    HW130026   1.452   2.482  11.927 -0.9656 -1.0226 -0.3781
 6130SOL    HW230027   1.493   2.495  12.062 -0.0632 -0.8327  1.3101
 6131SOL     OW30028   0.091   1.192   4.263 -0.5935 -0.2937 -0.2290
 6131SOL    HW130029   0.100   1.221   4.172  0.3585 -3.1745 -1.0317
 6131SOL    HW230030   0.088   1.279   4.304  2.5652 -0.3487  0.1234
 6132SOL     OW30031   2.546   3.569   0.437 -0.3180 -0.5613  0.0330
 6132SOL    HW130032   2.558   3.521   0.355  2.6142  0.8114 -0.3230
 6132SOL    HW230033   2.564   3.660   0.415 -2.6919  0.0275  0.5081
 6133SOL     OW30034   3.391   3.494   5.959  0.0335 -0.2837 -0.1294
 6133SOL    HW130035   3.341   3.553   5.902 -2.4369 -1.7628  0.5047
 6133SOL    HW230036   3.323   3.460   6.017 -0.3679  0.3455 -0.2266
 6134SOL     OW30037   1.951   2.407   5.156  0.3460  0.1284 -0.2612
 6134SOL    HW130038   2.015   2.407   5.085  0.8241 -1.3115  0.1758
 6134SOL    HW230039   1.965   2.499   5.176  1.1058 -0.5785  2.4468
 6135SOL     OW30040   0.979   3.405   7.777 -0.0637 -0.4816  0.3227
 6135SOL    HW130041   1.072   3.426   7.761 -0.3843  1.3877  0.9623
 6135SOL    HW230042   0.985   3.312   7.800 -1.0073  0.4819  4.3728
 6136SOL     OW30043   2.461   2.750  17.656  0.3026 -0.0047 -0.0969
 6136SOL    HW130044   2.367   2.752  17.674  0.5481  1.0009  1.0988
 6136SOL    HW230045   2.496   2.805  17.726  3.2290  0.5749 -2.0280
 6137SOL     OW30046   3.742   3.511   6.804 -1.0877  0.2168  0.2465
 6137SOL    HW130047   3.651   3.531   6.825 -0.0316  3.6368  1.5996
 6137SOL    HW230048   3.739   3.435   6.863 -1.6161  1.4105  1.7759
 6138SOL     OW30049   4.331   0.869   9.184 -0.1816  0.2421  0.2246
 6138SOL    HW130050   4.306   0.783   9.217  0.7105 -1.6323 -4.0082
 6138SOL    HW230051   4.332   0.867   9.088 -1.1166 -1.0816  0.2343
 6139SOL     OW30052   2.685   0.260   5.691 -0.7611 -0.0169  0.3628
 6139SOL    HW130053   2.695   0.337   5.747  0.4699  0.7454 -0.8970
 6139SOL    HW230054   2.669   0.295   5.603 -0.6152 -2.1554 -0.5270
 6140SOL     OW30055   2.889   3.995  16.347 -0.1639  0.3998 -0.1820
 6140SOL    HW130056   2.950   4.042  16.290  0.3042  1.2830  1.0530
 6140SOL    HW230057   2.900   4.049  16.425  1.1406  0.0432 -0.1196
 6141SOL     OW30058   1.846   1.491   8.960 -0.0531  0.0263 -0.3691
 6141SOL    HW130059   1.750   1.487   8.967 -0.1981  0.6214 -1.9979
 6141SOL    HW230060   1.880   1.401   8.955  0.9057  0.2964  1.3056
 6142SOL     OW30061   2.214   3.638   8.995 -0.1814 -0.2333  0.5291
 6142SOL    HW130062   2.225   3.611   9.086 -0.1662 -0.5010  0.4471
 6142SOL    HW230063   2.226   3.562   8.939 -0.4813  0.6285 -0.6980
 6143SOL     OW30064   0.955   1.289   3.604 -0.2642 -0.1432 -0.3370
 6143SOL    HW130065   0.965   1.335   3.688 -1.3230 -0.2933 -0.1251
 6143SOL    HW230066   1.000   1.350   3.546 -0.6129 -0.5641 -1.0453
 6144SOL     OW30067   3.144   2.112   9.002  0.1987 -0.0526 -0.1128
 6144SOL    HW130068   3.071   2.052   9.011  1.2583 -1.5069 -1.2192
 6144SOL    HW230069   3.208   2.064   9.054 -0.2903  0.1243  0.6504
 6145SOL     OW30070   4.141   4.257  12.543  0.0937 -0.1226  0.5408
 6145SOL    HW130071   4.141   4.352  12.531 -2.3392 -0.1927 -0.1716
 6145SOL    HW230072   4.208   4.233  12.479  0.2173  0.7929  0.3165
 6146SOL     OW30073   2.315   3.754   2.566  0.1249 -0.6972 -0.0255
 6146SOL    HW130074   2.350   3.681   2.515  0.0091  0.0094 -1.1252
 6146SOL    HW230075   2.394   3.806   2.550  0.2122 -1.2900 -1.5386
 6147SOL     OW30076   3.436   1.290  11.964 -0.5749  0.1437  0.2511
 6147SOL    HW130077   3.443   1.325  12.053 -0.1537 -1.3804  0.8118
 6147SOL    HW230078   3.476   1.360  11.912  0.8338 -1.7650 -1.2499
 6148SOL     OW30079   2.956   3.642  14.787  0.8588 -0.0567 -0.0539
 6148SOL    HW130080   2.916   3.560  14.760 -0.4553  1.0373 -1.4635
 6148SOL    HW230081   2.951   3.694  14.707 -0.2736  1.8296  1.2234
 6149SOL     OW30082   0.404   3.078   2.706  0.4532 -0.1242 -0.0767
 6149SOL    HW130083   0.323   3.073   2.757  0.5879  0.7288  0.2237
 6149SOL    HW230084   0.457   3.132   2.765 -1.4743  0.6015  1.0061
 6150SOL     OW30085   4.632   2.116   8.398  0.3441  0.4654  0.4709
 6150SOL    HW130086   4.692   2.123   8.473 -0.6604 -1.2958  1.4448
 6150SOL    HW230087   4.678   2.161   8.327  1.2772  2.0569  2.0645
 6151SOL     OW30088   2.553   4.615   4.720  0.0186 -0.0481  0.1482
 6151SOL    HW130089   2.639   4.579   4.740  0.2664 -0.0297 -0.8710
 6151SOL    HW230090   2.497   4.543   4.749 -0.3547 -0.4528 -1.5682
 6152SOL     OW30091   2.101   1.105   0.146 -0.0448 -0.2701 -0.6022
 6152SOL    HW130092   2.170   1.039   0.139  0.4637  0.1693  0.2947
 6152SOL    HW230093   2.032   1.042   0.128  1.0993 -1.7434  0.1281
 6153SOL     OW30094   2.061   3.333   5.341  0.3262  0.2949 -0.3257
 6153SOL    HW130095   2.027   3.391   5.273 -1.1095  0.5316  0.5918
 6153SOL    HW230096   2.071   3.400   5.409  1.4466 -2.4360  2.2245
 6154SOL     OW30097   2.733   4.070   1.119 -0.4892  0.3723 -0.2613
 6154SOL    HW130098   2.669   4.059   1.189 -0.2252 -2.2099 -0.4416
 6154SOL    HW230099   2.691   4.022   1.048 -1.4121  0.9090 -0.0705
 6155SOL     OW30100   0.495   0.973   8.018 -0.5821 -0.0810  0.1948
 6155SOL    HW130101   0.521   1.033   8.087  1.5973  0.4649 -1.0931
 6155SOL    HW230102   0.480   1.017   7.934 -0.9473 -0.0871  0.2571
 6156SOL     OW30103   3.175   1.230  15.508  0.2782  0.3811  0.3286
 6156SOL    HW130104   3.267   1.247  15.526 -0.0305  1.3212  0.9888
 6156SOL    HW230105   3.127   1.309  15.533 -1.2934 -0.2371 -0.7587
 6157SOL     OW30106   4.471   1.000   7.541 -0.1237  0.0693 -0.1649
 6157SOL    HW130107   4.537   1.068   7.558 -0.2708  0.4705 -1.2347
 6157SOL    HW230108   4.385   1.034   7.518  0.0742 -0.1542 -1.2075
 6158SOL     OW30109   2.250   2.918   2.310  0.0785 -0.1407  0.0585
 6158SOL    HW130110   2.326   2.881   2.266  0.4185 -0.1271  0.6365
 6158SOL    HW230111   2.216   2.987   2.253  0.6443 -1.5246 -1.9617
 6159SOL     OW30112   3.381   4.327   3.792  0.4152 -0.2875 -0.4305
 6159SOL    HW130113   3.426   4.282   3.863  0.9457  1.6380  0.4709
 6159SOL    HW230114   3.307   4.375   3.830 -0.0157 -0.8858 -0.5204
 6160SOL     OW30115   4.323   3.045   6.115  0.2560 -0.5156  0.3698
 6160SOL    HW130116   4.346   3.116   6.175 -0.2949  0.2535 -0.3200
 6160SOL    HW230117   4.404   2.994   6.105 -0.7118 -1.8626 -0.4889
 6161SOL     OW30118   1.572   0.106   5.803  0.1336 -0.3026 -0.2002
 6161SOL    HW130119   1.579   0.041   5.873 -0.8504 -0.1872  0.0130
 6161SOL    HW230120   1.506   0.061   5.750 -1.1526  0.8098  0.4385
 6162SOL     OW30121   3.555   4.304  17.660 -0.2837 -0.4661  0.0319
 6162SOL    HW130122   3.475   4.252  17.663  0.5069 -1.7834 -1.6078
 6162SOL    HW230123   3.591   4.276  17.576 -0.7291  0.5435 -0.5012
 6163SOL     OW30124   3.296   1.760   8.911  0.4312 -0.3841 -0.3759
 6163SOL    HW130125   3.339   1.845   8.915  0.1953 -0.2863  0.1177
 6163SOL    HW230126   3.222   1.776   8.852 -0.6342 -0.0112  1.0496
 6164SOL     OW30127   0.159   0.876   0.240  0.1939 -0.3666  0.1682
 6164SOL    HW130128   0.235   0.817   0.244 -0.1186 -0.6896  1.4665
 6164SOL    HW230129   0.170   0.917   0.155 -1.5378 -0.8320 -0.2818
 6165SOL     OW30130   4.117   3.286  12.505 -0.6765 -0.2024 -0.0391
 6165SOL    HW130131   4.187   3.305  12.442 -2.3961  0.5759 -1.7351
 6165SOL    HW230132   4.150   3.332  12.582 -0.4004 -0.2719 -0.1157
 6166SOL     OW30133   3.719   2.078   8.304 -0.5101 -0.5152  0.1522
 6166SOL    HW130134   3.804   2.103   8.342  0.1405 -2.1746 -0.1848
 6166SOL    HW230135   3.748   2.033   8.225 -0.5219 -0.5051  0.1421
 6167SOL     OW30136   3.326   2.102   6.807 -0.0235  0.0369 -0.1719
 6167SOL    HW130137   3.320   2.169   6.875  0.7805 -0.5758  0.4909
 6167SOL    HW230138   3.396   2.136   6.752 -0.0426  2.5947  1.3636
 6168SOL     OW30139   1.067   1.696   7.579 -0.3138  0.1661 -0.1700
 6168SOL    HW130140   1.022   1.611   7.575 -1.4793  0.7652  0.4671
 6168SOL    HW230141   1.086   1.706   7.485  0.2122  0.9708  0.0278
 6169SOL     OW30142   2.625   4.138   6.085  0.0490 -0.1143 -0.0181
 6169SOL    HW130143   2.624   4.092   6.001  2.8633 -1.6406  0.7759
 6169SOL    HW230144   2.687   4.210   6.072  1.3241 -1.1803  0.0980
 6170SOL     OW30145   2.369   2.905   4.379  0.1804  0.0335 -0.1902
 6170SOL    HW130146   2.281   2.926   4.347 -0.0607  1.0376  1.1211
 6170SOL    HW230147   2.343   2.882   4.468  1.1945  0.9406  0.3336
 6171SOL     OW30148   2.871   3.806   2.029  0.0695 -0.3216  0.3541
 6171SOL    HW130149   2.802   3.871   2.036  1.6090  1.7810 -3.5086
 6171SOL    HW230150   2.835   3.743   2.091  0.8874  1.0798  2.2456
 6172SOL     OW30151   2.781   4.585   9.694 -0.1478  0.3823 -0.3332
 6172SOL    HW130152   2.788   4.610   9.786 -2.4774  1.2153 -0.4066
 6172SOL    HW230153   2.722   4.654   9.664  1.2420  1.3269 -0.9048
 6173SOL     OW30154   4.024   2.332   8.285  0.3686  0.3182 -0.1142
 6173SOL    HW130155   4.055   2.361   8.199  1.9597 -0.0520  0.3239
 6173SOL    HW230156   3.955   2.394   8.311  1.5088  0.5792  2.2675
 6174SOL     OW30157   1.519   3.367  17.450 -0.0301 -0.8446  0.4137
 6174SOL    HW130158   1.460   3.359  17.376 -0.8789 -1.0861  1.1162
 6174SOL    HW230159   1.493   3.454  17.479  0.6087  0.2517 -2.3665
 6175SOL     OW30160   0.255   4.354   8.256 -0.2300  0.6366 -0.3246
 6175SOL    HW130161   0.203   4.427   8.289  0.4423  1.2571 -0.6464
 6175SOL    HW230162   0.187   4.305   8.210 -0.3402  1.4353 -1.0037
 6176SOL     OW30163   4.013   1.305   5.907 -0.1492  0.1284 -0.0471
 6176SOL    HW130164   4.075   1.232   5.907 -0.6742 -0.3117 -0.7374
 6176SOL    HW230165   3.959   1.294   5.985  1.2059 -0.8947  0.7584
 6177SOL     OW30166   2.249   4.182  15.417  0.8842  0.1162  0.7076
 6177SOL    HW130167   2.192   4.152  15.346  0.5793 -1.6646  1.6975
 6177SOL    HW230168   2.335   4.176  15.376 -0.0817  0.6932 -1.3883
 6178SOL     OW30169   1.866   4.184   2.413 -0.0970 -0.1632  0.1608
 6178SOL    HW130170   1.794   4.123   2.432 -0.7952  0.2319 -1.2222
 6178SOL    HW230171   1.891   4.211   2.501 -1.9478  1.1506  0.2859
 6179SOL     OW30172   2.715   3.906  14.618  0.2390 -0.3746  0.1156
 6179SOL    HW130173   2.654   3.978  14.635 -2.4592 -2.4408 -0.7778
 6179SOL    HW230174   2.666   3.846  14.674  1.3522  1.0508  2.6182
 6180SOL     OW30175   4.602   2.013  10.792 -0.3499 -0.1645 -0.2375
 6180SOL    HW130176   4.552   2.094  10.802 -0.5630 -0.2102 -0.9415
 6180SOL    HW230177   4.693   2.041  10.783 -1.6335  3.6733 -1.2554
 6181SOL     OW30178   3.290   0.990  16.015 -0.1988  0.0149 -0.0260
 6181SOL    HW130179   3.291   1.068  15.960 -2.1966 -1.8008 -2.6721
 6181SOL    HW230180   3.363   1.010  16.073 -0.4527 -0.8426  0.6003
 6182SOL     OW30181   0.612   0.862   8.310  1.1859  0.4622 -0.1208
 6182SOL    HW130182   0.634   0.872   8.218 -0.6598 -1.6136 -0.7855
 6182SOL    HW230183   0.607   0.953   8.339  2.5378  0.0510  1.4387
 6183SOL     OW30184   0.316   2.051  16.185 -0.0500  0.1888 -0.1883
 6183SOL    HW130185   0.352   1.988  16.248  1.8964  2.4902  0.9956
 6183SOL    HW230186   0.221   2.052  16.197  0.0077 -0.4635  0.3636
 6184SOL     OW30187   3.896   2.484   7.464 -0.3739  0.1622 -0.4723
 6184SOL    HW130188   3.842   2.513   7.538 -2.6153 -0.9657 -1.6722
 6184SOL    HW230189   3.892   2.566   7.415  0.9304  1.3182  1.3542
 6185SOL     OW30190   3.862   2.162   1.126 -0.1937 -0.6036 -0.3179
 6185SOL    HW130191   3.919   2.173   1.050  0.3700  0.7110  0.3058
 6185SOL    HW230192   3.855   2.069   1.145 -2.0865 -0.5733 -0.8313
 6186SOL     OW30193   3.076   2.313  16.581 -0.5958  0.1028 -0.5090
 6186SOL    HW130194   2.990   2.297  16.620 -0.2478  1.5879  0.8461
 6186SOL    HW230195   3.054   2.398  16.544 -1.1682  0.0187 -0.3539
 6187SOL     OW30196   0.474   3.993   5.154  0.0777 -0.5101  0.0113
 6187SOL    HW130197   0.406   4.038   5.104 -0.7745 -1.7637  0.0436
 6187SOL    HW230198   0.502   4.069   5.204 -0.6143  0.0891 -0.5076
 6188SOL     OW30199   3.020   3.169   8.908 -0.4031 -0.3674 -0.3759
 6188SOL    HW130200   3.107   3.131   8.918 -0.6939 -0.9899 -0.2178
 6188SOL    HW230201   2.976   3.096   8.950 -1.9342  0.3729 -0.6911
 6189SOL     OW30202   0.740   1.634   8.519  0.0452  0.3174  0.2290
 6189SOL    HW130203   0.728   1.575   8.593  0.3613 -0.4069 -0.2924
 6189SOL    HW230204   0.823   1.610   8.479  1.4774  3.2251  1.5356
 6190SOL     OW30205   2.998   3.299   6.001 -0.3288 -0.3456 -0.7246
 6190SOL    HW130206   2.943   3.374   5.978  2.1057  1.4178 -0.7991
 6190SOL    HW230207   2.992   3.254   5.917 -1.9455 -2.1039  0.3332
 6191SOL     OW30208   0.605   1.271   5.116 -0.2441 -0.1482  0.0913
 6191SOL    HW130209   0.659   1.275   5.037 -0.3648  1.6769  0.1048
 6191SOL    HW230210   0.611   1.359   5.151  2.1077 -0.3980  0.3218
 6192SOL     OW30211   1.119   4.581   0.508 -0.3136 -0.1582  0.1015
 6192SOL    HW130212   1.194   4.569   0.448  0.1749  0.9319  0.4860
 6192SOL    HW230213   1.153   4.645   0.570 -0.5867  0.0580  0.0256
 6193SOL     OW30214   2.135   1.928   1.288  0.0075  0.1942 -0.1063
 6193SOL    HW130215   2.045   1.899   1.306  0.3182  0.3643  1.7189
 6193SOL    HW230216   2.185   1.847   1.294  1.8143  1.2496 -1.1850
 6194SOL     OW30217   3.345   4.140   9.002  0.5159  0.3301 -0.4750
 6194SOL    HW130218   3.355   4.127   9.096  2.9130 -0.6727 -0.8631
 6194SOL    HW230219   3.298   4.223   9.009 -0.0193  0.0106 -0.3130
 6195SOL     OW30220   3.487   0.076   3.098 -0.2699  0.0501 -0.6775
 6195SOL    HW130221   3.535   4.728   3.103 -1.2940 -0.4746  0.3460
 6195SOL    HW230222   3.424   0.055   3.029  1.7877 -2.7030 -1.7377
 6196SOL     OW30223   0.116   4.503   5.462  0.3367  0.0085  0.1686
 6196SOL    HW130224   0.122   4.425   5.516 -0.3136  0.5886  1.0786
 6196SOL    HW230225   0.159   4.485   5.378 -0.2645  1.3781 -0.4430
 6197SOL     OW30226   1.287   2.979  13.706 -0.1283 -0.1612  0.4105
 6197SOL    HW130227   1.255   2.911  13.765 -1.8306  1.6437  1.5365
 6197SOL    HW230228   1.235   2.974  13.625 -0.9758  1.2754  0.8861
 6198SOL     OW30229   1.368   1.358   0.728 -0.2251  0.0442  0.0877
 6198SOL    HW130230   1.273   1.355   0.740 -0.4112 -0.1249 -1.3672
 6198SOL    HW230231   1.391   1.393   0.814 -0.3611 -0.1259  0.1936
 6199SOL     OW30232   4.002   3.954   6.215  0.3021  0.3177 -0.1331
 6199SOL    HW130233   4.022   3.957   6.309 -1.1523  0.8083  0.1615
 6199SOL    HW230234   4.086   3.928   6.178 -0.0540  0.0194 -0.7218
 6200SOL     OW30235   3.579   1.702   0.797  0.2073  0.0360  0.0331
 6200SOL    HW130236   3.509   1.653   0.753 -1.3241  2.3289 -0.1073
 6200SOL    HW230237   3.626   1.622   0.819  0.8705  0.2361 -0.6424
 6201SOL     OW30238   3.039   4.155   4.559  0.2660  0.1310 -0.2176
 6201SOL    HW130239   3.109   4.095   4.584 -0.2196 -0.2485  0.2252
 6201SOL    HW230240   3.056   4.151   4.465 -1.1170 -2.6956 -0.3532
 6202SOL     OW30241   1.892   1.805   4.215  0.6058 -0.0078  0.3542
 6202SOL    HW130242   1.951   1.743   4.173  0.9327  0.4485  0.1331
 6202SOL    HW230243   1.929   1.890   4.191  1.2120  0.5017  3.1467
 6203SOL     OW30244   4.643   3.328  16.259  0.0489  0.3282 -0.2647
 6203SOL    HW130245   4.563   3.291  16.221  0.1094  1.5097 -1.5464
 6203SOL    HW230246   4.600   3.410  16.286 -0.1020  1.0083 -2.6373
 6204SOL     OW30247   1.247   0.769  12.882 -0.8333 -0.3683 -0.3660
 6204SOL    HW130248   1.203   0.804  12.960  2.1689  0.7989  0.8145
 6204SOL    HW230249   1.306   0.703  12.920  1.1307 -0.3967 -3.4969
 6205SOL     OW30250   3.694   2.290   1.705  0.0755 -0.4197  0.9745
 6205SOL    HW130251   3.709   2.263   1.796  1.3764 -0.8342  0.6315
 6205SOL    HW230252   3.645   2.370   1.726  0.2373 -0.2300  0.6171
 6206SOL     OW30253   0.146   3.060   2.860 -0.3737  0.0670 -0.3741
 6206SOL    HW130254   0.052   3.073   2.853 -0.3980 -0.7740 -1.5378
 6206SOL    HW230255   0.162   2.974   2.899 -0.1220  0.4767  0.4389
 6207SOL     OW30256   2.274   3.997   9.426 -0.0596 -0.2170 -0.6481
 6207SOL    HW130257   2.316   4.070   9.381 -1.6820 -0.1624 -2.0623
 6207SOL    HW230258   2.205   4.044   9.474 -1.0940 -0.0636 -2.3168
 6208SOL     OW30259   2.170   3.673   8.086 -0.4141 -0.3325  0.4871
 6208SOL    HW130260   2.219   3.628   8.018 -0.1761 -1.9080  1.7028
 6208SOL    HW230261   2.169   3.606   8.154 -1.6760 -0.4989  0.2895
 6209SOL     OW30262   2.869   1.594  16.266 -0.2851 -0.1809  0.6267
 6209SOL    HW130263   2.834   1.666  16.319 -0.1494 -0.0211  0.5002
 6209SOL    HW230264   2.813   1.521  16.294 -0.6641 -0.2259 -0.2714
 6210SOL     OW30265   4.501   3.944   7.898  0.5222 -0.0173  0.0636
 6210SOL    HW130266   4.592   3.918   7.886  0.1310 -1.1257 -0.4433
 6210SOL    HW230267   4.493   4.028   7.853 -0.5531 -0.5748 -0.7651
 6211SOL     OW30268   4.728   3.840   3.690 -0.0835 -0.6201  0.6653
 6211SOL    HW130269   0.052   3.793   3.632 -0.8155 -0.7167  0.0045
 6211SOL    HW230270   4.677   3.886   3.623 -0.8474 -0.9901  0.9837
 6212SOL     OW30271   0.756   4.001  13.140 -0.4173  0.2131 -0.3982
 6212SOL    HW130272   0.790   3.968  13.224  3.0951  1.1970 -1.4163
 6212SOL    HW230273   0.673   3.954  13.135 -0.5489  0.3115  0.6891
 6213SOL     OW30274   2.052   2.487   8.676  0.0772  0.0270  0.4871
 6213SOL    HW130275   2.075   2.437   8.754  2.4545 -2.7801 -2.0374
 6213SOL    HW230276   2.001   2.562   8.708 -1.6842 -0.1968 -1.8256
 6214SOL     OW30277   1.055   3.707   4.395 -0.1783  0.2557  0.3422
 6214SOL    HW130278   1.008   3.786   4.425 -0.4506 -0.0083  0.6143
 6214SOL    HW230279   0.989   3.643   4.421  0.3972 -1.5165 -2.6260
 6215SOL     OW30280   4.263   0.626   1.721 -0.5150 -0.0995  0.0630
 6215SOL    HW130281   4.175   0.660   1.738 -0.1282  1.5976 -1.3417
 6215SOL    HW230282   4.241   0.537   1.694 -1.5036 -0.0040  0.5424
 6216SOL     OW30283   1.321   3.673   2.944  0.4118  0.2497 -0.1143
 6216SOL    HW130284   1.402   3.717   2.918 -0.0248  1.8634  1.2736
 6216SOL    HW230285   1.265   3.738   2.902  0.0138 -0.1019 -0.1264
 6217SOL     OW30286   2.957   0.204  15.817  0.0227  0.1201 -0.1651
 6217SOL    HW130287   2.901   0.202  15.740  0.5931  0.9502 -0.5946
 6217SOL    HW230288   3.015   0.274  15.788  1.5110 -1.4726 -0.9867
 6218SOL     OW30289   2.323   3.260   2.556 -0.6077  0.1926 -0.0600
 6218SOL    HW130290   2.257   3.242   2.489 -2.0997  1.2106  1.1497
 6218SOL    HW230291   2.270   3.304   2.623  1.7860  0.5883  1.5715
 6219SOL     OW30292   3.954   0.603   1.160 -0.2611  0.2332  0.2633
 6219SOL    HW130293   3.965   0.611   1.254 -2.5544 -0.1299  0.5508
 6219SOL    HW230294   4.047   0.593   1.138  0.4351 -1.4367  3.9493
 6220SOL     OW30295   2.135   4.241   4.105 -0.1282  0.3292  0.1369
 6220SOL    HW130296   2.207   4.277   4.053 -0.0866  1.0294  0.6687
 6220SOL    HW230297   2.177   4.165   4.145 -2.0244  0.9582  3.3200
 6221SOL     OW30298   3.432   1.251   3.888  0.3840  0.0691 -0.3707
 6221SOL    HW130299   3.345   1.217   3.867 -0.0214  1.3954 -0.8157
 6221SOL    HW230300   3.490   1.234   3.813 -0.6689 -0.7000 -1.0029
 6222SOL     OW30301   0.633   0.625  14.885 -0.0467  0.5727  0.1021
 6222SOL    HW130302   0.703   0.573  14.847  0.1997 -0.4471  1.9700
 6222SOL    HW230303   0.607   0.572  14.960  2.4122  1.3459  1.4838
 6223SOL     OW30304   0.716   2.906   1.524  0.6312 -0.3976 -0.2462
 6223SOL    HW130305   0.693   2.912   1.431 -0.1546 -0.1036 -0.0316
 6223SOL    HW230306   0.763   2.989   1.540 -0.2863  0.1383 -0.3591
 6224SOL     OW30307   3.572   1.206  14.984  0.1822 -0.1985  0.6867
 6224SOL    HW130308   3.573   1.239  14.894  2.0461  0.0843  0.8089
 6224SOL    HW230309   3.540   1.116  14.988  0.7832 -0.4493 -0.2660
 6225SOL     OW30310   2.110   0.673   4.020  0.0765  0.3533 -0.4514
 6225SOL    HW130311   2.108   0.742   4.087  2.1336 -0.4380  0.4372
 6225SOL    HW230312   2.095   0.730   3.945 -0.4240  1.8971  0.8072
 6226SOL     OW30313   3.463   4.516   5.648  0.0378  0.0505 -0.2708
 6226SOL    HW130314   3.532   4.479   5.593  0.2313 -0.8848  0.6004
 6226SOL    HW230315   3.491   4.522   5.739 -1.3280 -0.2806  0.1824
 6227SOL     OW30316   1.557   4.053   6.824  0.2058 -0.2312  0.1994
 6227SOL    HW130317   1.644   4.074   6.859  1.8601  1.2008 -4.7967
 6227SOL    HW230318   1.519   3.989   6.884 -0.4125 -0.3862 -0.3467
 6228SOL     OW30319   4.705   4.520   7.921  0.2406 -0.0748  0.2694
 6228SOL    HW130320   0.050   4.474   7.895  0.6260  0.1386  1.0466
 6228SOL    HW230321   0.007   4.606   7.899  0.2499 -0.3470 -0.7377
 6229SOL     OW30322   1.548   2.695   6.268 -0.4639  0.5341 -0.1324
 6229SOL    HW130323   1.623   2.636   6.266 -0.0951  0.9330  2.4929
 6229SOL    HW230324   1.578   2.747   6.194 -0.0196  0.4993  0.0257
 6230SOL     OW30325   3.505   3.319   0.056 -0.1487 -0.0874  0.0052
 6230SOL    HW130326   3.410   3.305   0.052  0.0086 -1.8100  2.2676
 6230SOL    HW230327   3.535   3.258   0.123  1.1802 -1.4011 -1.7793
 6231SOL     OW30328   4.187   4.181  16.089 -0.0897  0.5003 -0.3632
 6231SOL    HW130329   4.270   4.215  16.056 -0.1071  0.5021 -0.4040
 6231SOL    HW230330   4.134   4.201  16.012 -0.1300 -0.3973 -0.5648
 6232SOL     OW30331   1.562   0.767   4.007  0.1454  0.3133  0.1832
 6232SOL    HW130332   1.477   0.779   4.051 -0.6192 -0.2789 -1.1211
 6232SOL    HW230333   1.555   0.843   3.950 -1.1867 -0.8847 -1.2524
 6233SOL     OW30334   3.799   0.645   9.998  0.5581  0.3077  0.0195
 6233SOL    HW130335   3.851   0.695  10.061 -0.0066  0.2686  0.5141
 6233SOL    HW230336   3.858   0.572   9.980  0.1663  0.4377 -1.8086
 6234SOL     OW30337   4.670   0.028   8.970  0.9090 -0.5707  0.0712
 6234SOL    HW130338   0.005   4.701   8.950  0.1084 -1.1690 -0.8644
 6234SOL    HW230339   4.601   0.005   8.908  1.0190 -0.4200 -0.1097
 6235SOL     OW30340   3.421   4.401   0.539  0.1945  0.6915  0.3199
 6235SOL    HW130341   3.446   4.493   0.551  2.0827  0.3648 -1.0952
 6235SOL    HW230342   3.500   4.364   0.578  0.1666  2.9595  2.5465
 6236SOL     OW30343   2.300   0.561   9.618 -0.0261 -0.2592 -0.3172
 6236SOL    HW130344   2.313   0.622   9.545  4.5046 -0.7458  0.0754
 6236SOL    HW230345   2.318   0.475   9.580 -0.5461 -0.5127  0.0028
 6237SOL     OW30346   2.242   3.376  17.645  0.1705  0.7007 -0.0454
 6237SOL    HW130347   2.156   3.389  17.684  0.4266  1.4792  0.2742
 6237SOL    HW230348   2.293   3.388  17.725 -1.1041 -1.0506  1.0124
 6238SOL     OW30349   2.902   4.040  13.665 -0.5436 -0.2827  0.0910
 6238SOL    HW130350   2.868   3.956  13.635 -0.7351 -0.4398  0.7491
 6238SOL    HW230351   2.985   4.014  13.707 -0.5188 -1.7774 -0.9050
 6239SOL     OW30352   3.608   0.477   4.815  0.1881 -0.2298 -0.0197
 6239SOL    HW130353   3.680   0.444   4.869  0.7264 -1.3868 -1.4308
 6239SOL    HW230354   3.607   0.407   4.750 -1.0666 -1.4940  1.3635
 6240SOL     OW30355   2.525   3.071   2.514  0.5297 -0.6415 -0.0982
 6240SOL    HW130356   2.455   3.130   2.543  1.4555  0.4975 -0.1922
 6240SOL    HW230357   2.513   3.084   2.419  1.6389 -0.4524 -0.2146
 6241SOL     OW30358   1.743   0.226   1.492 -0.8512 -0.5019 -0.4099
 6241SOL    HW130359   1.695   0.222   1.575 -1.5226 -1.3254 -0.8434
 6241SOL    HW230360   1.724   0.144   1.447  0.1583  0.5702 -2.7863
 6242SOL     OW30361   1.739   2.898   8.673 -0.0977 -0.3746 -0.3698
 6242SOL    HW130362   1.802   2.904   8.601 -0.4382 -2.0259 -0.8202
 6242SOL    HW230363   1.687   2.825   8.639 -3.2952  2.4408 -1.5384
 6243SOL     OW30364   4.679   2.318   8.221 -0.1549  0.3102 -0.1726
 6243SOL    HW130365   4.653   2.382   8.287 -0.4944  0.1462 -0.1514
 6243SOL    HW230366   0.038   2.308   8.241  0.0052 -1.3509 -1.8409
 6244SOL     OW30367   2.931   3.456  14.215  0.4335  0.2396  0.0779
 6244SOL    HW130368   2.835   3.464  14.220  0.4296  0.4989 -0.4181
 6244SOL    HW230369   2.945   3.437  14.122 -0.6307 -0.5966  0.0741
 6245SOL     OW30370   3.312   1.275  13.204  0.1622 -0.6183 -0.0610
 6245SOL    HW130371   3.389   1.289  13.260  1.1406  0.1273 -1.6061
 6245SOL    HW230372   3.325   1.190  13.162  1.0790 -1.3005  1.6073
 6246SOL     OW30373   1.804   0.401   6.443  0.3079  0.0520 -0.6957
 6246SOL    HW130374   1.795   0.306   6.438 -1.3879  0.2769 -2.0389
 6246SOL    HW230375   1.870   0.411   6.511  0.8006 -0.0349 -1.1620
 6247SOL     OW30376   3.026   2.606   7.938  0.2050 -0.3906  0.1573
 6247SOL    HW130377   2.953   2.575   7.992  0.2447  0.1505  0.5139
 6247SOL    HW230378   2.992   2.668   7.875  2.2222 -0.7047 -1.2552
 6248SOL     OW30379   4.137   0.150   6.539 -0.3058  0.5826 -0.1869
 6248SOL    HW130380   4.156   0.061   6.508 -1.6430 -0.0117  0.6752
 6248SOL    HW230381   4.197   0.162   6.613  1.4253  0.5746 -1.5948
 6249SOL     OW30382   2.518   0.569   2.728 -0.6877  0.2189  0.1660
 6249SOL    HW130383   2.505   0.519   2.647 -2.0600 -1.0215  1.1665
 6249SOL    HW230384   2.430   0.606   2.737 -1.0894 -0.8380  0.6627
 6250SOL     OW30385   2.411   2.876   7.620 -0.5411 -0.4771  0.2061
 6250SOL    HW130386   2.480   2.941   7.613 -1.5915  0.6959  0.7637
 6250SOL    HW230387   2.341   2.929   7.658 -0.6622 -0.1390 -0.4992
 6251SOL     OW30388   0.408   0.546   5.544  0.3323  0.0063  0.4594
 6251SOL    HW130389   0.341   0.614   5.541  0.5259  0.1527 -0.4980
 6251SOL    HW230390   0.447   0.546   5.457 -3.6984 -0.3776 -1.3167
 6252SOL     OW30391   4.129   1.821   3.365  0.5511 -0.5332  0.1579
 6252SOL    HW130392   4.143   1.833   3.271 -1.3689 -0.1564 -0.0732
 6252SOL    HW230393   4.221   1.833   3.388  0.1816  0.9369  0.8735
 6253SOL     OW30394   2.087   2.484   3.277 -0.0816 -0.2995 -0.1032
 6253SOL    HW130395   2.156   2.418   3.279 -1.6077 -1.8743  0.0639
 6253SOL    HW230396   2.045   2.474   3.191 -0.2802  0.5911 -0.1148
 6254SOL     OW30397   1.818   0.159   6.305 -0.0104  0.4716  0.0399
 6254SOL    HW130398   1.747   0.220   6.284  0.0541  0.6749  0.4072
 6254SOL    HW230399   1.894   0.196   6.261  0.9446 -0.3136  1.0468
 6255SOL     OW30400   0.998   4.365  10.854  0.2136 -0.8356  0.0851
 6255SOL    HW130401   1.003   4.314  10.773 -1.3870 -0.1868 -0.4205
 6255SOL    HW230402   1.092   4.372  10.869 -0.0580  2.0814  0.4797
 6256SOL     OW30403   1.753   2.925   5.619  0.3510  0.6014  0.2739
 6256SOL    HW130404   1.689   2.855   5.615  0.1789  0.7029  1.2938
 6256SOL    HW230405   1.750   2.944   5.713 -0.6509  0.2537  0.3094
 6257SOL     OW30406   0.531   2.788   9.590  0.3411 -0.1999 -0.1282
 6257SOL    HW130407   0.457   2.728   9.596 -0.1677  0.3745 -0.7277
 6257SOL    HW230408   0.538   2.813   9.682 -0.6248  1.5457 -0.5190
 6258SOL     OW30409   0.007   3.765  10.347  0.4505  0.1579  0.3690
 6258SOL    HW130410   0.025   3.752  10.440  0.2531 -0.2364  0.3493
 6258SOL    HW230411   0.067   3.706  10.301  0.1944  0.9194 -0.9375
 6259SOL     OW30412   3.056   2.625   4.255  0.8654  0.0500  0.1711
 6259SOL    HW130413   3.032   2.652   4.167 -3.2771 -2.2892  0.5990
 6259SOL    HW230414   2.989   2.562   4.282  1.5936 -1.0069 -0.5015
 6260SOL     OW30415   2.329   2.351   5.354  0.2438  0.2449 -0.1774
 6260SOL    HW130416   2.366   2.347   5.266 -2.5229  1.1124 -1.3681
 6260SOL    HW230417   2.262   2.288   5.330 -0.5319  0.8569  0.4109
 6261SOL     OW30418   2.452   3.679   8.511  0.0857  0.4605  0.0488
 6261SOL    HW130419   2.436   3.746   8.444  0.1947 -2.0944 -2.5383
 6261SOL    HW230420   2.508   3.618   8.464 -1.4529 -0.3076 -0.8076
 6262SOL     OW30421   0.673   1.410   8.291  0.2692 -0.2256 -0.4790
 6262SOL    HW130422   0.748   1.468   8.302  1.1299 -1.4273  0.0139
 6262SOL    HW230423   0.592   1.461   8.282 -0.9417 -1.6277  2.2837
 6263SOL     OW30424   0.539   4.219   5.287  0.6400  0.0015 -0.0097
 6263SOL    HW130425   0.478   4.271   5.339  1.2116  0.5920  0.0828
 6263SOL    HW230426   0.618   4.248   5.333  0.1131  1.1650  0.1760
 6264SOL     OW30427   2.731   3.894  17.644  0.5082  0.0214  0.1851
 6264SOL    HW130428   2.711   3.980  17.683  1.4160 -0.3477  1.4684
 6264SOL    HW230429   2.654   3.896  17.588  1.2264 -0.5254 -0.8119
 6265SOL     OW30430   1.452   0.366   2.204  0.1714 -0.0282  0.4552
 6265SOL    HW130431   1.448   0.345   2.110 -1.6919  0.2792  0.4651
 6265SOL    HW230432   1.541   0.398   2.217  1.0142 -0.9777 -2.7765
 6266SOL     OW30433   4.085   2.315   7.535 -0.0562  0.1266 -0.1631
 6266SOL    HW130434   4.006   2.355   7.499 -0.2850 -0.0732  0.1149
 6266SOL    HW230435   4.146   2.387   7.516  0.5644  0.1563  1.9619
 6267SOL     OW30436   0.666   3.869   2.400 -0.4540  0.4561 -0.4672
 6267SOL    HW130437   0.673   3.773   2.400 -0.1861  0.4767  0.2346
 6267SOL    HW230438   0.598   3.885   2.335 -0.1900 -1.5881 -1.2595
 6268SOL     OW30439   3.639   3.291   7.229  0.2591  0.0778  0.0053
 6268SOL    HW130440   3.734   3.285   7.238  0.7054  4.9247 -1.1690
 6268SOL    HW230441   3.610   3.228   7.295  2.1188  0.2690  0.9992
 6269SOL     OW30442   2.301   4.339  10.991  0.2351  0.0304 -0.2444
 6269SOL    HW130443   2.278   4.396  11.064 -1.0414 -1.8490  0.8197
 6269SOL    HW230444   2.265   4.259  11.028 -0.3369  0.4799  0.1575
 6270SOL     OW30445   3.691   2.743   2.719  0.6919 -0.5186 -0.1338
 6270SOL    HW130446   3.780   2.742   2.684  0.7510 -0.0509 -0.0019
 6270SOL    HW230447   3.695   2.798   2.797 -1.2297 -0.7199  0.1158
 6271SOL     OW30448   3.512   1.984   5.136 -0.2208  0.4076  0.8257
 6271SOL    HW130449   3.498   1.991   5.230 -0.5317 -1.1073  0.8889
 6271SOL    HW230450   3.507   2.074   5.103 -2.3677  1.2545  3.4246
 6272SOL     OW30451   2.998   2.295   5.976 -0.0902 -0.1412  0.1342
 6272SOL    HW130452   2.974   2.215   5.930 -0.2486  0.4818 -0.8540
 6272SOL    HW230453   2.938   2.360   5.941  1.1030 -0.3679 -2.2944
 6273SOL     OW30454   0.272   0.188   3.029  0.0177 -0.3093  0.7432
 6273SOL    HW130455   0.363   0.199   3.000 -0.0537 -0.8562  0.3149
 6273SOL    HW230456   0.226   0.264   2.994  0.1457 -0.6927 -0.2754
 6274SOL     OW30457   3.908   1.974  11.396 -0.7361 -0.6662  0.0116
 6274SOL    HW130458   3.840   1.924  11.351 -1.1222  0.4482 -0.6702
 6274SOL    HW230459   3.893   2.063  11.362 -0.0313 -0.2761  0.7348
 6275SOL     OW30460   1.091   2.372   2.304 -0.2169  0.0212 -0.3547
 6275SOL    HW130461   1.085   2.280   2.280  0.4227 -0.5096  1.5392
 6275SOL    HW230462   0.997   2.379   2.323  0.1643  1.7197  0.9135
 6276SOL     OW30463   3.004   3.812  17.646  0.1400 -0.7966 -0.7348
 6276SOL    HW130464   2.923   3.855  17.622 -0.5792 -2.4859 -1.3562
 6276SOL    HW230465   2.981   3.771  17.730 -1.4780  4.1936  1.2298
 6277SOL     OW30466   4.299   1.615   1.917  0.0743  0.1658  0.4054
 6277SOL    HW130467   4.347   1.666   1.982 -0.8903  1.3516  0.1848
 6277SOL    HW230468   4.339   1.653   1.839 -1.0843  0.6459  0.0429
 6278SOL     OW30469   3.676   0.403   3.167 -0.0596 -0.4978 -0.2637
 6278SOL    HW130470   3.618   0.419   3.093  1.3027  2.7359 -0.6254
 6278SOL    HW230471   3.748   0.367   3.116 -1.0985 -0.8215 -1.5094
 6279SOL     OW30472   2.483   1.538  16.260  0.4879  0.4119  0.8028
 6279SOL    HW130473   2.403   1.486  16.253  0.9019  0.0021 -0.7640
 6279SOL    HW230474   2.555   1.477  16.245  0.8489  1.3017 -1.0735
 6280SOL     OW30475   1.006   2.521   3.653 -0.0414 -0.3168  0.1359
 6280SOL    HW130476   0.958   2.600   3.678  1.7618  0.7689  0.2106
 6280SOL    HW230477   1.007   2.472   3.735 -1.1490 -1.2245 -0.4013
 6281SOL     OW30478   0.586   4.168   4.175 -0.7791 -0.2392  0.7777
 6281SOL    HW130479   0.531   4.201   4.104  1.8837  1.5674 -0.4453
 6281SOL    HW230480   0.548   4.223   4.243  0.4694  1.9301 -0.2626
 6282SOL     OW30481   4.355   2.965   2.624 -0.0309 -0.7170  0.1550
 6282SOL    HW130482   4.434   2.954   2.573 -0.6198  0.0759 -0.9291
 6282SOL    HW230483   4.393   2.950   2.711 -0.0301  1.1749  0.4896
 6283SOL     OW30484   0.902   3.515   4.556 -0.1163  0.1774 -0.2232
 6283SOL    HW130485   0.807   3.505   4.558  0.2795 -3.9123 -1.0259
 6283SOL    HW230486   0.930   3.426   4.580 -1.0980 -0.0821 -0.0504
 6284SOL     OW30487   3.214   3.121   6.406  0.0313  0.1294 -0.1921
 6284SOL    HW130488   3.262   3.122   6.488 -1.0115 -0.7700  0.4330
 6284SOL    HW230489   3.125   3.137   6.439  0.7656 -0.0083  1.8116
 6285SOL     OW30490   3.989   4.543   5.076 -0.6026 -0.5183  0.2130
 6285SOL    HW130491   4.083   4.525   5.072 -0.5039 -0.2380  1.2000
 6285SOL    HW230492   3.972   4.486   5.152  0.7647 -2.1424 -0.6895
 6286SOL     OW30493   0.280   0.101   4.804  0.4410 -0.2221  0.1477
 6286SOL    HW130494   0.200   0.152   4.790  1.0636  0.6994 -0.0317
 6286SOL    HW230495   0.256   0.062   4.888  2.7809 -1.4985  0.2130
 6287SOL     OW30496   4.189   1.642  16.748 -0.3680 -0.0775 -0.0435
 6287SOL    HW130497   4.254   1.585  16.790 -0.5228  0.1432  0.5062
 6287SOL    HW230498   4.113   1.613  16.799 -0.1473 -2.2339 -0.9240
 6288SOL     OW30499   4.171   2.819   5.994 -0.3652  0.0926  0.4172
 6288SOL    HW130500   4.091   2.834   6.045 -1.2561  0.3035 -1.0670
 6288SOL    HW230501   4.230   2.884   6.033  0.8183 -1.4365  1.2203
 6289SOL     OW30502   2.503   1.836  12.984 -0.3653 -0.2268 -0.1594
 6289SOL    HW130503   2.557   1.782  12.926  0.8655  0.1119  0.6580
 6289SOL    HW230504   2.562   1.911  12.994 -0.9625  0.1505  0.4995
 6290SOL     OW30505   3.825   3.987  10.875  0.4135  0.7577 -0.1551
 6290SOL    HW130506   3.901   3.966  10.821  2.0831  1.1932  2.0176
 6290SOL    HW230507   3.785   3.900  10.867  0.8339  0.5191  0.3364
 6291SOL     OW30508   3.117   1.217   9.294  0.3497  0.5048  0.9233
 6291SOL    HW130509   3.042   1.176   9.251  1.1236  0.8959 -0.8021
 6291SOL    HW230510   3.096   1.310   9.291 -0.1943  0.3903  1.1058
 6292SOL     OW30511   3.016   2.640   5.615 -0.3409 -0.5848 -0.1930
 6292SOL    HW130512   3.081   2.637   5.685 -0.8286  0.5871  0.3233
 6292SOL    HW230513   3.047   2.702   5.549  1.6079 -2.0876 -0.6764
 6293SOL     OW30514   3.935   1.517   6.131  0.0018  0.4546  0.1949
 6293SOL    HW130515   3.951   1.604   6.168 -2.9095  0.4504  1.4386
 6293SOL    HW230516   3.965   1.531   6.041 -0.6819  1.2347  0.0834
 6294SOL     OW30517   3.853   2.336   6.648 -0.2082  0.1538 -0.3183
 6294SOL    HW130518   3.915   2.403   6.676  0.5744  0.9174 -3.8405
 6294SOL    HW230519   3.921   2.276   6.617  0.5331  0.8599 -0.0542
 6295SOL     OW30520   0.202   2.496   3.984  0.1488 -0.3483 -0.2549
 6295SOL    HW130521   0.195   2.541   3.900 -0.0989  0.3884  0.1618
 6295SOL    HW230522   0.225   2.405   3.964  2.6453  0.1244  0.4851
 6296SOL     OW30523   3.741   1.587   4.348  0.1346 -0.3037 -0.0869
 6296SOL    HW130524   3.754   1.574   4.254  2.2839 -0.2317  0.1971
 6296SOL    HW230525   3.659   1.634   4.362 -0.1320 -0.8875  0.3020
 6297SOL     OW30526   2.395   1.093   3.277 -0.3232  0.0606 -0.3980
 6297SOL    HW130527   2.321   1.064   3.330 -0.5609  1.6772  0.1573
 6297SOL    HW230528   2.353   1.112   3.193 -2.0796  1.1461  0.7350
 6298SOL     OW30529   3.786   4.439   1.841  0.1705  1.0528  0.0562
 6298SOL    HW130530   3.793   4.344   1.838 -1.1523  0.9093  1.2674
 6298SOL    HW230531   3.848   4.460   1.910  0.7948  2.4187 -0.9190
 6299SOL     OW30532   1.667   3.737   6.762 -0.4907 -0.2492 -0.6261
 6299SOL    HW130533   1.712   3.655   6.781 -1.5357 -1.2257 -2.4034
 6299SOL    HW230534   1.744   3.792   6.745 -1.1948  1.1833  0.9139
 6300SOL     OW30535   2.854   4.243  15.279 -0.0712 -0.2752  0.0826
 6300SOL    HW130536   2.869   4.223  15.187 -0.9078  1.2059 -0.3757
 6300SOL    HW230537   2.829   4.156  15.312  1.0808 -1.1177 -1.2415
 6301SOL     OW30538   4.413   4.345  15.423  0.1585  0.2483  0.0400
 6301SOL    HW130539   4.383   4.379  15.508 -0.8629  1.1845 -0.6936
 6301SOL    HW230540   4.398   4.427  15.375  1.4857  0.2202 -0.4204
 6302SOL     OW30541   3.372   2.213   3.072  0.1656 -0.0649  0.2111
 6302SOL    HW130542   3.453   2.163   3.076  0.1282 -0.0718  0.8337
 6302SOL    HW230543   3.317   2.167   3.136 -0.1884 -0.4866 -0.4020
 6303SOL     OW30544   0.230   1.038   8.177  0.4788  0.2544 -0.1579
 6303SOL    HW130545   0.216   0.943   8.175  3.5190 -0.2195  0.5280
 6303SOL    HW230546   0.171   1.051   8.250  0.2379  1.2551 -0.5275
 6304SOL     OW30547   0.366   3.580   3.267 -0.3781 -0.8046  0.3670
 6304SOL    HW130548   0.274   3.581   3.241  0.5814 -1.7065 -3.0765
 6304SOL    HW230549   0.349   3.620   3.353 -0.7605  2.1368 -1.0684
 6305SOL     OW30550   0.203   4.030   7.208 -0.7184 -0.2562 -0.2760
 6305SOL    HW130551   0.216   3.962   7.141 -2.4898 -2.3531  1.4905
 6305SOL    HW230552   0.135   4.082   7.166 -0.8278  0.9685  1.4608
 6306SOL     OW30553   0.159   1.912   2.619  0.0126 -0.1061  0.1142
 6306SOL    HW130554   0.196   1.832   2.657 -0.5347 -0.6812 -0.5599
 6306SOL    HW230555   0.188   1.896   2.529  0.4249  2.7591 -0.2399
 6307SOL     OW30556   2.814   2.984   6.546 -0.1433 -0.3694 -0.4961
 6307SOL    HW130557   2.851   2.964   6.632  0.6149  0.0841 -0.7170
 6307SOL    HW230558   2.735   2.931   6.542 -0.2652 -0.3097  1.0634
 6308SOL     OW30559   3.942   0.301   7.216  0.0105  0.0553  0.0660
 6308SOL    HW130560   3.868   0.360   7.200  1.0848  1.8236  1.6643
 6308SOL    HW230561   3.899   0.268   7.295 -1.1804 -0.1123 -0.6424
 6309SOL     OW30562   0.770   3.012   9.081  0.4572 -0.5372 -0.0933
 6309SOL    HW130563   0.689   3.055   9.055  0.9608  0.3544 -0.2055
 6309SOL    HW230564   0.789   2.969   8.997  2.2365  1.2969 -0.6352
 6310SOL     OW30565   3.511   1.970   6.031  0.5273 -0.1076 -0.2206
 6310SOL    HW130566   3.575   1.899   6.021  0.1531 -0.3330 -1.0296
 6310SOL    HW230567   3.465   1.960   6.114 -0.1199 -0.9314 -0.6805
 6311SOL     OW30568   0.584   1.211   8.143 -0.1740 -0.2075 -0.0737
 6311SOL    HW130569   0.640   1.279   8.182  0.8359 -0.0285 -1.8533
 6311SOL    HW230570   0.534   1.178   8.218  0.5023 -1.4867 -0.1971
 6312SOL     OW30571   3.412   4.079   9.259 -0.1672  0.0249  0.2505
 6312SOL    HW130572   3.406   4.159   9.310  0.1076 -0.7742  1.5350
 6312SOL    HW230573   3.340   4.032   9.303  1.1553 -3.6488 -1.4671
 6313SOL     OW30574   2.195   3.985  14.559  0.4722  0.0920  0.3547
 6313SOL    HW130575   2.184   4.077  14.536 -1.6839 -0.3111 -0.1888
 6313SOL    HW230576   2.160   3.956  14.475  1.0809 -3.5003  1.3494
 6314SOL     OW30577   2.473   3.539   3.845  0.4730  0.1290 -0.1092
 6314SOL    HW130578   2.490   3.472   3.911  0.4423  0.1831 -0.0466
 6314SOL    HW230579   2.434   3.611   3.894 -0.8407 -0.2249 -0.6229
 6315SOL     OW30580   3.940   0.433   8.668 -0.1240 -0.1391  0.1209
 6315SOL    HW130581   4.034   0.433   8.651 -0.1751 -3.9028 -0.1839
 6315SOL    HW230582   3.942   0.473   8.755  0.7770  2.1686 -0.9404
 6316SOL     OW30583   1.652   0.413   8.388  0.2626 -0.5422 -0.2067
 6316SOL    HW130584   1.580   0.476   8.393  0.3504 -0.6027  1.9087
 6316SOL    HW230585   1.638   0.373   8.303  1.3501 -0.7371 -0.2905
 6317SOL     OW30586   2.696   2.095  11.607 -0.2250  0.4064  0.1246
 6317SOL    HW130587   2.692   2.189  11.590 -0.1098  0.3203 -0.4009
 6317SOL    HW230588   2.722   2.101  11.699  1.4853 -0.1301 -0.3195
 6318SOL     OW30589   0.021   3.242   1.265  0.1454  0.0963  0.0717
 6318SOL    HW130590   0.089   3.289   1.216  0.2538  0.4189  0.5287
 6318SOL    HW230591   0.049   3.151   1.278  0.9524  0.4511  0.8415
 6319SOL     OW30592   1.916   3.104   0.440 -0.2314  0.3197 -0.4345
 6319SOL    HW130593   1.835   3.156   0.433  0.0375  0.8797  0.4859
 6319SOL    HW230594   1.970   3.157   0.500 -0.7749 -1.4710  1.6424
 6320SOL     OW30595   2.123   3.599   5.435  0.3464  0.5001  0.3186
 6320SOL    HW130596   2.061   3.637   5.373 -0.9457 -0.8801  0.7533
 6320SOL    HW230597   2.197   3.660   5.434  2.3710 -1.9880 -1.7815
 6321SOL     OW30598   2.002   2.801   5.519  0.6710  0.9736  0.2703
 6321SOL    HW130599   1.928   2.841   5.564 -0.2390 -2.5352  1.8849
 6321SOL    HW230600   2.065   2.871   5.536  0.6398  0.3433  2.9563
 6322SOL     OW30601   2.670   0.187   3.172  0.4698  0.1599 -0.3382
 6322SOL    HW130602   2.728   0.205   3.246  0.8346  0.7924 -0.7744
 6322SOL    HW230603   2.586   0.168   3.214  0.9402  2.7195  1.7627
 6323SOL     OW30604   3.641   0.476   2.864 -0.0635 -0.4463 -0.8719
 6323SOL    HW130605   3.696   0.552   2.849 -1.0262  0.5157  0.4358
 6323SOL    HW230606   3.557   0.517   2.885  1.1379  2.1646 -1.1783
 6324SOL     OW30607   1.645   3.860   8.948  0.3948 -0.1987 -0.9640
 6324SOL    HW130608   1.728   3.812   8.939 -0.6678 -2.4015  1.0673
 6324SOL    HW230609   1.596   3.804   9.009  1.0252  0.0120 -0.2540
 6325SOL     OW30610   1.199   4.370  12.034  0.1239 -0.6021 -0.0901
 6325SOL    HW130611   1.181   4.356  11.941 -0.6596  2.2830 -0.3798
 6325SOL    HW230612   1.192   4.466  12.038  0.1036 -0.5952 -0.3439
 6326SOL     OW30613   3.955   2.048   7.106  0.0237  0.0623 -0.1305
 6326SOL    HW130614   3.997   2.128   7.138  0.4938  0.2659 -1.2411
 6326SOL    HW230615   3.982   1.987   7.175 -0.4518 -0.5615 -0.4980
 6327SOL     OW30616   2.746   2.879   3.255 -0.0068  0.4391 -0.3364
 6327SOL    HW130617   2.810   2.936   3.214 -0.7146  0.7385 -1.0176
 6327SOL    HW230618   2.721   2.938   3.327  1.0603 -0.1129  0.4894
 6328SOL     OW30619   1.451   1.363   0.213  0.1451  0.4069  0.3499
 6328SOL    HW130620   1.383   1.378   0.147 -2.4714 -1.7714  2.5415
 6328SOL    HW230621   1.528   1.408   0.179 -0.1004 -1.8455 -3.2807
 6329SOL     OW30622   2.344   1.219  10.163 -0.0170 -0.3102  0.6248
 6329SOL    HW130623   2.367   1.142  10.216  0.3886  0.0065  0.9103
 6329SOL    HW230624   2.265   1.243  10.211 -0.2617  0.7942 -0.3512
 6330SOL     OW30625   1.898   4.059   7.804  0.1403 -0.7304  0.0328
 6330SOL    HW130626   1.851   3.979   7.779 -0.7554 -0.1567 -0.1213
 6330SOL    HW230627   1.954   4.060   7.726 -0.0309 -1.1705 -0.0957
 6331SOL     OW30628   1.849   0.181   8.402  0.1151  0.2010 -0.0586
 6331SOL    HW130629   1.786   0.252   8.403 -4.9771 -4.3074 -0.7913
 6331SOL    HW230630   1.789   0.106   8.405 -0.0636  0.3541  0.1886
 6332SOL     OW30631   2.879   0.698  16.972  0.0489  0.6423  0.0236
 6332SOL    HW130632   2.881   0.785  17.013 -4.4958  1.1406 -0.8356
 6332SOL    HW230633   2.803   0.657  17.013  0.7685  0.7022  1.3982
 6333SOL     OW30634   2.791   1.956   2.172  0.7013 -0.1043  0.2196
 6333SOL    HW130635   2.866   1.964   2.231  0.5455 -1.8778  0.6517
 6333SOL    HW230636   2.738   1.880   2.196 -1.1922  0.2392 -2.7794
 6334SOL     OW30637   0.226   0.437  14.836 -0.1271 -0.2202 -0.6865
 6334SOL    HW130638   0.314   0.439  14.799 -0.4793  1.3357 -1.4273
 6334SOL    HW230639   0.208   0.530  14.823  0.3096 -0.0673 -0.2082
 6335SOL     OW30640   0.001   2.259   5.369  0.0100 -0.0992  0.3898
 6335SOL    HW130641   0.033   2.296   5.451  0.7952  1.2080 -0.5055
 6335SOL    HW230642   4.680   2.192   5.410  0.9633 -1.0311  0.1538
 6336SOL     OW30643   3.276   1.776   3.045  0.2293  0.8367  0.2169
 6336SOL    HW130644   3.346   1.837   3.021  0.3402 -0.0046 -1.6507
 6336SOL    HW230645   3.252   1.742   2.959 -0.1953 -0.4530  0.8523
 6337SOL     OW30646   4.395   0.271  12.356 -0.4740  0.4951 -0.4254
 6337SOL    HW130647   4.402   0.263  12.451 -0.7011 -3.7451 -0.7559
 6337SOL    HW230648   4.474   0.228  12.322 -1.2903  0.0045 -1.7233
 6338SOL     OW30649   4.392   1.321   7.763 -0.0747  0.3687  0.0373
 6338SOL    HW130650   4.482   1.338   7.792  0.8075  0.2790 -2.6625
 6338SOL    HW230651   4.351   1.407   7.773  0.4298  0.4981  0.9217
 6339SOL     OW30652   1.220   0.539   6.994 -0.5849  0.2366 -0.0994
 6339SOL    HW130653   1.163   0.512   7.066  0.2933 -0.8971  0.1688
 6339SOL    HW230654   1.284   0.596   7.037  0.1532 -0.7477  0.1163
 6340SOL     OW30655   0.516   4.420   6.165 -0.6662 -0.1866 -0.2596
 6340SOL    HW130656   0.591   4.413   6.224 -1.2704  0.3242  0.5515
 6340SOL    HW230657   0.536   4.495   6.109 -2.8051 -1.4064 -2.6849
 6341SOL     OW30658   2.118   4.641   7.793 -0.0025  0.0641  0.4036
 6341SOL    HW130659   2.202   4.629   7.747 -1.7452 -3.1120 -1.9527
 6341SOL    HW230660   2.055   4.623   7.723  0.8094  1.6127 -0.7593
 6342SOL     OW30661   0.434   3.037   3.047  0.4599  0.6168 -0.0815
 6342SOL    HW130662   0.340   3.020   3.058  0.7195 -0.2169  0.9322
 6342SOL    HW230663   0.454   2.948   3.018  0.2365 -0.0542  1.7993
 6343SOL     OW30664   0.963   1.802   9.879 -0.3821  0.4079 -0.0613
 6343SOL    HW130665   0.940   1.720   9.835 -1.3940 -0.0918  1.4168
 6343SOL    HW230666   1.023   1.847   9.820 -0.2977 -1.3073 -1.3016
 6344SOL     OW30667   1.014   2.014   6.269  0.1800 -0.2215  0.6868
 6344SOL    HW130668   1.003   1.974   6.355 -0.0706 -3.8116 -1.0128
 6344SOL    HW230669   0.929   1.996   6.227  0.6129 -0.5014 -0.0647
 6345SOL     OW30670   3.494   0.435   7.489  0.5691  0.1015  0.3633
 6345SOL    HW130671   3.583   0.435   7.453  0.3210  0.0779 -0.2408
 6345SOL    HW230672   3.482   0.347   7.523 -1.1266  0.3103  0.2943
 6346SOL     OW30673   3.203   2.622   8.235 -0.1794 -0.0961  0.0002
 6346SOL    HW130674   3.120   2.597   8.276  0.8500 -0.8389  1.6068
 6346SOL    HW230675   3.175   2.655   8.149 -0.5103 -2.2817 -0.7298
 6347SOL     OW30676   0.593   3.080   8.081  0.2666  0.0907  0.0069
 6347SOL    HW130677   0.548   2.996   8.083  1.0451 -0.2816  1.7644
 6347SOL    HW230678   0.681   3.069   8.043  0.4119 -1.4937  0.8008
 6348SOL     OW30679   4.662   1.216  13.834 -0.1115  0.2117 -0.9055
 6348SOL    HW130680   0.009   1.258  13.807  0.5287 -1.1526 -1.0557
 6348SOL    HW230681   4.592   1.281  13.822  1.9130  2.6895  0.6699
 6349SOL     OW30682   2.521   1.145  16.098 -0.1734 -0.1610  0.6741
 6349SOL    HW130683   2.460   1.217  16.111 -0.0475 -0.1755  1.3562
 6349SOL    HW230684   2.464   1.073  16.125  0.0162 -0.4017  0.4310
 6350SOL     OW30685   3.730   2.611  10.944 -0.4847 -0.3238  0.3088
 6350SOL    HW130686   3.745   2.683  11.005 -0.7964  0.8707 -1.0435
 6350SOL    HW230687   3.717   2.666  10.867 -0.2921  0.5778  0.9184
 6351SOL     OW30688   1.654   3.646  17.402 -0.5247  0.1439 -0.0063
 6351SOL    HW130689   1.667   3.578  17.335 -1.6986  1.0972 -1.1894
 6351SOL    HW230690   1.720   3.621  17.467 -1.2842  0.5056  0.9020
 6352SOL     OW30691   2.997   2.329   9.435 -0.8805  0.2013 -0.7437
 6352SOL    HW130692   2.984   2.424   9.436 -0.8233  0.1884  1.7378
 6352SOL    HW230693   3.002   2.312   9.341  0.7614 -0.1319 -0.5947
 6353SOL     OW30694   2.055   0.092   3.285  0.1059 -0.4202 -0.2257
 6353SOL    HW130695   1.965   0.064   3.266  0.5966 -1.3488 -1.1339
 6353SOL    HW230696   2.054   0.091   3.381 -1.5643 -0.2935 -0.2372
 6354SOL     OW30697   3.507   4.443   3.430  0.9348  0.7678 -0.1359
 6354SOL    HW130698   3.429   4.387   3.420  1.7014 -0.3716  0.2208
 6354SOL    HW230699   3.463   4.527   3.419  1.5270  1.0821 -0.0557
 6355SOL     OW30700   0.977   3.999  10.677 -0.1431  0.3863 -0.1134
 6355SOL    HW130701   1.024   3.963  10.602 -1.0060  0.6593 -0.7971
 6355SOL    HW230702   0.917   3.928  10.697 -0.7475  1.4225  1.7198
 6356SOL     OW30703   1.196   0.632   3.789 -1.0803  0.1324  0.3584
 6356SOL    HW130704   1.115   0.637   3.739 -1.4033  2.1579  1.0624
 6356SOL    HW230705   1.168   0.618   3.879 -1.0290  2.6055  0.7840
 6357SOL     OW30706   4.699   2.105   6.843  0.2821 -0.0696  0.6462
 6357SOL    HW130707   0.026   2.057   6.788 -0.6288  0.5910 -0.9303
 6357SOL    HW230708   0.022   2.132   6.914 -0.3317 -1.6861  1.7725
 6358SOL     OW30709   0.405   2.165   6.504 -0.7983 -0.1741 -0.3259
 6358SOL    HW130710   0.450   2.248   6.520 -1.2001  0.3212 -1.7049
 6358SOL    HW230711   0.381   2.143   6.594 -0.4523 -0.3506 -0.2780
 6359SOL     OW30712   1.592   2.015   6.412 -0.3466  0.9739  0.5480
 6359SOL    HW130713   1.679   2.027   6.449 -0.6652  0.5962  1.4059
 6359SOL    HW230714   1.602   2.052   6.324  0.3294  0.2217  0.3110
 6360SOL     OW30715   0.102   2.569  16.397 -0.4585 -0.2914 -0.5585
 6360SOL    HW130716   0.189   2.547  16.365 -1.1227 -0.7169 -2.0905
 6360SOL    HW230717   0.127   2.605  16.482 -1.3862 -3.4744  1.0760
 6361SOL     OW30718   2.681   3.190   6.195  0.1202  0.3582 -0.0503
 6361SOL    HW130719   2.754   3.196   6.257  0.0658  3.7212 -0.3486
 6361SOL    HW230720   2.708   3.108   6.153  0.8878  0.6753 -0.1737
 6362SOL     OW30721   4.198   3.939   5.370  0.3720  0.2151 -0.5722
 6362SOL    HW130722   4.210   3.896   5.286  1.1387 -0.3344 -0.1810
 6362SOL    HW230723   4.291   3.960   5.383  0.9150 -1.7622 -1.3576
 6363SOL     OW30724   3.411   4.347   9.333  0.1909 -0.4656  0.1780
 6363SOL    HW130725   3.500   4.380   9.338  0.6589 -1.4422 -1.6604
 6363SOL    HW230726   3.379   4.408   9.399 -1.3728  1.3507 -2.2831
 6364SOL     OW30727   0.101   0.767  15.461  0.3783  0.4632 -0.4053
 6364SOL    HW130728   0.184   0.815  15.450  1.5705 -1.9008 -1.7193
 6364SOL    HW230729   0.117   0.683  15.418 -1.5743  0.2748 -0.7559
 6365SOL     OW30730   2.928   3.625   4.412 -0.4583  0.3530  0.4952
 6365SOL    HW130731   2.932   3.538   4.451  1.5670 -0.3100 -1.1830
 6365SOL    HW230732   2.965   3.611   4.325 -2.8805 -2.7632 -0.0504
 6366SOL     OW30733   0.654   1.437   2.263 -0.3036  0.2623  0.4863
 6366SOL    HW130734   0.575   1.486   2.240 -0.8790  0.1511  2.2494
 6366SOL    HW230735   0.632   1.351   2.227 -1.9772  1.6276 -1.7665
 6367SOL     OW30736   4.012   3.055   5.829 -0.6927  0.2210 -0.0265
 6367SOL    HW130737   3.919   3.059   5.852 -0.8217 -0.7831 -0.3490
 6367SOL    HW230738   4.044   3.134   5.872  2.2701 -0.1667 -1.5271
 6368SOL     OW30739   3.369   4.295   8.603 -0.4453 -0.4056  0.0643
 6368SOL    HW130740   3.362   4.270   8.510  1.7121 -0.3821 -0.0992
 6368SOL    HW230741   3.352   4.206   8.635 -1.1061 -0.3985 -0.2582
 6369SOL     OW30742   0.455   3.047   1.273  0.1114  0.0799 -0.0467
 6369SOL    HW130743   0.418   3.135   1.277  0.0799  0.0354  0.6536
 6369SOL    HW230744   0.379   2.990   1.281 -0.2282  0.9313  2.9604
 6370SOL     OW30745   2.986   1.573  13.605  0.2782  0.0788 -0.1837
 6370SOL    HW130746   2.948   1.546  13.688 -1.6201  0.3074 -0.9580
 6370SOL    HW230747   3.033   1.495  13.577 -0.6296 -1.1431  1.7763
 6371SOL     OW30748   4.430   3.560   5.435 -0.0494 -0.3968 -0.3634
 6371SOL    HW130749   4.453   3.614   5.510 -0.3697 -1.3961  0.4465
 6371SOL    HW230750   4.341   3.546   5.468  0.0970  2.0239  1.0741
 6372SOL     OW30751   2.335   3.118   8.536  0.3585 -0.1273 -0.0586
 6372SOL    HW130752   2.406   3.072   8.491  1.6897 -1.3451  3.3686
 6372SOL    HW230753   2.376   3.204   8.535  1.7998 -0.8145  0.1417
 6373SOL     OW30754   3.867   2.838   1.960  0.1768 -0.0338 -0.5497
 6373SOL    HW130755   3.845   2.837   1.867  0.4499 -0.3427 -0.6123
 6373SOL    HW230756   3.948   2.788   1.951  0.1396 -0.0928 -0.5529
 6374SOL     OW30757   3.342   0.461  12.996 -0.3172  0.4199 -0.3501
 6374SOL    HW130758   3.346   0.402  12.920  0.4245  0.3162 -0.2256
 6374SOL    HW230759   3.432   0.467  13.027  0.0871 -0.1190 -1.4197
 6375SOL     OW30760   3.540   2.472  12.225 -0.6289 -0.3065 -0.5086
 6375SOL    HW130761   3.459   2.437  12.188  0.4282 -0.8616 -2.2823
 6375SOL    HW230762   3.505   2.518  12.302 -0.0800 -0.4575 -0.1740
 6376SOL     OW30763   2.638   1.335   0.742  0.2017 -0.2727 -0.5143
 6376SOL    HW130764   2.671   1.382   0.819 -1.4054  1.7070 -1.0403
 6376SOL    HW230765   2.711   1.345   0.681  0.9279  1.0314  0.5551
 6377SOL     OW30766   2.628   3.177   7.167 -0.4363 -0.5989 -0.2256
 6377SOL    HW130767   2.562   3.130   7.117  0.5352 -1.0759 -1.0426
 6377SOL    HW230768   2.638   3.119   7.243 -1.6796 -0.2564  0.2094
 6378SOL     OW30769   3.735   2.670   3.809  0.0835 -0.1488 -0.4336
 6378SOL    HW130770   3.755   2.762   3.792 -1.2313  0.2457  0.1970
 6378SOL    HW230771   3.674   2.643   3.741  0.5442 -2.3302  0.0088
 6379SOL     OW30772   4.140   1.706  15.108  0.4772  0.0315  0.1708
 6379SOL    HW130773   4.081   1.684  15.179 -0.4599 -1.8247 -1.1736
 6379SOL    HW230774   4.081   1.698  15.033 -0.0482  0.2436  0.5691
 6380SOL     OW30775   3.655   4.576   2.790 -0.2446 -0.8252  0.7345
 6380SOL    HW130776   3.577   4.521   2.786 -1.0188  0.3656 -0.3993
 6380SOL    HW230777   3.666   4.580   2.885 -2.2616  2.5464  0.8013
 6381SOL     OW30778   3.046   2.938   6.014  0.1086 -0.2843 -0.1765
 6381SOL    HW130779   3.129   2.899   5.989 -0.0077 -1.6799  1.6674
 6381SOL    HW230780   3.008   2.966   5.930  0.5170 -0.2887 -0.3634
 6382SOL     OW30781   1.507   4.037   3.324 -0.0542 -0.1720  0.3830
 6382SOL    HW130782   1.566   4.064   3.253 -1.7692  0.8521 -0.6663
 6382SOL    HW230783   1.553   3.962   3.361  0.3535  0.4955  1.2463
 6383SOL     OW30784   3.934   4.580   9.289 -0.1537 -0.0506  0.2357
 6383SOL    HW130785   4.027   4.575   9.264 -0.3256 -0.7989 -0.2465
 6383SOL    HW230786   3.892   4.617   9.212 -1.7490  1.7000  1.9723
 6384SOL     OW30787   1.920   1.819  14.870  0.0848  0.0821 -0.0028
 6384SOL    HW130788   1.991   1.754  14.875 -0.4616 -0.7421 -2.7893
 6384SOL    HW230789   1.852   1.785  14.927 -1.4817  0.1486 -1.8419
 6385SOL     OW30790   4.543   2.658   0.861 -0.1112  0.3165 -0.6688
 6385SOL    HW130791   4.502   2.707   0.932  3.1747  0.3273  1.2241
 6385SOL    HW230792   4.617   2.715   0.839 -0.3339  0.1399 -1.9015
 6386SOL     OW30793   3.781   3.536   2.098  0.2958  0.6968 -0.2029
 6386SOL    HW130794   3.858   3.592   2.091  0.8736 -0.1567 -0.6452
 6386SOL    HW230795   3.702   3.589   2.091  1.1812  2.1573  0.9248
 6387SOL     OW30796   4.569   3.977   3.519  0.4272  0.3562  0.3141
 6387SOL    HW130797   4.491   4.024   3.491 -0.7662 -2.0177 -0.3953
 6387SOL    HW230798   4.635   4.044   3.503 -0.6396  1.1035 -0.9329
 6388SOL     OW30799   1.597   4.714   0.786  0.0082 -0.8235  0.3656
 6388SOL    HW130800   1.593   0.006   0.878 -0.9128  0.9908 -0.2047
 6388SOL    HW230801   1.648   0.053   0.753 -1.8043  0.1228 -0.3232
 6389SOL     OW30802   4.575   1.745   6.145 -0.2669  0.1919  0.3827
 6389SOL    HW130803   4.617   1.749   6.059 -3.0974  1.1247 -0.9775
 6389SOL    HW230804   4.607   1.827   6.181 -0.8368  0.0217  1.2891
 6390SOL     OW30805   0.713   3.054   5.064 -0.0627  0.0251 -0.7594
 6390SOL    HW130806   0.630   3.080   5.024  0.5958  0.2719 -1.9615
 6390SOL    HW230807   0.776   3.034   4.995  1.2822 -1.4089  0.9102
 6391SOL     OW30808   1.431   3.976   2.312  0.3586  0.3753  0.2251
 6391SOL    HW130809   1.455   3.983   2.219 -0.4033  0.9327  0.0737
 6391SOL    HW230810   1.493   3.915   2.350  1.0502  1.1229  0.3019
 6392SOL     OW30811   4.493   1.274  14.319 -0.0888  0.2582 -0.0647
 6392SOL    HW130812   4.540   1.206  14.368 -0.8901  0.2877  0.7517
 6392SOL    HW230813   4.434   1.323  14.376 -0.0366  0.1674  0.0671
 6393SOL     OW30814   2.788   0.537   2.808  0.3920 -0.3815 -0.5687
 6393SOL    HW130815   2.757   0.627   2.819  0.7964 -0.2581 -0.4302
 6393SOL    HW230816   2.721   0.507   2.747 -1.1394  3.4238 -0.7810
 6394SOL     OW30817   2.075   2.399   6.193 -0.5936 -0.4238 -0.1057
 6394SOL    HW130818   2.064   2.354   6.277 -1.9249 -1.6951 -0.9600
 6394SOL    HW230819   2.169   2.393   6.176 -0.3122 -1.5494  1.8706
 6395SOL     OW30820   3.949   4.475   2.057  0.4200 -0.0261 -0.1000
 6395SOL    HW130821   4.044   4.466   2.064  0.4697 -0.6442 -1.4151
 6395SOL    HW230822   3.938   4.561   2.097 -0.5759  0.2742 -1.0158
 6396SOL     OW30823   3.291   4.330   6.255  0.2032 -0.6250 -0.2517
 6396SOL    HW130824   3.209   4.295   6.221  0.7972 -1.1770 -1.1032
 6396SOL    HW230825   3.345   4.323   6.176 -1.2516  0.7783 -1.3542
 6397SOL     OW30826   1.961   3.453   8.880 -0.4627  0.3129  0.5119
 6397SOL    HW130827   1.981   3.391   8.809 -0.3699  0.3468  0.5093
 6397SOL    HW230828   1.867   3.462   8.866 -0.3793  1.1397  0.4817
 6398SOL     OW30829   3.871   1.172   9.098 -0.3594 -0.2531 -0.1408
 6398SOL    HW130830   3.823   1.116   9.037 -1.0404 -0.6488  0.7539
 6398SOL    HW230831   3.841   1.133   9.181  0.4741 -2.9413 -1.0888
 6399SOL     OW30832   4.069   0.839   2.332  0.2467 -0.5680  0.2098
 6399SOL    HW130833   4.133   0.785   2.378 -1.9035 -3.0092  0.3595
 6399SOL    HW230834   4.117   0.867   2.254 -2.2938  1.2958 -0.6941
 6400SOL     OW30835   3.093   3.028   4.865 -0.3195 -0.0322  0.2881
 6400SOL    HW130836   3.147   3.088   4.917 -1.4285  0.0692  1.2982
 6400SOL    HW230837   3.130   3.044   4.778 -0.1195  2.8250  0.8970
 6401SOL     OW30838   4.291   0.622   4.736 -0.1462 -0.1060  0.0723
 6401SOL    HW130839   4.298   0.603   4.642 -3.1491  0.3074 -0.2337
 6401SOL    HW230840   4.199   0.644   4.745 -0.2715 -1.0269  1.0004
 6402SOL     OW30841   2.809   2.561   8.104 -0.0401  0.6957 -0.2193
 6402SOL    HW130842   2.822   2.468   8.121 -1.0138  0.4293 -0.9776
 6402SOL    HW230843   2.736   2.558   8.165 -0.0479  0.5467 -0.2363
 6403SOL     OW30844   3.114   1.019   8.089 -0.5750 -0.2533  0.3248
 6403SOL    HW130845   3.120   1.112   8.111  1.2145 -0.4768  0.7616
 6403SOL    HW230846   3.025   1.013   8.052  0.1436 -2.0988 -1.1369
 6404SOL     OW30847   4.529   3.285   5.869  0.1683 -0.2972 -0.3696
 6404SOL    HW130848   4.537   3.220   5.799 -2.8365  0.0482 -1.0508
 6404SOL    HW230849   4.451   3.321   5.826 -0.4956 -1.7048 -0.3580
 6405SOL     OW30850   2.708   0.017  17.139 -0.2952 -1.2338  0.8694
 6405SOL    HW130851   2.711   4.662  17.172 -0.1356 -0.5705  2.7131
 6405SOL    HW230852   2.735   0.002  17.049 -2.0111 -1.2156  0.3473
 6406SOL     OW30853   1.353   4.598  14.612  0.3463  0.1760 -0.3545
 6406SOL    HW130854   1.298   4.638  14.545 -0.2947 -3.0392 -1.7488
 6406SOL    HW230855   1.440   4.612  14.573  0.9172 -0.6193  0.6159
 6407SOL     OW30856   0.995   2.373   3.411  0.0653 -0.5214 -0.1139
 6407SOL    HW130857   1.006   2.419   3.494  0.4731 -0.3838 -0.2438
 6407SOL    HW230858   0.991   2.286   3.451 -2.6556  0.0914  0.9591
 6408SOL     OW30859   0.541   0.795   1.729 -0.1443 -0.7130 -0.1084
 6408SOL    HW130860   0.604   0.851   1.684 -0.7442 -2.5244 -3.1964
 6408SOL    HW230861   0.552   0.710   1.686 -0.4145 -1.6975  1.7303
 6409SOL     OW30862   2.927   0.791   9.077 -0.3433  0.4927  0.2475
 6409SOL    HW130863   2.832   0.785   9.071 -0.1740 -1.6322 -0.4058
 6409SOL    HW230864   2.947   0.715   9.131 -3.2849  0.1083  0.7897
 6410SOL     OW30865   4.269   4.340   8.614 -0.1461  0.1939  0.3070
 6410SOL    HW130866   4.345   4.320   8.560 -1.6230  0.9282 -2.0015
 6410SOL    HW230867   4.199   4.301   8.562  1.4638 -1.9608 -0.2529
 6411SOL     OW30868   3.208   4.433   2.545 -0.8515 -0.3709  0.4342
 6411SOL    HW130869   3.202   4.351   2.496  0.3440 -0.9694  1.2631
 6411SOL    HW230870   3.205   4.400   2.635  0.9859  0.2297  0.7154
 6412SOL     OW30871   2.436   3.582  12.837  0.9255 -0.2810  0.2597
 6412SOL    HW130872   2.452   3.674  12.859  1.1177 -1.2379  4.0877
 6412SOL    HW230873   2.511   3.537  12.875  2.5997  1.7779 -0.5734
 6413SOL     OW30874   1.685   3.455   4.454  0.0569 -0.2542  0.3895
 6413SOL    HW130875   1.676   3.549   4.468 -0.6621  0.3120 -3.9181
 6413SOL    HW230876   1.761   3.443   4.512  1.3170 -1.1282 -1.4261
 6414SOL     OW30877   3.401   1.982  14.123 -0.1431 -0.0788  0.1336
 6414SOL    HW130878   3.420   2.018  14.036  2.3104 -1.0169  0.3035
 6414SOL    HW230879   3.310   2.012  14.132  0.0282  0.1677  1.0257
 6415SOL     OW30880   3.265   4.269   8.314 -0.3326 -0.2893  0.0221
 6415SOL    HW130881   3.243   4.217   8.237 -0.3655  0.6965 -0.6363
 6415SOL    HW230882   3.176   4.298   8.337  0.2530  2.2458 -1.0027
 6416SOL     OW30883   2.196   0.709  11.437  0.3673 -0.1312 -0.1071
 6416SOL    HW130884   2.208   0.802  11.416  0.2106 -0.1541 -0.2993
 6416SOL    HW230885   2.111   0.703  11.480  0.2856 -1.6639 -0.4680
 6417SOL     OW30886   1.143   2.555   8.801  0.9857 -0.7582  0.2259
 6417SOL    HW130887   1.229   2.547   8.759  1.1301  0.0999  0.3713
 6417SOL    HW230888   1.095   2.592   8.727  1.3733  1.8514  1.2796
 6418SOL     OW30889   2.683   2.138   3.498  0.3644  0.7127 -0.0702
 6418SOL    HW130890   2.671   2.208   3.562 -0.0743 -0.7790  1.4862
 6418SOL    HW230891   2.591   2.126   3.474 -0.2875  1.3401  2.1368
 6419SOL     OW30892   0.556   1.198  16.120  0.5618 -0.6202 -0.4567
 6419SOL    HW130893   0.489   1.132  16.102 -0.4966 -0.3673  2.4776
 6419SOL    HW230894   0.612   1.157  16.187  1.8099 -2.7023 -2.7849
 6420SOL     OW30895   3.860   1.326   4.750 -0.0397  0.6464  0.2854
 6420SOL    HW130896   3.923   1.255   4.748  0.2710  0.9628 -0.9325
 6420SOL    HW230897   3.887   1.375   4.672 -0.4507  0.9942  0.3625
 6421SOL     OW30898   2.518   1.381  10.051  0.4243 -0.0470 -0.1902
 6421SOL    HW130899   2.470   1.312  10.098  0.8186  0.9737  1.6844
 6421SOL    HW230900   2.515   1.339   9.964 -1.1339  1.4636 -0.8596
 6422SOL     OW30901   0.183   1.624   7.569 -0.3598 -0.4301 -0.1167
 6422SOL    HW130902   0.263   1.645   7.521  0.3405 -0.5573  1.0037
 6422SOL    HW230903   0.187   1.675   7.650 -1.6001 -0.1470 -0.2336
 6423SOL     OW30904   2.515   0.127   7.734  0.7004 -0.6822 -0.4302
 6423SOL    HW130905   2.543   0.063   7.799 -1.3317 -1.5018 -0.3619
 6423SOL    HW230906   2.507   0.208   7.784  1.1368 -1.3628  0.7382
 6424SOL     OW30907   4.657   0.595   4.082 -0.2948 -0.1550  0.1756
 6424SOL    HW130908   4.645   0.568   3.991  2.4035 -0.7491 -0.0017
 6424SOL    HW230909   0.015   0.616   4.077  0.2905 -2.2832  1.8364
 6425SOL     OW30910   1.752   1.796  10.106 -0.6505 -0.5543  0.1338
 6425SOL    HW130911   1.707   1.735  10.164 -0.2272 -0.1368  0.9048
 6425SOL    HW230912   1.764   1.735  10.033  0.1445 -1.6010  1.1432
 6426SOL     OW30913   2.802   1.765  16.463 -0.7498  0.6506  0.1590
 6426SOL    HW130914   2.858   1.842  16.475 -1.1556  1.3581 -2.4424
 6426SOL    HW230915   2.799   1.725  16.550  1.0845 -3.0815 -1.4663
 6427SOL     OW30916   0.064   4.340   9.116 -0.5176 -0.1629  0.0654
 6427SOL    HW130917   4.704   4.327   9.120 -0.5206 -0.2578 -0.2872
 6427SOL    HW230918   0.091   4.319   9.026  0.3949  1.9885 -0.1599
 6428SOL     OW30919   1.494   2.947   6.600 -0.0122 -0.6624  0.3518
 6428SOL    HW130920   1.408   2.905   6.601 -1.0652  1.4936  1.0988
 6428SOL    HW230921   1.461   3.026   6.558 -1.4134 -0.5766  1.6171
 6429SOL     OW30922   4.023   0.964   2.918  0.8261 -0.3026 -0.2534
 6429SOL    HW130923   4.018   1.032   2.851 -0.6617  0.4711  0.6526
 6429SOL    HW230924   4.087   1.000   2.979  0.2393 -0.1488  0.2613
 6430SOL     OW30925   1.087   0.852   3.413  0.1701 -0.3618 -0.4337
 6430SOL    HW130926   1.047   0.865   3.327  0.5612  0.1526 -0.5402
 6430SOL    HW230927   1.170   0.806   3.397 -0.5040 -1.8816  0.4413
 6431SOL     OW30928   4.113   0.272   5.163 -0.4169  0.4682  0.3182
 6431SOL    HW130929   4.160   0.313   5.091 -1.8682  1.2693 -0.1856
 6431SOL    HW230930   4.166   0.299   5.238 -1.7402  1.9230  0.7363
 6432SOL     OW30931   4.043   1.668   9.281  0.5215  0.0602 -0.6237
 6432SOL    HW130932   4.034   1.573   9.292  0.2457  0.1232 -0.2837
 6432SOL    HW230933   4.039   1.675   9.186 -1.7711  3.3352 -0.2952
 6433SOL     OW30934   2.782   2.446   2.671 -0.2027  0.4476  0.0290
 6433SOL    HW130935   2.856   2.406   2.625 -0.1896  0.4434  0.0540
 6433SOL    HW230936   2.815   2.536   2.675 -0.1856  0.4587 -0.3246
 6434SOL     OW30937   0.255   2.749   7.870  0.3669  0.6012 -0.2224
 6434SOL    HW130938   0.284   2.742   7.779 -4.5747  1.4737 -1.8497
 6434SOL    HW230939   0.326   2.793   7.917  0.8418  0.7912 -1.1058
 6435SOL     OW30940   1.745   1.160  13.736  0.2797  0.5915 -0.2279
 6435SOL    HW130941   1.836   1.163  13.766  0.2040  0.1455  0.0349
 6435SOL    HW230942   1.693   1.125  13.808 -0.2606 -1.4315 -1.6190
 6436SOL     OW30943   3.018   0.706   7.443  0.2506 -0.0592 -0.2513
 6436SOL    HW130944   3.105   0.687   7.408  0.8340  1.3001  0.4620
 6436SOL    HW230945   3.032   0.715   7.538  1.2332  0.7766 -0.4795
 6437SOL     OW30946   4.733   1.818   9.723  0.1575  0.1161  0.6569
 6437SOL    HW130947   4.734   1.725   9.745 -0.5321 -0.2810 -0.9567
 6437SOL    HW230948   4.643   1.837   9.698  0.1541  0.0680  0.6329
 6438SOL     OW30949   3.900   1.469   9.011 -0.4548  0.5818  0.0819
 6438SOL    HW130950   3.842   1.543   9.033  1.4475  1.9879  0.3520
 6438SOL    HW230951   3.846   1.391   9.026  1.9087 -1.4664 -2.2110
 6439SOL     OW30952   3.274   1.386   0.046 -0.2147  0.3188 -0.1791
 6439SOL    HW130953   3.283   1.326   0.120 -1.6422 -0.6541 -0.7884
 6439SOL    HW230954   3.216   1.343  17.721  3.0466 -0.6986 -2.4944
 6440SOL     OW30955   2.430   0.209   5.093 -0.1733 -0.4451  0.2428
 6440SOL    HW130956   2.361   0.185   5.155  0.3202  0.4313  1.1246
 6440SOL    HW230957   2.488   0.135   5.109  1.5003  0.8100 -0.0663
 6441SOL     OW30958   3.323   3.041  10.839 -0.1279 -0.5414  0.1647
 6441SOL    HW130959   3.414   3.043  10.811  0.1686  1.3444  1.3040
 6441SOL    HW230960   3.328   3.110  10.905  0.9480 -0.5061  0.0506
 6442SOL     OW30961   4.265   1.958   8.988 -0.3552 -0.3072 -0.1225
 6442SOL    HW130962   4.281   2.052   8.998 -0.9363 -0.0881 -1.3228
 6442SOL    HW230963   4.172   1.964   8.967  0.3237  0.5605 -2.9048
 6443SOL     OW30964   2.924   1.499   7.052  0.2207  0.2625  0.1197
 6443SOL    HW130965   2.853   1.454   7.099 -0.3641 -0.9610 -1.9413
 6443SOL    HW230966   2.878   1.533   6.975 -0.1539  1.0247  0.6818
 6444SOL     OW30967   1.111   0.073   5.765  0.5436 -0.6224 -0.2132
 6444SOL    HW130968   1.120   0.140   5.833 -0.2030 -0.2089 -0.5257
 6444SOL    HW230969   1.016   0.078   5.755  0.8042  1.9338 -1.5587
 6445SOL     OW30970   3.812   2.328   8.694  0.2978  0.0624  0.1271
 6445SOL    HW130971   3.836   2.418   8.675 -1.9855  0.8025  0.6686
 6445SOL    HW230972   3.835   2.284   8.613 -0.6346  1.4421 -0.8850
 6446SOL     OW30973   2.415   0.346  11.712 -0.2227  0.8346 -0.1758
 6446SOL    HW130974   2.510   0.359  11.719  0.0902 -0.9106 -1.3466
 6446SOL    HW230975   2.391   0.396  11.634  0.2189  0.3030 -0.6533
 6447SOL     OW30976   4.600   1.819   1.137  0.2406  0.5339 -0.2458
 6447SOL    HW130977   4.618   1.767   1.058 -0.0487  0.8369 -0.5094
 6447SOL    HW230978   4.654   1.894   1.113  1.0523 -0.1783 -0.6686
 6448SOL     OW30979   1.313   0.992  11.104  0.1438 -0.1193  0.2068
 6448SOL    HW130980   1.250   1.061  11.124  0.6120  0.3572  0.0289
 6448SOL    HW230981   1.343   0.975  11.194 -2.4304 -1.3383  0.8638
 6449SOL     OW30982   1.303   1.884   7.928  0.2584 -0.6907  0.7088
 6449SOL    HW130983   1.332   1.967   7.891  1.0983 -2.1836 -1.9651
 6449SOL    HW230984   1.366   1.818   7.897 -1.3727 -1.2610 -1.3453
 6450SOL     OW30985   0.750   4.198   0.535  0.4405 -0.4920 -0.0438
 6450SOL    HW130986   0.729   4.269   0.474 -1.0740 -0.4210  0.5661
 6450SOL    HW230987   0.840   4.223   0.556  0.0935 -0.2861  1.1826
 6451SOL     OW30988   2.442   4.418   8.935  0.8167 -0.5654  0.5159
 6451SOL    HW130989   2.516   4.445   8.879  1.8967  1.0410  2.7353
 6451SOL    HW230990   2.487   4.358   8.994 -1.2312 -1.0810  1.5424
 6452SOL     OW30991   2.452   0.768   3.463  0.5982 -0.0201 -0.1389
 6452SOL    HW130992   2.402   0.847   3.445 -0.2977 -0.3152  1.0316
 6452SOL    HW230993   2.474   0.739   3.375 -1.2457 -0.1688 -0.5505
 6453SOL     OW30994   1.111   4.185   1.117  0.0651 -0.0240 -0.3042
 6453SOL    HW130995   1.079   4.123   1.051 -0.9451  2.9448 -2.6108
 6453SOL    HW230996   1.067   4.146   1.192 -0.5499 -0.9842 -1.1636
 6454SOL     OW30997   1.043   1.253   5.172  0.4200  0.2366  0.1036
 6454SOL    HW130998   1.047   1.163   5.141 -0.5807  0.4530 -0.6430
 6454SOL    HW230999   1.134   1.282   5.178  1.1192 -2.2067  1.3236
 6455SOL     OW31000   3.354   0.027  15.013 -0.4595 -0.4275 -0.3333
 6455SOL    HW131001   3.260   0.011  15.018 -0.7827  0.8614 -1.9857
 6455SOL    HW231002   3.392   4.676  15.027  1.8793 -0.0352 -3.9918
 6456SOL     OW31003   2.567   2.861   6.541 -0.3175  0.0850 -0.2164
 6456SOL    HW131004   2.551   2.943   6.493  0.4719  1.6634  2.2094
 6456SOL    HW231005   2.578   2.795   6.473  2.5854  0.7807 -0.4632
 6457SOL     OW31006   2.940   4.174   1.548 -0.2144  0.6069 -0.5204
 6457SOL    HW131007   2.991   4.159   1.628 -1.2686  0.9383  0.2203
 6457SOL    HW231008   2.934   4.084   1.516 -0.4814  0.5799 -0.3956
 6458SOL     OW31009   1.623   3.640   3.143  0.1000  0.8304 -0.1842
 6458SOL    HW131010   1.694   3.659   3.204 -0.1361  0.9349  0.0571
 6458SOL    HW231011   1.585   3.728   3.143  0.4792  0.9971 -1.1289
 6459SOL     OW31012   4.542   3.408   7.143 -0.1707  0.2388 -0.0121
 6459SOL    HW131013   4.597   3.335   7.172 -0.0914  0.5216  0.5503
 6459SOL    HW231014   4.456   3.377   7.170 -0.5969  1.3515 -0.0961
 6460SOL     OW31015   0.025   1.002   1.507 -0.2462  0.6236  0.2940
 6460SOL    HW131016   0.012   1.093   1.533  0.0492  0.9905 -0.8750
 6460SOL    HW231017   0.031   1.017   1.413 -2.2102 -4.4065 -0.6328
 6461SOL     OW31018   4.637   1.751  13.206 -0.1984  0.1783  0.4397
 6461SOL    HW131019   4.669   1.664  13.232 -0.0373 -1.4797 -5.2516
 6461SOL    HW231020   4.690   1.806  13.264 -1.4140  0.9910  0.7713
 6462SOL     OW31021   1.649   2.574   1.875 -0.0017  0.3376  0.0551
 6462SOL    HW131022   1.702   2.640   1.920  0.3080  0.1845 -0.0907
 6462SOL    HW231023   1.690   2.587   1.790 -1.2175 -1.1926 -0.7733
 6463SOL     OW31024   0.914   2.435  15.525  0.3180  0.3018 -0.2390
 6463SOL    HW131025   0.848   2.401  15.464 -1.0282  1.3417  0.6513
 6463SOL    HW231026   0.991   2.382  15.502 -0.1957 -1.2806  1.6846
 6464SOL     OW31027   2.601   2.764   9.284  0.7568  0.0432 -0.2930
 6464SOL    HW131028   2.565   2.700   9.345 -3.1602  0.7081 -1.8929
 6464SOL    HW231029   2.625   2.823   9.356  2.6406 -1.1271  0.0374
 6465SOL     OW31030   0.055   2.836   2.349 -0.1643 -0.2556 -0.2879
 6465SOL    HW131031   0.140   2.829   2.392 -0.4238 -2.7637 -0.2164
 6465SOL    HW231032   0.055   2.756   2.297 -1.1853  0.6264 -1.6882
 6466SOL     OW31033   0.436   1.561   2.198  0.0836  0.1262 -0.1976
 6466SOL    HW131034   0.346   1.560   2.231  0.7658  3.2742  1.7348
 6466SOL    HW231035   0.410   1.565   2.106 -3.0299 -0.3789  0.6735
 6467SOL     OW31036   4.353   0.078   8.988 -0.1182  0.3864  0.2254
 6467SOL    HW131037   4.406   0.103   8.913  0.8774 -2.5430 -0.0466
 6467SOL    HW231038   4.322   0.163   9.022 -1.6373 -0.9390  2.1528
 6468SOL     OW31039   1.068   3.199   9.081 -0.0606  0.6249  0.3590
 6468SOL    HW131040   1.093   3.289   9.100 -0.0629  0.6484  0.2503
 6468SOL    HW231041   1.012   3.218   9.006 -0.0403 -1.4196 -0.1805
 6469SOL     OW31042   0.596   1.767  15.854  1.5982  0.1251 -0.0630
 6469SOL    HW131043   0.534   1.838  15.867  2.3052  0.8231 -0.5307
 6469SOL    HW231044   0.593   1.730  15.943 -0.9022 -1.3257 -0.7287
 6470SOL     OW31045   0.727   1.736  14.043 -0.9437  0.1946  0.2938
 6470SOL    HW131046   0.747   1.741  13.950  0.9558 -0.3991  0.6655
 6470SOL    HW231047   0.725   1.642  14.061  0.5477 -0.3538 -2.4849
 6471SOL     OW31048   2.629   3.310   5.434  0.5439 -0.2428 -0.3278
 6471SOL    HW131049   2.638   3.219   5.404 -0.9697 -0.4150 -0.2703
 6471SOL    HW231050   2.644   3.302   5.529 -1.2930  0.2484  0.0105
 6472SOL     OW31051   2.632   4.312  13.110  0.0556 -0.1709 -0.0889
 6472SOL    HW131052   2.643   4.380  13.177 -0.0307 -1.7019  1.4649
 6472SOL    HW231053   2.697   4.349  13.050  0.0367  0.7838  0.4782
 6473SOL     OW31054   4.454   2.224   6.621  0.3711 -0.4794 -0.5561
 6473SOL    HW131055   4.480   2.273   6.698 -1.2438  0.2853 -0.4836
 6473SOL    HW231056   4.398   2.287   6.576  0.1760  1.1897  2.0876
 6474SOL     OW31057   3.180   1.921   5.416  0.0372  0.8560 -0.1902
 6474SOL    HW131058   3.155   1.983   5.347 -0.5443  1.2834  0.3985
 6474SOL    HW231059   3.171   1.988   5.484  0.1217  1.6964 -1.0070
 6475SOL     OW31060   2.322   1.667   7.032 -0.0402  0.1387  0.3032
 6475SOL    HW131061   2.248   1.616   6.998  0.3918 -0.4368  0.2292
 6475SOL    HW231062   2.288   1.670   7.121  0.3634  0.9842  0.4309
 6476SOL     OW31063   0.464   2.626   4.541 -0.0475  0.5545 -0.1816
 6476SOL    HW131064   0.467   2.580   4.625 -1.7416  2.4885  0.9397
 6476SOL    HW231065   0.404   2.699   4.556 -0.8070 -0.3607  1.3333
 6477SOL     OW31066   4.433   1.892  15.365  0.0872  0.3543  0.1627
 6477SOL    HW131067   4.482   1.914  15.444 -0.3056 -0.6906  0.6948
 6477SOL    HW231068   4.423   1.801  15.390  1.5229  0.0987 -0.1990
 6478SOL     OW31069   4.591   0.562   2.013  0.5242  0.3886  0.0934
 6478SOL    HW131070   4.611   0.491   2.073 -0.4960  0.5289  0.5971
 6478SOL    HW231071   4.584   0.511   1.932 -1.0123 -2.9490  2.3121
 6479SOL     OW31072   2.657   4.248   2.059  0.1789  0.2956  0.2776
 6479SOL    HW131073   2.686   4.291   2.140  0.2481 -0.2523  0.5511
 6479SOL    HW231074   2.705   4.303   1.997 -1.2706 -0.3760 -1.4372
 6480SOL     OW31075   4.573   1.582   5.536  0.5226  0.4680  0.8481
 6480SOL    HW131076   4.479   1.573   5.522  0.4447  1.3052  0.8194
 6480SOL    HW231077   4.581   1.654   5.598 -0.1125  1.2402  0.0443
 6481SOL     OW31078   2.915   3.878   8.734  0.0937  0.0469 -0.0352
 6481SOL    HW131079   2.951   3.966   8.748 -1.0831  0.8857 -2.3651
 6481SOL    HW231080   2.832   3.888   8.782  0.8542  2.5108  0.7667
 6482SOL     OW31081   3.324   0.009  12.544  0.3270  0.1293  0.2331
 6482SOL    HW131082   3.354   4.664  12.588 -0.1326 -0.8022 -1.1469
 6482SOL    HW231083   3.287   4.718  12.459 -3.6630  0.2986  1.9126
 6483SOL     OW31084   4.480   4.414  17.206  0.1204 -0.1284 -0.0396
 6483SOL    HW131085   4.518   4.502  17.212  0.9492 -0.3411 -2.5252
 6483SOL    HW231086   4.493   4.386  17.116 -1.2547  2.1096 -0.9220
 6484SOL     OW31087   0.790   0.989   0.526  0.6359  0.7877 -0.7848
 6484SOL    HW131088   0.726   1.051   0.492 -1.6474 -0.7162  0.8369
 6484SOL    HW231089   0.871   1.030   0.496  0.4245  0.8273 -1.3044
 6485SOL     OW31090   1.559   0.768   9.465  0.0245  0.1066  0.4222
 6485SOL    HW131091   1.640   0.739   9.423  0.7456  0.7366  1.3826
 6485SOL    HW231092   1.514   0.816   9.396 -2.6181  0.5527  2.4660
 6486SOL     OW31093   2.134   4.516   6.477 -0.2698 -0.4559  0.3296
 6486SOL    HW131094   2.076   4.537   6.403  0.6302  0.5489 -0.0917
 6486SOL    HW231095   2.222   4.518   6.440 -0.4448 -0.3856 -0.0925
 6487SOL     OW31096   2.383   0.309   9.488  0.2238 -0.0014  0.8269
 6487SOL    HW131097   2.325   0.233   9.496 -0.1195  0.1622 -0.1501
 6487SOL    HW231098   2.463   0.261   9.463  0.1434  1.2074 -1.7277
 6488SOL     OW31099   0.697   0.394   5.025  0.1797 -0.2847 -0.2348
 6488SOL    HW131100   0.690   0.488   5.042  0.4749 -0.4806  0.9438
 6488SOL    HW231101   0.777   0.368   5.071  0.1360  0.9943  0.5600
 6489SOL     OW31102   0.563   1.626  17.260 -0.0129  0.2335 -0.0296
 6489SOL    HW131103   0.653   1.656  17.271 -0.6856  2.5739 -0.9720
 6489SOL    HW231104   0.536   1.667  17.177 -2.9350 -2.0231 -0.1991
 6490SOL     OW31105   0.238   2.645   8.121  0.2334  0.5093  0.0721
 6490SOL    HW131106   0.220   2.682   8.034 -1.1275 -1.4980 -0.4832
 6490SOL    HW231107   0.215   2.723   8.172  2.7379  2.4083 -1.6928
 6491SOL     OW31108   4.496   0.302   1.535  0.1379 -0.0159 -0.2444
 6491SOL    HW131109   4.550   0.373   1.501 -1.2107  1.6033  0.9729
 6491SOL    HW231110   4.559   0.230   1.541  1.6205  1.2057 -1.2094
 6492SOL     OW31111   1.473   0.290   2.466  0.1893  0.2101 -0.4822
 6492SOL    HW131112   1.554   0.329   2.499 -1.1389  1.3803  1.3415
 6492SOL    HW231113   1.464   0.321   2.377  0.4526  0.0895 -0.5533
 6493SOL     OW31114   0.848   1.624   2.162 -0.4936  0.2013  0.6391
 6493SOL    HW131115   0.791   1.552   2.188 -0.0090  0.4264  2.2992
 6493SOL    HW231116   0.841   1.668   2.247 -0.7184 -0.7489  1.1133
 6494SOL     OW31117   0.295   1.329   4.789 -0.5353 -0.0267 -0.4800
 6494SOL    HW131118   0.283   1.408   4.841 -0.8205 -0.9783  0.8698
 6494SOL    HW231119   0.267   1.355   4.701  2.2474  1.6081 -0.9025
 6495SOL     OW31120   1.918   1.486   7.150 -0.5987 -0.1715 -0.6357
 6495SOL    HW131121   2.002   1.440   7.151 -0.6347 -0.1958  1.0252
 6495SOL    HW231122   1.944   1.559   7.094  1.9594 -1.2752 -0.8952
 6496SOL     OW31123   0.193   4.142   1.875 -0.4138 -0.3048  0.3753
 6496SOL    HW131124   0.143   4.223   1.863 -0.4005 -0.4597 -0.7846
 6496SOL    HW231125   0.135   4.077   1.836 -0.4914  1.0412 -1.7724
 6497SOL     OW31126   2.303   2.192   1.081  0.5703  0.4425 -0.5472
 6497SOL    HW131127   2.278   2.208   1.173  0.6488 -1.4621 -0.2066
 6497SOL    HW231128   2.230   2.222   1.026  0.1016 -0.4582 -0.4072
 6498SOL     OW31129   2.974   2.318   2.061  0.6359 -0.1861 -0.1605
 6498SOL    HW131130   2.896   2.318   2.116 -0.6651  1.3761 -1.9715
 6498SOL    HW231131   2.947   2.276   1.980 -1.2207  0.0022  0.3661
 6499SOL     OW31132   1.734   3.695   7.774  0.0909 -0.2679  0.0387
 6499SOL    HW131133   1.679   3.713   7.850  0.2483  1.1125 -0.1701
 6499SOL    HW231134   1.700   3.618   7.729 -0.0705 -1.6966  2.5974
 6500SOL     OW31135   2.062   3.209   2.460  0.2015 -0.1755 -0.0698
 6500SOL    HW131136   2.035   3.301   2.467  0.3301 -0.2533  1.3697
 6500SOL    HW231137   1.975   3.170   2.452 -0.0087  0.1674  0.5346
 6501SOL     OW31138   0.609   3.898   4.222  0.8326  0.5121 -0.2701
 6501SOL    HW131139   0.583   3.990   4.210  1.2619  0.6152 -0.4270
 6501SOL    HW231140   0.539   3.880   4.284  1.8002  0.5578  0.8298
 6502SOL     OW31141   0.618   0.488   8.063 -0.1489 -0.6092  0.1002
 6502SOL    HW131142   0.550   0.426   8.089 -0.3695 -0.1642  0.5926
 6502SOL    HW231143   0.684   0.455   8.124  1.5179 -0.1041 -1.4292
 6503SOL     OW31144   2.227   3.154   9.051  0.8484  0.3895 -0.4886
 6503SOL    HW131145   2.141   3.134   9.087  2.0934 -2.5024  0.9178
 6503SOL    HW231146   2.286   3.093   9.095 -0.6332 -0.2259  0.6443
 6504SOL     OW31147   4.717   2.401   0.084  0.4559  0.5522 -0.5169
 6504SOL    HW131148   0.058   2.396   0.142  1.3857 -0.6155 -1.8368
 6504SOL    HW231149   4.648   2.365   0.140  0.2563  0.4165 -0.8525
 6505SOL     OW31150   3.809   2.781   8.513 -0.9673 -0.4212 -0.6440
 6505SOL    HW131151   3.878   2.751   8.453 -0.0864  0.9203 -0.3106
 6505SOL    HW231152   3.855   2.806   8.593 -1.3581 -0.1849 -0.4964
 6506SOL     OW31153   1.562   1.928  13.783  0.3758  0.3706  0.3348
 6506SOL    HW131154   1.609   2.011  13.791 -0.6440  0.8502  1.3608
 6506SOL    HW231155   1.576   1.910  13.690  1.4062  0.0804  0.5387
 6507SOL     OW31156   3.524   3.384  12.623  0.1395 -0.3943 -0.1851
 6507SOL    HW131157   3.510   3.314  12.559  0.9032 -1.5554  0.9387
 6507SOL    HW231158   3.476   3.462  12.594  2.4424  0.8709 -0.6203
 6508SOL     OW31159   3.311   1.415   6.441  0.3730 -0.2390  0.1639
 6508SOL    HW131160   3.315   1.501   6.399 -1.6362 -0.4587 -0.4856
 6508SOL    HW231161   3.367   1.433   6.517  1.7113 -1.5221 -0.5170
 6509SOL     OW31162   2.246   4.040  17.637 -0.3118  0.0205 -0.0673
 6509SOL    HW131163   2.241   4.110  17.572 -1.3133 -0.7278 -0.8016
 6509SOL    HW231164   2.260   4.088  17.718 -1.8697  2.7195 -1.3704
 6510SOL     OW31165   0.171   0.344   4.714  0.2939  0.5567 -0.3309
 6510SOL    HW131166   0.203   0.435   4.718  1.4315  0.0381  2.7185
 6510SOL    HW231167   0.235   0.310   4.651 -0.1975  0.9023 -1.0184
 6511SOL     OW31168   4.453   1.524   7.972 -0.1861  0.0855 -0.2401
 6511SOL    HW131169   4.388   1.589   7.997  0.4286  1.1973 -1.5505
 6511SOL    HW231170   4.487   1.498   8.058  0.8378 -0.9582 -0.9575
 6512SOL     OW31171   1.796   4.616   4.520  0.5234 -0.3934  0.3170
 6512SOL    HW131172   1.843   4.638   4.600  2.1114  1.0287 -1.0152
 6512SOL    HW231173   1.825   4.680   4.455  0.6000  0.3573  1.0862
 6513SOL     OW31174   1.773   4.360   4.523  0.2963  0.0520  0.1481
 6513SOL    HW131175   1.751   4.449   4.548 -1.2983 -0.3350  0.1122
 6513SOL    HW231176   1.834   4.370   4.450 -2.8297  2.5198 -2.0968
 6514SOL     OW31177   3.502   1.717  17.112 -0.6097  0.7806  0.3875
 6514SOL    HW131178   3.420   1.755  17.081 -0.1619 -0.1848 -1.9838
 6514SOL    HW231179   3.561   1.743  17.041 -0.8155  2.4446  0.8268
 6515SOL     OW31180   3.942   0.413   8.352  0.7541  0.4985  0.5769
 6515SOL    HW131181   3.890   0.411   8.433  0.9203  0.4949  0.6830
 6515SOL    HW231182   4.024   0.389   8.394  1.8059  1.4139 -0.9809
 6516SOL     OW31183   2.029   2.110  15.452 -0.8592  0.2111  0.0504
 6516SOL    HW131184   2.046   2.038  15.512 -0.7051  0.5395  0.4017
 6516SOL    HW231185   1.941   2.086  15.424  0.5172 -2.5679 -1.9062
 6517SOL     OW31186   3.736   4.439   7.912 -0.2782 -0.0305 -1.1432
 6517SOL    HW131187   3.775   4.483   7.837  0.4851  0.4113 -0.4902
 6517SOL    HW231188   3.749   4.514   7.970 -0.8987  0.1166 -1.1912
 6518SOL     OW31189   0.530   0.179   3.207  0.0136 -0.8534  0.1567
 6518SOL    HW131190   0.534   0.170   3.112 -0.2310  0.5064  0.0179
 6518SOL    HW231191   0.483   0.100   3.231  0.2230 -1.4314 -1.3283
 6519SOL     OW31192   3.199   2.434   3.909  0.3995  0.0516  0.3238
 6519SOL    HW131193   3.149   2.501   3.954 -1.5980 -1.1531 -0.1014
 6519SOL    HW231194   3.150   2.354   3.928  0.0664  0.7473  2.4199
 6520SOL     OW31195   3.416   2.893  10.248  0.0734  0.7403  0.7564
 6520SOL    HW131196   3.352   2.834  10.208  0.8345  0.1873  0.3521
 6520SOL    HW231197   3.481   2.831  10.281  0.0332 -0.1317 -0.8312
 6521SOL     OW31198   1.166   3.814  17.451  0.4944 -0.3744  0.3189
 6521SOL    HW131199   1.084   3.768  17.470 -0.5212  0.4095 -2.2013
 6521SOL    HW231200   1.205   3.810  17.539  0.1204 -2.0922  0.4071
 6522SOL     OW31201   0.604   2.433   9.489 -0.3224 -0.3770 -0.1800
 6522SOL    HW131202   0.678   2.394   9.442  1.5983  1.2761  1.4905
 6522SOL    HW231203   0.559   2.490   9.427  2.1029  0.9299 -0.7199
 6523SOL     OW31204   4.177   3.636  12.082  0.2264 -0.4300 -0.3370
 6523SOL    HW131205   4.270   3.612  12.089  0.1125 -1.2887 -1.7305
 6523SOL    HW231206   4.169   3.686  12.164 -2.7126 -2.6869  0.7562
 6524SOL     OW31207   1.498   3.134   2.855  0.7751  0.5782  0.1735
 6524SOL    HW131208   1.531   3.203   2.913 -1.4121 -0.1795  2.3557
 6524SOL    HW231209   1.576   3.100   2.811  0.6297 -1.7272  1.6953
 6525SOL     OW31210   0.224   1.749   3.959  0.1644  0.2730  0.0738
 6525SOL    HW131211   0.238   1.689   3.886 -1.9024  0.3109 -0.3553
 6525SOL    HW231212   0.282   1.820   3.930  1.2072 -1.1408 -1.2692
 6526SOL     OW31213   1.913   0.288   3.864 -0.0582 -0.5143  0.2030
 6526SOL    HW131214   1.962   0.317   3.787 -0.8277  0.2377  0.0085
 6526SOL    HW231215   1.895   0.375   3.898  2.4608 -0.2215  0.7878
 6527SOL     OW31216   3.868   2.281   4.673 -0.9045 -0.1641 -0.0648
 6527SOL    HW131217   3.937   2.339   4.704  0.9945 -1.9430 -1.0084
 6527SOL    HW231218   3.887   2.284   4.580  0.4289  0.1680  0.2262
 6528SOL     OW31219   1.449   2.845   9.715  0.0593 -0.3896 -0.3108
 6528SOL    HW131220   1.419   2.832   9.805 -0.6400 -1.2739 -0.6703
 6528SOL    HW231221   1.482   2.762   9.682 -2.1419 -1.0450 -0.8849
 6529SOL     OW31222   0.117   0.464   8.099 -0.4459  0.0681  0.3898
 6529SOL    HW131223   0.094   0.431   8.012  0.8528  0.3429 -0.0547
 6529SOL    HW231224   0.202   0.501   8.074 -0.7567 -0.4921 -1.4532
 6530SOL     OW31225   1.607   4.677   8.784  0.3806 -0.0944 -0.1055
 6530SOL    HW131226   1.618   0.029   8.744 -0.8540  0.0785 -0.0664
 6530SOL    HW231227   1.670   4.623   8.738  2.0983  0.3418  1.7319
 6531SOL     OW31228   2.588   3.307   4.428 -0.2272  0.0766 -0.0350
 6531SOL    HW131229   2.618   3.330   4.516  1.5714  2.1954 -1.2101
 6531SOL    HW231230   2.589   3.394   4.389  1.8149 -0.5452 -1.3438
 6532SOL     OW31231   1.274   1.177   8.038 -0.1642 -0.5662 -0.1536
 6532SOL    HW131232   1.264   1.257   7.987 -0.8592 -1.1245 -0.8908
 6532SOL    HW231233   1.304   1.115   7.972 -1.4953  0.6573 -1.9191
 6533SOL     OW31234   2.769   1.953   7.798 -0.6516  0.2464  0.6947
 6533SOL    HW131235   2.832   2.014   7.759  1.5808 -2.0503  0.7501
 6533SOL    HW231236   2.795   1.867   7.765 -0.5982  0.6484 -0.3041
 6534SOL     OW31237   2.843   3.344   9.068  0.6050  0.5814 -0.3534
 6534SOL    HW131238   2.864   3.270   9.011  0.3794  0.6853 -0.5750
 6534SOL    HW231239   2.817   3.302   9.150  1.0748 -0.0430 -0.5319
 6535SOL     OW31240   0.430   3.740  15.163 -0.3309 -0.1866  0.5122
 6535SOL    HW131241   0.424   3.684  15.240 -0.1476  0.7194  1.1908
 6535SOL    HW231242   0.397   3.678  15.099  0.4467 -0.0322 -0.0341
 6536SOL     OW31243   2.927   1.933   1.256 -0.0592  0.2287 -0.7413
 6536SOL    HW131244   2.948   2.013   1.208 -1.5814 -0.0295 -1.8473
 6536SOL    HW231245   2.966   1.944   1.343 -1.2587  0.5898 -0.2491
 6537SOL     OW31246   0.388   2.316  14.247 -0.3248  0.0163 -0.5336
 6537SOL    HW131247   0.473   2.330  14.204  0.1886 -0.9122  0.1682
 6537SOL    HW231248   0.333   2.317  14.169 -1.3678  1.2132  0.2232
 6538SOL     OW31249   3.630   2.181   6.182  0.1506 -0.1297  0.0283
 6538SOL    HW131250   3.673   2.104   6.220  1.9368  0.0748 -1.5581
 6538SOL    HW231251   3.579   2.132   6.118  0.3671  0.1369 -0.3468
 6539SOL     OW31252   2.101   2.603   5.861 -0.4711 -0.0213 -0.1800
 6539SOL    HW131253   2.080   2.595   5.768  0.1816 -0.2415 -0.3060
 6539SOL    HW231254   2.102   2.513   5.892  0.3692 -0.7306 -2.2431
 6540SOL     OW31255   0.797   3.777   7.877 -0.0558  0.1944  0.4476
 6540SOL    HW131256   0.859   3.795   7.948  1.3722 -0.3999 -0.6484
 6540SOL    HW231257   0.785   3.683   7.894  0.0339 -0.0707 -0.9250
 6541SOL     OW31258   1.390   3.024   7.805  0.4640 -0.1618  0.1411
 6541SOL    HW131259   1.381   2.936   7.769  0.9270 -0.3760  0.5579
 6541SOL    HW231260   1.480   3.030   7.837  0.1596 -0.6805  1.1076
 6542SOL     OW31261   4.051   1.554   9.661  0.1601  0.3723 -0.9451
 6542SOL    HW131262   3.964   1.582   9.634 -0.6358  0.3481  1.5410
 6542SOL    HW231263   4.082   1.641   9.685 -0.7299  1.1036 -2.4867
 6543SOL     OW31264   2.004   2.508   5.616  0.6288  0.2092  0.3290
 6543SOL    HW131265   1.911   2.506   5.593  0.7725  1.7179 -0.3862
 6543SOL    HW231266   2.041   2.564   5.548  2.4329 -1.0478  0.2606
 6544SOL     OW31267   0.085   3.220  16.453 -1.3093  0.0499  0.1983
 6544SOL    HW131268   0.016   3.240  16.390  0.1251 -1.2864 -1.8119
 6544SOL    HW231269   0.133   3.303  16.456  1.3845 -1.4384 -1.9410
 6545SOL     OW31270   0.673   3.901   6.543 -0.3039 -0.7840 -0.2596
 6545SOL    HW131271   0.746   3.875   6.599  1.6800  0.4955 -2.2988
 6545SOL    HW231272   0.629   3.816   6.540  1.8565 -1.9329  0.2613
 6546SOL     OW31273   1.053   0.964   9.880 -0.1651  0.5906  0.2820
 6546SOL    HW131274   1.048   0.949   9.975 -2.0528 -0.8889 -0.0629
 6546SOL    HW231275   1.145   0.947   9.858 -0.0479  0.1935  1.0613
 6547SOL     OW31276   2.509   1.687  10.759  0.5309 -0.7811  0.4576
 6547SOL    HW131277   2.506   1.665  10.852  3.9166  1.7874  1.1787
 6547SOL    HW231278   2.416   1.671  10.744  0.3765 -0.3661  0.9666
 6548SOL     OW31279   0.153   3.671   6.358  0.2189 -0.1704  0.2886
 6548SOL    HW131280   0.128   3.729   6.429  0.3714  1.0280 -0.6376
 6548SOL    HW231281   0.067   3.642   6.329 -0.1945  0.2895  1.0538
 6549SOL     OW31282   0.878   0.009  11.278  1.2438 -0.5876 -0.4212
 6549SOL    HW131283   0.894   4.661  11.232 -0.9933 -1.6446  0.7166
 6549SOL    HW231284   0.930   0.010  11.358 -0.1610 -1.0784  0.5038
 6550SOL     OW31285   1.054   4.559   6.308  0.3008  0.0827  0.2581
 6550SOL    HW131286   1.120   4.626   6.324  0.8292  0.3201 -2.8732
 6550SOL    HW231287   1.092   4.483   6.265 -1.0784 -0.8908  0.7517
 6551SOL     OW31288   2.734   2.122   4.155  0.5371  0.3005  0.1705
 6551SOL    HW131289   2.755   2.038   4.116 -2.5000 -0.6695  0.5783
 6551SOL    HW231290   2.796   2.140   4.226  1.2131 -2.1408  0.1954
 6552SOL     OW31291   2.143   3.533  15.174 -0.8493  0.3526 -0.4188
 6552SOL    HW131292   2.143   3.626  15.197  1.1775 -0.3931  2.7102
 6552SOL    HW231293   2.238   3.521  15.174 -0.6946  1.5990 -0.3611
 6553SOL     OW31294   3.295   4.509   6.464 -0.1026  0.5509  0.2626
 6553SOL    HW131295   3.285   4.470   6.378 -0.8755 -0.5109  0.8419
 6553SOL    HW231296   3.365   4.450   6.494  1.5193  2.5756  0.4767
 6554SOL     OW31297   1.808   3.978  12.951 -0.1669  0.0055  0.0119
 6554SOL    HW131298   1.747   3.977  13.024  0.4829  2.6975  0.5934
 6554SOL    HW231299   1.888   3.992  13.002  0.4541  1.6799 -1.4175
 6555SOL     OW31300   4.178   0.187   7.415 -0.1493 -0.0570 -0.0644
 6555SOL    HW131301   4.231   0.170   7.493 -0.6559  1.0660  0.5228
 6555SOL    HW231302   4.238   0.183   7.341 -0.8150 -1.8485 -0.5189
 6556SOL     OW31303   2.410   0.194   3.258 -0.0916  0.2424 -0.3153
 6556SOL    HW131304   2.368   0.133   3.318  0.4041 -2.3603 -2.6084
 6556SOL    HW231305   2.354   0.269   3.278 -1.5986 -0.9445 -0.0367
 6557SOL     OW31306   2.553   2.682   7.115  0.1615  0.0400 -0.2181
 6557SOL    HW131307   2.579   2.622   7.045  2.2091  2.1508 -1.2600
 6557SOL    HW231308   2.622   2.747   7.122  0.5500 -0.3670 -0.2768
 6558SOL     OW31309   3.469   4.292  13.224  0.3363 -0.4827 -0.5264
 6558SOL    HW131310   3.385   4.330  13.250  0.4421 -0.0727 -0.7939
 6558SOL    HW231311   3.429   4.246  13.150 -0.0072  0.1390 -0.7241
 6559SOL     OW31312   0.327   3.051  15.660  0.2934  0.0143 -0.7937
 6559SOL    HW131313   0.338   3.014  15.572 -2.6247 -1.5110 -0.5230
 6559SOL    HW231314   0.265   2.987  15.694  2.3885 -0.2188  2.5844
 6560SOL     OW31315   1.314   3.471   2.276 -0.1586  0.3907 -0.1489
 6560SOL    HW131316   1.392   3.521   2.251  0.4932 -0.3980  0.2821
 6560SOL    HW231317   1.254   3.543   2.257 -0.8232 -0.3198 -0.7429
 6561SOL     OW31318   0.889   3.655   6.900  0.7402 -0.6591  0.1035
 6561SOL    HW131319   0.889   3.740   6.857 -1.4117 -1.9666 -2.5440
 6561SOL    HW231320   0.911   3.596   6.827 -0.3952 -0.3682 -0.4826
 6562SOL     OW31321   0.637   3.138  15.853 -0.4892 -0.2619  0.0075
 6562SOL    HW131322   0.682   3.114  15.773 -1.8832 -0.9484 -0.5586
 6562SOL    HW231323   0.625   3.048  15.883  2.2575 -1.2189 -1.7490
 6563SOL     OW31324   2.048   4.079  10.872  0.3408 -0.0292  0.0284
 6563SOL    HW131325   2.092   3.997  10.847 -1.1392 -1.2606  1.5335
 6563SOL    HW231326   2.068   4.085  10.965 -0.6758  1.3105  0.1586
 6564SOL     OW31327   3.987   3.973   3.744  0.2999  0.4345 -0.8207
 6564SOL    HW131328   4.031   3.895   3.776 -1.9083 -0.6773 -0.4328
 6564SOL    HW231329   4.032   4.038   3.796 -0.3526 -0.0828  0.3941
 6565SOL     OW31330   4.166   1.782   3.115 -0.4750 -0.1782 -0.0107
 6565SOL    HW131331   4.251   1.749   3.086  0.0561  1.3114 -0.1212
 6565SOL    HW231332   4.120   1.698   3.120  2.2925 -1.5588  2.7336
 6566SOL     OW31333   2.249   4.358   2.737 -0.4379  0.9080 -0.3018
 6566SOL    HW131334   2.281   4.297   2.804  0.5999 -1.0698 -2.5979
 6566SOL    HW231335   2.157   4.330   2.731  0.7061 -2.2302 -3.6260
 6567SOL     OW31336   0.760   4.561   5.239  0.9311 -0.2350 -0.0630
 6567SOL    HW131337   0.821   4.559   5.165  2.0011 -2.2039  0.8620
 6567SOL    HW231338   0.733   4.652   5.248 -1.0671 -0.6734 -1.6004
 6568SOL     OW31339   3.097   4.710  10.256  0.1412  0.1974  0.4079
 6568SOL    HW131340   3.073   4.625  10.292 -0.4182  1.1537  2.2535
 6568SOL    HW231341   3.157   4.679  10.187  0.1020  1.0058  0.0086
 6569SOL     OW31342   1.631   1.883   4.138 -0.1871  0.2710  0.2015
 6569SOL    HW131343   1.635   1.955   4.075 -1.5342 -0.0084 -0.2183
 6569SOL    HW231344   1.718   1.890   4.175 -0.7120  1.2839  1.2191
 6570SOL     OW31345   2.761   2.921  13.448 -0.1161  0.0630 -0.1448
 6570SOL    HW131346   2.753   2.977  13.371  0.3120 -0.3422 -0.4874
 6570SOL    HW231347   2.835   2.964  13.492 -0.4022  1.1048 -0.6806
 6571SOL     OW31348   2.650   2.949   6.074  0.1039  0.1618 -0.1572
 6571SOL    HW131349   2.558   2.932   6.055 -0.1783 -0.6691  1.9170
 6571SOL    HW231350   2.697   2.893   6.012 -0.2182  0.6766 -0.8547
 6572SOL     OW31351   1.889   2.671  12.466 -0.2779 -0.1783 -0.0661
 6572SOL    HW131352   1.933   2.709  12.542  2.7002 -2.1826 -0.7991
 6572SOL    HW231353   1.966   2.654  12.412 -0.0948 -1.0081  0.4468
 6573SOL     OW31354   1.159   0.216   5.976  0.6743  0.0506 -0.1559
 6573SOL    HW131355   1.212   0.172   6.042 -0.4096  0.7589  1.1914
 6573SOL    HW231356   1.115   0.290   6.018  3.3705  0.4526  1.9593
 6574SOL     OW31357   3.666   1.678   6.267  0.0278  0.2777 -0.2609
 6574SOL    HW131358   3.690   1.586   6.254  2.7008  1.1635 -1.5533
 6574SOL    HW231359   3.575   1.675   6.296  0.6490 -1.8930  1.4452
 6575SOL     OW31360   2.552   2.468   2.153 -0.3599  0.6779 -0.6157
 6575SOL    HW131361   2.580   2.419   2.076  0.0463  0.3934 -0.2861
 6575SOL    HW231362   2.500   2.404   2.202 -1.0592  0.7876 -1.2075
 6576SOL     OW31363   4.646   1.976   4.808 -0.3547  0.2108 -0.2548
 6576SOL    HW131364   4.590   1.964   4.885 -1.9572  0.3294 -1.4286
 6576SOL    HW231365   4.676   2.067   4.817 -2.9355  1.0337  0.0898
 6577SOL     OW31366   2.996   3.385  12.446 -0.4256  0.3129  0.0859
 6577SOL    HW131367   3.083   3.375  12.407 -1.0015  0.8147 -1.3445
 6577SOL    HW231368   2.977   3.474  12.415  1.4210  0.8393  0.4755
 6578SOL     OW31369   2.068   1.533   4.552  0.4551 -0.2156  0.1531
 6578SOL    HW131370   1.985   1.553   4.595  0.0158  1.5362 -1.4892
 6578SOL    HW231371   2.121   1.496   4.622 -0.5342 -0.5138  0.7503
 6579SOL     OW31372   3.902   1.571   7.959 -0.6166 -0.2287  0.7111
 6579SOL    HW131373   3.964   1.595   8.028 -0.3355 -1.7045  0.9697
 6579SOL    HW231374   3.939   1.488   7.929  1.5924  0.9703  0.0526
 6580SOL     OW31375   2.984   4.408  13.942 -0.5967 -0.0716 -0.3477
 6580SOL    HW131376   3.034   4.348  13.998 -1.0579 -0.8163 -0.7522
 6580SOL    HW231377   2.914   4.353  13.909 -0.9303 -1.8448  3.3197
 6581SOL     OW31378   0.579   2.259   4.703 -0.1190  0.8990 -0.3063
 6581SOL    HW131379   0.597   2.175   4.747 -0.3633  2.3957  2.6420
 6581SOL    HW231380   0.485   2.276   4.699  0.1426  2.5706  0.8324
 6582SOL     OW31381   4.420   2.747   2.332 -0.1845  0.5405 -0.2346
 6582SOL    HW131382   4.476   2.823   2.348  0.7310  0.0531 -1.1385
 6582SOL    HW231383   4.404   2.760   2.239  1.7137  0.9335 -0.4976
 6583SOL     OW31384   4.059   1.169   8.485  0.0351 -0.6107  0.1584
 6583SOL    HW131385   3.995   1.159   8.556 -0.3931 -0.7146 -0.2443
 6583SOL    HW231386   4.035   1.260   8.470 -1.4960 -1.2188 -1.0808
 6584SOL     OW31387   4.472   0.131   0.164  0.2383  0.1261  0.0931
 6584SOL    HW131388   4.476   0.208   0.221  1.7156 -0.6627  1.0536
 6584SOL    HW231389   4.383   0.102   0.186  0.9189 -2.3478 -0.4495
 6585SOL     OW31390   4.199   0.157  10.027  0.2402  0.0508 -0.4599
 6585SOL    HW131391   4.233   0.080  10.073 -0.5793  0.4095  0.7526
 6585SOL    HW231392   4.281   0.200  10.003  0.8252  0.4889  2.3685
 6586SOL     OW31393   3.894   4.410   6.206 -0.5443 -0.0677 -0.6669
 6586SOL    HW131394   3.980   4.433   6.241 -1.0124 -1.8843  1.7460
 6586SOL    HW231395   3.921   4.382   6.119  0.9091  0.2919 -0.3222
 6587SOL     OW31396   4.460   1.836   9.707 -0.0024 -0.1230 -0.0611
 6587SOL    HW131397   4.421   1.764   9.757  1.1602  0.4925  1.7559
 6587SOL    HW231398   4.394   1.856   9.641 -1.1190  0.8155  1.3456
 6588SOL     OW31399   2.490   4.447   0.792 -0.4827  0.0191 -0.7583
 6588SOL    HW131400   2.549   4.396   0.848 -0.3099  0.8386 -0.1965
 6588SOL    HW231401   2.409   4.402   0.817  0.3823 -1.1711 -0.1082
 6589SOL     OW31402   1.921   1.269  17.387  0.2382  1.1001 -0.5837
 6589SOL    HW131403   1.855   1.278  17.456  1.4510  2.6850  0.3686
 6589SOL    HW231404   1.975   1.345  17.407 -0.4043  1.4787 -0.2832
 6590SOL     OW31405   2.848   1.437   9.456  0.8980 -0.0877  0.0144
 6590SOL    HW131406   2.931   1.471   9.490  1.7286 -2.5190  0.3692
 6590SOL    HW231407   2.866   1.437   9.362 -0.5120  0.0113 -0.2546
 6591SOL     OW31408   4.216   2.121  11.565  0.0041  0.3918  0.3115
 6591SOL    HW131409   4.273   2.119  11.642  0.2790 -0.9798  0.0750
 6591SOL    HW231410   4.147   2.179  11.598 -0.3739 -0.4640  1.0158
 6592SOL     OW31411   4.486   4.281   5.628  0.3202 -0.3761 -0.7378
 6592SOL    HW131412   4.485   4.343   5.555  0.0092  0.7152  0.1871
 6592SOL    HW231413   4.540   4.330   5.690  0.1042  0.7647 -1.4542
 6593SOL     OW31414   3.666   1.001   0.517 -0.0674 -0.2752 -0.3213
 6593SOL    HW131415   3.699   1.014   0.428  0.2726 -0.5699 -0.2394
 6593SOL    HW231416   3.736   0.940   0.544  0.2115 -0.1930 -0.8473
 6594SOL     OW31417   1.697   3.835   5.394  0.5097 -0.1181 -0.4093
 6594SOL    HW131418   1.649   3.918   5.405 -0.1392 -0.5856  0.2657
 6594SOL    HW231419   1.709   3.808   5.485  1.4465  0.6057 -0.3150
 6595SOL     OW31420   2.176   1.262   2.079  0.2062  0.1690 -0.6054
 6595SOL    HW131421   2.119   1.260   2.003 -1.3173 -0.4088  0.5504
 6595SOL    HW231422   2.113   1.291   2.145  1.5418 -1.1512  1.2536
 6596SOL     OW31423   3.651   0.287   2.015 -0.4588 -0.4681 -0.2920
 6596SOL    HW131424   3.642   0.198   2.049 -0.7004 -0.0645  0.6867
 6596SOL    HW231425   3.562   0.310   1.990 -0.0263  0.4466 -1.0284
 6597SOL     OW31426   3.486   0.763   6.414  0.6221  0.3528 -0.5165
 6597SOL    HW131427   3.549   0.779   6.344  2.3244 -0.7137  0.7624
 6597SOL    HW231428   3.514   0.824   6.482 -1.4860  0.9993 -0.2400
 6598SOL     OW31429   3.787   0.762   6.582  0.1777 -0.2589  0.2207
 6598SOL    HW131430   3.715   0.820   6.559  0.4278  1.1878  3.1430
 6598SOL    HW231431   3.790   0.702   6.507  0.3880 -0.4799  0.4024
 6599SOL     OW31432   0.716   2.655   8.458 -0.2405  0.1930 -0.1488
 6599SOL    HW131433   0.748   2.628   8.372 -2.3975 -1.2977 -0.4718
 6599SOL    HW231434   0.638   2.601   8.468 -0.4119  0.7610  1.6271
 6600SOL     OW31435   3.970   3.806   8.124  0.3233 -0.0041  0.3653
 6600SOL    HW131436   3.967   3.826   8.030  1.0209 -0.6942  0.1999
 6600SOL    HW231437   3.887   3.846   8.151 -1.0351 -1.4717 -1.5438
 6601SOL     OW31438   1.095   0.433  10.370 -0.4640 -0.2458  0.2305
 6601SOL    HW131439   1.090   0.508  10.430 -0.8080  0.0360 -0.1519
 6601SOL    HW231440   1.027   0.378  10.410 -0.2838 -0.8378 -0.2827
 6602SOL     OW31441   1.641   1.626   9.777  0.3366 -0.2787 -0.0555
 6602SOL    HW131442   1.658   1.559   9.843 -0.9245  1.2396  1.8153
 6602SOL    HW231443   1.726   1.669   9.764  1.0280 -1.8261 -0.5868
 6603SOL     OW31444   4.133   1.354  13.651 -0.0250  0.0803  0.5204
 6603SOL    HW131445   4.086   1.331  13.731  2.3148 -0.3427  1.7612
 6603SOL    HW231446   4.071   1.416  13.611 -2.2720 -1.3909  1.7046
 6604SOL     OW31447   3.292   2.601  15.876 -0.0548  0.3975 -0.1775
 6604SOL    HW131448   3.226   2.605  15.806 -1.4282 -0.5071  1.0641
 6604SOL    HW231449   3.297   2.690  15.910 -2.5709  0.7068 -0.6079
 6605SOL     OW31450   4.059   4.373   6.713 -0.1937 -0.2811 -0.4160
 6605SOL    HW131451   4.152   4.380   6.690 -0.5122  0.1067 -1.6136
 6605SOL    HW231452   4.025   4.457   6.684  1.1027  0.0413 -1.0017
 6606SOL     OW31453   1.647   2.196  13.836  0.6709  1.0359 -0.1035
 6606SOL    HW131454   1.655   2.284  13.799  0.5171  1.5055  0.9897
 6606SOL    HW231455   1.713   2.200  13.904 -0.2947  1.4727  0.8033
 6607SOL     OW31456   0.650   0.722   2.290 -0.2793  0.0844  0.0240
 6607SOL    HW131457   0.573   0.670   2.311 -0.2548  0.2864  0.5967
 6607SOL    HW231458   0.611   0.766   2.214 -0.5941 -0.3740 -0.0808
 6608SOL     OW31459   2.153   0.355  16.836 -0.3909  0.4511  0.3998
 6608SOL    HW131460   2.161   0.327  16.745 -2.1883  1.6876 -0.1370
 6608SOL    HW231461   2.181   0.446  16.843 -1.6242  0.8809 -0.2044
 6609SOL     OW31462   0.826   3.585   6.501  0.0132 -0.2813  0.0996
 6609SOL    HW131463   0.751   3.617   6.551  0.7580  1.1703  0.2881
 6609SOL    HW231464   0.782   3.554   6.422 -2.4568  2.1412  0.5044
 6610SOL     OW31465   3.039   4.729   1.100  0.9146 -0.3378 -0.0603
 6610SOL    HW131466   3.037   4.691   1.188 -1.2857  1.9172  0.8578
 6610SOL    HW231467   2.945   0.005   1.086  0.8010 -0.6081  0.5093
 6611SOL     OW31468   4.094   3.906  14.141 -0.1970  0.8355 -0.1703
 6611SOL    HW131469   4.011   3.873  14.108  0.0517 -1.3468  1.3863
 6611SOL    HW231470   4.157   3.901  14.069  0.7973 -0.3761  0.7709
 6612SOL     OW31471   2.792   2.628   3.857  0.2003  0.2130 -0.1820
 6612SOL    HW131472   2.747   2.708   3.885  0.6330  0.1528  0.7019
 6612SOL    HW231473   2.785   2.633   3.762  0.2446 -0.9308 -0.2536
 6613SOL     OW31474   3.386   0.965   4.998 -0.1562 -0.2316  0.1512
 6613SOL    HW131475   3.363   0.949   4.907 -0.9341  0.3481  0.2522
 6613SOL    HW231476   3.415   1.055   4.983 -2.6182  0.4775 -0.1897
 6614SOL     OW31477   4.508   4.132  11.467  0.0067  0.3467 -0.0196
 6614SOL    HW131478   4.435   4.072  11.448  0.3404 -1.3394  3.8747
 6614SOL    HW231479   4.547   4.076  11.534  0.6136 -1.4037 -1.8470
 6615SOL     OW31480   3.118   0.280  16.496 -0.3924  0.2325 -0.9466
 6615SOL    HW131481   3.167   0.256  16.418 -1.0270 -1.3252 -0.8638
 6615SOL    HW231482   3.035   0.301  16.453 -0.3992  2.2518  0.0756
 6616SOL     OW31483   0.887   4.095   2.129  0.5413  0.5775 -0.5117
 6616SOL    HW131484   0.940   4.050   2.063  0.6822  0.8108 -0.5564
 6616SOL    HW231485   0.807   4.111   2.079  0.0069 -0.1818  0.1080
 6617SOL     OW31486   1.204   1.620   2.690  0.5006  0.4920 -0.4382
 6617SOL    HW131487   1.265   1.555   2.725  0.0375 -0.0369 -0.6123
 6617SOL    HW231488   1.233   1.709   2.709  1.2444  0.3875 -1.0703
 6618SOL     OW31489   4.312   0.153   1.310  0.1643 -0.2121 -0.2767
 6618SOL    HW131490   4.407   0.148   1.301  0.0639 -0.8862 -0.9957
 6618SOL    HW231491   4.297   0.101   1.389  3.3801  0.3228  0.6901
 6619SOL     OW31492   1.820   2.096   4.112  0.5481  0.2087 -0.3635
 6619SOL    HW131493   1.777   2.075   4.029 -0.6416 -4.0428  1.3014
 6619SOL    HW231494   1.899   2.140   4.082  1.5873 -0.9318  0.7074
 6620SOL     OW31495   2.083   2.048   7.416  0.3446 -0.0155  0.2831
 6620SOL    HW131496   2.148   1.989   7.456  0.2760  0.2603  0.8028
 6620SOL    HW231497   2.041   1.994   7.349  0.6542  1.5737 -1.1876
 6621SOL     OW31498   4.606   3.639  15.803 -0.1782 -0.5013  0.1166
 6621SOL    HW131499   4.629   3.587  15.725  2.5568  1.6286 -0.5063
 6621SOL    HW231500   4.515   3.654  15.778 -0.7885 -0.0943  2.6288
 6622SOL     OW31501   3.501   0.985   2.357 -0.3134 -0.3549  0.3457
 6622SOL    HW131502   3.540   0.937   2.430  1.1268  1.8376  1.0199
 6622SOL    HW231503   3.423   1.013   2.406  1.0246  2.4302  0.8602
 6623SOL     OW31504   4.220   0.125  13.888 -0.6555 -0.7859  0.4339
 6623SOL    HW131505   4.150   0.167  13.838  2.1145  3.5516  0.2681
 6623SOL    HW231506   4.288   0.191  13.880  1.1236 -2.8146 -0.9937
 6624SOL     OW31507   3.079   1.222   7.050 -0.1886  0.2746 -0.1684
 6624SOL    HW131508   3.093   1.308   7.091 -0.2442  0.0854  0.2422
 6624SOL    HW231509   2.998   1.188   7.087  1.1554 -1.5251  1.0930
 6625SOL     OW31510   0.035   2.209  17.243 -0.0533 -0.4464  0.4144
 6625SOL    HW131511   0.020   2.176  17.331  1.4636  1.8965  1.5575
 6625SOL    HW231512   4.718   2.290  17.249 -0.8588 -0.9589  0.3678
 6626SOL     OW31513   0.824   2.189   1.699 -0.0894  0.2089  0.5767
 6626SOL    HW131514   0.761   2.122   1.672  1.3326 -0.6824 -0.5113
 6626SOL    HW231515   0.795   2.259   1.640  3.2599  1.7315  0.6963
 6627SOL     OW31516   2.832   2.217   7.108 -0.0817 -0.5751 -0.6586
 6627SOL    HW131517   2.740   2.230   7.131  0.2267 -0.3171  0.4290
 6627SOL    HW231518   2.830   2.133   7.063 -0.4969 -0.6972 -0.4081
 6628SOL     OW31519   3.425   4.319   3.137 -0.0541  0.4770  0.8824
 6628SOL    HW131520   3.509   4.275   3.144  0.7791  2.5678  3.9941
 6628SOL    HW231521   3.377   4.291   3.215  0.8230  0.3613  1.3783
 6629SOL     OW31522   0.054   1.140   0.957  0.0542  0.4422 -0.6514
 6629SOL    HW131523   0.105   1.221   0.966  0.0581  0.3545  0.1310
 6629SOL    HW231524   0.014   1.157   0.872 -1.7071 -0.8997 -0.0793
 6630SOL     OW31525   0.491   4.305   4.849 -0.1556  0.4844  0.0104
 6630SOL    HW131526   0.580   4.286   4.877 -0.4120  0.5615  0.8634
 6630SOL    HW231527   0.496   4.385   4.796  1.9766  0.0350 -0.4599
 6631SOL     OW31528   3.661   3.548   2.441  0.2412 -0.0891  0.4927
 6631SOL    HW131529   3.742   3.537   2.391 -0.0168  0.6185 -0.0819
 6631SOL    HW231530   3.627   3.459   2.450  0.9148 -0.4295 -0.3108
 6632SOL     OW31531   3.985   3.602   3.066 -0.0351  0.3014  0.1116
 6632SOL    HW131532   3.945   3.561   2.989 -0.1140 -0.2887  0.4622
 6632SOL    HW231533   3.992   3.529   3.128 -0.8652  1.6590  1.8151
 6633SOL     OW31534   2.264   1.568   9.212 -0.3747 -0.1677  0.3716
 6633SOL    HW131535   2.257   1.477   9.243  2.0866 -0.5897 -0.2992
 6633SOL    HW231536   2.204   1.614   9.270 -0.1995 -1.5863  1.6943
 6634SOL     OW31537   0.003   0.948  13.768  0.0297 -0.2657 -0.4723
 6634SOL    HW131538   4.716   1.033  13.807 -0.2693  0.3365 -1.9625
 6634SOL    HW231539   4.697   0.884  13.826  0.8304  0.3696  0.8126
 6635SOL     OW31540   4.569   0.702  11.064 -0.2376 -0.1435  0.0056
 6635SOL    HW131541   4.657   0.702  11.101  0.1667  0.5147 -0.9342
 6635SOL    HW231542   4.554   0.795  11.079 -2.3999 -0.6829  1.0779
 6636SOL     OW31543   0.679   2.098   6.333  0.1480  0.0227 -0.3660
 6636SOL    HW131544   0.635   2.023   6.373 -1.6734  0.4566 -1.5583
 6636SOL    HW231545   0.673   2.080   6.239 -0.2460 -1.3233 -0.0926
 6637SOL     OW31546   4.501   3.640   7.457  0.2082  0.0225  0.2169
 6637SOL    HW131547   4.479   3.719   7.408 -1.7870 -1.0538 -0.6554
 6637SOL    HW231548   4.435   3.645   7.526 -1.2988  0.4837 -1.2636
 6638SOL     OW31549   1.920   1.316  11.027 -0.2499  0.9620 -0.1053
 6638SOL    HW131550   1.884   1.228  11.037 -1.8446  1.6986  0.5880
 6638SOL    HW231551   1.850   1.364  10.982 -0.0151  0.3125 -1.1778
 6639SOL     OW31552   0.069   1.992   1.067  0.5490  0.3024  0.6284
 6639SOL    HW131553   0.107   2.035   1.143  0.3202  1.5178  0.0619
 6639SOL    HW231554   0.040   2.062   1.009  0.7637 -0.4479 -0.3920
 6640SOL     OW31555   1.290   3.009  15.616 -0.3061 -0.1529  0.1441
 6640SOL    HW131556   1.360   2.970  15.564 -0.9164  0.7165 -1.3459
 6640SOL    HW231557   1.313   2.979  15.704  0.5542  1.6242  0.5274
 6641SOL     OW31558   3.767   2.731   8.892  0.1644  0.6621  0.3104
 6641SOL    HW131559   3.803   2.658   8.842  0.3536  1.5303 -0.8232
 6641SOL    HW231560   3.697   2.774   8.843 -1.7156 -0.3673  2.1367
 6642SOL     OW31561   0.879   4.589   6.673  0.2061 -0.0879 -0.5528
 6642SOL    HW131562   0.931   4.510   6.660 -0.1028 -0.1342 -1.5011
 6642SOL    HW231563   0.939   4.659   6.649  1.2700 -0.3704  1.3027
 6643SOL     OW31564   3.484   0.156   2.685 -0.2981 -0.0740  0.2899
 6643SOL    HW131565   3.413   0.191   2.740 -2.0718 -1.1320 -1.3040
 6643SOL    HW231566   3.559   0.157   2.745 -0.7358 -0.4712  0.8521
 6644SOL     OW31567   2.344   0.938   5.212 -0.0368 -0.3609 -0.3872
 6644SOL    HW131568   2.383   1.025   5.209 -0.9002 -0.0225 -1.8547
 6644SOL    HW231569   2.378   0.898   5.292  2.6631  0.9906 -0.8672
 6645SOL     OW31570   2.470   3.898  13.275  0.2826 -0.2827  0.1977
 6645SOL    HW131571   2.499   3.961  13.209  0.7941  0.9775  1.6199
 6645SOL    HW231572   2.379   3.882  13.249  0.0738 -0.9553  1.3589
 6646SOL     OW31573   0.113   1.606   7.984  0.6819 -1.0601 -0.0450
 6646SOL    HW131574   0.082   1.534   7.930 -3.0831  1.4939 -1.3129
 6646SOL    HW231575   0.139   1.668   7.916 -0.1951 -0.2190  0.3693
 6647SOL     OW31576   3.104   1.646   9.767 -0.2000  0.0478 -0.2798
 6647SOL    HW131577   3.073   1.638   9.856 -1.1266  1.3543 -0.4781
 6647SOL    HW231578   3.199   1.636   9.777 -0.6294 -1.8483  1.5784
 6648SOL     OW31579   0.469   2.443   2.971 -0.1062  0.0804  0.4186
 6648SOL    HW131580   0.388   2.429   3.020  0.4530 -1.1023  1.0050
 6648SOL    HW231581   0.441   2.525   2.930 -2.6503 -2.0408 -2.0841
 6649SOL     OW31582   3.276   0.349   1.342 -0.0250 -0.3419 -0.2029
 6649SOL    HW131583   3.344   0.383   1.284 -0.0533 -2.8826 -1.7204
 6649SOL    HW231584   3.327   0.285   1.392 -0.3071 -0.4249 -0.0205
 6650SOL     OW31585   4.201   1.913   5.050  0.1122 -0.4120  0.2649
 6650SOL    HW131586   4.183   2.003   5.078 -1.5183 -0.3402 -0.9736
 6650SOL    HW231587   4.121   1.888   5.004  0.8038 -1.1249 -0.5363
 6651SOL     OW31588   1.070   1.398   4.237  0.0933 -0.2265  0.1297
 6651SOL    HW131589   1.080   1.476   4.183  0.6769 -0.3545  0.0589
 6651SOL    HW231590   1.102   1.429   4.321  0.1321 -0.8430  0.3421
 6652SOL     OW31591   3.565   1.837   1.932  1.0373 -0.0586  0.2288
 6652SOL    HW131592   3.621   1.848   1.855  0.9429  1.6027  0.4094
 6652SOL    HW231593   3.600   1.753   1.962 -1.7234 -1.2199  0.2690
 6653SOL     OW31594   4.269   0.805  16.594 -0.2574  0.1181  0.1022
 6653SOL    HW131595   4.241   0.716  16.615  1.5093 -0.5460 -0.3300
 6653SOL    HW231596   4.320   0.828  16.671  0.5021 -0.4400 -0.2318
 6654SOL     OW31597   2.680   1.287   3.541 -0.6282  0.4243  0.3188
 6654SOL    HW131598   2.721   1.201   3.528  0.3515  0.9641 -0.1794
 6654SOL    HW231599   2.677   1.313   3.449  1.4558 -0.8214 -0.0969
 6655SOL     OW31600   3.848   0.622   2.496  0.0706  0.2771 -0.9888
 6655SOL    HW131601   3.903   0.589   2.425 -0.7738 -1.2554 -0.9308
 6655SOL    HW231602   3.755   0.610   2.477  0.5826 -2.5994 -1.6924
 6656SOL     OW31603   0.695   1.292   7.128 -0.4130 -0.2628  0.1608
 6656SOL    HW131604   0.722   1.244   7.206 -1.5826 -1.3256 -0.0810
 6656SOL    HW231605   0.611   1.253   7.104 -0.1361 -0.2687 -0.7936
 6657SOL     OW31606   2.775   3.959  14.950  0.2115  0.5385 -0.6818
 6657SOL    HW131607   2.777   4.053  14.965 -0.2905  0.3607  0.4651
 6657SOL    HW231608   2.698   3.955  14.893 -1.9556 -2.4916  2.5123
 6658SOL     OW31609   2.558   1.912   0.882 -0.5232 -0.6026 -0.3100
 6658SOL    HW131610   2.644   1.887   0.916  0.3057 -0.6184 -2.4461
 6658SOL    HW231611   2.556   1.849   0.810 -2.5120 -0.9488  0.0379
 6659SOL     OW31612   1.498   2.879   1.683 -0.3179  0.4702 -0.0300
 6659SOL    HW131613   1.591   2.891   1.704 -0.2402  0.5877 -0.4409
 6659SOL    HW231614   1.493   2.885   1.587  2.8127  0.9791 -0.1786
 6660SOL     OW31615   2.451   1.333   8.721 -0.4711 -0.3753 -0.0699
 6660SOL    HW131616   2.474   1.384   8.644 -2.2554  2.2213  1.1096
 6660SOL    HW231617   2.407   1.258   8.681  2.5613 -1.4448 -1.4216
 6661SOL     OW31618   2.921   1.207  16.347 -0.0297 -1.2099  0.0787
 6661SOL    HW131619   2.946   1.152  16.273  1.6391 -0.2203 -0.1004
 6661SOL    HW231620   3.001   1.192  16.397  1.0265  1.4798 -0.7807
 6662SOL     OW31621   3.275   0.016   9.753 -0.3740  0.2654 -0.6220
 6662SOL    HW131622   3.237   0.079   9.815 -0.1215 -1.2871  1.1243
 6662SOL    HW231623   3.196   4.708   9.720 -0.8842  2.4654 -2.2276
 6663SOL     OW31624   4.601   4.662   1.335  0.2813  0.0122 -0.0695
 6663SOL    HW131625   4.543   4.600   1.289 -0.0994  0.7488 -0.6013
 6663SOL    HW231626   4.668   4.671   1.267 -0.4148  0.3740 -0.7210
 6664SOL     OW31627   2.783   1.461   4.979 -0.1537  0.0968  0.0294
 6664SOL    HW131628   2.861   1.430   4.934 -0.9191  0.9609 -1.8819
 6664SOL    HW231629   2.720   1.399   4.943  1.9881 -2.0719  0.0396
 6665SOL     OW31630   0.559   3.563   8.613  0.1927 -0.0386  0.0686
 6665SOL    HW131631   0.632   3.547   8.672  1.3596  1.9379 -0.8277
 6665SOL    HW231632   0.580   3.653   8.588  0.2928  0.5486  2.3483
 6666SOL     OW31633   3.507   0.972   5.243  0.1239  0.0180 -0.1285
 6666SOL    HW131634   3.470   0.956   5.157  1.3208 -0.7042 -0.5169
 6666SOL    HW231635   3.449   1.043   5.271 -0.7255 -0.4833 -0.6662
 6667SOL     OW31636   2.674   0.541  16.599 -0.0630  0.4608 -0.0868
 6667SOL    HW131637   2.742   0.579  16.543 -2.6268  0.6057 -3.1257
 6667SOL    HW231638   2.695   0.576  16.686  0.2115  0.1476 -0.0286
 6668SOL     OW31639   4.103   3.665   6.282 -0.3875  0.3396  0.3000
 6668SOL    HW131640   4.073   3.654   6.373  0.6200 -0.2648  0.5618
 6668SOL    HW231641   4.187   3.619   6.284 -1.3752 -1.4918  0.1554
 6669SOL     OW31642   2.140   0.476   8.348 -0.1701  0.3712  0.1542
 6669SOL    HW131643   2.126   0.382   8.350 -0.7331  0.4636  0.6021
 6669SOL    HW231644   2.054   0.502   8.314 -0.1499 -0.1157 -0.2625
 6670SOL     OW31645   0.491   1.544   3.345 -0.0183 -0.9561  0.5504
 6670SOL    HW131646   0.480   1.562   3.438 -3.7130 -0.0163 -0.0360
 6670SOL    HW231647   0.424   1.476   3.337 -2.6916  1.7881 -0.3470
 6671SOL     OW31648   2.018   0.216   4.497  0.4280  0.6057 -0.2011
 6671SOL    HW131649   1.939   0.263   4.469  0.9429 -0.6380 -3.8144
 6671SOL    HW231650   2.086   0.282   4.487  1.2583  0.5459  5.1538
 6672SOL     OW31651   0.049   0.378   2.176 -0.1314 -0.8369  0.1861
 6672SOL    HW131652   4.693   0.348   2.173 -0.2861 -0.2588 -0.6845
 6672SOL    HW231653   0.094   0.294   2.169  1.3668  0.0169 -0.5696
 6673SOL     OW31654   0.557   4.186  15.529 -0.1193  0.5444 -0.5083
 6673SOL    HW131655   0.603   4.260  15.568 -1.1016  0.8097  0.1231
 6673SOL    HW231656   0.618   4.169  15.456 -0.0603  2.3804 -0.8714
 6674SOL     OW31657   1.060   1.533   1.994  0.5371 -0.3511  0.2963
 6674SOL    HW131658   0.983   1.545   2.050  0.2200  1.4471 -0.5176
 6674SOL    HW231659   1.123   1.552   2.063 -0.7461 -2.1128  1.9451
 6675SOL     OW31660   0.389   2.208   9.321 -0.1564 -0.0350 -0.0683
 6675SOL    HW131661   0.463   2.166   9.277  0.6135 -0.9179  2.0467
 6675SOL    HW231662   0.435   2.206   9.405  0.0670 -1.9051 -0.2305
 6676SOL     OW31663   1.116   4.064   2.629  0.5404 -0.4709 -0.0794
 6676SOL    HW131664   1.033   4.091   2.670  0.3127 -1.1533 -0.1018
 6676SOL    HW231665   1.093   4.075   2.537  0.9799  2.1463  0.1037
 6677SOL     OW31666   3.348   1.822   6.658  0.1420 -0.2612 -0.4902
 6677SOL    HW131667   3.413   1.881   6.694  0.5329  0.6010 -2.6060
 6677SOL    HW231668   3.262   1.846   6.693  0.8462 -0.1430  1.1192
 6678SOL     OW31669   4.717   0.762   7.907 -0.3493 -0.0287  0.1790
 6678SOL    HW131670   4.652   0.757   7.976 -2.2341  3.0942 -1.3705
 6678SOL    HW231671   4.666   0.725   7.835  0.0007  2.7944 -1.5342
 6679SOL     OW31672   3.790   4.491   5.663  0.8347  0.1957  0.1242
 6679SOL    HW131673   3.826   4.545   5.592  0.7737  0.2370  0.1245
 6679SOL    HW231674   3.749   4.555   5.721  2.6320  0.6778  0.8781
 6680SOL     OW31675   3.921   1.952  10.291 -0.1930 -0.0778  0.2218
 6680SOL    HW131676   3.860   1.881  10.270  2.6265 -1.5080 -3.1133
 6680SOL    HW231677   4.002   1.911  10.262  0.4514  0.9167  0.6376
 6681SOL     OW31678   2.717   1.482   7.793  1.0002 -0.1194  0.3796
 6681SOL    HW131679   2.712   1.495   7.887  0.3918  0.2030  0.3082
 6681SOL    HW231680   2.644   1.423   7.771  0.5540  0.8034 -0.6267
 6682SOL     OW31681   4.481   1.954   6.540  0.1656  0.4616 -0.1680
 6682SOL    HW131682   4.486   2.036   6.591  0.6886  1.3889 -1.7229
 6682SOL    HW231683   4.388   1.959   6.518  0.1940 -1.7405 -0.7493
 6683SOL     OW31684   3.592   2.346  17.705  0.0758  0.2561  0.7853
 6683SOL    HW131685   3.658   2.413  17.724 -0.0461  0.7874 -0.6732
 6683SOL    HW231686   3.625   2.310  17.623 -2.4583  0.0136 -0.1302
 6684SOL     OW31687   0.964   3.054   4.167 -0.1394  0.0581  0.4149
 6684SOL    HW131688   0.893   3.084   4.110 -1.5090  0.9932  2.6332
 6684SOL    HW231689   1.044   3.067   4.116  0.9972 -0.1509  2.1555
 6685SOL     OW31690   4.295   1.279   6.352  0.3703  0.2832 -0.4145
 6685SOL    HW131691   4.273   1.335   6.277  1.3047 -1.4206 -1.9554
 6685SOL    HW231692   4.375   1.325   6.380 -1.3236  1.1551  2.9258
 6686SOL     OW31693   2.605   0.746  17.400 -0.2768 -0.2491 -0.3282
 6686SOL    HW131694   2.629   0.744  17.493  0.4695  0.2796 -0.5098
 6686SOL    HW231695   2.646   0.663  17.376  1.0152  0.5900 -0.9813
 6687SOL     OW31696   4.423   0.799   1.058  0.8551 -0.4610 -0.2586
 6687SOL    HW131697   4.499   0.830   1.010  0.6100  0.4001 -0.0786
 6687SOL    HW231698   4.398   0.881   1.099 -0.2310 -0.3976 -1.0443
 6688SOL     OW31699   0.686   0.546   9.952  0.4169  0.5733  0.8683
 6688SOL    HW131700   0.698   0.496   9.871 -1.3699  0.0648  0.9160
 6688SOL    HW231701   0.770   0.528   9.994  0.8080  0.6168  0.1018
 6689SOL     OW31702   3.262   2.573   0.394 -0.4975 -0.2177 -0.5740
 6689SOL    HW131703   3.192   2.574   0.329 -0.2574  0.1476 -0.8237
 6689SOL    HW231704   3.218   2.526   0.465  0.5600  0.9649  0.8614
 6690SOL     OW31705   4.002   2.281  14.659  0.4065  0.4043 -0.3706
 6690SOL    HW131706   3.949   2.209  14.625  0.7129  0.3492 -0.7293
 6690SOL    HW231707   4.013   2.271  14.754  0.2429  0.0146 -0.3940
 6691SOL     OW31708   2.927   0.768  10.868 -0.0214 -0.4860  0.5746
 6691SOL    HW131709   3.008   0.800  10.826 -1.3210  0.1257 -1.4693
 6691SOL    HW231710   2.871   0.773  10.791  1.0961 -1.4755 -0.3095
 6692SOL     OW31711   4.429   3.795  13.564  0.0619 -0.1507  0.1681
 6692SOL    HW131712   4.346   3.756  13.593  0.5026  0.9143  2.8695
 6692SOL    HW231713   4.452   3.840  13.646  1.4322  3.0922 -1.9846
 6693SOL     OW31714   1.699   0.002   5.197 -0.0055  0.0108 -0.4662
 6693SOL    HW131715   1.639   0.039   5.133  0.4923 -0.2896 -1.1052
 6693SOL    HW231716   1.640   0.003   5.272 -1.6128  1.6143 -1.7560
 6694SOL     OW31717   1.224   0.887   4.688  0.1137 -0.6537 -0.0500
 6694SOL    HW131718   1.255   0.958   4.633 -1.7550  0.1234 -0.1149
 6694SOL    HW231719   1.230   0.929   4.774  0.9737 -1.6046  0.3505
 6695SOL     OW31720   2.158   2.628  12.371  0.2413 -0.3405 -0.1850
 6695SOL    HW131721   2.228   2.688  12.399 -0.5927  1.2501 -1.5569
 6695SOL    HW231722   2.183   2.564  12.438  0.2454  0.1996  0.3318
 6696SOL     OW31723   3.983   4.186   7.472  0.1818  0.2969 -0.1979
 6696SOL    HW131724   3.897   4.182   7.429  0.1284 -1.9759  0.1409
 6696SOL    HW231725   3.996   4.281   7.473  2.1626  0.0135  0.5434
 6697SOL     OW31726   2.957   4.276   2.756 -0.2874  0.1852 -0.2094
 6697SOL    HW131727   2.912   4.273   2.671  0.3575  3.5272 -0.6820
 6697SOL    HW231728   2.914   4.357   2.783 -2.0523 -0.6952 -0.4335
 6698SOL     OW31729   2.307   3.729  10.936  0.2067  0.7782 -0.1441
 6698SOL    HW131730   2.233   3.735  10.877  1.5258  2.5633 -1.6236
 6698SOL    HW231731   2.307   3.821  10.960 -2.0640  0.1906  2.1040
 6699SOL     OW31732   3.832   2.163  12.724 -0.5631  0.2862 -0.1382
 6699SOL    HW131733   3.859   2.244  12.680 -0.6621  0.4157  0.0426
 6699SOL    HW231734   3.893   2.168  12.796 -0.1326 -2.4880 -0.3187
 6700SOL     OW31735   2.223   1.688   8.581  0.8975  0.3243 -0.2269
 6700SOL    HW131736   2.250   1.757   8.641 -2.0564  0.1362  1.3361
 6700SOL    HW231737   2.157   1.642   8.632 -1.9804  2.9747 -1.5596
 6701SOL     OW31738   1.503   3.637   3.845 -0.1929  0.2738  0.0451
 6701SOL    HW131739   1.440   3.637   3.918  0.1771  0.4543  0.3645
 6701SOL    HW231740   1.565   3.707   3.863  2.7667 -2.0446 -1.2144
 6702SOL     OW31741   3.781   0.903   2.382 -0.3393 -0.1029  0.1998
 6702SOL    HW131742   3.760   0.901   2.288  1.7017  1.3737 -0.2779
 6702SOL    HW231743   3.827   0.819   2.387  0.8257  0.4366 -1.3091
 6703SOL     OW31744   2.302   1.087  14.326  0.2996 -0.0106  0.7225
 6703SOL    HW131745   2.324   1.103  14.234  1.0096  2.2281  1.2891
 6703SOL    HW231746   2.213   1.053  14.315  0.2006  0.8092 -0.9449
 6704SOL     OW31747   4.354   2.927  10.577 -0.2685 -0.0647  0.4125
 6704SOL    HW131748   4.396   3.012  10.569 -2.6891  1.0823 -0.1466
 6704SOL    HW231749   4.381   2.879  10.499 -0.3469  0.5889 -0.0190
 6705SOL     OW31750   3.734   1.550   1.050  0.2247 -0.3771  0.2100
 6705SOL    HW131751   3.758   1.482   1.113  1.8795  0.1702  0.1732
 6705SOL    HW231752   3.747   1.627   1.104  2.4131 -0.8521  0.3431
 6706SOL     OW31753   2.065   2.297   6.798 -0.1379 -0.1040 -0.6483
 6706SOL    HW131754   2.113   2.309   6.880 -1.4760 -1.3543  0.3395
 6706SOL    HW231755   2.115   2.363   6.751 -0.3293  3.2223  3.7821
 6707SOL     OW31756   0.460   3.349  15.816 -0.3644 -0.0215 -0.6765
 6707SOL    HW131757   0.501   3.266  15.837  0.2639  0.3417 -0.4613
 6707SOL    HW231758   0.492   3.406  15.886 -1.3089 -1.9713  1.3334
 6708SOL     OW31759   3.779   0.136   2.595  0.0517  0.5975 -0.0284
 6708SOL    HW131760   3.686   0.145   2.578  0.1193 -1.8549 -1.5595
 6708SOL    HW231761   3.781   0.187   2.676 -1.9098  2.2549 -1.0148
 6709SOL     OW31762   2.729   4.230   8.411 -0.5739  0.4683 -0.0526
 6709SOL    HW131763   2.746   4.266   8.498  0.9038 -0.6381  0.1149
 6709SOL    HW231764   2.680   4.152   8.437 -0.8001  0.1562 -1.4280
 6710SOL     OW31765   1.788   3.413   3.231  0.2712 -0.3596 -0.1345
 6710SOL    HW131766   1.836   3.384   3.154  1.2376 -1.2908  0.8128
 6710SOL    HW231767   1.703   3.439   3.196  0.7931 -0.6743 -1.6399
 6711SOL     OW31768   2.605   4.535   3.674  0.2676  0.0297 -0.3386
 6711SOL    HW131769   2.563   4.450   3.665 -1.6886  1.1498 -1.6928
 6711SOL    HW231770   2.628   4.562   3.585 -2.0682  2.1496 -0.2983
 6712SOL     OW31771   3.743   4.323  10.897 -0.4298 -0.2431  0.7817
 6712SOL    HW131772   3.745   4.355  10.987  1.4246  0.8003  0.3720
 6712SOL    HW231773   3.808   4.254  10.889 -1.1293 -0.7336 -0.5801
 6713SOL     OW31774   2.385   4.220   6.538 -0.4935  0.2651  0.3237
 6713SOL    HW131775   2.449   4.255   6.477  1.0453 -0.7319  1.3719
 6713SOL    HW231776   2.346   4.296   6.581 -1.0575  0.3291 -0.3032
 6714SOL     OW31777   3.039   4.661   9.577 -0.0688  0.0608 -0.7500
 6714SOL    HW131778   3.023   4.608   9.499 -0.3160  1.7867 -1.8747
 6714SOL    HW231779   2.964   4.629   9.628  0.4344  0.7311  0.4351
 6715SOL     OW31780   0.225   1.631   3.119 -0.2992 -0.2773  0.4007
 6715SOL    HW131781   0.220   1.538   3.099  1.0296  0.0575 -1.5125
 6715SOL    HW231782   0.236   1.621   3.214 -1.9703 -1.3558  0.4812
 6716SOL     OW31783   3.774   4.685   7.093  0.5504 -0.7319 -0.0834
 6716SOL    HW131784   3.736   0.037   7.075 -1.1264 -1.2621  0.9018
 6716SOL    HW231785   3.710   4.646   7.152 -1.2353 -0.1477 -1.6165
 6717SOL     OW31786   1.656   2.840   4.938  0.0764  0.0790 -0.0618
 6717SOL    HW131787   1.568   2.804   4.927 -0.5922  1.6745  0.0068
 6717SOL    HW231788   1.646   2.919   4.884 -1.8214 -0.5964 -0.6917
 6718SOL     OW31789   4.167   1.362   9.497  0.4120 -0.0354  0.2153
 6718SOL    HW131790   4.144   1.294   9.560  1.9880  0.7696  1.6308
 6718SOL    HW231791   4.143   1.435   9.554 -1.9304 -0.7077  0.1011
 6719SOL     OW31792   3.487   1.930   3.017 -0.2289 -0.0139  0.4895
 6719SOL    HW131793   3.540   1.971   3.086 -0.2074  3.5052 -1.6497
 6719SOL    HW231794   3.540   1.941   2.938 -1.7590 -1.9958 -0.8180
 6720SOL     OW31795   0.320   1.068   9.487  0.1765 -0.1513 -0.4854
 6720SOL    HW131796   0.245   1.050   9.543 -0.3468  0.0675 -1.1220
 6720SOL    HW231797   0.321   0.992   9.430 -0.1864 -1.5139  1.3306
 6721SOL     OW31798   4.024   1.235   5.168 -0.4876 -0.9550  0.3667
 6721SOL    HW131799   3.939   1.234   5.124 -1.1810  0.4101  1.7076
 6721SOL    HW231800   3.994   1.197   5.250  0.9219 -2.8745  0.0042
 6722SOL     OW31801   4.222   1.648   5.117  0.7409 -0.5162 -0.6471
 6722SOL    HW131802   4.222   1.740   5.091 -1.5741 -0.3212  0.0059
 6722SOL    HW231803   4.180   1.606   5.041 -0.9719  1.2750 -0.6952
 6723SOL     OW31804   1.946   4.316   3.929 -0.3245 -0.0418 -0.4631
 6723SOL    HW131805   2.015   4.336   3.866  0.6083 -2.5727 -0.2705
 6723SOL    HW231806   2.000   4.299   4.006 -2.1471  1.2426  1.0863
 6724SOL     OW31807   3.059   3.801   6.901  0.1634 -0.3779  1.1901
 6724SOL    HW131808   3.007   3.743   6.956 -0.6832  0.3646  1.1695
 6724SOL    HW231809   3.056   3.750   6.821 -1.4459 -1.0129  1.6483
 6725SOL     OW31810   3.065   3.865   3.397 -0.3303  0.2356 -0.3740
 6725SOL    HW131811   3.052   3.771   3.380  3.6629 -0.7919  2.1123
 6725SOL    HW231812   3.005   3.905   3.335 -0.0552  1.3420  0.0739
 6726SOL     OW31813   2.808   0.099   3.431  0.0618  0.0021  0.4981
 6726SOL    HW131814   2.878   0.076   3.370 -1.6316 -0.3832 -1.2662
 6726SOL    HW231815   2.828   0.187   3.465 -0.4639  1.2175 -2.3837
 6727SOL     OW31816   1.561   2.864  16.640 -0.1092  0.2838  0.0228
 6727SOL    HW131817   1.549   2.953  16.673  3.4732  0.2354  1.4764
 6727SOL    HW231818   1.480   2.844  16.595 -1.5098  3.7584  1.0730
 6728SOL     OW31819   0.355   2.053   9.621  0.1093 -0.6995 -0.1334
 6728SOL    HW131820   0.450   2.048   9.612  0.1060  1.5246 -1.4184
 6728SOL    HW231821   0.322   1.967   9.593 -0.4661 -0.5199 -0.0107
 6729SOL     OW31822   3.607   0.744   9.784  0.2976 -0.1540  0.6906
 6729SOL    HW131823   3.639   0.711   9.868  1.3051  0.7541  0.6637
 6729SOL    HW231824   3.692   0.759   9.743  0.5876 -1.4704  0.8245
 6730SOL     OW31825   1.682   1.570   4.050  0.2548 -0.0966 -0.1120
 6730SOL    HW131826   1.692   1.481   4.083 -0.9087  0.3953  1.5678
 6730SOL    HW231827   1.671   1.631   4.123 -0.0178 -1.3340  0.8784
 6731SOL     OW31828   0.251   3.860   5.655  0.0099 -0.2753 -0.2983
 6731SOL    HW131829   0.307   3.847   5.579 -1.0864 -1.8731 -0.8230
 6731SOL    HW231830   0.232   3.772   5.689 -0.2539 -1.0902 -2.5955
 6732SOL     OW31831   3.429   0.172   3.357 -0.0247  0.2347 -0.2575
 6732SOL    HW131832   3.469   0.147   3.274 -3.2048 -2.8891 -0.8361
 6732SOL    HW231833   3.394   0.085   3.376 -0.3230  0.4076 -0.0149
 6733SOL     OW31834   4.457   4.718   7.489 -0.1427 -0.9699 -0.5113
 6733SOL    HW131835   4.437   4.624   7.492 -1.5781 -0.7428 -2.5790
 6733SOL    HW231836   4.495   4.723   7.401 -2.3391 -0.0675 -1.4229
 6734SOL     OW31837   2.811   3.521   3.674 -0.4596 -0.0448  0.0151
 6734SOL    HW131838   2.730   3.482   3.641  0.6226 -2.1030 -0.1578
 6734SOL    HW231839   2.871   3.447   3.684  0.5082  0.6545 -0.6064
 6735SOL     OW31840   4.203   4.524  15.208  0.2415 -0.2054  0.0143
 6735SOL    HW131841   4.221   4.436  15.174  0.0665  0.0284 -0.6815
 6735SOL    HW231842   4.248   4.572  15.139 -0.1514  0.5274  0.2732
 6736SOL     OW31843   0.863   4.417   3.940 -0.4823  0.1311 -0.6999
 6736SOL    HW131844   0.947   4.380   3.914 -0.5500 -0.0547 -0.6614
 6736SOL    HW231845   0.818   4.335   3.960 -2.0415  1.1331 -0.1431
 6737SOL     OW31846   3.823   1.515   6.541  0.6506 -0.0202  0.1409
 6737SOL    HW131847   3.823   1.465   6.459  2.1702  0.9383 -0.4536
 6737SOL    HW231848   3.914   1.544   6.548  0.8307 -1.2362  2.7481
 6738SOL     OW31849   0.786   2.125   4.892 -0.0387 -0.2501  0.1149
 6738SOL    HW131850   0.799   2.038   4.930  4.1449  1.3276  2.2772
 6738SOL    HW231851   0.779   2.188   4.963  1.4567  0.1782 -0.1283
 6739SOL     OW31852   0.940   4.116   2.416 -0.3418 -0.6464  0.0657
 6739SOL    HW131853   0.943   4.127   2.322 -0.2626  4.2390  0.6687
 6739SOL    HW231854   0.850   4.119   2.448 -0.9705  0.8306 -1.8624
 6740SOL     OW31855   1.123   4.335   5.001  0.2476 -0.0274  0.3919
 6740SOL    HW131856   1.208   4.372   4.978  0.2378 -0.6465 -0.6426
 6740SOL    HW231857   1.070   4.378   4.934  1.4863 -0.9187 -1.1858
 6741SOL     OW31858   1.791   3.506   5.636  0.4818 -0.2562 -0.3729
 6741SOL    HW131859   1.815   3.593   5.602  0.2383 -0.3112 -0.6858
 6741SOL    HW231860   1.878   3.471   5.658  1.1625  1.0517 -0.9622
 6742SOL     OW31861   2.933   4.043   3.632 -0.3216  0.1173 -0.4163
 6742SOL    HW131862   2.971   4.000   3.555 -1.7775  0.0481 -1.0816
 6742SOL    HW231863   3.009   4.091   3.667 -1.0703  0.3345  0.9161
 6743SOL     OW31864   1.344   3.830   1.641  0.7141 -0.1771 -0.2468
 6743SOL    HW131865   1.280   3.781   1.591 -0.1993 -1.3834  2.1032
 6743SOL    HW231866   1.423   3.822   1.588 -0.1618 -1.8411 -1.2833
 6744SOL     OW31867   2.945   0.336   4.652  0.4660 -0.2731  0.2509
 6744SOL    HW131868   3.024   0.378   4.619 -0.6026  0.7826 -0.9642
 6744SOL    HW231869   2.877   0.391   4.612  1.4180  1.2039  0.6300
 6745SOL     OW31870   4.371   4.316  14.763 -0.8834 -0.3680  0.4175
 6745SOL    HW131871   4.457   4.355  14.779 -0.1671 -2.1788  0.9288
 6745SOL    HW231872   4.400   4.236  14.719 -0.1138  0.9109 -1.4226
 6746SOL     OW31873   3.450   3.593   3.969  0.3489 -0.6853  0.5788
 6746SOL    HW131874   3.514   3.587   4.040 -1.5646 -2.8565  2.0936
 6746SOL    HW231875   3.369   3.582   4.018 -0.7380  0.9124 -0.8224
 6747SOL     OW31876   2.163   1.956   3.280 -0.5062  0.4425  0.4888
 6747SOL    HW131877   2.167   1.892   3.351 -1.7710 -0.3115 -0.1390
 6747SOL    HW231878   2.251   1.941   3.246 -0.8824  0.1922 -0.3574
 6748SOL     OW31879   0.072   0.138   7.438 -0.0468  0.9390 -0.1607
 6748SOL    HW131880   4.733   0.188   7.473 -0.4674  1.8451 -2.3198
 6748SOL    HW231881   0.122   0.128   7.519  0.2597  1.8340 -0.2340
 6749SOL     OW31882   3.072   4.211   6.185  0.1211  0.2680 -0.0399
 6749SOL    HW131883   3.072   4.161   6.266 -0.4759  0.1264 -0.1280
 6749SOL    HW231884   2.978   4.229   6.177  0.2257  1.2399  1.0729
 6750SOL     OW31885   2.325   3.159   6.723 -0.1212 -0.0442  0.1823
 6750SOL    HW131886   2.308   3.216   6.799  3.6676  1.5247 -0.1417
 6750SOL    HW231887   2.305   3.074   6.761  0.9196 -0.6958 -0.7261
 6751SOL     OW31888   4.209   3.514   3.470  0.2657  0.3055 -0.2897
 6751SOL    HW131889   4.151   3.570   3.522  0.7114 -0.9374  1.5378
 6751SOL    HW231890   4.288   3.567   3.484  0.7290 -0.5994  0.4964
 6752SOL     OW31891   2.759   2.410   5.003  0.3869  0.2270  0.7536
 6752SOL    HW131892   2.819   2.418   4.928  1.5147 -0.2770  1.6008
 6752SOL    HW231893   2.705   2.488   4.992  1.9932  1.4986  2.1293
 6753SOL     OW31894   4.644   0.858  14.380 -0.5270  0.0083  0.1376
 6753SOL    HW131895   4.588   0.819  14.313 -0.8063 -0.4778  0.6610
 6753SOL    HW231896   4.615   0.813  14.459  1.9288 -1.1421  0.3874
 6754SOL     OW31897   4.632   0.951  12.304 -0.2362  0.3276  0.0579
 6754SOL    HW131898   4.706   1.009  12.284  0.7258 -0.7132  0.6273
 6754SOL    HW231899   4.662   0.861  12.295  1.4618  0.8834  0.1630
 6755SOL     OW31900   2.770   3.305  15.477  0.3112 -0.1555 -0.4869
 6755SOL    HW131901   2.787   3.399  15.481 -1.3327  0.0683  1.4587
 6755SOL    HW231902   2.684   3.291  15.438 -0.4671  1.7579  0.5392
 6756SOL     OW31903   3.822   2.472   0.063 -0.0185 -0.3651 -0.7057
 6756SOL    HW131904   3.887   2.428   0.118 -1.2594  0.4175  1.3864
 6756SOL    HW231905   3.791   2.544   0.118 -1.3955 -0.0628 -1.8865
 6757SOL     OW31906   2.147   4.095   6.476 -0.3356  0.2987 -0.2987
 6757SOL    HW131907   2.188   4.019   6.436  2.7293  0.1721  3.0664
 6757SOL    HW231908   2.225   4.151   6.483 -0.6573  0.7075  0.0140
 6758SOL     OW31909   0.304   0.390   6.642  0.3193  0.2407 -0.1197
 6758SOL    HW131910   0.226   0.427   6.683  1.0097  2.1779 -0.5386
 6758SOL    HW231911   0.372   0.442   6.685 -0.6286 -1.6411  3.6968
 6759SOL     OW31912   4.162   3.119   5.146  0.3021 -0.0644  0.4066
 6759SOL    HW131913   4.148   3.202   5.192  0.3088 -1.6846  3.3369
 6759SOL    HW231914   4.161   3.149   5.055 -1.6835 -1.1939  0.0479
 6760SOL     OW31915   2.736   2.475   0.256  0.0061  0.4223  0.1874
 6760SOL    HW131916   2.716   2.531   0.181 -1.2719  0.1864  0.3495
 6760SOL    HW231917   2.705   2.392   0.219  3.2895 -0.3911 -0.7521
 6761SOL     OW31918   0.597   2.675   0.885  0.8728  0.1265 -0.3424
 6761SOL    HW131919   0.550   2.752   0.917  0.2440 -0.1132 -0.6680
 6761SOL    HW231920   0.681   2.710   0.855  2.4612 -1.1365  2.7387
 6762SOL     OW31921   3.476   1.173   1.640  0.1260 -0.1761  0.3254
 6762SOL    HW131922   3.459   1.239   1.572  0.3663 -0.9103 -0.4433
 6762SOL    HW231923   3.470   1.101   1.578 -0.0743  0.7556 -0.7367
 6763SOL     OW31924   0.228   0.843   9.685  0.6318  0.0464  0.2617
 6763SOL    HW131925   0.152   0.809   9.639  0.3968  1.6732 -0.5780
 6763SOL    HW231926   0.225   0.810   9.774  1.1213 -0.7796 -0.0230
 6764SOL     OW31927   1.837   2.243   2.996 -0.7684 -0.2089 -0.1904
 6764SOL    HW131928   1.850   2.163   3.046  1.6383  0.2848  0.0130
 6764SOL    HW231929   1.850   2.307   3.066  1.6495 -0.0027 -0.8228
 6765SOL     OW31930   4.209   4.294   5.240  0.2013  0.0825  0.1258
 6765SOL    HW131931   4.283   4.350   5.219 -0.1920  0.8585  0.8164
 6765SOL    HW231932   4.227   4.207   5.204  0.9956  0.2655  0.0978
 6766SOL     OW31933   1.953   1.018   0.408  0.0746 -0.2374 -0.4591
 6766SOL    HW131934   1.926   0.975   0.327 -0.5395 -1.7388  0.5573
 6766SOL    HW231935   1.873   1.004   0.459 -0.4499 -0.5031 -1.3464
 6767SOL     OW31936   2.148   3.940   3.933  0.1303  0.6164 -0.3840
 6767SOL    HW131937   2.091   3.871   3.968 -0.1126  0.5421 -0.9349
 6767SOL    HW231938   2.081   3.993   3.890 -0.6242  0.2667  0.3579
 6768SOL     OW31939   3.947   0.428   9.962  0.2452  0.3413  0.1694
 6768SOL    HW131940   3.963   0.345   9.918 -0.5827 -0.2949  1.0758
 6768SOL    HW231941   3.998   0.427  10.043 -0.3364 -1.1692  0.5106
 6769SOL     OW31942   3.235   3.414   4.633  0.6138 -0.1591 -0.0538
 6769SOL    HW131943   3.318   3.386   4.670  1.2214  2.8640  0.8452
 6769SOL    HW231944   3.262   3.443   4.546 -2.6406  1.0314 -0.6998
 6770SOL     OW31945   1.274   2.979  10.350 -0.1359 -0.4869  0.4367
 6770SOL    HW131946   1.338   2.985  10.421 -0.7603 -1.1656  1.0490
 6770SOL    HW231947   1.275   2.884  10.343  0.8603 -0.4408 -0.1138
 6771SOL     OW31948   1.354   3.341   8.717 -0.0944  0.1836 -0.2912
 6771SOL    HW131949   1.368   3.308   8.805 -2.4139 -1.7325 -0.6472
 6771SOL    HW231950   1.400   3.425   8.724 -1.1370  0.6907  0.4525
 6772SOL     OW31951   1.414   2.558   8.647 -0.5201 -0.4422  0.4672
 6772SOL    HW131952   1.369   2.602   8.575 -1.5725 -2.8568 -0.3206
 6772SOL    HW231953   1.491   2.611   8.665  0.7565 -0.6904 -4.4310
 6773SOL     OW31954   1.155   0.387   7.775 -0.0063 -0.5329 -0.1243
 6773SOL    HW131955   1.076   0.358   7.730 -1.1197 -4.1163  4.1807
 6773SOL    HW231956   1.213   0.387   7.699 -1.0245 -1.2417 -0.9016
 6774SOL     OW31957   2.494   4.083  15.580  0.3164 -0.0345  0.3178
 6774SOL    HW131958   2.415   4.071  15.634  1.2377  2.1168  2.1410
 6774SOL    HW231959   2.523   4.168  15.613 -0.0892  0.3815 -0.3866
 6775SOL     OW31960   1.816   3.023  11.204 -0.0311 -0.1968  0.9307
 6775SOL    HW131961   1.868   3.070  11.270 -0.8124  0.0931  1.3402
 6775SOL    HW231962   1.754   2.970  11.254 -1.1560  0.4374  0.2044
 6776SOL     OW31963   2.150   3.148  13.557 -0.0267  0.0121 -0.9727
 6776SOL    HW131964   2.174   3.237  13.533 -2.4735  0.8332 -0.3618
 6776SOL    HW231965   2.126   3.118  13.469  0.2577 -2.6151 -0.1464
 6777SOL     OW31966   4.601   2.113   2.850  0.1699 -0.0093  0.1968
 6777SOL    HW131967   4.664   2.041   2.845  1.5950  1.2522 -0.0275
 6777SOL    HW231968   4.655   2.188   2.823  0.7915 -0.9947 -1.2891
 6778SOL     OW31969   2.176   1.703   8.989 -0.8011 -0.2754 -0.0261
 6778SOL    HW131970   2.205   1.637   9.052  0.4274 -0.1522 -0.4761
 6778SOL    HW231971   2.122   1.762   9.042  0.5909  0.9673 -0.0134
 6779SOL     OW31972   4.715   4.154   7.012 -0.3963 -0.0844  0.2064
 6779SOL    HW131973   0.057   4.167   6.957  0.8210 -1.9642  1.4524
 6779SOL    HW231974   4.648   4.188   6.953  2.2624 -1.1077 -3.3975
 6780SOL     OW31975   0.591   3.304   6.861  0.2913 -0.0277 -0.0944
 6780SOL    HW131976   0.541   3.381   6.831  1.3306  0.5733 -0.2962
 6780SOL    HW231977   0.660   3.306   6.795  0.5304 -0.5676  0.1407
 6781SOL     OW31978   3.473   0.088   6.753  0.4114  0.6483 -0.6749
 6781SOL    HW131979   3.421   0.047   6.822 -1.7933  3.2180 -0.8200
 6781SOL    HW231980   3.413   0.083   6.679 -0.5712 -0.5430  0.1889
 6782SOL     OW31981   2.970   4.567   6.448  0.5475 -0.4442  0.4543
 6782SOL    HW131982   2.890   4.558   6.499 -0.8416 -0.1530 -1.6972
 6782SOL    HW231983   3.038   4.510   6.484  1.0523 -0.0535  0.1284
 6783SOL     OW31984   1.861   2.878  10.815 -0.2425 -0.0767 -0.8285
 6783SOL    HW131985   1.768   2.896  10.829  0.0663  2.4332 -2.0336
 6783SOL    HW231986   1.864   2.822  10.893  0.6582  1.0055 -0.0686
 6784SOL     OW31987   0.979   1.445   6.737  0.8340  0.3712  0.2803
 6784SOL    HW131988   0.956   1.393   6.814  0.1468  1.7558  1.0142
 6784SOL    HW231989   0.922   1.522   6.733 -1.1673 -1.1176 -0.1592
 6785SOL     OW31990   4.066   2.919   3.287 -0.0706  0.0777 -0.2722
 6785SOL    HW131991   4.087   2.919   3.193  2.6743  2.1959  0.3599
 6785SOL    HW231992   4.150   2.940   3.326 -1.2093  2.9027  0.6206
 6786SOL     OW31993   4.460   4.438   8.034  0.2466 -0.0115 -0.3197
 6786SOL    HW131994   4.408   4.519   8.027  0.1551 -0.0566 -0.1684
 6786SOL    HW231995   4.539   4.454   7.983  1.9799 -1.0916  2.0204
 6787SOL     OW31996   4.204   1.393  11.707  0.2537 -0.6363  0.4859
 6787SOL    HW131997   4.166   1.419  11.623  0.8762  1.4696  0.8588
 6787SOL    HW231998   4.175   1.305  11.733 -0.4462 -0.9648 -1.3923
 6788SOL     OW31999   4.276   0.670   5.259 -0.4763  0.1777  0.4490
 6788SOL    HW132000   4.362   0.659   5.219 -0.8866  1.0109 -0.6614
 6788SOL    HW232001   4.266   0.763   5.241 -0.2607  0.4847  1.9250
 6789SOL     OW32002   1.798   1.520  13.193  0.3436 -0.7053 -0.7651
 6789SOL    HW132003   1.873   1.465  13.216  0.2000 -0.9034 -0.7751
 6789SOL    HW232004   1.821   1.542  13.102  1.4915  0.4853 -0.1897
 6790SOL     OW32005   0.061   1.347  17.106 -0.2984 -0.0568 -0.1799
 6790SOL    HW132006   0.112   1.342  17.025 -1.9616  0.4176 -1.2621
 6790SOL    HW232007   0.091   1.434  17.134 -0.7246  0.1984 -0.5235
 6791SOL     OW32008   0.146   2.740   5.802  0.2203 -0.2971 -0.2647
 6791SOL    HW132009   0.081   2.808   5.822  0.0462  0.2454 -2.6869
 6791SOL    HW232010   0.089   2.670   5.771  1.3084 -0.9891 -0.6989
 6792SOL     OW32011   0.147   2.841  11.869 -0.5271  0.5739 -0.4383
 6792SOL    HW132012   0.101   2.918  11.837 -3.2269 -1.7625 -2.2594
 6792SOL    HW232013   0.192   2.802  11.794 -2.1315  0.5019 -1.3531
 6793SOL     OW32014   0.008   1.294   8.405 -0.3975 -0.2934 -0.5918
 6793SOL    HW132015   0.069   1.353   8.360  1.2816 -2.6969 -1.4425
 6793SOL    HW232016   4.661   1.344   8.416 -0.3135 -0.1037 -0.8334
 6794SOL     OW32017   1.811   0.156   5.546  0.4802  0.2077 -0.0413
 6794SOL    HW132018   1.836   0.105   5.469 -2.7604 -0.1079 -0.8851
 6794SOL    HW232019   1.871   0.119   5.611 -0.4408 -1.5553 -0.1845
 6795SOL     OW32020   1.490   4.266   5.178 -0.2353 -0.6854  0.0125
 6795SOL    HW132021   1.408   4.239   5.218 -0.9906  1.0118 -0.4147
 6795SOL    HW232022   1.477   4.245   5.085 -1.0126  0.1458 -0.0599
 6796SOL     OW32023   3.475   2.850   1.900 -0.4156 -0.5079 -0.4993
 6796SOL    HW132024   3.382   2.831   1.911 -0.1457 -1.8268 -0.5438
 6796SOL    HW232025   3.482   2.945   1.912  2.1439 -0.5659 -1.4901
 6797SOL     OW32026   2.081   1.650  14.996 -0.7689 -0.0218 -0.2139
 6797SOL    HW132027   2.029   1.614  15.067 -0.6050  0.6356  0.2435
 6797SOL    HW232028   2.157   1.595  15.016 -0.3135  1.2963  1.7119
 6798SOL     OW32029   2.437   0.172  15.144 -0.0892  0.0370 -0.5717
 6798SOL    HW132030   2.345   0.176  15.167  0.2259  2.3601  0.3159
 6798SOL    HW232031   2.434   0.117  15.066  0.9643  1.4479 -1.6055
 6799SOL     OW32032   4.185   1.356   3.678  0.0913  0.1465  0.5908
 6799SOL    HW132033   4.200   1.281   3.736  1.7105  0.6913  0.8750
 6799SOL    HW232034   4.244   1.418   3.721 -0.1954  2.2454 -2.0158
 6800SOL     OW32035   4.165   3.833   5.642  0.0870 -0.7834  0.3465
 6800SOL    HW132036   4.159   3.742   5.614 -0.2602 -0.3490 -1.0211
 6800SOL    HW232037   4.192   3.879   5.562  0.2405  0.4246  1.0816
 6801SOL     OW32038   0.863   1.701   6.102 -0.1215  0.1942 -0.1566
 6801SOL    HW132039   0.899   1.727   6.017 -1.1849  2.5070  0.0988
 6801SOL    HW232040   0.779   1.670   6.066 -0.6273  1.0846  0.2554
 6802SOL     OW32041   4.708   0.501  16.486 -0.1071 -0.2697  0.2561
 6802SOL    HW132042   4.656   0.514  16.565 -2.3006  0.1507 -1.2472
 6802SOL    HW232043   4.676   0.572  16.429  2.1181  1.5382  1.2443
 6803SOL     OW32044   2.263   0.954   3.458 -0.0369  0.9266  0.1724
 6803SOL    HW132045   2.291   0.992   3.540 -0.8046  1.3124  0.2590
 6803SOL    HW232046   2.172   0.984   3.453 -0.3135 -0.1175 -1.4643
 6804SOL     OW32047   1.520   4.688   1.935  0.0912  0.3427 -0.4368
 6804SOL    HW132048   1.464   4.662   2.008  0.3662 -0.7622 -0.6259
 6804SOL    HW232049   1.469   4.688   1.854  1.4895  1.8787 -1.3364
 6805SOL     OW32050   2.821   4.086   6.752 -0.0223  0.2944  0.2481
 6805SOL    HW132051   2.906   4.099   6.710 -1.4738  3.1164 -1.8260
 6805SOL    HW232052   2.783   4.017   6.698  2.0593 -0.0112 -0.8197
 6806SOL     OW32053   1.123   2.133   2.651 -0.0918  0.2511  0.2813
 6806SOL    HW132054   1.202   2.185   2.639  0.8680 -1.1479  0.5971
 6806SOL    HW232055   1.100   2.156   2.741 -1.7968  2.4289 -0.6883
 6807SOL     OW32056   3.775   3.563   3.513  0.3260 -0.1532  0.0411
 6807SOL    HW132057   3.747   3.592   3.426 -0.1141 -0.0152  0.2330
 6807SOL    HW232058   3.732   3.478   3.515 -1.8728  0.9752  0.0069
 6808SOL     OW32059   0.363   1.191   0.839  0.7295 -0.1747  0.1517
 6808SOL    HW132060   0.363   1.276   0.797 -1.4035 -0.4586 -0.4293
 6808SOL    HW232061   0.315   1.212   0.920 -1.7821 -1.7135 -0.9596
 6809SOL     OW32062   3.292   1.336  13.789 -0.3043  0.3099 -1.0223
 6809SOL    HW132063   3.273   1.367  13.878  2.6465 -0.2544 -0.2066
 6809SOL    HW232064   3.251   1.250  13.793 -1.0038  0.5824 -2.5217
 6810SOL     OW32065   1.125   0.974   0.947 -0.2579  0.1202  0.3612
 6810SOL    HW132066   1.097   0.891   0.908  1.2672 -1.1326  1.9482
 6810SOL    HW232067   1.186   1.006   0.881 -0.5578 -0.6508 -0.2896
 6811SOL     OW32068   1.602   4.084  17.299  0.3816 -0.1407 -0.5014
 6811SOL    HW132069   1.604   4.173  17.265  0.8457  0.4063  0.9675
 6811SOL    HW232070   1.515   4.056  17.271 -0.8073  0.9054  2.1993
 6812SOL     OW32071   0.977   3.231  11.439  0.5030  1.2001  0.3404
 6812SOL    HW132072   0.982   3.320  11.473 -3.7366  2.1966 -1.6372
 6812SOL    HW232073   1.064   3.190  11.441  0.5415  1.4148  2.6242
 6813SOL     OW32074   2.937   3.070   2.427 -0.5476  0.0525 -0.0775
 6813SOL    HW132075   2.918   3.042   2.338  1.8900 -0.1406 -0.5387
 6813SOL    HW232076   3.029   3.044   2.430  0.0634  2.2133  0.2324
 6814SOL     OW32077   0.194   0.594   2.028 -0.6376 -0.2477  0.6335
 6814SOL    HW132078   0.128   0.561   2.089 -0.4189 -1.3611  0.2837
 6814SOL    HW232079   0.194   0.537   1.951 -3.1615 -0.0823  0.5337
 6815SOL     OW32080   3.878   1.218   2.830  0.4974  0.5551  0.2408
 6815SOL    HW132081   3.836   1.255   2.752 -1.4882 -1.0342  0.5632
 6815SOL    HW232082   3.969   1.205   2.801  0.9219 -3.6503  3.4345
 6816SOL     OW32083   1.569   1.861  13.532  0.1355 -0.1144 -0.4166
 6816SOL    HW132084   1.642   1.897  13.483 -0.5841  0.2617 -1.2155
 6816SOL    HW232085   1.587   1.767  13.535 -3.3665 -0.8077 -0.7471
 6817SOL     OW32086   0.509   1.402  14.635 -0.0676  0.7173  0.2268
 6817SOL    HW132087   0.530   1.494  14.651  2.5140  0.1664  0.0412
 6817SOL    HW232088   0.430   1.406  14.581  0.5806 -0.9157 -0.8342
 6818SOL     OW32089   2.119   3.853  15.570  0.4004  0.1544 -0.2892
 6818SOL    HW132090   2.046   3.822  15.622  2.9751 -0.9380  2.6855
 6818SOL    HW232091   2.126   3.789  15.498 -1.3919 -1.0591  0.6417
 6819SOL     OW32092   3.557   4.191   5.816 -0.4820 -0.2734  0.8583
 6819SOL    HW132093   3.488   4.133   5.785 -0.2803  0.3927 -0.8486
 6819SOL    HW232094   3.606   4.211   5.736 -1.8011 -2.5796 -0.5236
 6820SOL     OW32095   1.770   3.273   9.582  0.3142  0.1782 -0.1303
 6820SOL    HW132096   1.762   3.191   9.631 -2.4464 -0.1929 -1.2557
 6820SOL    HW232097   1.796   3.253   9.492  0.5595 -1.6040  0.3387
 6821SOL     OW32098   2.050   3.003   4.001 -0.4052 -0.1494 -0.1034
 6821SOL    HW132099   1.992   3.074   3.974  0.4430 -0.0270 -1.6354
 6821SOL    HW232100   1.993   2.927   4.002 -1.2672  0.4956 -0.5844
 6822SOL     OW32101   0.649   0.951  10.457  0.3032 -0.0544  0.1681
 6822SOL    HW132102   0.575   0.965  10.515  0.8001  1.5916  0.4079
 6822SOL    HW232103   0.628   0.865  10.421 -0.9519  0.9158 -1.3978
 6823SOL     OW32104   3.580   0.477  13.137  0.1864 -0.3358 -0.0031
 6823SOL    HW132105   3.618   0.450  13.221  3.3828 -0.5194 -1.5413
 6823SOL    HW232106   3.661   0.471  13.087 -0.1038 -0.0808 -0.4996
 6824SOL     OW32107   1.487   2.514   6.652 -0.1793 -0.1583  0.1409
 6824SOL    HW132108   1.435   2.437   6.675 -1.8054  1.2775  1.2500
 6824SOL    HW232109   1.470   2.517   6.558 -0.3199 -1.4153  0.1338
 6825SOL     OW32110   0.626   2.378   7.490 -0.2402  0.4489 -0.2214
 6825SOL    HW132111   0.625   2.425   7.406  1.5546  0.4686 -0.2319
 6825SOL    HW232112   0.716   2.350   7.509 -1.0241 -1.5575  0.5584
 6826SOL     OW32113   3.888   3.934  16.821  0.2143  0.1577 -0.3640
 6826SOL    HW132114   3.807   3.978  16.847  0.3260 -1.1475  2.1737
 6826SOL    HW232115   3.861   3.889  16.741 -0.1134  0.6386 -0.5282
 6827SOL     OW32116   4.599   3.369  17.208  0.2350 -0.4400 -0.2106
 6827SOL    HW132117   4.693   3.375  17.191  0.1541 -1.3021 -0.9627
 6827SOL    HW232118   4.582   3.463  17.200 -0.9988 -0.6348  0.1316
 6828SOL     OW32119   1.597   2.549  16.876  0.5588  0.5190  1.0086
 6828SOL    HW132120   1.515   2.511  16.908  0.3306 -1.2278 -1.6517
 6828SOL    HW232121   1.594   2.528  16.782  0.2434  0.7835  0.9588
 6829SOL     OW32122   1.219   3.584   2.553 -0.4404  0.3334  0.0331
 6829SOL    HW132123   1.127   3.587   2.527 -0.4119 -1.4062 -0.2440
 6829SOL    HW232124   1.238   3.491   2.550  1.2686  0.6815 -0.0908
 6830SOL     OW32125   2.419   3.945   6.696  0.5768  0.5777  0.3121
 6830SOL    HW132126   2.504   3.901   6.686 -0.1651 -1.0496  1.0892
 6830SOL    HW232127   2.449   4.032   6.670 -0.4789  0.7886 -0.2253
 6831SOL     OW32128   1.717   1.343   1.904  0.1748  0.0599 -0.6484
 6831SOL    HW132129   1.683   1.298   1.827 -1.5651  1.0217 -0.4296
 6831SOL    HW232130   1.681   1.431   1.893  0.2258  0.2668  0.8105
 6832SOL     OW32131   0.028   1.268   9.386 -0.0970 -0.5406  0.0696
 6832SOL    HW132132   0.018   1.212   9.464 -1.8979 -0.4447 -0.1076
 6832SOL    HW232133   4.708   1.340   9.418  1.6392 -0.1236  2.1269
 6833SOL     OW32134   0.659   3.013   9.383  0.1965  0.1529  0.1847
 6833SOL    HW132135   0.659   2.956   9.460 -1.5651 -0.3651 -0.2054
 6833SOL    HW232136   0.643   2.948   9.315 -0.9027 -0.4317  1.0017
 6834SOL     OW32137   1.545   2.556   3.513 -0.0804  0.0224 -0.1797
 6834SOL    HW132138   1.589   2.552   3.598  2.1595 -4.3738 -1.5778
 6834SOL    HW232139   1.472   2.617   3.527  0.2378  0.5394 -0.8068
 6835SOL     OW32140   1.861   1.276   0.762  0.2866  0.4529 -0.2483
 6835SOL    HW132141   1.771   1.292   0.736 -1.0343 -1.9001  2.8040
 6835SOL    HW232142   1.912   1.353   0.735 -1.1387  0.8528 -1.7811
 6836SOL     OW32143   1.003   3.658   0.470 -0.1824  0.1588 -0.3365
 6836SOL    HW132144   0.925   3.698   0.507 -0.4426  0.3152 -1.0660
 6836SOL    HW232145   1.060   3.691   0.540 -2.3539  1.3955  0.8414
 6837SOL     OW32146   0.483   0.244   3.805  0.2205 -0.2670  0.7081
 6837SOL    HW132147   0.427   0.195   3.744  0.6471 -2.4761  2.0924
 6837SOL    HW232148   0.565   0.196   3.791  0.8190  1.1232 -0.5613
 6838SOL     OW32149   2.301   0.152   7.557 -0.1119  0.0813  0.1320
 6838SOL    HW132150   2.381   0.147   7.608  2.5604 -1.0865 -4.1279
 6838SOL    HW232151   2.244   0.095   7.608 -1.5940  1.7500  0.3543
 6839SOL     OW32152   0.065   2.120  12.889  0.5626  0.3781 -0.3540
 6839SOL    HW132153   4.730   2.068  12.930  0.0370  2.7294  1.7788
 6839SOL    HW232154   0.044   2.211  12.913 -1.5520  0.3007 -1.9929
 6840SOL     OW32155   2.319   0.155   9.866 -0.2156  0.1037 -0.4105
 6840SOL    HW132156   2.256   0.227   9.871 -0.4886 -0.1014 -0.8816
 6840SOL    HW232157   2.398   0.209   9.873 -1.1959  1.8000 -2.4636
 6841SOL     OW32158   4.088   1.656   4.337 -0.1888 -0.6675  0.5984
 6841SOL    HW132159   4.084   1.634   4.244 -1.6917  2.3802 -0.0391
 6841SOL    HW232160   4.180   1.682   4.342  0.7231 -3.4287 -1.8850
 6842SOL     OW32161   1.668   4.309  13.697  0.3227  0.5849  0.0703
 6842SOL    HW132162   1.681   4.289  13.790  3.9662  0.2852 -0.4995
 6842SOL    HW232163   1.759   4.287  13.678  0.6378  1.4268  0.6241
 6843SOL     OW32164   2.433   2.666  10.301 -0.2188 -0.6026  0.4222
 6843SOL    HW132165   2.486   2.596  10.339 -0.7003  0.1530  2.5029
 6843SOL    HW232166   2.343   2.645  10.327 -1.0580  3.1011  0.4913
 6844SOL     OW32167   3.886   2.165   7.381  0.6749  0.1885  0.1202
 6844SOL    HW132168   3.806   2.142   7.429 -0.4598  2.4370 -0.6652
 6844SOL    HW232169   3.887   2.260   7.371 -0.8830  0.2204  0.2010
 6845SOL     OW32170   4.019   4.174   2.773  0.0424 -0.4263  0.1065
 6845SOL    HW132171   3.977   4.092   2.749 -0.3954 -0.2976  0.4286
 6845SOL    HW232172   3.948   4.233   2.801 -0.4402  0.2095 -2.4427
 6846SOL     OW32173   0.501   2.944   0.784 -0.5634  0.6384  0.3548
 6846SOL    HW132174   0.593   2.971   0.779 -0.0345 -1.7783 -2.9243
 6846SOL    HW232175   0.480   2.935   0.877 -1.2146  0.8313  0.2255
 6847SOL     OW32176   1.206   3.877   8.140 -0.3632 -0.0050 -0.0608
 6847SOL    HW132177   1.261   3.806   8.108 -1.1720 -0.5104 -0.3398
 6847SOL    HW232178   1.269   3.943   8.169 -0.5379  1.0457 -2.0610
 6848SOL     OW32179   2.806   3.259   0.331  0.2976  0.0685 -0.2396
 6848SOL    HW132180   2.778   3.351   0.334 -1.5488 -0.4916 -0.4596
 6848SOL    HW232181   2.728   3.205   0.344  0.2603  0.6421  1.9757
 6849SOL     OW32182   4.163   4.526   7.618  0.2733  0.1914 -0.5492
 6849SOL    HW132183   4.188   4.457   7.680  1.2225  3.6281  2.8720
 6849SOL    HW232184   4.207   4.491   7.540  1.9953 -0.0402  0.5420
 6850SOL     OW32185   1.589   0.941   9.709 -0.5311 -0.0961  0.3610
 6850SOL    HW132186   1.662   0.934   9.771  0.3216 -0.2533 -0.6780
 6850SOL    HW232187   1.609   0.881   9.638 -0.5374 -0.4436  0.6510
 6851SOL     OW32188   4.508   0.288   2.219 -0.2009  0.0978 -0.2187
 6851SOL    HW132189   4.423   0.274   2.179 -0.5328 -1.1213  0.9340
 6851SOL    HW232190   4.486   0.341   2.295 -2.4788  0.2086 -0.9689
 6852SOL     OW32191   4.082   0.943   2.032  0.4247 -0.5561 -1.0584
 6852SOL    HW132192   4.117   0.989   1.955  1.7643 -0.8566 -0.6403
 6852SOL    HW232193   4.152   0.952   2.096  0.0282  0.5360 -0.7905
 6853SOL     OW32194   0.412   2.195   2.011  0.2958 -0.0524 -0.2217
 6853SOL    HW132195   0.487   2.253   2.024 -0.4185  0.6380  0.8074
 6853SOL    HW232196   0.351   2.264   2.039  1.3436  1.6250 -2.0256
 6854SOL     OW32197   0.061   3.865  15.709  0.2235  0.3419  0.3307
 6854SOL    HW132198   0.033   3.781  15.745  1.8173  0.0056  0.7701
 6854SOL    HW232199   0.024   3.918  15.779 -1.9023 -1.7148  0.7382
 6855SOL     OW32200   0.370   2.169   8.558  0.1860  0.2504  1.1235
 6855SOL    HW132201   0.433   2.240   8.575  1.1258 -0.4332  0.4974
 6855SOL    HW232202   0.420   2.094   8.588  0.3236 -0.1898 -0.2320
 6856SOL     OW32203   1.534   3.491   5.319 -0.2587 -0.1378 -0.4257
 6856SOL    HW132204   1.580   3.438   5.384  0.0436  2.0770  1.1888
 6856SOL    HW232205   1.547   3.444   5.237  0.2381 -0.2947 -0.2614
 6857SOL     OW32206   0.359   3.461   9.235 -0.1311 -0.1453 -0.2242
 6857SOL    HW132207   0.440   3.510   9.249  1.1956 -1.6784 -2.6802
 6857SOL    HW232208   0.385   3.426   9.150  0.4397  0.2831 -0.2220
 6858SOL     OW32209   0.311   2.524   4.762  0.6122 -0.5251  0.0978
 6858SOL    HW132210   0.233   2.572   4.734  1.5632  1.1503  0.3079
 6858SOL    HW232211   0.306   2.551   4.854  0.3785 -0.8063  0.1667
 6859SOL     OW32212   0.336   4.070   2.738 -0.1524 -0.7398 -0.2921
 6859SOL    HW132213   0.326   4.127   2.814  3.0834 -0.5068 -0.0557
 6859SOL    HW232214   0.266   4.007   2.754 -0.8654 -0.1559 -1.0972
 6860SOL     OW32215   3.400   0.380   6.935  0.2412  0.6680 -0.1312
 6860SOL    HW132216   3.446   0.448   6.886  0.1333 -0.9367 -2.4555
 6860SOL    HW232217   3.327   0.376   6.873 -0.9177 -1.8123  1.3981
 6861SOL     OW32218   0.386   4.223  14.342 -0.2108 -0.9540 -0.4119
 6861SOL    HW132219   0.431   4.275  14.275  1.1725 -0.8429  0.5974
 6861SOL    HW232220   0.437   4.227  14.423 -0.6629  1.4077 -0.2399
 6862SOL     OW32221   1.618   2.890  11.331 -0.4318 -0.3632 -0.3523
 6862SOL    HW132222   1.585   2.813  11.283  3.2026 -0.3920 -2.8829
 6862SOL    HW232223   1.648   2.859  11.416 -0.2517 -1.5780 -0.8402
 6863SOL     OW32224   2.688   0.270  15.193 -0.6191 -0.4648 -0.1886
 6863SOL    HW132225   2.672   0.360  15.165 -1.2065 -0.7515 -0.7978
 6863SOL    HW232226   2.604   0.229  15.172 -1.6505  1.3253  0.4380
 6864SOL     OW32227   2.160   4.356  14.879 -0.0883  0.1168  0.1112
 6864SOL    HW132228   2.197   4.381  14.964 -0.8300  0.2017  0.4114
 6864SOL    HW232229   2.226   4.288  14.863  0.1228  0.6055 -1.0635
 6865SOL     OW32230   1.026   4.506  12.874 -0.4299 -0.0064 -0.4776
 6865SOL    HW132231   0.960   4.477  12.811  0.1594 -0.9180 -0.6686
 6865SOL    HW232232   1.106   4.462  12.848  0.9196  2.0945  0.1007
 6866SOL     OW32233   1.139   1.804  10.560  0.0490  0.1936  0.1645
 6866SOL    HW132234   1.045   1.813  10.577 -0.1372  1.8465 -1.6569
 6866SOL    HW232235   1.170   1.891  10.586 -0.0001  0.1486  0.3677
 6867SOL     OW32236   3.101   4.219  14.173  0.4681  0.0158  0.4365
 6867SOL    HW132237   3.148   4.147  14.214 -2.1958 -1.3014  1.1726
 6867SOL    HW232238   3.017   4.209  14.218  0.2156 -1.5671 -0.4086
 6868SOL     OW32239   3.313   2.015   9.801 -0.0056 -0.4888 -0.2812
 6868SOL    HW132240   3.291   2.083   9.737  0.6226 -1.1689 -1.2252
 6868SOL    HW232241   3.224   1.986   9.821 -1.3160  1.4957 -3.2783
 6869SOL     OW32242   3.009   1.311   8.318  0.0821  0.0548 -0.6849
 6869SOL    HW132243   2.920   1.332   8.347  0.1141  0.9702 -1.2688
 6869SOL    HW232244   3.057   1.384   8.358  1.1772 -0.6438 -0.7398
 6870SOL     OW32245   2.321   4.050   7.480 -0.1836  0.2708  0.1418
 6870SOL    HW132246   2.309   3.956   7.464  0.1346  0.1245  0.7478
 6870SOL    HW232247   2.360   4.075   7.396  1.6133 -1.5637  0.4112
 6871SOL     OW32248   1.045   4.172   7.021 -0.0138  0.1165  0.4550
 6871SOL    HW132249   1.091   4.250   6.989 -2.0241  1.0437 -0.1774
 6871SOL    HW232250   0.972   4.171   6.959  0.0188  2.3574  0.3795
 6872SOL     OW32251   1.440   3.773  12.204  0.1108 -0.2593 -0.1938
 6872SOL    HW132252   1.371   3.821  12.159 -0.7968 -0.7557  0.6553
 6872SOL    HW232253   1.464   3.721  12.127  2.1889  0.1433  0.1945
 6873SOL     OW32254   1.379   1.571   5.698  0.1625  0.3823 -0.2252
 6873SOL    HW132255   1.336   1.570   5.784 -1.1436 -2.6245 -0.9115
 6873SOL    HW232256   1.397   1.665   5.692  0.4430  0.4915  2.1894
 6874SOL     OW32257   2.371   2.736   7.401 -0.0087 -0.4570 -0.4435
 6874SOL    HW132258   2.368   2.790   7.480  0.7100  2.4787 -2.4357
 6874SOL    HW232259   2.451   2.684   7.408  0.6521  0.4597 -1.1452
 6875SOL     OW32260   2.009   2.674  17.042 -0.1314  0.4874 -0.2396
 6875SOL    HW132261   1.996   2.701  16.951 -0.0067  0.2305 -0.3350
 6875SOL    HW232262   1.926   2.633  17.066 -0.1677  2.0101  2.2113
 6876SOL     OW32263   3.961   3.923   8.832  0.0537 -0.4142  0.2325
 6876SOL    HW132264   4.022   3.962   8.894  0.7107 -2.2459  0.7452
 6876SOL    HW232265   4.024   3.885   8.771 -0.2944  0.3695 -0.6020
 6877SOL     OW32266   3.150   0.007   5.065 -0.1617 -0.0916 -0.2426
 6877SOL    HW132267   3.069   4.699   5.092  0.7725  0.3575  3.2807
 6877SOL    HW232268   3.178   4.685   4.994 -2.0560  1.4568 -2.2295
 6878SOL     OW32269   4.516   4.312   2.963  0.0832  0.2000 -0.2464
 6878SOL    HW132270   4.435   4.305   2.912 -0.9028 -1.9666  1.6313
 6878SOL    HW232271   4.482   4.304   3.052 -0.7221  1.1822 -0.4634
 6879SOL     OW32272   0.569   1.007  13.109 -0.0912  0.1391  1.0025
 6879SOL    HW132273   0.530   0.966  13.031 -1.5838  0.0659  1.7842
 6879SOL    HW232274   0.648   0.954  13.124 -0.4735 -1.1002 -1.2848
 6880SOL     OW32275   1.163   2.394   1.350  0.7527  0.1473  0.0761
 6880SOL    HW132276   1.121   2.480   1.347  0.2351 -0.1244 -0.3988
 6880SOL    HW232277   1.187   2.397   1.442  0.8508  1.4803  0.0085
 6881SOL     OW32278   1.530   1.540   8.818  0.2569  0.1559  0.3903
 6881SOL    HW132279   1.537   1.509   8.908  2.3786 -1.5939 -0.3615
 6881SOL    HW232280   1.616   1.505   8.794 -0.8364 -1.4854 -1.1970
 6882SOL     OW32281   4.232   0.750   9.990 -0.3404  0.5273  0.1006
 6882SOL    HW132282   4.270   0.821   9.938 -0.5954  0.6280  0.0532
 6882SOL    HW232283   4.171   0.707   9.930  1.6573  2.2638 -3.1523
 6883SOL     OW32284   3.732   3.050   0.458 -0.4239  0.0328  0.0803
 6883SOL    HW132285   3.808   3.102   0.430  0.5150 -1.2752  0.1532
 6883SOL    HW232286   3.743   2.963   0.420  1.1260  1.2994 -2.3741
 6884SOL     OW32287   1.452   2.202   3.466  0.8580  0.7044 -0.0701
 6884SOL    HW132288   1.361   2.226   3.481  0.3621 -1.4726  0.4793
 6884SOL    HW232289   1.458   2.199   3.371  0.6274  1.3258 -0.1043
 6885SOL     OW32290   0.984   2.090  14.266  0.1091  0.2643  0.4693
 6885SOL    HW132291   1.068   2.121  14.232 -0.3101 -1.5910 -2.2708
 6885SOL    HW232292   0.973   1.998  14.243  0.9867  0.4975 -0.9113
 6886SOL     OW32293   3.855   2.828   2.947 -0.0736  0.6314  0.0263
 6886SOL    HW132294   3.937   2.862   2.982  0.1385  1.1259 -0.9309
 6886SOL    HW232295   3.881   2.772   2.874 -0.7525 -0.5477  0.6774
 6887SOL     OW32296   0.855   0.939   4.143 -0.6313 -0.5455 -0.1300
 6887SOL    HW132297   0.942   0.927   4.104 -0.2349 -1.1768  0.9356
 6887SOL    HW232298   0.866   1.021   4.192 -0.8620  0.2368 -1.4086
 6888SOL     OW32299   3.731   1.520   7.115  0.0245  0.2786  0.1679
 6888SOL    HW132300   3.655   1.462   7.119 -0.0828  0.3949 -0.1552
 6888SOL    HW232301   3.782   1.479   7.045  0.8481  0.8101  0.4509
 6889SOL     OW32302   0.674   3.254  11.444  0.1500 -0.1439 -0.0148
 6889SOL    HW132303   0.681   3.282  11.535 -0.0098 -0.4138  0.0819
 6889SOL    HW232304   0.632   3.318  11.386 -0.7319  1.2475  2.1746
 6890SOL     OW32305   4.653   1.296  15.226 -0.1789  0.3216 -0.2129
 6890SOL    HW132306   4.601   1.372  15.251  0.6014  1.1102 -1.0167
 6890SOL    HW232307   4.711   1.326  15.156 -0.3047 -2.3012 -1.4613
 6891SOL     OW32308   1.482   4.317  13.907 -1.2508  0.3506 -0.0091
 6891SOL    HW132309   1.451   4.305  13.818  1.4042 -1.7456 -0.6496
 6891SOL    HW232310   1.541   4.242  13.920  0.7628  2.3922  2.8217
 6892SOL     OW32311   3.719   4.469   5.247  0.3320 -0.7120 -0.6784
 6892SOL    HW132312   3.750   4.559   5.235  1.7172 -1.0196  0.5288
 6892SOL    HW232313   3.797   4.430   5.286  1.2225  0.5355 -1.2163
 6893SOL     OW32314   3.432   0.446   4.090  0.3027  0.1168  0.2277
 6893SOL    HW132315   3.442   0.433   4.184 -0.3531  0.4862  0.3482
 6893SOL    HW232316   3.496   0.515   4.076 -0.6893  0.7363 -1.1879
 6894SOL     OW32317   1.016   2.851   3.966  0.3588  0.0271  0.6974
 6894SOL    HW132318   0.987   2.868   3.876 -1.4718 -2.7195  0.7757
 6894SOL    HW232319   1.067   2.932   3.974 -0.7230  0.6014  1.8329
 6895SOL     OW32320   4.538   2.884   3.156  0.8011  0.2326 -0.5605
 6895SOL    HW132321   4.614   2.942   3.162 -0.9012  2.5748 -1.7858
 6895SOL    HW232322   4.584   2.802   3.177 -0.7084 -0.8583 -1.4545
 6896SOL     OW32323   4.084   0.471   9.463 -0.3644  0.3359 -0.1242
 6896SOL    HW132324   4.036   0.389   9.472 -0.9234  0.8335  1.3229
 6896SOL    HW232325   4.008   0.529   9.462  0.1848  1.0545  0.0763
 6897SOL     OW32326   0.760   3.020   0.574  0.1481 -0.2912  0.0664
 6897SOL    HW132327   0.720   3.087   0.520 -0.5708 -0.9834 -0.2626
 6897SOL    HW232328   0.832   2.995   0.516 -0.0228 -1.1464  0.2157
 6898SOL     OW32329   3.291   4.281   3.354 -0.0262  0.0767  0.0157
 6898SOL    HW132330   3.307   4.189   3.374  0.9741 -0.3300 -2.6296
 6898SOL    HW232331   3.198   4.274   3.331 -0.1613  0.7403  0.3696
 6899SOL     OW32332   2.599   3.666   6.161  0.5779 -0.3244 -0.1575
 6899SOL    HW132333   2.557   3.595   6.210 -2.2006  1.2221 -0.3100
 6899SOL    HW232334   2.557   3.741   6.204  1.2202  1.4974 -2.7295
 6900SOL     OW32335   0.637   0.426   2.171 -0.0674 -0.2024 -0.4487
 6900SOL    HW132336   0.573   0.362   2.203  0.2167  1.1251  2.8282
 6900SOL    HW232337   0.573   0.483   2.129 -1.2349 -0.3955  1.0356
 6901SOL     OW32338   2.385   0.663  10.599  0.5521  0.7369  0.0261
 6901SOL    HW132339   2.467   0.632  10.637  0.9011  1.1204 -0.4178
 6901SOL    HW232340   2.364   0.731  10.663 -0.0093  2.0192 -1.5189
 6902SOL     OW32341   0.034   3.667   1.287 -0.1570 -0.3412 -0.2160
 6902SOL    HW132342   0.055   3.592   1.231 -0.0956  0.1622 -0.8656
 6902SOL    HW232343   4.677   3.662   1.312  0.1351  0.9663  1.0861
 6903SOL     OW32344   1.867   4.245   1.981 -0.4079  0.0312 -0.2998
 6903SOL    HW132345   1.843   4.181   2.048  0.8781 -1.9920 -1.7315
 6903SOL    HW232346   1.796   4.309   1.986 -0.5008 -0.1569  0.8138
 6904SOL     OW32347   0.082   1.637   6.862  0.1101  0.2842  0.0154
 6904SOL    HW132348   0.092   1.584   6.941  2.1008  1.9478  0.8940
 6904SOL    HW232349   4.722   1.646   6.857  0.0962  1.1541  1.6016
 6905SOL     OW32350   0.801   4.119   7.849  0.3831 -0.1961 -0.3384
 6905SOL    HW132351   0.881   4.068   7.839  0.9038  0.4838  0.3521
 6905SOL    HW232352   0.784   4.131   7.756  0.0363  0.3577 -0.2025
 6906SOL     OW32353   3.283   3.152   9.146 -0.7967  0.0054 -0.1990
 6906SOL    HW132354   3.363   3.202   9.161  1.0747 -2.4612 -1.8653
 6906SOL    HW232355   3.218   3.189   9.206 -0.5337  0.2477 -0.0688
 6907SOL     OW32356   2.582   1.940  13.877  0.0421  0.7699  0.1255
 6907SOL    HW132357   2.490   1.958  13.862  0.4727  0.4356 -2.8555
 6907SOL    HW232358   2.615   2.029  13.868  1.4790  0.0426 -1.9882
 6908SOL     OW32359   3.042   1.512  16.525 -0.3019 -0.2096 -0.6166
 6908SOL    HW132360   3.033   1.459  16.446 -1.3924  0.2143 -0.7657
 6908SOL    HW232361   3.132   1.484  16.545 -1.0110 -0.0329  2.8422
 6909SOL     OW32362   0.822   0.312  17.020 -0.6425 -0.2512 -0.0883
 6909SOL    HW132363   0.824   0.407  17.035  1.9406 -0.2109 -0.6002
 6909SOL    HW232364   0.886   0.285  17.085  0.5664 -3.1889 -2.5286
 6910SOL     OW32365   2.949   1.488  11.449  0.2906  0.0365  0.4918
 6910SOL    HW132366   3.019   1.520  11.391 -1.3928  1.9762 -0.4649
 6910SOL    HW232367   3.000   1.451  11.521 -0.0432  0.4754  0.9461
 6911SOL     OW32368   3.375   1.543   0.701 -0.3418  0.3741  0.0026
 6911SOL    HW132369   3.410   1.493   0.627 -1.1598  1.9473 -1.4598
 6911SOL    HW232370   3.283   1.533   0.678 -0.1391 -2.3350  0.3564
 6912SOL     OW32371   2.280   2.965   6.910 -0.6364 -0.2695  0.2911
 6912SOL    HW132372   2.306   2.927   6.994 -0.5875  0.3280  0.5483
 6912SOL    HW232373   2.187   2.944   6.906 -0.9287  1.1179 -0.0475
 6913SOL     OW32374   3.207   1.724   7.137  0.2195 -0.0569  0.6533
 6913SOL    HW132375   3.258   1.802   7.114 -0.4111  0.3145  0.4908
 6913SOL    HW232376   3.213   1.669   7.059  0.2896 -0.4428  0.9318
 6914SOL     OW32377   4.224   2.018   8.049  0.5765  0.1994 -0.1599
 6914SOL    HW132378   4.255   2.044   7.962 -1.1429  0.0155 -0.8258
 6914SOL    HW232379   4.186   2.097   8.087 -1.5067  0.0369 -1.9004
 6915SOL     OW32380   3.002   1.717   2.652  0.4090  0.3218  0.2869
 6915SOL    HW132381   2.982   1.768   2.731 -0.5530  0.8949 -0.3190
 6915SOL    HW232382   2.912   1.728   2.620  0.6184  0.4892 -0.2447
 6916SOL     OW32383   3.017   2.180   6.517 -0.3490  0.2713 -0.1820
 6916SOL    HW132384   2.922   2.181   6.530 -0.4965  0.0710 -1.2030
 6916SOL    HW232385   3.038   2.127   6.440 -1.1946 -1.8840  1.0656
 6917SOL     OW32386   2.296   2.909   3.713 -1.1479  0.6730  0.0808
 6917SOL    HW132387   2.215   2.959   3.725 -0.8133  1.0787  0.6625
 6917SOL    HW232388   2.327   2.947   3.631 -1.0626  1.9835  0.7293
 6918SOL     OW32389   2.319   1.400   5.406  0.0491  0.6533 -0.4144
 6918SOL    HW132390   2.391   1.376   5.464 -0.6816 -2.7742 -0.8889
 6918SOL    HW232391   2.352   1.472   5.354  2.7629 -2.5528 -3.1117
 6919SOL     OW32392   0.929   3.075   5.547 -0.4347 -0.2066 -0.1634
 6919SOL    HW132393   0.889   3.053   5.463  1.1650  0.9519 -1.2415
 6919SOL    HW232394   0.967   2.990   5.569 -0.5819  0.4240  2.4738
 6920SOL     OW32395   2.110   2.862  17.210  1.1413 -0.3768 -0.2991
 6920SOL    HW132396   2.115   2.783  17.157 -1.2639 -0.4820 -0.3596
 6920SOL    HW232397   2.025   2.899  17.190  0.9257 -0.8205 -0.2048
 6921SOL     OW32398   3.464   1.186   9.523 -0.7206 -0.1044 -0.1533
 6921SOL    HW132399   3.441   1.261   9.578 -0.4820 -0.8187  0.9164
 6921SOL    HW232400   3.389   1.128   9.515 -0.8842 -0.3097  2.6733
 6922SOL     OW32401   1.790   0.733  10.003  0.3263 -0.4057  0.1013
 6922SOL    HW132402   1.767   0.641   9.988 -0.9289 -0.1002  0.1073
 6922SOL    HW232403   1.740   0.740  10.084 -2.0103 -0.6940 -1.3185
 6923SOL     OW32404   2.263   1.721   4.528  0.0639 -0.1794  0.4611
 6923SOL    HW132405   2.221   1.646   4.486  1.9403 -0.7327 -0.4467
 6923SOL    HW232406   2.345   1.701   4.483 -0.4387  1.5583 -1.2258
 6924SOL     OW32407   2.324   0.190  11.925 -0.6882 -0.6421 -0.3802
 6924SOL    HW132408   2.322   0.271  11.976 -0.3185 -1.4199  0.8624
 6924SOL    HW232409   2.374   0.228  11.852 -0.3090  0.4571  0.4509
 6925SOL     OW32410   3.111   0.652   2.424 -0.0721 -0.1648  0.1754
 6925SOL    HW132411   3.018   0.642   2.405  0.1818  0.9842 -1.6093
 6925SOL    HW232412   3.114   0.606   2.508 -1.3570 -0.8543 -0.1591
 6926SOL     OW32413   1.467   1.335   5.580 -0.0741 -0.7425 -0.0765
 6926SOL    HW132414   1.450   1.425   5.608 -0.8359 -1.2849  1.2105
 6926SOL    HW232415   1.506   1.295   5.658  1.7022 -0.4291 -0.7996
 6927SOL     OW32416   2.237   3.755  13.468 -0.1549 -0.3064  0.4272
 6927SOL    HW132417   2.147   3.744  13.496 -0.3384  0.5586  0.1810
 6927SOL    HW232418   2.233   3.762  13.372 -2.7093 -0.3543  0.5545
 6928SOL     OW32419   2.485   1.606   8.857  0.5924 -0.4992  0.5857
 6928SOL    HW132420   2.433   1.632   8.933 -1.8107  0.1732 -1.2710
 6928SOL    HW232421   2.446   1.520   8.836 -0.4612  0.0928  0.0992
 6929SOL     OW32422   4.591   2.473   4.310  0.1542  0.0332 -0.6370
 6929SOL    HW132423   4.617   2.485   4.219  2.0716  0.0062 -0.0924
 6929SOL    HW232424   4.595   2.378   4.311 -0.3547  0.0269  0.9687
 6930SOL     OW32425   1.383   0.470   4.840  0.0289 -0.5097  0.0577
 6930SOL    HW132426   1.335   0.503   4.917  0.0526 -0.7684  0.1819
 6930SOL    HW232427   1.309   0.480   4.780 -0.9826 -1.4003  1.1467
 6931SOL     OW32428   1.104   4.291   2.902 -0.3062 -0.1249  0.3118
 6931SOL    HW132429   1.100   4.200   2.933 -2.0543 -0.5350 -1.1601
 6931SOL    HW232430   1.027   4.290   2.845 -1.2618  2.4344  1.5390
 6932SOL     OW32431   1.329   3.812   7.745 -0.1928 -0.6582  0.1424
 6932SOL    HW132432   1.331   3.906   7.763 -0.0955 -0.8946  1.3464
 6932SOL    HW232433   1.344   3.764   7.826  1.4988 -0.6987 -0.1804
 6933SOL     OW32434   2.213   3.798  15.280  0.0285 -0.2139  0.3367
 6933SOL    HW132435   2.292   3.852  15.276 -1.4277  1.8767  0.0547
 6933SOL    HW232436   2.138   3.849  15.249 -0.9797 -0.7822  1.8506
 6934SOL     OW32437   4.593   2.005  10.208  0.0376 -0.2300 -0.6503
 6934SOL    HW132438   4.602   1.966  10.121 -1.7492 -2.8712  0.3629
 6934SOL    HW232439   4.647   1.951  10.265 -1.7668 -0.8662  0.4427
 6935SOL     OW32440   0.490   3.412   2.391  0.4378 -0.1438  0.0396
 6935SOL    HW132441   0.467   3.420   2.298  5.2159 -0.0253 -1.1476
 6935SOL    HW232442   0.519   3.322   2.407 -1.0226 -0.4302  1.0525
 6936SOL     OW32443   1.848   2.012   3.117 -0.4236  0.1344 -0.2373
 6936SOL    HW132444   1.904   1.955   3.065  1.6554  2.5680 -0.6866
 6936SOL    HW232445   1.775   1.954   3.138  1.2713 -1.6255  0.7444
 6937SOL     OW32446   4.724   2.747  13.395 -0.4311 -0.2325 -0.9702
 6937SOL    HW132447   0.077   2.713  13.379 -0.3889 -0.3918 -0.4191
 6937SOL    HW232448   4.677   2.670  13.429  1.8264 -2.0430 -1.9810
 6938SOL     OW32449   2.143   3.503   3.274  0.5499 -0.0480  0.0188
 6938SOL    HW132450   2.125   3.409   3.270 -0.7483  0.2254 -0.5826
 6938SOL    HW232451   2.055   3.541   3.279  0.2564 -0.6221 -0.8753
 6939SOL     OW32452   2.749   3.343   2.782 -0.3017  0.4855  0.0890
 6939SOL    HW132453   2.763   3.253   2.753  0.2814  0.6326 -0.0920
 6939SOL    HW232454   2.793   3.405   2.723 -0.9412  1.2500  0.4226
 6940SOL     OW32455   3.369   3.776   3.583  0.2434 -0.5638 -0.4058
 6940SOL    HW132456   3.390   3.718   3.510  1.5403 -1.1398  0.4366
 6940SOL    HW232457   3.330   3.848   3.533 -0.5439 -0.4537  0.3599
 6941SOL     OW32458   1.883   1.015   3.937  0.0041  0.4341 -0.3329
 6941SOL    HW132459   1.872   1.005   4.031 -0.1584  0.1728 -0.3800
 6941SOL    HW232460   1.951   0.948   3.933  0.0147  0.3580  1.3473
 6942SOL     OW32461   1.687   3.029   6.831  0.4254  0.2914  0.4587
 6942SOL    HW132462   1.657   3.120   6.838 -3.9547 -1.2787  2.0416
 6942SOL    HW232463   1.662   3.001   6.743  1.3018  0.4107  0.1752
 6943SOL     OW32464   4.687   0.018   1.569  0.3525  0.6011  0.2870
 6943SOL    HW132465   0.045   0.038   1.561  0.3154  0.0117 -1.4977
 6943SOL    HW232466   4.676   4.713   1.483  0.2202  1.6365 -0.1670
 6944SOL     OW32467   2.123   4.582  15.386 -0.3247  0.2469  0.5381
 6944SOL    HW132468   2.204   4.539  15.416 -0.2568  0.5278  0.7605
 6944SOL    HW232469   2.153   4.672  15.397 -0.1792  0.4459 -1.5234
 6945SOL     OW32470   3.554   4.197  16.249 -0.0520 -0.0722  0.1116
 6945SOL    HW132471   3.535   4.255  16.176  0.1984 -0.1879 -0.0451
 6945SOL    HW232472   3.588   4.117  16.208 -0.5545 -1.0052  1.5245
 6946SOL     OW32473   3.976   0.906   6.723 -0.1149  0.0224 -0.0594
 6946SOL    HW132474   3.926   0.860   6.656 -0.3590 -1.8618  1.4395
 6946SOL    HW232475   3.951   0.869   6.807  1.3673  0.3701  0.5395
 6947SOL     OW32476   0.339   4.665   7.572 -0.0408  0.2532 -0.1142
 6947SOL    HW132477   0.327   4.686   7.479  2.2244 -0.0173 -0.4736
 6947SOL    HW232478   0.383   4.582   7.557  2.0298  1.3373 -0.0989
 6948SOL     OW32479   1.421   0.177   7.063  0.1344 -0.4425  0.2309
 6948SOL    HW132480   1.334   0.196   7.097  0.2128  0.1197  0.1193
 6948SOL    HW232481   1.421   0.082   7.075  0.8668 -0.4375  0.3046
 6949SOL     OW32482   1.182   0.118   0.632  0.0654 -0.3576 -0.4405
 6949SOL    HW132483   1.224   0.196   0.668 -0.7149  0.4458 -1.2644
 6949SOL    HW232484   1.219   0.052   0.691 -0.0970  1.5672  1.8172
 6950SOL     OW32485   2.804   2.866   1.176  0.1997 -0.1040 -0.4845
 6950SOL    HW132486   2.763   2.780   1.178 -2.0590  0.9797 -0.2587
 6950SOL    HW232487   2.738   2.919   1.130  1.8910  2.0375 -0.4676
 6951SOL     OW32488   3.975   4.452   0.852 -0.3119  0.3189  0.1196
 6951SOL    HW132489   3.904   4.493   0.902  0.5579  1.8110  0.1430
 6951SOL    HW232490   3.965   4.360   0.874  1.5646  0.0020 -0.3926
 6952SOL     OW32491   3.199   2.417   3.131  0.0978 -0.1645  0.5619
 6952SOL    HW132492   3.130   2.357   3.102  0.3230 -0.4211  0.5569
 6952SOL    HW232493   3.264   2.347   3.135  1.0877  0.8255  1.5399
 6953SOL     OW32494   3.660   0.800  17.524  0.2615  0.4095  0.0137
 6953SOL    HW132495   3.635   0.720  17.477  0.7169  0.3991 -0.2057
 6953SOL    HW232496   3.733   0.836  17.474 -0.1196 -0.4142 -1.1514
 6954SOL     OW32497   3.906   1.256  17.187 -0.1928  0.6024  0.0945
 6954SOL    HW132498   3.853   1.178  17.205  0.5823  0.2745  0.9683
 6954SOL    HW232499   3.848   1.330  17.170  1.3978  1.8485  0.0147
 6955SOL     OW32500   1.817   1.914   7.222 -0.1556 -0.1726  0.2428
 6955SOL    HW132501   1.819   1.831   7.174  0.3467  0.2156 -0.4148
 6955SOL    HW232502   1.873   1.967   7.165 -0.0969  1.4378  1.8111
 6956SOL     OW32503   3.553   2.151  12.767 -0.3695  0.1262  0.8748
 6956SOL    HW132504   3.517   2.105  12.691 -0.6594 -1.0355  1.7146
 6956SOL    HW232505   3.648   2.152  12.755 -0.5847 -0.2095 -0.8161
 6957SOL     OW32506   1.909   3.304   9.340 -0.5563  0.1356  0.1933
 6957SOL    HW132507   1.903   3.272   9.250 -0.6221 -1.6279  0.8228
 6957SOL    HW232508   1.864   3.388   9.330  0.1477  0.7236  1.8754
 6958SOL     OW32509   0.301   2.464   8.755  0.3189  0.5414 -0.0722
 6958SOL    HW132510   0.243   2.453   8.830  0.0257 -0.4804 -0.4414
 6958SOL    HW232511   0.236   2.495   8.691  0.1883  0.4745  0.0283
 6959SOL     OW32512   4.289   4.288   9.367 -0.0046 -0.1055  0.0904
 6959SOL    HW132513   4.235   4.353   9.412 -2.1104 -2.1069  0.4757
 6959SOL    HW232514   4.346   4.262   9.439  0.0653  1.7322  0.7014
 6960SOL     OW32515   4.502   0.125   1.839  0.2768  0.5246 -0.3936
 6960SOL    HW132516   4.426   0.073   1.814  0.0874 -0.4197  2.0705
 6960SOL    HW232517   4.553   0.110   1.760 -1.4068  1.1796 -1.5930
 6961SOL     OW32518   4.218   1.763  13.827  0.0495  0.4710  0.1665
 6961SOL    HW132519   4.131   1.743  13.790  0.9891 -3.0286 -0.2113
 6961SOL    HW232520   4.201   1.805  13.911  2.8379  0.8889  0.5124
 6962SOL     OW32521   0.671   3.261   0.022 -0.0452  0.0955  0.0146
 6962SOL    HW132522   0.650   3.321  17.688 -2.9168 -1.6086 -0.5516
 6962SOL    HW232523   0.669   3.324   0.094 -0.2221  0.6159 -0.4425
 6963SOL     OW32524   1.455   0.424   6.843 -0.3820 -0.0540  0.4155
 6963SOL    HW132525   1.415   0.356   6.896  2.0450 -0.5278  1.6646
 6963SOL    HW232526   1.375   0.475   6.831 -0.3558  0.1738  1.2239
 6964SOL     OW32527   0.165   3.917   2.925  0.4441 -0.0316 -0.1489
 6964SOL    HW132528   0.179   3.885   3.014 -0.2310 -0.2629 -0.1264
 6964SOL    HW232529   0.072   3.938   2.926  0.3040 -0.5949 -0.8393
 6965SOL     OW32530   2.883   0.486   7.686 -0.1645  0.4662 -0.5106
 6965SOL    HW132531   2.973   0.479   7.657 -0.1403  2.8480 -1.0290
 6965SOL    HW232532   2.850   0.398   7.664  2.1268 -1.1174  2.4340
 6966SOL     OW32533   3.296   1.382   9.712 -0.4641  0.0062 -0.0268
 6966SOL    HW132534   3.384   1.361   9.745 -1.4669 -0.4233  2.3270
 6966SOL    HW232535   3.234   1.350   9.777 -0.8547  1.0372  0.1077
 6967SOL     OW32536   4.708   3.298   8.023 -0.0453 -0.5847  0.3076
 6967SOL    HW132537   0.005   3.347   7.947 -3.3479  1.4941  0.2434
 6967SOL    HW232538   0.048   3.299   8.083 -0.3415  0.2944  0.6704
 6968SOL     OW32539   2.718   3.408   2.029 -0.4332 -0.1816  0.2660
 6968SOL    HW132540   2.813   3.408   2.021 -0.5381 -0.1028 -0.9456
 6968SOL    HW232541   2.690   3.362   1.950  0.0103 -1.4563  0.8663
 6969SOL     OW32542   2.843   4.235  13.471 -0.2344  0.0909  0.0805
 6969SOL    HW132543   2.938   4.223  13.475 -0.4725 -1.7764  0.2625
 6969SOL    HW232544   2.817   4.165  13.532 -1.1359  1.3287  1.1140
 6970SOL     OW32545   3.329   4.035   2.045  0.4905  0.1515  0.4861
 6970SOL    HW132546   3.333   4.121   2.004 -1.5563  0.8021  1.6197
 6970SOL    HW232547   3.239   4.014   2.020  0.3771  0.4845  0.6141
 6971SOL     OW32548   0.864   3.015  16.342  0.1714  0.0416 -0.3130
 6971SOL    HW132549   0.919   2.964  16.401 -0.6105 -1.5487 -0.9571
 6971SOL    HW232550   0.795   2.948  16.342  0.7698 -0.5784  0.0663
 6972SOL     OW32551   3.510   4.510   9.031 -0.4340  1.0277 -0.2848
 6972SOL    HW132552   3.586   4.477   9.079 -1.0600  1.4348  0.9732
 6972SOL    HW232553   3.522   4.476   8.942  0.6085 -1.4003  0.7933
 6973SOL     OW32554   4.348   1.014   7.199 -0.2903  0.2091  0.1596
 6973SOL    HW132555   4.298   1.096   7.192 -0.4249  0.1877  0.8709
 6973SOL    HW232556   4.289   0.948   7.162 -2.6377  1.9892  0.7060
 6974SOL     OW32557   1.612   3.292   6.853  0.0004 -0.0871 -0.4062
 6974SOL    HW132558   1.532   3.336   6.825 -0.6365 -0.6194  0.5554
 6974SOL    HW232559   1.679   3.346   6.811 -0.8566  0.2980 -1.2884
 6975SOL     OW32560   2.356   1.969   4.562  0.0472 -0.3182 -0.3211
 6975SOL    HW132561   2.288   1.902   4.556 -0.3161 -0.1064  1.4404
 6975SOL    HW232562   2.390   1.957   4.651  0.5669  2.1778 -0.1873
 6976SOL     OW32563   3.020   2.332   9.156 -0.8337 -0.0281 -0.0421
 6976SOL    HW132564   2.958   2.388   9.109  2.1356  0.7414 -3.0601
 6976SOL    HW232565   3.025   2.257   9.098 -1.0535  1.0669 -1.4896
 6977SOL     OW32566   1.989   0.663   7.260  0.0943 -0.5834 -0.4399
 6977SOL    HW132567   1.975   0.709   7.177  1.1569 -0.1909 -0.3989
 6977SOL    HW232568   1.902   0.625   7.268 -0.6850  0.9053 -1.6808
 6978SOL     OW32569   2.970   3.595  17.000  0.2268  0.5169  0.2155
 6978SOL    HW132570   2.958   3.518  17.056  1.7199  0.7827  0.8880
 6978SOL    HW232571   2.893   3.650  17.016 -0.6929 -0.8684  0.5540
 6979SOL     OW32572   1.745   4.225   5.481  0.1699  0.1337  0.0187
 6979SOL    HW132573   1.702   4.310   5.490 -1.5025 -0.6418 -0.6827
 6979SOL    HW232574   1.823   4.262   5.439 -1.1566  1.8811 -0.9506
 6980SOL     OW32575   1.627   2.593   9.970 -0.3999 -0.7710  0.2354
 6980SOL    HW132576   1.664   2.539  10.040  1.8895 -0.3677 -0.6598
 6980SOL    HW232577   1.616   2.530   9.899 -1.4930  1.5630 -1.6777
 6981SOL     OW32578   4.705   2.987   5.823  0.2036 -0.4754 -0.3181
 6981SOL    HW132579   4.638   2.935   5.868  1.3846 -1.3868  0.3837
 6981SOL    HW232580   4.656   3.028   5.751  1.8969  1.2292 -0.5187
 6982SOL     OW32581   0.036   4.397   0.153 -0.1265 -0.2212 -0.6792
 6982SOL    HW132582   0.082   4.428   0.231  1.3936 -1.2800 -1.1392
 6982SOL    HW232583   0.105   4.418   0.089 -0.4538  3.5408  0.2513
 6983SOL     OW32584   0.241   1.066  15.872 -0.1139 -0.4755  0.3956
 6983SOL    HW132585   0.310   1.041  15.933 -0.4254 -1.1457  0.4739
 6983SOL    HW232586   0.237   0.987  15.818 -2.0729 -0.8928  1.1618
 6984SOL     OW32587   0.307   1.154  10.244  0.2960  0.0930  0.4493
 6984SOL    HW132588   0.365   1.098  10.193 -1.8775 -1.2238 -0.5816
 6984SOL    HW232589   0.364   1.230  10.237 -0.9156  0.8379 -1.4112
 6985SOL     OW32590   0.549   3.894   7.828 -0.2182 -0.3000 -0.5322
 6985SOL    HW132591   0.519   3.835   7.759 -0.4963 -1.2852  0.4331
 6985SOL    HW232592   0.640   3.867   7.835 -0.2060 -0.1890 -0.2479
 6986SOL     OW32593   2.592   0.508  10.707  1.0789 -0.7376 -0.3316
 6986SOL    HW132594   2.605   0.451  10.783  1.1350 -0.6853 -0.3017
 6986SOL    HW232595   2.684   0.507  10.681  1.2610 -1.4479  0.3507
 6987SOL     OW32596   3.085   0.310   4.334 -0.1083 -0.1708  0.1926
 6987SOL    HW132597   3.144   0.327   4.408 -2.0658  1.5154  1.3558
 6987SOL    HW232598   3.125   0.346   4.254 -0.7326  1.3844  0.5766
 6988SOL     OW32599   3.815   1.626   9.598  0.4946  0.3045  0.0500
 6988SOL    HW132600   3.792   1.571   9.524  0.7486 -2.7586  2.2268
 6988SOL    HW232601   3.739   1.606   9.652 -1.2687  1.0466 -2.1679
 6989SOL     OW32602   3.543   2.657   5.035 -0.0138 -0.2003 -0.1979
 6989SOL    HW132603   3.616   2.598   5.054 -0.6121 -0.1048  2.5026
 6989SOL    HW232604   3.502   2.605   4.967 -0.0942 -1.2111  0.6204
 6990SOL     OW32605   1.210   3.696   4.843 -0.2345  0.1914  0.4290
 6990SOL    HW132606   1.177   3.608   4.825  1.1075 -0.2426  0.0708
 6990SOL    HW232607   1.142   3.747   4.800  0.4119  1.4436  0.9107
 6991SOL     OW32608   4.509   2.930   7.746  0.5198 -0.1823 -0.2529
 6991SOL    HW132609   4.436   2.966   7.697 -0.2992 -0.3412  0.8487
 6991SOL    HW232610   4.522   2.991   7.818 -1.8416 -0.2663  0.2494
 6992SOL     OW32611   3.083   1.095   4.420 -0.3736  0.2871  0.6270
 6992SOL    HW132612   3.172   1.127   4.433  0.9114 -2.8117 -0.5308
 6992SOL    HW232613   3.088   1.018   4.477 -2.6874 -0.2297  0.1166
 6993SOL     OW32614   2.478   2.517   9.076 -0.1910 -0.5778 -0.2631
 6993SOL    HW132615   2.472   2.610   9.053  0.4745 -0.0963  1.5123
 6993SOL    HW232616   2.434   2.504   9.160 -1.8049  2.6737 -0.6086
 6994SOL     OW32617   4.637   0.660  12.637 -0.6697 -0.4296  0.6070
 6994SOL    HW132618   4.726   0.691  12.617 -0.3869 -2.9016 -1.9081
 6994SOL    HW232619   4.649   0.607  12.716  1.1117 -0.1198  0.5567
 6995SOL     OW32620   0.568   1.749   0.323 -0.4837  0.3781  0.4255
 6995SOL    HW132621   0.639   1.685   0.323 -0.2479  0.6424 -2.6433
 6995SOL    HW232622   0.553   1.768   0.415  1.1286 -1.2307  1.0325
 6996SOL     OW32623   4.106   2.800   3.679  0.1919 -0.0930 -0.6074
 6996SOL    HW132624   4.049   2.818   3.604 -0.7290  0.9976  0.3540
 6996SOL    HW232625   4.161   2.736   3.635  0.8335  0.8302 -1.1660
 6997SOL     OW32626   2.631   1.562  14.174 -0.6464  0.0977 -0.3696
 6997SOL    HW132627   2.602   1.644  14.135 -1.8458 -1.0288 -1.8369
 6997SOL    HW232628   2.725   1.560  14.157 -0.3038 -0.9832  1.5693
 6998SOL     OW32629   0.779   2.979  14.765  0.1485  0.2829 -0.0044
 6998SOL    HW132630   0.752   2.989  14.674  0.9934 -0.5331 -0.3585
 6998SOL    HW232631   0.757   3.061  14.808  1.3614  0.1157  0.9380
 6999SOL     OW32632   2.838   4.342   6.092  0.2801 -0.6175 -0.1593
 6999SOL    HW132633   2.884   4.412   6.138  1.4021 -1.9815  0.7866
 6999SOL    HW232634   2.815   4.392   6.013 -2.8948  0.7424  1.6220
 7000SOL     OW32635   0.807   1.015   3.013  0.2971 -0.4292  0.2250
 7000SOL    HW132636   0.751   0.984   2.942  0.5117  0.1224 -0.1865
 7000SOL    HW232637   0.766   1.101   3.023 -0.7873 -0.9379  0.1596
 7001SOL     OW32638   3.462   2.448   8.327  0.1077 -0.0457 -0.0134
 7001SOL    HW132639   3.369   2.471   8.336  0.3463  0.4005  1.2142
 7001SOL    HW232640   3.489   2.487   8.409  0.7352 -0.9476  0.2125
 7002SOL     OW32641   0.509   0.564   7.550  0.2283 -0.4320 -0.4228
 7002SOL    HW132642   0.425   0.518   7.548  0.8472 -1.6048  0.1243
 7002SOL    HW232643   0.554   0.522   7.624  0.5417  0.8161  0.1016
 7003SOL     OW32644   2.562   1.464   2.726 -0.8022  0.2326  0.3111
 7003SOL    HW132645   2.534   1.391   2.671  2.0100 -0.2348 -0.5138
 7003SOL    HW232646   2.652   1.440   2.747 -0.3462  0.0088 -1.8988
 7004SOL     OW32647   4.253   3.302   2.352  0.2360  0.0851  0.0839
 7004SOL    HW132648   4.172   3.353   2.351  0.0154 -0.2740 -1.5742
 7004SOL    HW232649   4.233   3.243   2.279  1.6500 -0.8876  0.4749
 7005SOL     OW32650   1.534   4.398  15.514  0.7050 -0.2211  0.3205
 7005SOL    HW132651   1.525   4.404  15.609 -0.2304  1.4266  0.1425
 7005SOL    HW232652   1.618   4.354  15.512  0.9209  0.0320  3.8015
 7006SOL     OW32653   1.625   4.469   8.223  0.1825  0.2800  0.3061
 7006SOL    HW132654   1.694   4.453   8.287 -0.0699  0.8796  0.7303
 7006SOL    HW232655   1.550   4.494   8.277 -0.5658 -0.1452 -0.5265
 7007SOL     OW32656   3.469   1.968   5.420 -0.0752  0.1646  0.0506
 7007SOL    HW132657   3.400   1.924   5.469  0.1573  0.3749  0.5627
 7007SOL    HW232658   3.474   2.055   5.459 -0.9259  0.6204 -0.8537
 7008SOL     OW32659   0.215   4.674   5.683  0.5957  0.0747  0.4129
 7008SOL    HW132660   0.194   4.621   5.607  1.5747  0.5119 -0.1659
 7008SOL    HW232661   0.236   4.602   5.743 -1.2314 -0.3448  0.5343
 7009SOL     OW32662   4.476   2.143  12.959 -0.3680  0.1715 -0.4393
 7009SOL    HW132663   4.522   2.211  13.009 -1.0033  0.6670 -0.5156
 7009SOL    HW232664   4.495   2.178  12.871 -1.2170 -0.5760 -0.9194
 7010SOL     OW32665   4.581   2.180   1.643 -0.1329 -0.0030  0.1025
 7010SOL    HW132666   4.581   2.084   1.635 -0.6113 -0.1489  1.8578
 7010SOL    HW232667   4.540   2.199   1.559 -1.4413  0.5883  0.8875
 7011SOL     OW32668   2.348   2.088   2.866  0.5517  0.2271 -0.0021
 7011SOL    HW132669   2.303   2.007   2.890  1.6890 -0.5116 -0.4223
 7011SOL    HW232670   2.271   2.137   2.836  1.2945  1.6713  0.4310
 7012SOL     OW32671   2.628   0.465   7.495  0.5507  0.1264  0.1712
 7012SOL    HW132672   2.677   0.391   7.530  1.3203  1.0344  1.0046
 7012SOL    HW232673   2.698   0.501   7.442  0.1873  0.8737  0.1933
 7013SOL     OW32674   1.996   3.879   5.446  0.0471  0.7164  0.8509
 7013SOL    HW132675   1.940   3.842   5.378  1.9395 -2.0194  0.7727
 7013SOL    HW232676   2.084   3.872   5.408 -0.2311 -0.6862  0.4589
 7014SOL     OW32677   3.212   0.511  11.911 -0.1097 -0.1586  0.1714
 7014SOL    HW132678   3.134   0.567  11.907  0.7710  0.9514 -1.6244
 7014SOL    HW232679   3.231   0.490  11.819 -0.1864  2.5062 -0.4501
 7015SOL     OW32680   3.901   2.162   2.826 -0.1190 -0.1280  1.1400
 7015SOL    HW132681   3.964   2.101   2.865 -0.8430 -0.8641  1.1554
 7015SOL    HW232682   3.896   2.128   2.736 -1.2843 -0.0821  1.1937
 7016SOL     OW32683   0.344   3.003  12.022 -0.0346 -0.3883  0.0722
 7016SOL    HW132684   0.326   3.095  12.002 -0.3923 -0.6145 -0.6364
 7016SOL    HW232685   0.266   2.955  11.995 -0.4355 -0.0833  0.7072
 7017SOL     OW32686   3.695   3.031   2.415 -0.2695 -0.2847 -0.1940
 7017SOL    HW132687   3.732   3.018   2.328 -2.7803 -1.6804 -1.0440
 7017SOL    HW232688   3.726   3.121   2.425  0.4836 -0.7014  1.3356
 7018SOL     OW32689   4.417   0.612  10.145 -0.1766  0.0010  0.3807
 7018SOL    HW132690   4.390   0.661  10.222  0.6627 -0.0019  0.6742
 7018SOL    HW232691   4.361   0.652  10.078  2.9048  0.8329 -1.7140
 7019SOL     OW32692   0.520   0.615   2.001  0.2515 -0.1522  0.2001
 7019SOL    HW132693   0.512   0.682   1.933 -0.6294 -0.3898  0.0669
 7019SOL    HW232694   0.432   0.581   2.018 -0.7322  1.5569 -1.4520
 7020SOL     OW32695   3.630   3.185   8.727  0.4265 -0.2681  0.4835
 7020SOL    HW132696   3.622   3.237   8.647 -0.1786  1.3883  1.6466
 7020SOL    HW232697   3.716   3.147   8.708 -1.5947 -4.4229 -0.4231
 7021SOL     OW32698   4.159   0.982   1.215  0.4518 -0.0298 -0.2690
 7021SOL    HW132699   4.235   1.017   1.262 -0.6238 -0.1883  1.5868
 7021SOL    HW232700   4.094   0.974   1.285  1.9206 -0.5865  1.0541
 7022SOL     OW32701   4.653   1.377   1.995  0.1081 -0.4107  1.1409
 7022SOL    HW132702   4.686   1.382   2.085 -0.5342  2.8297  1.1902
 7022SOL    HW232703   4.581   1.316   2.013 -1.5244  2.0971  3.0358
 7023SOL     OW32704   1.628   0.346   7.083  0.3710  0.0977 -0.4642
 7023SOL    HW132705   1.551   0.292   7.100 -1.2527  1.5039 -3.2491
 7023SOL    HW232706   1.684   0.296   7.024  3.8829  1.2808  1.8647
 7024SOL     OW32707   3.512   1.253   4.960 -0.3549 -0.1708  0.3528
 7024SOL    HW132708   3.473   1.332   4.923  1.1033  0.8299  0.9664
 7024SOL    HW232709   3.483   1.264   5.050  0.1410  2.0391  0.2610
 7025SOL     OW32710   0.637   0.734   0.283 -0.3209  0.1261 -0.3762
 7025SOL    HW132711   0.628   0.829   0.282 -3.2250 -0.1661 -0.0965
 7025SOL    HW232712   0.706   0.720   0.349 -1.4657 -1.3194  0.5054
 7026SOL     OW32713   4.636   1.834   8.283  0.7245  0.5791  0.0696
 7026SOL    HW132714   4.632   1.913   8.337 -0.2490  0.3812  0.2945
 7026SOL    HW232715   4.691   1.772   8.331 -0.9318 -0.9291  0.0071
 7027SOL     OW32716   0.729   2.981   1.238  0.0867  0.1912  0.4649
 7027SOL    HW132717   0.641   3.018   1.242 -0.6005 -1.6471  2.4667
 7027SOL    HW232718   0.787   3.049   1.204 -0.0456  0.3666  0.5934
 7028SOL     OW32719   0.113   2.711   0.883  0.5457 -0.0156 -0.2571
 7028SOL    HW132720   0.175   2.638   0.888 -0.2490 -0.7504 -1.0958
 7028SOL    HW232721   0.104   2.716   0.787  1.4550 -1.6743 -0.4180
 7029SOL     OW32722   2.164   2.006   3.722 -0.0393  0.5881 -0.6600
 7029SOL    HW132723   2.254   2.028   3.746  0.8292 -3.0643 -0.5413
 7029SOL    HW232724   2.106   2.081   3.735 -0.7953 -0.2195  0.6748
 7030SOL     OW32725   2.261   0.343   3.751 -0.5143  0.1744  0.2135
 7030SOL    HW132726   2.264   0.383   3.838 -0.1183  1.9359 -0.6136
 7030SOL    HW232727   2.186   0.383   3.708 -1.6002 -1.0837  0.9197
 7031SOL     OW32728   4.544   2.149   5.522 -0.0322  0.3502  0.1194
 7031SOL    HW132729   4.521   2.059   5.497  1.2843  0.0539 -0.0387
 7031SOL    HW232730   4.472   2.210   5.507 -0.4125  0.3536  1.9903
 7032SOL     OW32731   4.254   2.060  13.123  0.1126 -0.4677  0.0984
 7032SOL    HW132732   4.317   2.099  13.062 -0.4688  0.0985 -0.1342
 7032SOL    HW232733   4.314   2.016  13.184  1.4695  0.6229 -0.4417
 7033SOL     OW32734   0.274   2.998  12.407  0.4374 -0.7022  0.2889
 7033SOL    HW132735   0.367   3.021  12.398  0.1592 -0.3148 -1.5407
 7033SOL    HW232736   0.253   2.951  12.327 -1.8074 -0.4552  0.7458
 7034SOL     OW32737   4.523   4.001   1.755  0.4518 -0.6568  0.2025
 7034SOL    HW132738   4.617   3.985   1.746  0.6888  1.7111 -1.6900
 7034SOL    HW232739   4.535   4.093   1.779  0.9892 -0.2910 -1.4585
 7035SOL     OW32740   0.259   0.821   5.510  0.6683 -0.0116 -0.5413
 7035SOL    HW132741   0.331   0.834   5.447 -0.4074  4.8926 -0.7602
 7035SOL    HW232742   0.233   0.911   5.527  1.3966 -0.1365  1.3195
 7036SOL     OW32743   4.682   1.346   3.990 -0.0894 -0.4404  0.5910
 7036SOL    HW132744   4.624   1.316   4.060 -0.8868  0.4948  0.3245
 7036SOL    HW232745   4.636   1.333   3.908 -1.7473  1.8327  1.1656
 7037SOL     OW32746   3.378   2.787   3.173  0.0206  0.4522 -0.4630
 7037SOL    HW132747   3.396   2.717   3.236  0.7142 -0.0506 -1.2184
 7037SOL    HW232748   3.464   2.815   3.140  1.5504 -3.5930  0.0790
 7038SOL     OW32749   1.644   1.584  10.499 -0.0077  0.1012  0.1970
 7038SOL    HW132750   1.691   1.600  10.581 -0.1600 -0.4776  0.3997
 7038SOL    HW232751   1.616   1.494  10.517 -0.7970  0.7388  2.0691
 7039SOL     OW32752   1.973   0.320   5.818 -0.0721  0.1657 -0.9518
 7039SOL    HW132753   2.026   0.353   5.889  0.7385 -1.6244 -0.7103
 7039SOL    HW232754   2.014   0.234   5.806  1.6472  0.6769  1.3754
 7040SOL     OW32755   3.443   1.844   7.845 -0.9357  0.1613 -0.1173
 7040SOL    HW132756   3.465   1.917   7.787 -1.3914  1.1068  0.9077
 7040SOL    HW232757   3.426   1.893   7.925  1.4173  1.0056 -0.1376
 7041SOL     OW32758   2.908   3.889  15.904 -0.0763  0.0802  0.4071
 7041SOL    HW132759   2.992   3.904  15.862  1.0920  0.0418  2.7111
 7041SOL    HW232760   2.876   3.973  15.939  1.6547  0.1833  1.7536
 7042SOL     OW32761   1.132   0.865   2.112 -0.0163  0.4588  0.0875
 7042SOL    HW132762   1.163   0.777   2.135 -0.2889  0.1350 -0.8001
 7042SOL    HW232763   1.199   0.912   2.163  0.0454  0.4944 -0.0267
 7043SOL     OW32764   0.451   0.791   7.053 -0.1535  0.0054 -0.3082
 7043SOL    HW132765   0.435   0.748   6.969  0.5428  0.5059 -0.7022
 7043SOL    HW232766   0.412   0.723   7.107  2.1278 -0.8886  0.2160
 7044SOL     OW32767   3.931   4.034   9.954  0.3770 -0.1722 -0.2960
 7044SOL    HW132768   4.017   4.000   9.928  0.7170  2.3384 -2.5245
 7044SOL    HW232769   3.872   4.018   9.880  0.5878  0.1915 -0.5381
 7045SOL     OW32770   3.051   3.180   0.411  0.2767  0.4531  0.5001
 7045SOL    HW132771   3.056   3.240   0.486 -1.8517 -1.3621  2.0861
 7045SOL    HW232772   2.961   3.207   0.392 -0.4460 -1.5961  1.0810
 7046SOL     OW32773   1.944   0.202  15.506  0.1580  0.7073  0.1046
 7046SOL    HW132774   1.901   0.120  15.481 -0.0948  0.5601  1.0474
 7046SOL    HW232775   1.925   0.254  15.428  0.0412 -0.3100 -0.5549
 7047SOL     OW32776   4.641   1.072   2.374 -0.0744  0.1960  0.9778
 7047SOL    HW132777   4.699   1.006   2.411 -0.4137 -1.3171 -1.2271
 7047SOL    HW232778   4.661   1.062   2.281  2.2429  0.1914  1.4884
 7048SOL     OW32779   3.377   1.465   8.262 -0.1502 -0.4954  0.0443
 7048SOL    HW132780   3.470   1.486   8.260 -0.3254  0.2176 -1.0039
 7048SOL    HW232781   3.341   1.554   8.252  0.1597 -0.1096  2.3598
 7049SOL     OW32782   3.233   0.284   3.998 -0.4702  0.0290 -0.0709
 7049SOL    HW132783   3.304   0.348   4.009  0.3099 -0.6979 -0.8268
 7049SOL    HW232784   3.153   0.336   3.991 -1.1285 -1.0181 -0.2629
 7050SOL     OW32785   1.787   0.311  15.030 -0.1322  0.4747 -0.0724
 7050SOL    HW132786   1.820   0.309  14.940 -0.0606 -1.4994  0.0014
 7050SOL    HW232787   1.762   0.220  15.046 -0.9498  1.6394  5.1663
 7051SOL     OW32788   3.787   2.461   2.174  0.2798 -0.0869 -0.0941
 7051SOL    HW132789   3.761   2.553   2.181  1.1014  0.1407 -0.0740
 7051SOL    HW232790   3.746   2.436   2.092  0.0890 -1.9556  0.5822
 7052SOL     OW32791   1.137   1.750   1.703 -0.2716 -0.2826  0.0418
 7052SOL    HW132792   1.165   1.805   1.777 -0.1734  0.6467 -0.6923
 7052SOL    HW232793   1.107   1.810   1.636  1.6704  0.9277  0.2412
 7053SOL     OW32794   3.643   3.150   5.702 -0.1780  0.1535 -0.1807
 7053SOL    HW132795   3.553   3.173   5.680  0.0997  0.5731 -0.8670
 7053SOL    HW232796   3.644   3.055   5.691  5.0681  0.0675  1.2029
 7054SOL     OW32797   3.444   1.431   3.232 -0.3358 -0.3049 -0.2346
 7054SOL    HW132798   3.507   1.387   3.175 -1.9735 -3.2082  0.1798
 7054SOL    HW232799   3.370   1.371   3.219  0.7827 -1.8419  0.5180
 7055SOL     OW32800   0.342   0.155   3.571 -0.0551  0.0193 -0.0857
 7055SOL    HW132801   0.279   0.215   3.530 -1.0720 -0.5450  0.6699
 7055SOL    HW232802   0.328   0.081   3.511 -0.2094 -1.4707  1.7832
 7056SOL     OW32803   4.407   2.889   4.989 -0.3597 -0.2221 -0.5162
 7056SOL    HW132804   4.366   2.944   4.922  1.4791  1.5135 -0.2113
 7056SOL    HW232805   4.444   2.820   4.935  2.8971  0.9646  0.2111
 7057SOL     OW32806   3.644   0.564  17.385 -0.0298 -0.3489 -0.4222
 7057SOL    HW132807   3.629   0.536  17.294 -0.7633 -0.5130 -0.2519
 7057SOL    HW232808   3.737   0.546  17.396 -0.3141 -1.5734 -0.0876
 7058SOL     OW32809   4.451   0.823  16.799 -0.7451  0.1634 -0.5520
 7058SOL    HW132810   4.538   0.852  16.828 -1.7330  1.8219  0.7677
 7058SOL    HW232811   4.401   0.857  16.873 -1.5241 -0.0663 -0.9721
 7059SOL     OW32812   0.818   4.476   4.200 -0.3859  0.1136 -0.5978
 7059SOL    HW132813   0.847   4.439   4.117 -0.7469  1.9465 -1.5419
 7059SOL    HW232814   0.894   4.524   4.234 -1.2624  0.3942  0.9729
 7060SOL     OW32815   3.092   1.427   0.936 -0.0368  0.5307 -0.3281
 7060SOL    HW132816   3.038   1.422   1.016 -0.4409 -2.8438 -0.8000
 7060SOL    HW232817   3.040   1.367   0.883  3.1978 -0.8955 -1.8692
 7061SOL     OW32818   1.106   4.291  10.616  0.4329  0.2435  0.4262
 7061SOL    HW132819   1.143   4.207  10.643  2.3479  1.6607  2.2178
 7061SOL    HW232820   1.057   4.266  10.538  0.4763  0.4744  0.3222
 7062SOL     OW32821   2.587   1.520  10.561  0.0671 -0.1795 -0.3818
 7062SOL    HW132822   2.575   1.580  10.634  0.0252  1.2013 -1.5368
 7062SOL    HW232823   2.639   1.572  10.500 -0.5100  0.7406 -0.0716
 7063SOL     OW32824   0.773   3.765   9.077  0.4770 -0.8469 -0.0928
 7063SOL    HW132825   0.816   3.851   9.076  1.7143 -1.4328  1.7926
 7063SOL    HW232826   0.729   3.776   9.162 -1.6099 -0.7570 -1.1896
 7064SOL     OW32827   2.717   1.666  12.856 -0.4624  0.2327 -0.3123
 7064SOL    HW132828   2.742   1.759  12.848 -0.8889  0.2870 -1.0222
 7064SOL    HW232829   2.799   1.620  12.876  0.6698  1.4515 -2.0851
 7065SOL     OW32830   3.647   1.363  12.698 -0.5506  0.2635  0.4238
 7065SOL    HW132831   3.651   1.430  12.630 -1.1557 -0.9410 -0.8036
 7065SOL    HW232832   3.553   1.368  12.718 -1.1058 -1.3451 -1.7683
 7066SOL     OW32833   2.464   3.914   0.116  0.4176 -0.1027 -0.8594
 7066SOL    HW132834   2.412   3.992   0.095  0.3573  0.8097  2.7250
 7066SOL    HW232835   2.402   3.841   0.109 -0.5141  0.3120  3.4511
 7067SOL     OW32836   1.569   2.249   2.404 -0.2152  0.1227  0.0069
 7067SOL    HW132837   1.654   2.247   2.360  0.3050  2.4807  0.9159
 7067SOL    HW232838   1.540   2.338   2.385  1.7670  0.7356 -0.1703
 7068SOL     OW32839   1.522   1.067   5.978 -0.1821  0.5652  0.0226
 7068SOL    HW132840   1.468   1.003   6.024 -1.7025  1.1504 -0.9181
 7068SOL    HW232841   1.601   1.014   5.987 -0.9300 -0.3957  0.9548
 7069SOL     OW32842   1.272   1.432  12.520  0.4094 -0.0294  0.3595
 7069SOL    HW132843   1.238   1.513  12.557 -2.1290 -0.0525 -1.8894
 7069SOL    HW232844   1.259   1.451  12.427 -0.5522 -1.2912  0.2373
 7070SOL     OW32845   1.019   1.045   7.616 -0.2533 -0.3965 -0.7126
 7070SOL    HW132846   0.947   1.104   7.593  0.4959  1.6229  2.0363
 7070SOL    HW232847   1.048   1.020   7.529 -3.1484  1.1278 -2.1234
 7071SOL     OW32848   3.164   0.685  16.997  0.2038 -0.0437 -0.2845
 7071SOL    HW132849   3.073   0.688  16.968 -0.4004  0.7811  1.6771
 7071SOL    HW232850   3.204   0.763  16.958  1.6393 -0.5739  0.1230
 7072SOL     OW32851   1.645   3.798  14.771  0.2741 -0.0823 -0.2534
 7072SOL    HW132852   1.689   3.873  14.730 -1.4797  1.1188  0.0488
 7072SOL    HW232853   1.555   3.831  14.769 -0.8308 -3.1260 -0.7627
 7073SOL     OW32854   2.329   2.331   5.725 -0.1866 -0.1382 -0.2421
 7073SOL    HW132855   2.396   2.286   5.674 -0.9051 -1.1982 -0.2481
 7073SOL    HW232856   2.253   2.328   5.667 -0.3619  3.7029 -0.1732
 7074SOL     OW32857   1.145   2.682   4.494 -0.0862  0.1193 -0.7044
 7074SOL    HW132858   1.162   2.600   4.447  3.7392 -0.2050  1.1962
 7074SOL    HW232859   1.067   2.717   4.452 -1.2039 -1.3747  0.0726
 7075SOL     OW32860   1.077   0.877   8.259  0.1790  0.5887 -0.4638
 7075SOL    HW132861   1.143   0.816   8.293 -0.8563 -1.3461 -1.9441
 7075SOL    HW232862   1.135   0.948   8.230  0.2169  0.2396 -1.2372
 7076SOL     OW32863   4.525   1.407   6.397 -0.0212  0.0815 -0.7285
 7076SOL    HW132864   4.547   1.500   6.392  3.6758 -0.8328 -1.6949
 7076SOL    HW232865   4.540   1.391   6.490 -1.2656 -0.8707 -0.6900
 7077SOL     OW32866   1.018   3.270   5.992 -0.6414  0.5068 -0.4436
 7077SOL    HW132867   1.032   3.344   5.933  0.1839  0.2174 -0.6114
 7077SOL    HW232868   1.090   3.284   6.054 -1.1382 -1.8155  0.6614
 7078SOL     OW32869   4.126   1.774   8.738 -0.2832 -0.2971  0.9013
 7078SOL    HW132870   4.175   1.814   8.809  0.2326  0.1069  0.3146
 7078SOL    HW232871   4.089   1.692   8.772  3.1560 -1.9717  0.5795
 7079SOL     OW32872   1.518   2.985   9.012 -0.1209  0.2621  0.4406
 7079SOL    HW132873   1.499   2.983   9.105  1.3944  2.6322  0.8047
 7079SOL    HW232874   1.450   2.922   8.986  0.9974  0.0329 -1.9151
 7080SOL     OW32875   4.195   3.241   5.967 -0.4122  0.0647 -0.2837
 7080SOL    HW132876   4.161   3.311   6.023 -1.1666 -1.7877  1.5365
 7080SOL    HW232877   4.193   3.163   6.021 -0.1428 -0.8818 -1.6202
 7081SOL     OW32878   1.100   2.151   2.970 -0.1500 -0.1007 -0.1658
 7081SOL    HW132879   1.099   2.246   2.956 -0.9769  0.2298  2.2426
 7081SOL    HW232880   1.053   2.135   3.051 -0.6749  4.1164  0.3444
 7082SOL     OW32881   2.827   0.362   9.437 -0.5411 -0.0155  0.2446
 7082SOL    HW132882   2.900   0.312   9.473 -1.5266 -0.0633  2.1712
 7082SOL    HW232883   2.782   0.380   9.519  3.2199  1.9677  1.9086
 7083SOL     OW32884   0.071   0.519   0.109 -0.3623 -0.4544  0.2437
 7083SOL    HW132885   0.131   0.516   0.034 -0.6352 -1.0798  0.0485
 7083SOL    HW232886   0.068   0.431   0.146 -0.1228  0.2807  1.9888
 7084SOL     OW32887   3.102   0.753   5.723  0.0289 -0.2448 -0.4473
 7084SOL    HW132888   3.044   0.697   5.775 -1.9513  1.5093 -0.7717
 7084SOL    HW232889   3.129   0.813   5.793 -2.6994 -0.3585  0.6964
 7085SOL     OW32890   3.627   0.563   8.536  0.3138  1.2329  0.1281
 7085SOL    HW132891   3.631   0.657   8.553 -0.3606  0.9906  1.6186
 7085SOL    HW232892   3.653   0.518   8.616  0.3399 -1.3073 -1.2871
 7086SOL     OW32893   4.308   2.963   6.507  0.1239  0.7372 -0.2388
 7086SOL    HW132894   4.364   2.930   6.437 -2.7615 -0.4217 -1.9946
 7086SOL    HW232895   4.221   2.938   6.475  0.5687 -0.1687 -0.7371
 7087SOL     OW32896   0.831   1.625   3.992  0.5387 -0.6068  0.1441
 7087SOL    HW132897   0.738   1.605   3.978  0.7250 -0.1308 -1.8511
 7087SOL    HW232898   0.840   1.622   4.087 -0.5625 -0.7572  0.2452
 7088SOL     OW32899   1.477   1.868   9.237 -0.2379  0.7459  0.1452
 7088SOL    HW132900   1.453   1.959   9.220 -1.0235  0.9670  2.4744
 7088SOL    HW232901   1.423   1.827   9.168  2.1648 -0.8237 -0.8016
 7089SOL     OW32902   0.634   1.258   3.009  0.4832  0.2127  0.0724
 7089SOL    HW132903   0.557   1.202   2.996  1.2458 -1.0673  1.0652
 7089SOL    HW232904   0.594   1.344   3.017 -3.0881 -1.5844  1.7237
 7090SOL     OW32905   2.470   0.889  17.218 -0.1854  0.0203 -0.0653
 7090SOL    HW132906   2.384   0.855  17.244 -0.5211 -1.7168 -3.5313
 7090SOL    HW232907   2.527   0.839  17.276 -0.5049 -1.2414 -0.8384
 7091SOL     OW32908   1.381   0.960   2.193 -0.2720 -0.9357  0.3694
 7091SOL    HW132909   1.451   0.906   2.156 -0.2282  0.1366 -1.0740
 7091SOL    HW232910   1.435   1.012   2.253  1.0322 -3.9338  1.8599
 7092SOL     OW32911   0.388   0.631   2.356  0.2874 -0.1519 -0.2275
 7092SOL    HW132912   0.392   0.686   2.434  0.3751 -0.3092 -0.1195
 7092SOL    HW232913   0.299   0.596   2.355 -1.0770  3.4017 -0.0542
 7093SOL     OW32914   2.982   2.368   6.751  0.0625  0.0096 -0.2655
 7093SOL    HW132915   3.056   2.308   6.752  0.2580  0.2225 -1.6978
 7093SOL    HW232916   3.011   2.439   6.693  0.2252  0.9829  0.9936
 7094SOL     OW32917   0.345   0.506   0.931  0.2775 -0.7099  0.0228
 7094SOL    HW132918   0.318   0.415   0.926 -1.5737 -0.0866 -1.2437
 7094SOL    HW232919   0.376   0.510   1.022  1.2713 -0.2506 -0.3299
 7095SOL     OW32920   4.243   0.310   9.099 -0.7392  0.0195 -0.0112
 7095SOL    HW132921   4.294   0.320   9.179 -0.4506  1.2185 -0.3457
 7095SOL    HW232922   4.157   0.281   9.131 -0.1420 -0.0668  1.4799
 7096SOL     OW32923   4.123   2.175   5.101  0.4500 -0.0872  0.4692
 7096SOL    HW132924   4.183   2.243   5.071 -2.2492  1.6197 -1.1818
 7096SOL    HW232925   4.041   2.224   5.092  1.5275  1.3199 -1.8626
 7097SOL     OW32926   3.383   1.975   8.092  0.0496  0.1967  0.6103
 7097SOL    HW132927   3.450   1.947   8.154  1.2800  2.1877  0.1994
 7097SOL    HW232928   3.386   2.071   8.092  0.0351  0.1973  0.6449
 7098SOL     OW32929   4.225   1.391   0.563  0.7094 -0.0572 -0.2213
 7098SOL    HW132930   4.270   1.321   0.515  0.8831 -1.0948  1.4670
 7098SOL    HW232931   4.133   1.369   0.549  0.5580 -0.3343  1.2595
 7099SOL     OW32932   1.672   4.247   7.056  0.6751 -0.2147  0.6557
 7099SOL    HW132933   1.651   4.340   7.048  0.9361 -0.2675 -0.6685
 7099SOL    HW232934   1.765   4.262   7.037  0.5620 -0.9896 -0.4467
 7100SOL     OW32935   2.250   2.360   4.605  0.3996  0.3320  0.2641
 7100SOL    HW132936   2.165   2.401   4.623 -0.7440 -2.0743  0.3047
 7100SOL    HW232937   2.217   2.273   4.583  0.4622  0.4445 -0.2770
 7101SOL     OW32938   3.344   2.842  12.945 -0.3755  0.0968 -0.0700
 7101SOL    HW132939   3.361   2.753  12.917 -0.1392  0.0715  0.1491
 7101SOL    HW232940   3.437   2.864  12.934 -0.2311  1.1779  3.2176
 7102SOL     OW32941   1.631   0.395   1.794  0.2483  0.0753 -0.2290
 7102SOL    HW132942   1.677   0.315   1.818  0.2013  0.3317  0.6989
 7102SOL    HW232943   1.552   0.366   1.747  0.7780  0.2967 -1.2604
 7103SOL     OW32944   2.844   2.747  10.902 -0.0325  0.2008 -0.2653
 7103SOL    HW132945   2.871   2.834  10.871  0.2165  0.2715  0.1519
 7103SOL    HW232946   2.784   2.715  10.834  1.5213  0.1812 -1.6230
 7104SOL     OW32947   2.882   1.017   1.037  1.0394  0.0656 -0.0263
 7104SOL    HW132948   2.926   1.072   0.972  3.1299  0.5527  1.8153
 7104SOL    HW232949   2.961   1.008   1.089  2.0974 -1.6380 -1.9262
 7105SOL     OW32950   1.668   3.111   5.922  0.4587 -0.1694  0.6541
 7105SOL    HW132951   1.634   3.142   5.838 -0.3020 -1.7240  0.4005
 7105SOL    HW232952   1.742   3.171   5.918  0.3421  0.0770  1.9756
 7106SOL     OW32953   0.572   1.702   6.035 -0.2018  0.0220  0.3548
 7106SOL    HW132954   0.559   1.625   6.089  0.6997 -0.7765 -0.5694
 7106SOL    HW232955   0.481   1.714   6.008 -0.5084  0.8897  1.7978
 7107SOL     OW32956   2.807   4.331  16.989  0.2295  0.6307  0.3735
 7107SOL    HW132957   2.834   4.355  17.078 -1.4500  0.1140  1.0240
 7107SOL    HW232958   2.843   4.402  16.935 -1.3519  0.4281 -0.9381
 7108SOL     OW32959   1.768   3.271   3.898 -0.0859  0.1701 -0.3581
 7108SOL    HW132960   1.780   3.200   3.960 -0.3122 -0.9534 -1.6039
 7108SOL    HW232961   1.733   3.334   3.961 -0.0359  2.1713 -2.3209
 7109SOL     OW32962   0.598   2.816   3.023 -0.1417  0.3478  0.4011
 7109SOL    HW132963   0.586   2.733   3.070 -0.5525 -0.7186 -1.5794
 7109SOL    HW232964   0.639   2.786   2.941  1.2037  0.0360  1.1955
 7110SOL     OW32965   4.046   1.845  16.678 -0.7694  0.5103  0.7994
 7110SOL    HW132966   4.099   1.767  16.692  2.1869  2.2789 -0.2976
 7110SOL    HW232967   3.958   1.813  16.698  0.0875 -0.7434  2.6143
 7111SOL     OW32968   2.638   1.463   1.932  0.2004 -0.4221 -0.1441
 7111SOL    HW132969   2.558   1.429   1.892  0.4614 -1.7890  0.5150
 7111SOL    HW232970   2.708   1.399   1.922 -0.7231 -1.1970 -1.5892
 7112SOL     OW32971   3.305   0.306  11.708  0.2974  0.0202 -0.0577
 7112SOL    HW132972   3.255   0.235  11.749 -0.3398  0.0120 -0.8362
 7112SOL    HW232973   3.330   0.265  11.625 -0.3100 -0.7816  0.1536
 7113SOL     OW32974   3.451   1.596  16.807 -0.3106  0.2136  0.0024
 7113SOL    HW132975   3.399   1.527  16.849 -2.9534  2.6715  0.8329
 7113SOL    HW232976   3.393   1.673  16.806 -2.0438 -1.0847 -0.2740
 7114SOL     OW32977   2.338   0.685   5.587 -0.3893  0.0432 -0.0033
 7114SOL    HW132978   2.258   0.711   5.542  0.4137  2.2748 -0.1306
 7114SOL    HW232979   2.334   0.591   5.569 -0.6214  0.6582 -3.3112
 7115SOL     OW32980   1.251   2.332   7.260  0.4119 -0.3311  0.0443
 7115SOL    HW132981   1.197   2.402   7.225  1.0045  0.8128  1.4340
 7115SOL    HW232982   1.319   2.347   7.194  1.4534 -1.1919  0.9065
 7116SOL     OW32983   0.493   2.897  15.926  0.3506  0.1346  0.2236
 7116SOL    HW132984   0.475   2.862  15.839  1.9544  0.8506 -0.3954
 7116SOL    HW232985   0.409   2.884  15.970 -0.9138  2.3591 -1.5263
 7117SOL     OW32986   3.920   2.473   9.351  0.4070 -0.1219 -0.0750
 7117SOL    HW132987   3.865   2.475   9.430  1.0263 -0.6585  0.3747
 7117SOL    HW232988   3.956   2.385   9.361  0.8843  0.2325  1.4669
 7118SOL     OW32989   1.369   0.264   9.714  0.1761  0.3243  0.2168
 7118SOL    HW132990   1.462   0.286   9.723  0.4846 -0.6697 -0.5067
 7118SOL    HW232991   1.377   0.245   9.620 -2.6898 -0.3172  0.1053
 7119SOL     OW32992   3.201   1.628   7.501  0.6035  0.1396 -0.4490
 7119SOL    HW132993   3.177   1.535   7.503 -0.6659  0.4704 -0.1791
 7119SOL    HW232994   3.188   1.658   7.591 -0.9585  0.4356 -0.7766
 7120SOL     OW32995   1.428   1.896   7.418 -0.1691  0.3242  0.5277
 7120SOL    HW132996   1.502   1.951   7.443  0.9037 -0.6278 -0.5725
 7120SOL    HW232997   1.378   1.955   7.361 -0.4128 -0.5591 -0.1868
 7121SOL     OW32998   4.191   4.444   7.339  0.3964  0.3772 -0.2136
 7121SOL    HW132999   4.109   4.442   7.289  0.5402 -1.4033 -0.3680
 7121SOL    HW233000   4.224   4.529   7.310 -1.2964  1.5152  1.1682
 7122SOL     OW33001   0.912   0.579   8.182 -0.0387  0.3532  0.2189
 7122SOL    HW133002   0.895   0.673   8.180  0.2972  0.4053 -0.1837
 7122SOL    HW233003   0.915   0.558   8.275 -0.3960  2.1201  0.6155
 7123SOL     OW33004   3.280   1.437  17.001  0.3776  0.1887  0.2023
 7123SOL    HW133005   3.232   1.516  17.025 -0.0692 -0.3644  1.1571
 7123SOL    HW233006   3.348   1.436  17.069  1.2409  0.0826 -0.6568
 7124SOL     OW33007   0.643   4.614   7.725 -0.3135  0.3283  0.3463
 7124SOL    HW133008   0.580   4.557   7.682  1.5978 -1.2899 -0.3082
 7124SOL    HW233009   0.682   4.553   7.787  0.8183  1.0737  0.3794
 7125SOL     OW33010   1.553   1.542   5.127  0.2721 -0.3731 -0.1556
 7125SOL    HW133011   1.590   1.482   5.192  0.2982  1.3404  1.3995
 7125SOL    HW233012   1.462   1.533   5.154  0.7342 -2.4353  0.7276
 7126SOL     OW33013   0.159   0.385  13.984 -0.2161  0.5984  0.5085
 7126SOL    HW133014   0.254   0.401  13.986 -0.2807  1.3080 -1.9116
 7126SOL    HW233015   0.126   0.472  14.007 -1.3915 -0.4783  2.8516
 7127SOL     OW33016   0.990   1.100   8.468 -0.0436  0.0747 -0.5360
 7127SOL    HW133017   0.985   1.184   8.513 -4.5915  0.5691 -1.9669
 7127SOL    HW233018   1.011   1.134   8.382  0.6028  0.1647 -0.3432
 7128SOL     OW33019   3.001   2.228  10.046  0.7489  0.2180 -0.3599
 7128SOL    HW133020   3.073   2.283  10.077  0.6484 -1.5356  3.0314
 7128SOL    HW233021   3.033   2.224   9.956 -1.0744 -3.2327 -0.8178
 7129SOL     OW33022   0.305   2.634   9.617 -0.0950  1.0124 -0.0084
 7129SOL    HW133023   0.247   2.610   9.690  1.6446 -1.3934  0.5871
 7129SOL    HW233024   0.344   2.555   9.579 -0.4501  0.1502  1.4141
 7130SOL     OW33025   1.878   2.849   3.812 -0.4907  0.2494  0.1885
 7130SOL    HW133026   1.790   2.881   3.829 -0.7325 -0.4066  0.1652
 7130SOL    HW233027   1.880   2.760   3.847  1.1285 -0.1600 -0.9826
 7131SOL     OW33028   3.040   0.106   6.613  0.0011 -0.8063 -0.3637
 7131SOL    HW133029   3.005   0.023   6.646 -2.8141  0.4995 -0.0410
 7131SOL    HW233030   3.116   0.071   6.567  1.5574  0.0359  1.5776
 7132SOL     OW33031   1.439   1.904  11.273 -0.2728 -0.0608  0.0054
 7132SOL    HW133032   1.516   1.848  11.285  0.9198  1.6950  0.3915
 7132SOL    HW233033   1.437   1.960  11.350  0.5002 -0.4790  0.3280
 7133SOL     OW33034   2.837   4.345   4.575  0.3813  0.0643 -0.3146
 7133SOL    HW133035   2.907   4.285   4.549  0.3860  0.2031 -0.6210
 7133SOL    HW233036   2.779   4.323   4.503  2.9731  1.7211 -2.9019
 7134SOL     OW33037   2.077   0.927   8.445  0.2774 -0.1674 -0.0445
 7134SOL    HW133038   2.076   0.836   8.474 -2.4999  0.5064  1.9798
 7134SOL    HW233039   2.008   0.965   8.500 -0.4030 -0.7421 -0.5101
 7135SOL     OW33040   0.086   0.393   3.937 -0.2234  0.7124  0.5010
 7135SOL    HW133041   0.016   0.395   4.003  1.2243  3.7002  1.9504
 7135SOL    HW233042   0.143   0.331   3.981 -0.5572  0.3602  0.4374
 7136SOL     OW33043   0.719   3.423   5.868 -0.4082  0.6668 -0.6080
 7136SOL    HW133044   0.633   3.414   5.827 -2.4106  0.8372  3.5600
 7136SOL    HW233045   0.702   3.487   5.937  2.1750  0.8017 -0.0886
 7137SOL     OW33046   4.494   4.543   1.669 -0.0799  0.2373 -0.0031
 7137SOL    HW133047   4.558   4.613   1.657 -0.1847 -0.2080 -3.2332
 7137SOL    HW233048   4.441   4.564   1.746 -0.8095 -0.0343 -0.4289
 7138SOL     OW33049   0.805   1.614   8.945  0.1100  0.0165  0.0737
 7138SOL    HW133050   0.855   1.596   9.024 -1.6824 -0.7478  1.0138
 7138SOL    HW233051   0.763   1.529   8.932  0.4097 -0.2510  0.8622
 7139SOL     OW33052   2.221   3.164   0.769 -0.0776  0.0470 -0.1014
 7139SOL    HW133053   2.206   3.209   0.852 -1.6237 -0.8098  0.0671
 7139SOL    HW233054   2.315   3.145   0.775 -0.1141 -0.4239 -0.9371
 7140SOL     OW33055   4.117   3.881   4.932 -0.3197 -0.7081 -0.1382
 7140SOL    HW133056   4.085   3.923   4.852  0.3767 -0.6983 -0.4146
 7140SOL    HW233057   4.033   3.842   4.954  0.4275 -1.5380  1.2934
 7141SOL     OW33058   1.753   2.031   3.406 -0.0830 -0.6106 -0.7316
 7141SOL    HW133059   1.722   2.006   3.319 -2.2080 -0.2259 -0.0885
 7141SOL    HW233060   1.834   1.980   3.415 -1.0150 -1.7199  1.3580
 7142SOL     OW33061   3.762   0.901  14.248 -0.3172  0.3224  0.6119
 7142SOL    HW133062   3.691   0.881  14.309 -0.0055  0.8981  1.1592
 7142SOL    HW233063   3.833   0.901  14.311  0.7656  1.8264 -0.5967
 7143SOL     OW33064   2.639   1.238   8.273  0.1750 -0.3249 -0.6434
 7143SOL    HW133065   2.680   1.276   8.195 -0.4166  0.6520 -0.4792
 7143SOL    HW233066   2.569   1.182   8.238  2.4447 -3.4002 -0.2351
 7144SOL     OW33067   1.873   4.581   2.267  0.3919  0.0869  0.6695
 7144SOL    HW133068   1.906   4.553   2.352 -0.9276 -1.6404  0.6199
 7144SOL    HW233069   1.953   4.569   2.216 -1.3492  1.9756 -2.5217
 7145SOL     OW33070   2.334   0.409  10.811  0.7008 -0.3570  0.3803
 7145SOL    HW133071   2.381   0.444  10.887 -1.1694  1.0217  0.8908
 7145SOL    HW233072   2.390   0.441  10.739 -0.1425  2.4957  0.9680
 7146SOL     OW33073   4.175   0.234   4.549  0.3132 -0.7181 -0.4587
 7146SOL    HW133074   4.250   0.231   4.608 -1.7670 -2.8634  2.1036
 7146SOL    HW233075   4.100   0.229   4.608  0.3213 -1.6075 -0.5234
 7147SOL     OW33076   0.786   1.756  10.088  0.1149 -0.0543  0.1426
 7147SOL    HW133077   0.825   1.805  10.160  0.4970  2.0746 -1.5205
 7147SOL    HW233078   0.856   1.775  10.026 -0.0753  1.4640  0.3931
 7148SOL     OW33079   1.461   1.101   6.327  0.4394  0.2018  0.4092
 7148SOL    HW133080   1.368   1.112   6.348  1.0419 -3.5193  5.1879
 7148SOL    HW233081   1.444   1.016   6.286 -2.5190  0.5290  0.9498
 7149SOL     OW33082   4.710   1.346   0.325 -0.0911  0.3925  0.1494
 7149SOL    HW133083   0.040   1.281   0.353 -2.1376 -0.8907  1.8792
 7149SOL    HW233084   4.633   1.290   0.336 -0.4822  1.1284  1.0864
 7150SOL     OW33085   0.400   3.461   2.635  0.4219  0.3604 -0.2565
 7150SOL    HW133086   0.447   3.396   2.688 -2.1206 -1.3396 -0.0932
 7150SOL    HW233087   0.415   3.419   2.551 -1.5737 -0.3849 -0.2467
 7151SOL     OW33088   1.178   3.949   7.120 -0.0995  0.1703 -0.3300
 7151SOL    HW133089   1.159   4.035   7.083 -2.0960  1.1371  2.9058
 7151SOL    HW233090   1.154   3.892   7.047  1.1976 -1.1227  0.2517
 7152SOL     OW33091   0.679   4.686  11.017 -0.1224 -0.6435 -0.0456
 7152SOL    HW133092   0.773   4.670  11.027 -0.1015  0.3470  1.2673
 7152SOL    HW233093   0.641   4.613  11.066 -0.7556 -0.9328 -0.9658
 7153SOL     OW33094   2.252   1.619   7.308 -0.8357 -0.1367  0.0390
 7153SOL    HW133095   2.212   1.612   7.395  0.1100  2.6496  0.6883
 7153SOL    HW233096   2.320   1.553   7.314  0.3853  1.3033  1.9818
 7154SOL     OW33097   2.916   3.555  15.749  0.1672  0.2909 -0.4828
 7154SOL    HW133098   2.846   3.546  15.684  0.1999 -1.3299 -0.2821
 7154SOL    HW233099   2.973   3.480  15.735 -0.4897 -0.0186 -1.5040
 7155SOL     OW33100   1.009   4.724  11.522  0.6123  0.6499 -0.2653
 7155SOL    HW133101   1.037   0.060  11.580  0.8482  1.3163 -1.1794
 7155SOL    HW233102   0.983   4.653  11.580  2.5482 -0.7115 -1.0650
 7156SOL     OW33103   3.128   0.501   3.506  0.0152  0.2547  0.8299
 7156SOL    HW133104   3.049   0.489   3.559 -0.1344 -2.3327  0.0441
 7156SOL    HW233105   3.104   0.439   3.438 -1.0875  0.9703  0.5748
 7157SOL     OW33106   3.173   1.556   4.038 -0.0547  0.6760 -0.0887
 7157SOL    HW133107   3.187   1.533   3.946 -0.2732 -0.4147  0.1478
 7157SOL    HW233108   3.115   1.483   4.059  0.0720 -0.0263 -2.2154
 7158SOL     OW33109   0.100   1.220   8.757 -0.4209 -0.0470  0.0389
 7158SOL    HW133110   0.131   1.182   8.839 -0.1703  1.0153  0.4342
 7158SOL    HW233111   0.049   1.299   8.778 -0.2412  0.0954 -0.0557
 7159SOL     OW33112   0.847   3.129   8.297 -0.2351 -0.4432  0.7421
 7159SOL    HW133113   0.831   3.038   8.275 -0.3276 -0.0094 -0.9784
 7159SOL    HW233114   0.941   3.135   8.281 -0.5742  0.9077 -0.7491
 7160SOL     OW33115   4.296   4.603  13.881 -0.2161  0.1841 -0.1458
 7160SOL    HW133116   4.380   4.622  13.922 -0.3045 -1.3762  0.7531
 7160SOL    HW233117   4.283   4.692  13.848 -0.8762 -0.0024 -0.3846
 7161SOL     OW33118   2.989   3.488  12.738  0.6840 -0.5394 -0.0959
 7161SOL    HW133119   3.003   3.492  12.644 -1.1810 -0.6011 -0.3867
 7161SOL    HW233120   3.020   3.403  12.769  2.3338  0.6872  1.6307
 7162SOL     OW33121   1.445   2.248   9.705  0.0467  0.3990 -0.4308
 7162SOL    HW133122   1.399   2.169   9.676  1.3711 -0.7130  0.5180
 7162SOL    HW233123   1.435   2.304   9.628 -0.8421  1.2336  0.2902
 7163SOL     OW33124   0.426   2.752   3.631  0.0220 -0.1015  0.0526
 7163SOL    HW133125   0.399   2.665   3.660  1.0861 -0.5351 -0.2552
 7163SOL    HW233126   0.492   2.727   3.567  0.6445 -0.2369  0.7461
 7164SOL     OW33127   2.038   2.477  12.736 -0.8687  0.0773 -0.7710
 7164SOL    HW133128   1.960   2.530  12.745 -2.2063 -1.7713 -1.4374
 7164SOL    HW233129   2.101   2.532  12.689 -0.6963 -0.1228 -0.7744
 7165SOL     OW33130   1.738   1.340   3.738  0.2944 -0.1548 -0.2654
 7165SOL    HW133131   1.821   1.349   3.690  0.8928 -0.4176  0.7337
 7165SOL    HW233132   1.713   1.433   3.739 -0.9818 -0.4573 -2.8329
 7166SOL     OW33133   0.289   1.334   3.345 -0.6045 -0.4868  0.3175
 7166SOL    HW133134   0.238   1.335   3.265 -0.0703  2.2989  0.0378
 7166SOL    HW233135   0.294   1.240   3.364  0.4331 -0.4773  0.0794
 7167SOL     OW33136   3.909   3.131  12.431  0.2160  0.8023  0.0457
 7167SOL    HW133137   3.978   3.189  12.463  1.5524 -2.3914  2.9777
 7167SOL    HW233138   3.963   3.075  12.375 -1.2313 -1.1838  0.6479
 7168SOL     OW33139   2.536   3.104   6.425  0.2060 -0.1187 -0.1142
 7168SOL    HW133140   2.552   3.157   6.347  0.9423  0.8730  0.7120
 7168SOL    HW233141   2.573   3.164   6.490  1.9740 -1.2497 -0.0889
 7169SOL     OW33142   3.685   4.187   4.296 -0.1503 -0.5136  0.2250
 7169SOL    HW133143   3.671   4.229   4.381  0.9289  0.1420  0.0794
 7169SOL    HW233144   3.689   4.267   4.243  0.2001 -1.3484 -1.0233
 7170SOL     OW33145   1.124   0.646   4.129 -0.0119 -0.6348  0.0738
 7170SOL    HW133146   1.052   0.665   4.188 -0.6953 -0.5145 -0.7962
 7170SOL    HW233147   1.119   0.550   4.127  2.3847 -0.8103  2.9011
 7171SOL     OW33148   1.574   4.564   7.820 -0.2470 -0.0655  0.1854
 7171SOL    HW133149   1.575   4.598   7.730 -1.3391  4.2063  1.7874
 7171SOL    HW233150   1.482   4.575   7.844 -0.1247  0.0696  0.5876
 7172SOL     OW33151   0.041   4.186   8.173  0.3108  0.5619 -0.2667
 7172SOL    HW133152   4.727   4.208   8.094 -1.4906 -0.9845  0.4160
 7172SOL    HW233153   0.098   4.116   8.140 -0.6351 -1.0277  1.4393
 7173SOL     OW33154   0.062   4.050   7.644 -0.2733 -0.4537  0.2016
 7173SOL    HW133155   4.723   4.080   7.590  0.7811  0.7719 -0.5439
 7173SOL    HW233156   0.123   4.021   7.577 -0.0039 -2.6423  1.3884
 7174SOL     OW33157   2.384   4.184   7.236 -0.3854  0.6589  0.1239
 7174SOL    HW133158   2.306   4.141   7.199 -0.6237  0.5491  0.7502
 7174SOL    HW233159   2.414   4.239   7.163  1.5615 -0.2374  0.2458
 7175SOL     OW33160   4.152   1.143   6.787 -0.3487 -0.7110  0.0755
 7175SOL    HW133161   4.083   1.076   6.794 -2.2864  1.3624  0.8942
 7175SOL    HW233162   4.099   1.222   6.801 -0.5362 -0.9680  0.8519
 7176SOL     OW33163   1.699   2.299   1.111  0.0394 -0.3307  0.2505
 7176SOL    HW133164   1.678   2.207   1.093  0.3681 -0.3531 -0.0015
 7176SOL    HW233165   1.730   2.298   1.201 -1.5301  0.8715  0.8055
 7177SOL     OW33166   0.302   3.956  14.372  0.3440  0.1363  0.2757
 7177SOL    HW133167   0.344   4.041  14.363 -2.0152  1.2921  0.0470
 7177SOL    HW233168   0.236   3.973  14.440  0.5504  4.9505 -0.8029
 7178SOL     OW33169   3.268   1.967   9.206  0.6551  0.5003 -0.4507
 7178SOL    HW133170   3.317   1.886   9.195  0.9117  0.1903  3.0767
 7178SOL    HW233171   3.205   1.943   9.273  0.0475 -0.6376 -1.4309
 7179SOL     OW33172   2.572   0.809   7.741 -0.1580  0.1565 -0.4678
 7179SOL    HW133173   2.482   0.828   7.769  0.0951 -1.0737  1.1762
 7179SOL    HW233174   2.594   0.727   7.785 -0.1305 -0.2605 -1.2386
 7180SOL     OW33175   3.375   2.156  14.708  0.3224  0.4530  0.2052
 7180SOL    HW133176   3.429   2.200  14.774 -0.0282  0.9975  0.1273
 7180SOL    HW233177   3.310   2.226  14.701 -0.4237 -0.3485 -0.8443
 7181SOL     OW33178   4.450   3.780   6.853  0.0317 -0.1289  0.5247
 7181SOL    HW133179   4.497   3.847   6.903  2.9074 -1.9822  0.2970
 7181SOL    HW233180   4.455   3.701   6.907  1.2192  0.1995  0.8998
 7182SOL     OW33181   1.581   1.653   2.623 -0.2534  0.0852  0.5640
 7182SOL    HW133182   1.660   1.700   2.597 -0.2682 -0.2858 -0.1505
 7182SOL    HW233183   1.540   1.635   2.538  1.2052 -2.9205  0.4924
 7183SOL     OW33184   3.085   3.496   3.269  0.0301  0.6244 -0.8723
 7183SOL    HW133185   3.050   3.454   3.191 -1.2353 -0.1531  0.1100
 7183SOL    HW233186   3.025   3.462   3.335  1.0081  0.3388 -0.1316
 7184SOL     OW33187   3.410   0.482  17.425  0.2169  0.0407 -0.2046
 7184SOL    HW133188   3.502   0.501  17.409  0.6625 -1.8341  0.1654
 7184SOL    HW233189   3.377   0.569  17.403  2.8383  0.9131 -0.6947
 7185SOL     OW33190   2.787   2.199   1.365 -0.3586 -0.1345 -0.1344
 7185SOL    HW133191   2.710   2.145   1.383  0.5337 -1.0213  0.9783
 7185SOL    HW233192   2.802   2.184   1.271  1.6412 -0.0818  0.1806
 7186SOL     OW33193   4.496   1.845   5.764 -0.4635 -0.0947  0.1884
 7186SOL    HW133194   4.438   1.774   5.791 -0.6196 -0.3103 -0.7003
 7186SOL    HW233195   4.580   1.805   5.788  0.9615  0.4781 -3.7992
 7187SOL     OW33196   4.720   1.450   7.093 -0.4535  0.2022 -0.0466
 7187SOL    HW133197   4.656   1.389   7.129 -0.1967  0.7710  1.3476
 7187SOL    HW233198   0.030   1.477   7.173  1.3884 -0.5572 -0.7986
 7188SOL     OW33199   3.206   4.551  12.342  0.1466  0.0509  0.1263
 7188SOL    HW133200   3.186   4.477  12.399  0.4435 -0.2863 -0.2064
 7188SOL    HW233201   3.187   4.516  12.255 -0.8766  0.1376  0.3143
 7189SOL     OW33202   3.052   3.869   4.490 -0.1183 -0.0940  0.1861
 7189SOL    HW133203   2.992   3.795   4.495  0.3655 -0.5709 -1.1971
 7189SOL    HW233204   3.056   3.884   4.395 -2.9528 -4.4172 -0.6250
 7190SOL     OW33205   3.749   3.838   6.521 -0.2137 -0.5881 -0.0630
 7190SOL    HW133206   3.729   3.930   6.509  1.9033 -0.2704 -1.1940
 7190SOL    HW233207   3.839   3.829   6.488 -0.4331 -1.5600 -0.4105
 7191SOL     OW33208   3.244   4.623   8.752 -0.3711  0.3227  0.4077
 7191SOL    HW133209   3.289   4.677   8.686  4.5678  0.9178  4.2931
 7191SOL    HW233210   3.191   4.568   8.694 -1.0764  1.4197  0.0016
 7192SOL     OW33211   0.805   0.878  12.021 -0.3085  0.3347  0.6049
 7192SOL    HW133212   0.806   0.884  12.116  1.4599  0.4587  0.5721
 7192SOL    HW233213   0.713   0.903  12.011  0.0096  1.0253 -0.5944
 7193SOL     OW33214   4.394   0.023   1.079  0.1449  0.4786 -0.1674
 7193SOL    HW133215   4.318   0.060   1.125  0.7124  1.4903 -0.0484
 7193SOL    HW233216   4.441   0.104   1.060  0.4269  0.3674  0.0684
 7194SOL     OW33217   3.717   2.449   2.702  0.0329 -0.6507 -0.4606
 7194SOL    HW133218   3.762   2.405   2.774  1.4277  1.9084  0.2256
 7194SOL    HW233219   3.645   2.494   2.746 -1.2833 -0.5353 -2.7248
 7195SOL     OW33220   3.429   1.741  12.263  0.1705  0.2830 -0.1678
 7195SOL    HW133221   3.407   1.834  12.273  0.1625  0.1115  1.4553
 7195SOL    HW233222   3.518   1.753  12.231  0.2374 -0.2526 -0.1822
 7196SOL     OW33223   2.917   3.527   8.769  0.0189  0.3679 -0.3940
 7196SOL    HW133224   2.845   3.586   8.792 -0.1020  0.9233 -2.2152
 7196SOL    HW233225   2.883   3.439   8.787 -2.4205  1.4109  0.0803
 7197SOL     OW33226   0.445   1.613   1.907  0.8425 -0.2691  0.5337
 7197SOL    HW133227   0.489   1.563   1.839 -0.9768 -0.3784 -0.5585
 7197SOL    HW233228   0.518   1.662   1.945  2.5113 -3.7554  1.7419
 7198SOL     OW33229   1.031   2.825   7.849 -0.0980 -0.3485  0.2891
 7198SOL    HW133230   1.084   2.745   7.848 -0.6783 -0.7515  1.6114
 7198SOL    HW233231   0.986   2.814   7.765 -1.1684  1.1970  0.6678
 7199SOL     OW33232   1.544   3.585   8.770  0.2845  0.1010 -0.2410
 7199SOL    HW133233   1.500   3.669   8.787  2.6689  1.2525  0.1769
 7199SOL    HW233234   1.598   3.611   8.696  0.4708  0.4726  0.0238
 7200SOL     OW33235   0.445   4.178   3.497 -0.2286  0.2289  0.1629
 7200SOL    HW133236   0.540   4.194   3.501 -0.1805  0.1012 -0.4653
 7200SOL    HW233237   0.416   4.252   3.443  2.7786  1.1675 -0.2027
 7201SOL     OW33238   2.336   3.379   3.577 -0.1510 -0.8383  0.3300
 7201SOL    HW133239   2.337   3.385   3.673  1.3553  2.5974  0.1115
 7201SOL    HW233240   2.254   3.330   3.569 -0.6179  0.6168 -3.9650
 7202SOL     OW33241   1.673   1.523  12.415  0.4006 -0.0782 -0.1937
 7202SOL    HW133242   1.673   1.619  12.422  0.2860 -0.1811  1.2333
 7202SOL    HW233243   1.578   1.508  12.416  0.5407 -1.0063 -1.3633
 7203SOL     OW33244   1.709   1.745  15.031  0.6920  0.4686 -0.3438
 7203SOL    HW133245   1.664   1.687  15.093  1.6181 -0.5418 -0.6187
 7203SOL    HW233246   1.632   1.770  14.979  1.2624  1.5947 -0.6493
 7204SOL     OW33247   4.582   2.663   3.350 -0.2885  0.2866  0.8000
 7204SOL    HW133248   4.625   2.623   3.426  1.2468  0.7524  0.1920
 7204SOL    HW233249   4.545   2.588   3.304  0.7533 -0.0416  0.4983
 7205SOL     OW33250   0.207   3.783   6.096  0.0694 -0.4006 -0.4443
 7205SOL    HW133251   0.187   3.707   6.042 -0.4239 -1.2882  0.9910
 7205SOL    HW233252   0.212   3.738   6.180  1.1167 -0.5357 -0.5838
 7206SOL     OW33253   4.082   2.103   8.664  0.0408 -0.4440  0.5334
 7206SOL    HW133254   4.176   2.117   8.655  0.1740  0.6206  3.6004
 7206SOL    HW233255   4.086   2.073   8.754 -2.0703 -0.3107  0.6843
 7207SOL     OW33256   0.385   1.103   4.915 -0.5045 -0.4683 -0.3934
 7207SOL    HW133257   0.341   1.182   4.883  0.1487  0.3088  0.6226
 7207SOL    HW233258   0.474   1.117   4.883 -0.3450  1.2746  0.8594
 7208SOL     OW33259   0.807   1.685   2.432  0.2615 -0.1164  0.2093
 7208SOL    HW133260   0.724   1.699   2.478 -0.3346  1.7457 -1.4131
 7208SOL    HW233261   0.838   1.775   2.437  0.3266  0.0696 -3.1088
 7209SOL     OW33262   0.511   2.828  17.424  0.0987 -0.0799 -0.4957
 7209SOL    HW133263   0.503   2.740  17.387 -1.6541 -0.4696  0.7995
 7209SOL    HW233264   0.426   2.870  17.412 -0.0976  0.0605  1.3982
 7210SOL     OW33265   0.477   3.073   8.332  0.2355 -0.2193 -0.2187
 7210SOL    HW133266   0.535   3.091   8.258  2.2729 -4.7746  0.3070
 7210SOL    HW233267   0.452   2.981   8.321 -1.4165  0.3197 -0.9833
 7211SOL     OW33268   4.065   1.871   8.487 -0.1652  0.0914  0.0344
 7211SOL    HW133269   4.112   1.851   8.569 -2.7342 -0.4200  1.3650
 7211SOL    HW233270   4.045   1.964   8.501  0.8638  0.5081 -1.2116
 7212SOL     OW33271   1.478   4.514  12.625 -0.9439 -0.6536 -0.2814
 7212SOL    HW133272   1.479   4.545  12.535  0.2305  1.4183  0.4416
 7212SOL    HW233273   1.517   4.427  12.615 -1.0174 -0.9047  1.4788
 7213SOL     OW33274   3.169   1.566   3.535  0.1964 -0.0780 -0.3536
 7213SOL    HW133275   3.253   1.608   3.554 -0.1551  0.0757  0.8853
 7213SOL    HW233276   3.134   1.561   3.624  2.2682 -0.2346  0.4412
 7214SOL     OW33277   1.638   3.827   4.017 -0.0274 -0.4889  0.1487
 7214SOL    HW133278   1.679   3.740   4.010 -2.1583 -1.4438 -0.6567
 7214SOL    HW233279   1.658   3.861   4.104 -0.1895  0.4569 -0.1859
 7215SOL     OW33280   3.137   2.438   8.673  0.5572 -0.0705  0.1435
 7215SOL    HW133281   3.200   2.385   8.722  0.2344 -0.2285  0.3892
 7215SOL    HW233282   3.119   2.377   8.602  2.5810 -3.8143  2.7928
 7216SOL     OW33283   1.021   4.545   3.137  0.2334 -0.5258  0.2917
 7216SOL    HW133284   1.008   4.460   3.180 -0.0887 -0.4006  0.4416
 7216SOL    HW233285   1.106   4.533   3.094 -0.6536 -0.8356 -1.3445
 7217SOL     OW33286   0.367   1.132  11.859 -0.2242  0.1680 -0.1224
 7217SOL    HW133287   0.289   1.154  11.911  0.2189  1.2387  0.0876
 7217SOL    HW233288   0.402   1.217  11.835 -0.4505  0.0529 -0.8636
 7218SOL     OW33289   4.697   3.504   6.776 -0.5925 -0.1307 -0.1994
 7218SOL    HW133290   0.009   3.426   6.747  0.0599  0.3157 -0.3561
 7218SOL    HW233291   4.647   3.514   6.695  0.8754  1.3471 -0.9198
 7219SOL     OW33292   1.531   2.465   2.956 -0.3662 -0.2974  0.3748
 7219SOL    HW133293   1.617   2.499   2.982 -0.2999  0.7695 -1.2816
 7219SOL    HW233294   1.476   2.459   3.035 -0.5838  0.5800  0.2808
 7220SOL     OW33295   1.902   3.232  11.772 -0.1816 -0.1836  0.2046
 7220SOL    HW133296   1.966   3.291  11.731 -0.2472 -0.0526  0.2899
 7220SOL    HW233297   1.944   3.202  11.853  0.3238  0.4180  0.1696
 7221SOL     OW33298   0.439   2.831   1.861  0.0979  0.0955 -0.1679
 7221SOL    HW133299   0.436   2.899   1.794  0.8374  2.1048  1.8836
 7221SOL    HW233300   0.374   2.869   1.919  2.0628  0.0141  2.0658
 7222SOL     OW33301   4.112   4.337   5.721 -0.1165 -0.1963  0.1945
 7222SOL    HW133302   4.156   4.422   5.728 -0.3021 -0.0149 -0.8743
 7222SOL    HW233303   4.179   4.276   5.750 -0.4866 -0.6607  0.0614
 7223SOL     OW33304   2.491   2.777   8.156 -0.1601  0.0611  0.2267
 7223SOL    HW133305   2.546   2.702   8.135  0.0079 -0.6724  3.3131
 7223SOL    HW233306   2.402   2.745   8.174 -0.2669  1.0858  1.5002
 7224SOL     OW33307   0.286   3.152   9.266 -0.1614  0.1697 -0.4097
 7224SOL    HW133308   0.331   3.230   9.298 -1.2181  0.7835 -0.4196
 7224SOL    HW233309   0.308   3.095   9.339 -0.7545  0.9300  0.3519
 7225SOL     OW33310   3.584   1.744   8.121  0.0305  0.7054 -0.0817
 7225SOL    HW133311   3.631   1.814   8.075  1.2008 -0.3169 -0.4515
 7225SOL    HW233312   3.651   1.734   8.189 -0.6936  1.9015  0.8020
 7226SOL     OW33313   3.147   3.625  12.966 -0.2686 -0.3492 -0.0728
 7226SOL    HW133314   3.217   3.579  12.921 -2.1395 -1.7748 -1.5328
 7226SOL    HW233315   3.079   3.647  12.902  0.8786  1.5952 -0.6349
 7227SOL     OW33316   2.941   3.440   8.235 -0.2428  0.2926  0.1253
 7227SOL    HW133317   2.890   3.519   8.214  0.6785  0.4045 -1.6442
 7227SOL    HW233318   2.942   3.392   8.153 -3.2144 -0.0294  0.2515
 7228SOL     OW33319   4.053   2.538   4.075 -0.0465 -0.5368 -0.1506
 7228SOL    HW133320   3.976   2.501   4.031 -0.7577 -0.7975  1.3302
 7228SOL    HW233321   4.070   2.599   4.003  1.7712 -1.1284 -0.2171
 7229SOL     OW33322   2.345   1.192   8.125  0.4893 -0.0244 -0.1820
 7229SOL    HW133323   2.341   1.274   8.076  0.3778  0.9141  1.4135
 7229SOL    HW233324   2.298   1.135   8.065  0.3235 -0.3297  0.2395
 7230SOL     OW33325   1.677   2.387   5.269 -0.1713 -0.0900  0.5973
 7230SOL    HW133326   1.699   2.410   5.359  2.4648 -0.9398  0.1740
 7230SOL    HW233327   1.752   2.427   5.226 -0.6790 -1.8841 -1.9567
 7231SOL     OW33328   3.945   2.121  15.306  0.1261 -0.4108  0.2013
 7231SOL    HW133329   3.910   2.153  15.223 -1.6400 -1.5063  0.5258
 7231SOL    HW233330   4.030   2.093  15.273  0.7588  1.3388  0.3652
 7232SOL     OW33331   1.716   2.796   5.219  0.3269  0.2650 -0.3235
 7232SOL    HW133332   1.693   2.826   5.131  1.2204 -1.4152 -1.1245
 7232SOL    HW233333   1.722   2.881   5.263 -2.6229 -0.1588  0.9003
 7233SOL     OW33334   1.053   1.241   4.007 -0.3098  0.2216  0.0924
 7233SOL    HW133335   1.056   1.305   3.935 -0.5758 -0.1463 -0.2490
 7233SOL    HW233336   1.063   1.300   4.082  0.4221  0.2026  0.0088
 7234SOL     OW33337   4.102   0.016   8.931 -0.3090  0.1816  0.0054
 7234SOL    HW133338   4.188   0.046   8.960  0.2799  0.0411 -1.5984
 7234SOL    HW233339   4.126   4.691   8.859 -0.7763  0.2568 -0.2137
 7235SOL     OW33340   0.909   1.847  14.202 -0.1971 -0.4996  0.2226
 7235SOL    HW133341   0.830   1.822  14.153  0.6339  1.7698 -2.2148
 7235SOL    HW233342   0.914   1.788  14.278  0.2056 -0.4799  0.2091
 7236SOL     OW33343   4.341   2.666  14.594  0.3734  0.2209 -0.3371
 7236SOL    HW133344   4.400   2.672  14.519 -0.4253 -0.6957 -1.0417
 7236SOL    HW233345   4.383   2.597  14.647 -0.2641  0.1873  0.1245
 7237SOL     OW33346   3.264   2.971   6.802 -0.1942  0.0650  0.1091
 7237SOL    HW133347   3.183   3.022   6.792  0.4871  1.0947 -0.1081
 7237SOL    HW233348   3.277   2.967   6.897  1.5440  0.2729 -0.1362
 7238SOL     OW33349   0.174   0.349   2.577  0.0790  0.0484 -0.1026
 7238SOL    HW133350   0.265   0.329   2.601 -1.2200 -1.6921  3.2638
 7238SOL    HW233351   0.114   0.294   2.628 -0.2316 -0.4575 -1.0164
 7239SOL     OW33352   1.274   2.998   3.679  0.0520 -0.1608 -0.0200
 7239SOL    HW133353   1.211   3.063   3.648 -0.0598 -0.7897 -1.1409
 7239SOL    HW233354   1.248   2.999   3.771  0.5342 -2.1905  0.1449
 7240SOL     OW33355   2.129   3.574   2.228 -0.2332 -0.0265  0.0496
 7240SOL    HW133356   2.045   3.606   2.260 -0.9385 -0.6954 -1.0987
 7240SOL    HW233357   2.103   3.527   2.148  0.7232  1.6338 -1.2364
 7241SOL     OW33358   3.605   1.328   6.064  0.3091 -0.3844 -0.3524
 7241SOL    HW133359   3.548   1.325   5.986  0.5786 -1.9853 -0.5044
 7241SOL    HW233360   3.543   1.312   6.135 -2.3451  0.2422 -2.5194
 7242SOL     OW33361   2.048   1.125   2.960  0.3586 -0.5050  0.6575
 7242SOL    HW133362   1.991   1.050   2.943  0.7195 -0.5095 -0.5108
 7242SOL    HW233363   2.009   1.162   3.039  2.2919  0.3606  1.2188
 7243SOL     OW33364   3.580   1.102   4.676 -0.1328 -0.0212  0.2719
 7243SOL    HW133365   3.563   1.194   4.656  2.8051  0.5826  0.5847
 7243SOL    HW233366   3.657   1.098   4.733  0.2798  0.2916 -0.2582
 7244SOL     OW33367   3.617   1.525   2.379  0.5550  0.1285 -0.3614
 7244SOL    HW133368   3.535   1.478   2.397 -0.1819  1.6727  0.3244
 7244SOL    HW233369   3.606   1.595   2.443 -1.2512 -0.5942  0.1309
 7245SOL     OW33370   2.643   4.086  16.211 -0.2697  0.2411  0.2027
 7245SOL    HW133371   2.711   4.023  16.237  0.4001  1.2964  1.0149
 7245SOL    HW233372   2.633   4.136  16.292 -1.7083  3.3590 -1.9271
 7246SOL     OW33373   3.454   1.125  16.487 -0.5658  0.4514 -0.8296
 7246SOL    HW133374   3.548   1.111  16.503 -0.1985  1.3215 -2.2729
 7246SOL    HW233375   3.456   1.108  16.393  0.8013  0.9699 -0.8929
 7247SOL     OW33376   3.395   3.712   2.818  0.0690  0.2449  0.0839
 7247SOL    HW133377   3.485   3.685   2.805  0.5003  2.0846 -0.7845
 7247SOL    HW233378   3.397   3.696   2.912  0.4515 -0.4502 -0.0409
 7248SOL     OW33379   2.662   3.363   4.945 -0.5711  0.1204 -0.9385
 7248SOL    HW133380   2.711   3.285   4.972  2.9452  2.6871  0.0882
 7248SOL    HW233381   2.651   3.413   5.027  1.6098 -0.2764 -0.3904
 7249SOL     OW33382   2.278   3.227  14.007  0.1072  0.2471  0.5361
 7249SOL    HW133383   2.285   3.177  14.089 -0.0033 -0.3171  0.2045
 7249SOL    HW233384   2.331   3.167  13.954 -0.3174  0.1966  0.1788
 7250SOL     OW33385   2.530   1.290   4.029  0.1329 -0.1704  0.1536
 7250SOL    HW133386   2.438   1.266   4.027 -0.5558  2.1883  2.4519
 7250SOL    HW233387   2.567   1.209   3.994  0.3757 -0.2902  0.6741
 7251SOL     OW33388   3.180   2.963   2.413 -0.1742  0.3000  0.2964
 7251SOL    HW133389   3.162   2.874   2.384 -0.4781  0.5407 -0.2488
 7251SOL    HW233390   3.267   2.948   2.451 -0.7057 -0.8416  1.0533
 7252SOL     OW33391   2.201   3.328  10.348  0.1964 -0.0063  0.3913
 7252SOL    HW133392   2.202   3.233  10.363 -0.7576 -0.1655 -0.5589
 7252SOL    HW233393   2.226   3.332  10.256 -0.0753  1.1952  0.3722
 7253SOL     OW33394   0.100   4.542   3.363 -0.8457 -0.3520 -0.0555
 7253SOL    HW133395   0.030   4.533   3.428  0.5688  1.0457  1.6351
 7253SOL    HW233396   0.054   4.505   3.287 -2.8042  0.1917  0.8666
 7254SOL     OW33397   3.824   4.355  16.180 -0.0162  0.1591 -0.4102
 7254SOL    HW133398   3.759   4.384  16.117 -0.6217  0.3356  0.3022
 7254SOL    HW233399   3.786   4.375  16.266  0.2258  2.4487 -0.8562
 7255SOL     OW33400   3.314   1.604   1.812  0.0457 -0.0552 -0.3514
 7255SOL    HW133401   3.360   1.553   1.879 -0.6993 -0.4823 -0.1616
 7255SOL    HW233402   3.378   1.619   1.742 -1.1940  1.2823 -1.1996
 7256SOL     OW33403   0.258   4.440   5.876 -0.4730 -0.3462  0.0822
 7256SOL    HW133404   0.347   4.455   5.907 -0.8864 -1.3134  1.7528
 7256SOL    HW233405   0.253   4.345   5.884  0.2698 -0.5652 -1.9260
 7257SOL     OW33406   2.014   0.101   4.031  0.0769 -0.1468  0.8917
 7257SOL    HW133407   2.103   0.122   4.059  0.5018  0.0777 -0.5963
 7257SOL    HW233408   1.991   0.178   3.979 -0.3043  0.2457  1.6426
 7258SOL     OW33409   0.437   3.544   4.786 -0.5386  0.6104  1.0104
 7258SOL    HW133410   0.447   3.450   4.769 -0.8602  0.2945  2.5657
 7258SOL    HW233411   0.441   3.554   4.881  0.0370 -2.5439  1.3173
 7259SOL     OW33412   1.904   1.340   0.468 -0.7756 -0.1180 -0.9241
 7259SOL    HW133413   1.917   1.245   0.462  1.8306  0.3873 -3.4366
 7259SOL    HW233414   1.991   1.374   0.489 -0.4836 -0.1349 -2.1055
 7260SOL     OW33415   2.994   3.133   4.084  0.4343  0.1057 -0.8321
 7260SOL    HW133416   2.939   3.179   4.148  2.8618  0.0250  1.3163
 7260SOL    HW233417   3.076   3.181   4.095  0.4287 -0.1350  0.1936
 7261SOL     OW33418   3.860   3.035  16.501  0.2935  0.2240 -0.0989
 7261SOL    HW133419   3.910   2.973  16.555  0.6153 -0.6372 -1.4042
 7261SOL    HW233420   3.805   3.090  16.557 -0.3245 -0.2479 -0.2369
 7262SOL     OW33421   0.334   0.650   6.517  0.5958 -0.2365 -0.3697
 7262SOL    HW133422   0.401   0.702   6.472 -0.5433  1.2772 -0.2884
 7262SOL    HW233423   0.286   0.624   6.439 -0.3272 -0.9427  0.4335
 7263SOL     OW33424   1.695   0.844  13.052 -0.3311  0.1219 -0.0913
 7263SOL    HW133425   1.726   0.777  13.113  0.1730  1.3513  1.0000
 7263SOL    HW233426   1.707   0.927  13.099  0.6863 -0.5715  0.8629
 7264SOL     OW33427   3.829   1.011   5.857 -0.3328  0.7157 -0.5429
 7264SOL    HW133428   3.847   0.929   5.903  1.7197  1.5902  0.1773
 7264SOL    HW233429   3.757   0.976   5.804  0.6393  1.1570 -2.1632
 7265SOL     OW33430   0.688   0.544   5.963 -0.5390 -0.4569  0.0570
 7265SOL    HW133431   0.635   0.527   6.040 -0.1244 -3.0390 -0.2354
 7265SOL    HW233432   0.621   0.515   5.900  0.7940 -1.0192 -1.1118
 7266SOL     OW33433   0.090   1.095   3.796  0.0639 -0.0796  0.0851
 7266SOL    HW133434   0.127   1.153   3.728 -2.8687  1.5170 -0.1511
 7266SOL    HW233435   0.164   1.045   3.830 -0.9478 -2.1254 -0.7806
 7267SOL     OW33436   2.693   2.392   6.031  0.4374 -0.1427  0.6767
 7267SOL    HW133437   2.759   2.456   6.005 -0.1617 -0.9344 -2.8216
 7267SOL    HW233438   2.618   2.452   6.037  0.6382  0.1197  0.5403
 7268SOL     OW33439   0.695   1.163   5.492  0.3391 -0.0211  0.1655
 7268SOL    HW133440   0.730   1.208   5.416  1.8015  2.5551  2.3711
 7268SOL    HW233441   0.697   1.071   5.465  0.1468  0.0684 -0.1520
 7269SOL     OW33442   1.486   1.194   4.972 -0.3454 -0.7446  0.1153
 7269SOL    HW133443   1.460   1.224   4.885  1.6723  2.1406  0.5338
 7269SOL    HW233444   1.536   1.272   4.993  0.5967 -1.6176  1.1225
 7270SOL     OW33445   4.307   3.816   8.879  0.2939 -0.0238 -0.2998
 7270SOL    HW133446   4.294   3.884   8.812 -0.4399  0.2207  0.0932
 7270SOL    HW233447   4.301   3.869   8.958  0.5587  0.2652 -0.4712
 7271SOL     OW33448   0.016   1.418  15.000  0.9585  0.0185 -0.5792
 7271SOL    HW133449   0.078   1.375  14.941  0.7425 -2.1198  0.7483
 7271SOL    HW233450   0.033   1.512  14.989  1.5460  0.0329  0.4563
 7272SOL     OW33451   2.508   2.370   2.722 -0.6575 -0.0785  0.1442
 7272SOL    HW133452   2.465   2.455   2.724  0.3043  0.4345 -1.4366
 7272SOL    HW233453   2.590   2.387   2.677  0.0465 -0.3407  1.3208
 7273SOL     OW33454   4.691   1.448   7.585  0.2131 -0.6459  0.2591
 7273SOL    HW133455   0.035   1.501   7.571 -0.5985  0.4664 -0.1134
 7273SOL    HW233456   4.632   1.515   7.619 -0.8335 -1.0884 -0.6676
 7274SOL     OW33457   0.363   0.712   0.306 -0.7755 -0.4606  0.1751
 7274SOL    HW133458   0.424   0.736   0.375 -3.6608  0.4500  2.4281
 7274SOL    HW233459   0.413   0.684   0.229  1.4991  3.4354  0.2141
 7275SOL     OW33460   3.343   1.683  16.103 -1.0654  0.7393 -0.2883
 7275SOL    HW133461   3.386   1.767  16.121 -0.5356 -0.0035  1.9548
 7275SOL    HW233462   3.251   1.708  16.095 -1.0929  0.4763 -0.7583
 7276SOL     OW33463   4.337   2.302   5.462 -0.1710  0.1557 -0.1083
 7276SOL    HW133464   4.266   2.360   5.434 -1.4598 -0.2778  2.2189
 7276SOL    HW233465   4.279   2.240   5.507  0.2376 -1.3435 -1.6479
 7277SOL     OW33466   3.441   4.499  15.064 -0.2093 -0.0785  0.2785
 7277SOL    HW133467   3.370   4.460  15.115  0.9882 -0.3079  1.7797
 7277SOL    HW233468   3.510   4.496  15.130 -0.7811  1.9262  0.9838
 7278SOL     OW33469   1.016   3.527  11.519  0.3321  0.0977 -0.1152
 7278SOL    HW133470   1.049   3.505  11.607  2.9398 -0.0804 -1.1416
 7278SOL    HW233471   0.928   3.560  11.535 -0.1718 -0.8405 -0.9732
 7279SOL     OW33472   3.319   2.172   1.051  0.4182 -0.2567  0.4708
 7279SOL    HW133473   3.272   2.090   1.034  2.4418 -1.3091 -0.1347
 7279SOL    HW233474   3.411   2.153   1.033 -0.2298 -0.0313 -3.0102
 7280SOL     OW33475   3.244   3.396   3.640 -0.5173  0.1751  0.3714
 7280SOL    HW133476   3.335   3.398   3.670 -1.1855  2.2315  2.2011
 7280SOL    HW233477   3.252   3.374   3.547 -0.2783  0.2440  0.3752
 7281SOL     OW33478   2.677   3.133  10.684  0.1928  0.4375 -0.2994
 7281SOL    HW133479   2.591   3.110  10.719  1.0949 -1.3210  0.7508
 7281SOL    HW233480   2.650   3.152  10.594 -0.8454  0.6771  0.0619
 7282SOL     OW33481   4.428   3.898   7.322  0.0027 -0.3744  0.1461
 7282SOL    HW133482   4.433   3.941   7.407 -1.1459  1.7173 -0.8437
 7282SOL    HW233483   4.344   3.933   7.290  0.0035  0.5617  1.1765
 7283SOL     OW33484   2.407   3.899  16.977 -0.7341 -0.0893 -0.0663
 7283SOL    HW133485   2.382   3.816  17.016  2.8896 -1.9237 -1.6097
 7283SOL    HW233486   2.367   3.964  17.035 -0.0985 -0.2811  0.5831
 7284SOL     OW33487   0.234   4.250   2.920 -0.4463 -0.3845  0.0494
 7284SOL    HW133488   0.288   4.301   2.980  0.9809 -0.1639 -1.3940
 7284SOL    HW233489   0.156   4.244   2.975 -1.5277 -0.8153 -1.5238
 7285SOL     OW33490   3.664   2.797   5.394 -0.4670  0.2838 -0.5343
 7285SOL    HW133491   3.705   2.837   5.318  1.3071 -1.4100 -0.4686
 7285SOL    HW233492   3.698   2.707   5.394  0.3800  0.6189 -1.8258
 7286SOL     OW33493   0.928   2.116   8.927 -0.9605 -0.0483  0.0201
 7286SOL    HW133494   0.907   2.207   8.909  0.6935  0.5969  1.4606
 7286SOL    HW233495   0.954   2.124   9.018 -1.7471  0.0935  0.2378
 7287SOL     OW33496   3.906   0.427   3.744  0.1708 -0.3177 -0.1394
 7287SOL    HW133497   3.826   0.416   3.795 -1.1750 -0.0144 -2.2393
 7287SOL    HW233498   3.957   0.491   3.794 -1.4240 -0.2130  1.3632
 7288SOL     OW33499   3.308   1.848  16.945  0.0297 -0.6518 -0.2189
 7288SOL    HW133500   3.363   1.879  16.874  1.4234 -0.5282  0.9098
 7288SOL    HW233501   3.225   1.860  16.899 -0.2113 -0.9161  0.1374
 7289SOL     OW33502   3.760   1.966   9.125 -0.4565 -0.2625 -0.2290
 7289SOL    HW133503   3.672   1.996   9.149 -0.0806 -0.4550  1.3728
 7289SOL    HW233504   3.788   1.922   9.205 -1.8228  1.3969  1.1443
 7290SOL     OW33505   4.413   3.794   6.300  0.2685  0.0050 -0.0793
 7290SOL    HW133506   4.392   3.853   6.373 -1.0765  0.1250 -0.5573
 7290SOL    HW233507   4.348   3.832   6.240 -0.1457  0.2560  0.5237
 7291SOL     OW33508   1.317   0.299   5.500  0.3794  0.6700  0.2468
 7291SOL    HW133509   1.300   0.279   5.593 -1.9902 -0.2759 -0.3745
 7291SOL    HW233510   1.400   0.345   5.512 -0.2731  1.7150  0.7957
 7292SOL     OW33511   2.780   0.084   2.918 -0.5024 -0.1186 -0.7758
 7292SOL    HW133512   2.871   0.114   2.921 -0.7905  0.7397 -0.8938
 7292SOL    HW233513   2.768   0.112   3.009 -1.0138 -1.0064 -0.5693
 7293SOL     OW33514   2.930   3.678   8.508 -0.5361  0.3454 -0.0853
 7293SOL    HW133515   2.967   3.602   8.553 -0.2509 -0.4671 -1.6903
 7293SOL    HW233516   2.904   3.739   8.578  1.1692  0.7857  0.1743
 7294SOL     OW33517   3.459   2.152  11.930  0.0923 -0.3043 -0.3224
 7294SOL    HW133518   3.428   2.229  11.977  1.2933 -0.2910  0.4346
 7294SOL    HW233519   3.388   2.132  11.868 -0.4231  2.7193 -0.7046
 7295SOL     OW33520   4.290   4.421   2.591 -0.6476  0.6754  0.2862
 7295SOL    HW133521   4.382   4.425   2.566 -0.7257  0.5734 -0.0142
 7295SOL    HW233522   4.271   4.505   2.633  0.3096  1.0245  0.0140
 7296SOL     OW33523   4.342   4.377   1.527  0.1296  0.2735 -0.1939
 7296SOL    HW133524   4.376   4.432   1.597  1.1764 -0.9232  0.2586
 7296SOL    HW233525   4.289   4.437   1.475 -1.7910 -0.3464  1.0389
 7297SOL     OW33526   1.232   3.928   4.556  0.1854  0.4969  0.5663
 7297SOL    HW133527   1.210   3.846   4.600  0.6974  0.4411  0.7192
 7297SOL    HW233528   1.142   3.960   4.551  0.2107  0.7698  1.8364
 7298SOL     OW33529   3.304   0.183   9.307  0.0858  0.3720  0.3961
 7298SOL    HW133530   3.274   0.273   9.294  1.6961  1.2141  2.3672
 7298SOL    HW233531   3.276   0.158   9.395 -1.9467 -0.3710 -0.4677
 7299SOL     OW33532   3.571   3.574   4.250 -0.6138 -0.7115  0.1917
 7299SOL    HW133533   3.576   3.499   4.310 -1.4321 -1.9557 -1.3098
 7299SOL    HW233534   3.520   3.622   4.315 -1.3061 -0.2091 -0.7407
 7300SOL     OW33535   2.374   2.781  12.039  0.0910  0.2857  0.1730
 7300SOL    HW133536   2.386   2.716  11.970 -1.6995  0.2825 -0.1447
 7300SOL    HW233537   2.452   2.835  12.028  0.1401  0.0204 -0.7983
 7301SOL     OW33538   0.790   3.750   0.581 -0.3405  0.1254  0.1988
 7301SOL    HW133539   0.703   3.713   0.566  0.1889 -1.2611  0.5833
 7301SOL    HW233540   0.774   3.838   0.615 -2.0339 -0.5076  1.0333
 7302SOL     OW33541   3.238   1.463  13.559  0.4431  0.2211  0.2568
 7302SOL    HW133542   3.270   1.551  13.581  2.0545 -0.0269 -1.0406
 7302SOL    HW233543   3.269   1.417  13.637  2.9851 -2.9225 -2.6319
 7303SOL     OW33544   4.247   0.450   4.965 -0.1939  0.1079  0.2187
 7303SOL    HW133545   4.327   0.446   5.017  0.6910 -1.7445 -1.2709
 7303SOL    HW233546   4.282   0.483   4.882 -0.5590  1.0640  0.4435
 7304SOL     OW33547   3.585   1.025  12.590 -0.1035 -0.3204 -0.2210
 7304SOL    HW133548   3.656   1.061  12.643  1.2110 -0.3281 -1.9883
 7304SOL    HW233549   3.625   0.942  12.563  1.1077  0.6237 -1.3335
 7305SOL     OW33550   4.580   4.716  17.090  0.3491 -0.1079 -0.0944
 7305SOL    HW133551   4.490   4.702  17.063  1.0436 -0.7645 -2.0381
 7305SOL    HW233552   4.585   0.076  17.101  2.2492 -0.3166  0.9007
 7306SOL     OW33553   0.094   0.017   6.232  1.1766 -0.0959  0.2796
 7306SOL    HW133554   0.163   4.689   6.255  0.8911  0.3895  2.4603
 7306SOL    HW233555   0.138   0.097   6.205  1.4047  0.3795  2.0961
 7307SOL     OW33556   4.517   4.581  16.485 -0.6640  0.0227  0.0571
 7307SOL    HW133557   4.589   4.644  16.475  0.2429 -1.1961 -1.0761
 7307SOL    HW233558   4.507   4.549  16.396  0.7099  0.3328 -0.2094
 7308SOL     OW33559   4.227   3.635  10.761 -0.0931 -0.3972 -0.2819
 7308SOL    HW133560   4.248   3.702  10.696  1.0727  0.3976  0.9029
 7308SOL    HW233561   4.131   3.645  10.763 -0.0253  0.0791  1.5388
 7309SOL     OW33562   3.385   1.100   4.412 -0.4659 -0.1113  0.4254
 7309SOL    HW133563   3.439   1.034   4.455  0.5560 -0.2294 -1.0287
 7309SOL    HW233564   3.433   1.105   4.329  0.1923  1.3211  0.8866
 7310SOL     OW33565   0.883   4.091  10.927  0.1562  0.7433 -0.3553
 7310SOL    HW133566   0.943   4.071  10.855 -0.5806  0.6798 -0.9466
 7310SOL    HW233567   0.809   4.119  10.874 -0.9590 -0.0013  0.8203
 7311SOL     OW33568   0.283   4.674   3.906 -0.1008  0.1101  0.3658
 7311SOL    HW133569   0.223   4.647   3.976 -0.2396  1.4130  0.7535
 7311SOL    HW233570   0.328   0.012   3.949  1.2126 -0.4690 -0.0205
 7312SOL     OW33571   2.175   3.497   4.072  0.1306 -0.1541 -0.2716
 7312SOL    HW133572   2.242   3.546   4.120 -2.1049  1.9888  0.6405
 7312SOL    HW233573   2.104   3.561   4.072  1.5485  1.4401  0.1375
 7313SOL     OW33574   0.378   2.558   1.824 -0.0571  0.1103 -0.1911
 7313SOL    HW133575   0.423   2.638   1.849  2.0215 -0.5498 -1.7985
 7313SOL    HW233576   0.353   2.520   1.908  0.3556  0.0115 -0.1152
 7314SOL     OW33577   4.477   1.369   1.520 -0.0948 -0.5315  0.4567
 7314SOL    HW133578   4.497   1.354   1.613 -2.1740 -0.9032  0.8644
 7314SOL    HW233579   4.565   1.354   1.487  0.1874  0.6756  0.6559
 7315SOL     OW33580   0.366   3.907  15.821  0.1107  0.4208  0.1975
 7315SOL    HW133581   0.445   3.875  15.864  0.1775 -0.3380 -0.4820
 7315SOL    HW233582   0.306   3.834  15.837  2.0483 -1.2112 -0.0452
 7316SOL     OW33583   2.816   0.546   4.931 -0.0636  0.1631 -0.1114
 7316SOL    HW133584   2.808   0.462   4.976  0.8545 -0.1990 -0.6386
 7316SOL    HW233585   2.723   0.566   4.916 -0.2246  0.2439  0.9745
 7317SOL     OW33586   4.319   3.325   0.425  0.6923  0.2868 -0.7633
 7317SOL    HW133587   4.409   3.339   0.453  0.6131 -0.0362 -0.3465
 7317SOL    HW233588   4.334   3.231   0.432 -1.8053 -0.1261 -0.6687
 7318SOL     OW33589   1.476   3.036  11.149  0.0960  0.4337  0.2231
 7318SOL    HW133590   1.527   3.112  11.122  0.7671  0.6011  2.0004
 7318SOL    HW233591   1.520   3.005  11.228  1.2005  1.1996 -0.1038
 7319SOL     OW33592   0.126   4.189   0.970 -0.3422  0.1186 -0.3812
 7319SOL    HW133593   0.074   4.171   1.049 -0.3374  0.9009 -0.2032
 7319SOL    HW233594   0.074   4.256   0.926  0.8371  0.3781 -1.3441
 7320SOL     OW33595   0.168   4.207   4.652 -0.3876  0.1003  0.5193
 7320SOL    HW133596   0.187   4.114   4.641 -0.7423 -0.0449  1.1081
 7320SOL    HW233597   0.079   4.204   4.688 -1.3652 -1.8156 -1.9909
 7321SOL     OW33598   1.449   1.274   7.082 -0.0197  0.5392  0.1114
 7321SOL    HW133599   1.451   1.262   6.988  0.6923 -0.2509  0.2304
 7321SOL    HW233600   1.544   1.284   7.095  0.0031  0.4291  0.0232
 7322SOL     OW33601   3.304   4.601   8.254 -0.0438  0.2019 -0.5993
 7322SOL    HW133602   3.265   4.530   8.202  0.3528 -1.7349  1.7532
 7322SOL    HW233603   3.369   4.624   8.188 -0.9226  0.8202 -1.2530
 7323SOL     OW33604   3.397   2.451   6.662 -0.0263 -0.1208 -0.1478
 7323SOL    HW133605   3.340   2.397   6.607  0.4510 -0.0484 -0.7162
 7323SOL    HW233606   3.448   2.386   6.711  0.5779  1.9449  1.9546
 7324SOL     OW33607   2.349   4.176  17.110 -0.0769  0.0185  0.2547
 7324SOL    HW133608   2.425   4.234  17.108  0.6705 -1.0815 -2.2393
 7324SOL    HW233609   2.312   4.184  17.023  1.0637 -0.9296 -0.3142
 7325SOL     OW33610   4.405   1.919   5.499  0.1007 -0.0987 -0.7286
 7325SOL    HW133611   4.426   1.873   5.581 -0.5185  1.4065  0.2871
 7325SOL    HW233612   4.369   1.844   5.453  0.8046 -1.2806  0.6355
 7326SOL     OW33613   0.875   2.928   1.795  0.5516  0.3499 -0.4935
 7326SOL    HW133614   0.946   2.970   1.748 -1.2540  1.7039 -1.9975
 7326SOL    HW233615   0.837   2.880   1.721  0.4063 -0.8642  0.3581
 7327SOL     OW33616   1.765   2.929   6.347  0.4087 -0.3122  0.2918
 7327SOL    HW133617   1.710   2.852   6.364  4.0363 -3.3400 -1.6832
 7327SOL    HW233618   1.725   2.971   6.271  2.3607 -1.0977 -1.1685
 7328SOL     OW33619   0.696   0.139   4.714 -0.9774  0.2939  0.3098
 7328SOL    HW133620   0.697   0.201   4.640  1.1177 -0.5515 -0.3782
 7328SOL    HW233621   0.611   0.100   4.695 -0.9289 -0.6714  2.1703
 7329SOL     OW33622   3.404   2.929   4.362  0.5111 -0.0981  0.3752
 7329SOL    HW133623   3.345   2.854   4.375  1.9410 -0.9880  1.6805
 7329SOL    HW233624   3.439   2.904   4.277 -2.1775 -2.4502 -0.0315
 7330SOL     OW33625   1.034   0.533   6.784 -0.8029 -0.1014 -0.2830
 7330SOL    HW133626   1.094   0.524   6.858 -1.1050 -2.0100 -0.2875
 7330SOL    HW233627   0.950   0.510   6.824 -0.5473 -0.6616 -0.0692
 7331SOL     OW33628   3.835   1.809   1.791 -0.2296  0.8460 -1.2982
 7331SOL    HW133629   3.867   1.898   1.777  0.4362  1.0067  1.3482
 7331SOL    HW233630   3.903   1.777   1.850  0.4492  1.1941 -1.8890
 7332SOL     OW33631   2.007   1.252   3.858  0.0400  0.4991  0.5679
 7332SOL    HW133632   1.936   1.201   3.899  1.0498 -0.1476  1.5210
 7332SOL    HW233633   1.988   1.346   3.858  1.2436  0.7396 -0.2028
 7333SOL     OW33634   1.680   2.360  13.069 -0.5332 -1.2857  1.5029
 7333SOL    HW133635   1.739   2.436  13.065  0.5899 -2.3665 -2.5805
 7333SOL    HW233636   1.748   2.294  13.056  0.2257 -0.0742 -0.7427
 7334SOL     OW33637   0.558   2.742  12.843 -0.2459 -0.1146 -0.5179
 7334SOL    HW133638   0.645   2.718  12.811 -0.1329 -2.2194  1.3947
 7334SOL    HW233639   0.568   2.832  12.876 -1.9291  0.3659 -1.3205
 7335SOL     OW33640   2.801   2.072  10.496  0.3587  0.0376  0.2887
 7335SOL    HW133641   2.862   2.021  10.443 -0.5293 -2.1359  1.3998
 7335SOL    HW233642   2.799   2.017  10.574 -1.4970  0.2124  0.3519
 7336SOL     OW33643   2.578   4.047   5.817  0.0795 -0.2780 -0.1879
 7336SOL    HW133644   2.489   4.013   5.824  0.2704 -0.6949  0.1965
 7336SOL    HW233645   2.604   4.017   5.730 -0.3833 -3.0091  0.6347
 7337SOL     OW33646   2.106   1.300   7.129 -0.3812  0.3142  0.7552
 7337SOL    HW133647   2.176   1.331   7.186  0.0302 -1.5816  1.2742
 7337SOL    HW233648   2.119   1.206   7.138  2.0515  0.6673  0.7388
 7338SOL     OW33649   0.658   3.273   6.265  0.4439  0.0195  0.3143
 7338SOL    HW133650   0.657   3.225   6.182 -0.6624  3.6371 -1.7782
 7338SOL    HW233651   0.686   3.360   6.236  1.7411 -1.0658 -1.6821
 7339SOL     OW33652   3.370   3.087   8.498  0.6015  0.3358  0.3030
 7339SOL    HW133653   3.396   3.131   8.417 -1.1574  0.2113 -0.3359
 7339SOL    HW233654   3.375   3.000   8.458 -1.7954 -0.1582  1.0773
 7340SOL     OW33655   2.696   1.527   4.109  0.1369 -0.4894 -0.4640
 7340SOL    HW133656   2.649   1.443   4.105  0.7173 -0.8168 -0.3673
 7340SOL    HW233657   2.778   1.495   4.148  0.3113  0.9577  0.3523
 7341SOL     OW33658   1.426   4.327   7.658 -0.3472 -0.1276  0.0808
 7341SOL    HW133659   1.345   4.324   7.606 -1.5513 -0.6099  1.9797
 7341SOL    HW233660   1.457   4.416   7.644  0.6626 -0.4188  0.5122
 7342SOL     OW33661   2.098   2.622  13.499  0.6152 -0.3502 -0.0897
 7342SOL    HW133662   2.065   2.564  13.431 -1.5500 -1.7649  2.1869
 7342SOL    HW233663   2.045   2.595  13.573  1.6643 -1.5891  0.2099
 7343SOL     OW33664   3.894   1.491  13.603 -0.3616  0.7200  0.0755
 7343SOL    HW133665   3.820   1.549  13.624 -1.9909 -2.0611  2.1150
 7343SOL    HW233666   3.864   1.409  13.641  1.4729  0.3151  0.6437
 7344SOL     OW33667   2.488   1.564   4.896 -0.3510  0.2776 -0.2380
 7344SOL    HW133668   2.470   1.658   4.902 -0.2571  0.2942 -0.2189
 7344SOL    HW233669   2.419   1.541   4.834  1.4839 -3.9880 -0.6868
 7345SOL     OW33670   2.011   0.396   8.016  0.4346  0.2209  0.5006
 7345SOL    HW133671   1.965   0.447   7.949  0.4494  0.1098  0.4047
 7345SOL    HW233672   2.021   0.311   7.974 -4.2466  0.0249 -0.1597
 7346SOL     OW33673   2.489   2.052   6.691 -0.8267  0.6243 -0.2098
 7346SOL    HW133674   2.550   2.061   6.618 -0.5995  0.5981 -0.0227
 7346SOL    HW233675   2.428   2.125   6.687 -2.2448 -0.6103 -1.0567
 7347SOL     OW33676   1.448   2.592  17.467 -0.3791 -0.6473 -0.6533
 7347SOL    HW133677   1.426   2.610  17.376  2.0726 -0.5660 -1.2334
 7347SOL    HW233678   1.503   2.515  17.455  0.8990 -0.1310  1.9379
 7348SOL     OW33679   2.303   4.428   4.307 -0.1065 -1.2347 -0.0905
 7348SOL    HW133680   2.373   4.478   4.350 -2.2091  1.4110  0.2586
 7348SOL    HW233681   2.234   4.476   4.352 -0.0845 -0.9649 -0.3499
 7349SOL     OW33682   2.734   0.204   6.459 -0.2648  0.3696 -0.0199
 7349SOL    HW133683   2.707   0.294   6.442 -2.3400 -0.3112 -0.3615
 7349SOL    HW233684   2.829   0.218   6.466 -0.0369 -2.9191  3.3071
 7350SOL     OW33685   1.645   3.772   2.449 -0.0331 -0.6326 -0.6692
 7350SOL    HW133686   1.715   3.707   2.447  1.0223  0.4170  1.8849
 7350SOL    HW233687   1.585   3.723   2.393 -1.0246 -0.9828  0.7056
 7351SOL     OW33688   2.998   4.117  15.643 -0.6132 -0.1371 -0.3463
 7351SOL    HW133689   2.908   4.146  15.652 -1.3514 -2.5686 -0.0882
 7351SOL    HW233690   2.989   4.027  15.612 -2.1671  0.0384 -0.3816
 7352SOL     OW33691   1.743   1.119   6.736 -0.2813  0.1710 -0.6129
 7352SOL    HW133692   1.781   1.066   6.666 -0.2365 -1.2843  0.5094
 7352SOL    HW233693   1.662   1.137   6.689  0.8654 -1.0525 -3.0341
 7353SOL     OW33694   2.078   4.617   0.909 -0.1615 -0.6561 -0.7179
 7353SOL    HW133695   2.014   4.586   0.844  0.4857  0.2575 -1.7737
 7353SOL    HW233696   2.029   4.696   0.930  1.2984 -0.0005  0.1292
 7354SOL     OW33697   3.966   0.975   9.924  0.0539 -0.4641  0.1812
 7354SOL    HW133698   3.996   0.922   9.998 -2.2755 -1.4675  0.4094
 7354SOL    HW233699   4.046   1.023   9.902 -0.3014  1.2089  2.6196
 7355SOL     OW33700   1.568   1.340   6.292  0.6063 -0.1858  0.0634
 7355SOL    HW133701   1.525   1.255   6.301  0.0793  0.0336 -0.4028
 7355SOL    HW233702   1.582   1.371   6.381  0.3716  0.5800 -0.1629
 7356SOL     OW33703   3.408   3.448   5.601 -0.3741  0.1917  0.8885
 7356SOL    HW133704   3.447   3.438   5.688 -0.7817  2.0168  1.2716
 7356SOL    HW233705   3.426   3.540   5.584 -1.0872 -0.3604 -3.0016
 7357SOL     OW33706   3.544   2.249   8.971  0.7441  0.5626 -0.1809
 7357SOL    HW133707   3.601   2.302   9.027 -1.1699 -0.2888  2.5626
 7357SOL    HW233708   3.571   2.167   9.012  1.9420  0.5078 -1.0765
 7358SOL     OW33709   0.855   3.447   3.530 -0.1377 -0.2003 -0.3301
 7358SOL    HW133710   0.775   3.456   3.582 -1.5268  1.6585 -2.7881
 7358SOL    HW233711   0.831   3.384   3.462 -3.8074 -0.6825  1.4271
 7359SOL     OW33712   0.386   4.339   4.347  0.0250  0.1468 -0.1829
 7359SOL    HW133713   0.330   4.266   4.322  0.1275 -0.3675  1.1320
 7359SOL    HW233714   0.326   4.392   4.400 -2.5627 -3.2371  0.2988
 7360SOL     OW33715   1.259   2.669   3.854  0.1432 -0.5587 -0.4817
 7360SOL    HW133716   1.348   2.682   3.886  0.9661 -2.7409 -1.8903
 7360SOL    HW233717   1.201   2.685   3.929 -0.7171 -0.7808 -1.0928
 7361SOL     OW33718   4.566   3.809   8.603  0.4981  0.5414  0.5407
 7361SOL    HW133719   4.545   3.881   8.544  0.8536 -0.4745 -0.8149
 7361SOL    HW233720   4.652   3.778   8.574  0.0771 -2.5709  2.6271
 7362SOL     OW33721   1.405   1.089   0.208 -0.0231 -0.5138  0.3853
 7362SOL    HW133722   1.343   1.083   0.281  0.6744  1.1926  1.1233
 7362SOL    HW233723   1.413   1.184   0.208 -1.6251 -0.3735  1.5401
 7363SOL     OW33724   0.594   3.399  15.139 -0.0235  0.0673  0.3248
 7363SOL    HW133725   0.683   3.429  15.118  1.0225 -1.7131  2.2415
 7363SOL    HW233726   0.560   3.452  15.211 -1.2899 -1.0056  0.5155
 7364SOL     OW33727   3.666   0.891   2.614  0.2051 -0.0069  0.2901
 7364SOL    HW133728   3.626   0.811   2.579  0.9322  0.1013 -0.7658
 7364SOL    HW233729   3.713   0.926   2.539 -0.9882  0.8818 -0.0572
 7365SOL     OW33730   2.131   3.268   0.563 -0.7295  0.6228 -0.0933
 7365SOL    HW133731   2.152   3.225   0.646  1.6158  0.3474 -0.8098
 7365SOL    HW233732   2.219   3.257   0.525 -0.9576 -1.2241 -0.0959
 7366SOL     OW33733   2.593   2.635  15.743 -0.3491 -0.1543  0.8417
 7366SOL    HW133734   2.516   2.674  15.785 -0.0842  0.4786  0.7319
 7366SOL    HW233735   2.610   2.686  15.663 -1.9992 -1.3432 -0.2723
 7367SOL     OW33736   1.138   1.274   4.832  0.2457 -0.5552  0.0812
 7367SOL    HW133737   1.184   1.198   4.868  0.2807  0.1096  1.4305
 7367SOL    HW233738   1.174   1.334   4.896  0.7532 -1.3260  0.5239
 7368SOL     OW33739   2.562   2.418  15.910  0.4324 -0.3701  0.0105
 7368SOL    HW133740   2.583   2.496  15.859  0.6018 -2.7365 -3.5060
 7368SOL    HW233741   2.631   2.420  15.977  0.9658  0.3497 -0.5657
 7369SOL     OW33742   1.251   3.133   7.593 -0.1851  0.1201  0.0127
 7369SOL    HW133743   1.311   3.110   7.665 -0.0588 -2.1610 -0.8149
 7369SOL    HW233744   1.311   3.160   7.524 -0.1957 -0.0622 -0.0677
 7370SOL     OW33745   1.044   1.931   3.711 -0.0716 -0.6463 -0.2542
 7370SOL    HW133746   1.028   1.983   3.633  0.2989 -1.5726 -0.9405
 7370SOL    HW233747   1.133   1.900   3.701 -0.5018 -2.1787  0.6425
 7371SOL     OW33748   1.648   2.598   7.737  0.1587 -0.1107  0.3679
 7371SOL    HW133749   1.690   2.625   7.655 -2.4292  1.2990 -0.5000
 7371SOL    HW233750   1.661   2.503   7.731 -0.5268 -0.3203  2.3081
 7372SOL     OW33751   3.144   2.874   7.468 -0.4667 -0.3819  0.1702
 7372SOL    HW133752   3.210   2.907   7.529 -2.3545 -0.9497  2.5080
 7372SOL    HW233753   3.186   2.791   7.445 -1.5106 -0.7884 -0.2561
 7373SOL     OW33754   3.536   3.334   2.836  0.1557 -0.2634  0.1436
 7373SOL    HW133755   3.564   3.424   2.818 -0.1469 -0.3023 -0.5007
 7373SOL    HW233756   3.446   3.341   2.866  0.2262  0.6278  0.1451
 7374SOL     OW33757   2.913   2.580   4.778  0.1035  0.8678  0.4083
 7374SOL    HW133758   2.913   2.667   4.739 -0.3097  1.2583  1.3005
 7374SOL    HW233759   2.848   2.541   4.720  0.5548 -1.1977  1.2919
 7375SOL     OW33760   0.742   3.254   9.249  0.3729  0.0981  0.4235
 7375SOL    HW133761   0.787   3.205   9.181 -3.3092 -1.5591 -0.7666
 7375SOL    HW233762   0.711   3.197   9.320 -0.6286  0.7681  0.5221
 7376SOL     OW33763   0.805   4.594  12.277  0.2917 -0.1256  0.1566
 7376SOL    HW133764   0.856   4.579  12.357  2.4884  1.3593 -0.9773
 7376SOL    HW233765   0.750   4.665  12.309  0.0209  0.6076 -1.9899
 7377SOL     OW33766   1.552   1.799   8.847  0.4750 -0.3800 -0.2491
 7377SOL    HW133767   1.576   1.706   8.850  0.5397 -0.2632  2.6604
 7377SOL    HW233768   1.556   1.814   8.753 -0.8601  2.9453  0.2174
 7378SOL     OW33769   0.978   0.231  11.736  0.4318  0.2712 -0.0126
 7378SOL    HW133770   0.971   0.253  11.643 -2.4031 -0.2850  0.0852
 7378SOL    HW233771   0.944   0.312  11.775  0.2863  0.3407 -0.2851
 7379SOL     OW33772   4.550   4.074   4.334  0.3917 -0.5400 -0.4988
 7379SOL    HW133773   4.599   4.010   4.387 -0.3967 -0.0439  0.8400
 7379SOL    HW233774   4.540   4.016   4.259  0.0455 -1.5033  0.2959
 7380SOL     OW33775   2.845   1.544   7.386  0.4858 -0.0545  0.3558
 7380SOL    HW133776   2.927   1.538   7.435 -0.6300 -1.2127  2.0902
 7380SOL    HW233777   2.851   1.457   7.348  0.4223  0.5131 -0.9553
 7381SOL     OW33778   0.325   1.638   1.493 -0.4572 -0.5172  0.1823
 7381SOL    HW133779   0.286   1.725   1.503  1.7779  0.5450 -0.5305
 7381SOL    HW233780   0.311   1.595   1.577 -0.0507 -3.2409 -1.1537
 7382SOL     OW33781   3.298   0.683   7.349 -0.1105 -0.2495  0.1286
 7382SOL    HW133782   3.330   0.614   7.291  2.3851 -0.9040  2.2915
 7382SOL    HW233783   3.333   0.759   7.303  0.6387 -0.6929 -0.0211
 7383SOL     OW33784   0.908   1.549   2.791 -0.8677  0.3810  0.2929
 7383SOL    HW133785   0.947   1.627   2.831 -0.2985 -0.1597  0.8026
 7383SOL    HW233786   0.988   1.512   2.754 -0.9323  0.0507  0.4849
 7384SOL     OW33787   1.013   0.352   8.043 -0.1622  0.2452 -0.5774
 7384SOL    HW133788   1.066   0.407   7.986  1.0864 -0.9549 -0.5810
 7384SOL    HW233789   1.007   0.420   8.110  0.2729  0.9179 -1.2240
 7385SOL     OW33790   0.312   0.520   7.876  0.3500  0.3392 -0.2188
 7385SOL    HW133791   0.247   0.479   7.818  0.0173  0.5512  0.0005
 7385SOL    HW233792   0.401   0.498   7.849  0.3324  0.8472 -0.6980
 7386SOL     OW33793   2.658   2.724  16.474  0.2286 -0.2915 -0.2541
 7386SOL    HW133794   2.672   2.801  16.420  0.3726 -0.0755  0.0868
 7386SOL    HW233795   2.646   2.755  16.564 -0.0868 -0.9237 -0.0783
 7387SOL     OW33796   0.571   3.205   0.421  0.0493  0.1145 -0.2614
 7387SOL    HW133797   0.508   3.185   0.352 -2.0459 -0.1076  1.7166
 7387SOL    HW233798   0.605   3.278   0.370 -0.0205  0.2372 -0.1287
 7388SOL     OW33799   2.004   2.099   7.099 -0.0250  0.1002 -0.6502
 7388SOL    HW133800   2.056   2.059   7.029 -2.1416 -0.3125 -1.9622
 7388SOL    HW233801   2.074   2.160   7.124 -0.6902  1.1459 -1.3517
 7389SOL     OW33802   0.167   1.112   0.553  0.1430  0.7865 -0.1157
 7389SOL    HW133803   0.221   1.183   0.588 -1.6212  3.0195 -1.9113
 7389SOL    HW233804   0.236   1.048   0.534 -2.1306 -1.6349 -0.1370
 7390SOL     OW33805   0.627   0.709  10.359  0.3650 -0.4421  0.0513
 7390SOL    HW133806   0.577   0.658  10.422  1.8747 -1.9383  0.0345
 7390SOL    HW233807   0.690   0.648  10.321  2.1141  1.1774  0.3164
 7391SOL     OW33808   2.283   1.451   4.723 -0.0133 -0.4965 -0.0966
 7391SOL    HW133809   2.290   1.379   4.786  1.6356 -1.2955 -1.2161
 7391SOL    HW233810   2.368   1.438   4.682  0.1038 -1.5293  0.4678
 7392SOL     OW33811   1.970   3.752   4.834 -0.2097  0.4116  0.0924
 7392SOL    HW133812   2.012   3.802   4.904 -1.0112  1.4789 -0.1821
 7392SOL    HW233813   1.893   3.725   4.885 -0.4869  0.8544 -0.0872
 7393SOL     OW33814   1.429   0.461  14.126 -0.6888  0.6948  0.3720
 7393SOL    HW133815   1.390   0.516  14.194  0.3058  1.0742  0.6350
 7393SOL    HW233816   1.399   0.517  14.054 -1.0904 -2.3159 -1.8158
 7394SOL     OW33817   4.116   1.785  11.314  0.3189 -0.3007 -0.1329
 7394SOL    HW133818   4.069   1.866  11.331  0.4334 -0.0152 -1.1444
 7394SOL    HW233819   4.206   1.813  11.333  0.5202  0.7043 -2.6042
 7395SOL     OW33820   3.788   4.152   8.771 -0.3445 -0.0544 -0.6073
 7395SOL    HW133821   3.710   4.125   8.820 -0.1335  1.0916  0.3568
 7395SOL    HW233822   3.839   4.072   8.786 -0.6896 -0.5883 -2.3088
 7396SOL     OW33823   1.540   2.468   1.473  0.4413 -0.0988  0.2878
 7396SOL    HW133824   1.555   2.528   1.545  2.5002  0.0706 -0.2722
 7396SOL    HW233825   1.477   2.401   1.499  0.6453 -0.6927 -0.7267
 7397SOL     OW33826   1.601   2.038  10.104 -0.5269  0.0489 -0.2764
 7397SOL    HW133827   1.664   2.094  10.150 -0.5619  1.0226 -1.3931
 7397SOL    HW233828   1.645   1.953  10.104 -1.5254 -0.4591 -1.4793
 7398SOL     OW33829   0.442   0.492   1.423 -0.0167  0.2119 -0.4564
 7398SOL    HW133830   0.488   0.510   1.505  0.4406 -0.6516 -0.5173
 7398SOL    HW233831   0.370   0.554   1.434 -1.7435 -2.1069  1.2203
 7399SOL     OW33832   3.249   0.023   6.904  0.0456  0.5020 -0.0941
 7399SOL    HW133833   3.257   0.011   6.998  1.1380  1.2547 -0.0888
 7399SOL    HW233834   3.180   4.694   6.886  1.5660 -0.7174 -1.6140
 7400SOL     OW33835   2.724   4.324   1.472 -0.6142 -0.2333 -0.2873
 7400SOL    HW133836   2.775   4.394   1.431 -0.2689  0.7864  1.8809
 7400SOL    HW233837   2.794   4.266   1.505 -0.6748 -1.1437 -1.7749
 7401SOL     OW33838   2.046   4.123   5.597  0.1774 -0.7873  0.1566
 7401SOL    HW133839   2.140   4.112   5.583  0.2735 -0.4767  0.5439
 7401SOL    HW233840   2.008   4.039   5.571  2.6088 -1.2347 -1.9512
 7402SOL     OW33841   4.657   0.586   4.549  0.1839  0.2117 -0.0636
 7402SOL    HW133842   0.000   0.629   4.515  1.1208  1.2658  3.4342
 7402SOL    HW233843   4.605   0.575   4.469 -0.6939  1.1372  0.3651
 7403SOL     OW33844   3.483   1.507  16.222 -0.1638 -0.6916 -0.1960
 7403SOL    HW133845   3.494   1.435  16.160  0.4068 -0.8253  0.0575
 7403SOL    HW233846   3.422   1.568  16.180 -0.0774 -0.0056  0.6751
 7404SOL     OW33847   1.362   0.605  13.892  0.1288  0.0320  0.1422
 7404SOL    HW133848   1.431   0.634  13.832 -1.2972 -2.0761 -2.5113
 7404SOL    HW233849   1.294   0.572  13.833 -0.2696  2.0792 -0.5219
 7405SOL     OW33850   0.208   2.255   8.239  0.2116  0.4087  0.1006
 7405SOL    HW133851   0.229   2.290   8.326 -1.4495 -1.4772  1.2507
 7405SOL    HW233852   0.283   2.196   8.229 -1.0292 -0.9358 -1.1806
 7406SOL     OW33853   4.278   4.597  15.857  0.3831 -0.3515 -0.0140
 7406SOL    HW133854   4.265   4.550  15.939  0.2137  1.0838  0.7722
 7406SOL    HW233855   4.197   4.646  15.848  1.2248  1.1085  0.3911
 7407SOL     OW33856   0.018   3.905  14.216 -0.5748 -0.2400  0.3921
 7407SOL    HW133857   0.054   3.992  14.236  0.2128 -0.4555 -0.0895
 7407SOL    HW233858   0.009   3.872  14.305  0.7126 -1.2635  0.1523
 7408SOL     OW33859   0.583   1.134   3.936 -0.3609 -0.2820  0.1908
 7408SOL    HW133860   0.678   1.128   3.922 -0.5076 -0.8650 -0.5616
 7408SOL    HW233861   0.576   1.076   4.011  2.4046 -0.8672  0.0175
 7409SOL     OW33862   2.421   1.311   1.896  0.7988  0.3927 -0.2374
 7409SOL    HW133863   2.459   1.225   1.914 -1.7451 -0.1383  2.5361
 7409SOL    HW233864   2.355   1.326   1.964  0.4203  1.6566 -0.8793
 7410SOL     OW33865   2.910   4.492   1.381  0.4362 -0.0696  0.2213
 7410SOL    HW133866   2.968   4.453   1.316  1.2915  1.0165  0.3410
 7410SOL    HW233867   2.897   4.579   1.343 -1.9787  0.1439  1.4806
 7411SOL     OW33868   2.771   1.565  17.050 -0.1285  0.0687  0.6246
 7411SOL    HW133869   2.825   1.557  17.129 -2.4734 -0.5463  2.1494
 7411SOL    HW233870   2.718   1.487  17.063  0.0566 -0.0200  0.8405
 7412SOL     OW33871   3.204   3.855   5.398 -0.1919  0.2493  0.1827
 7412SOL    HW133872   3.225   3.797   5.325  0.9614  0.3692  0.4217
 7412SOL    HW233873   3.173   3.796   5.467 -2.3018  2.2476  0.9675
 7413SOL     OW33874   2.065   3.844  11.267  1.0146  0.0673  0.3418
 7413SOL    HW133875   2.057   3.939  11.278  0.7249  0.2895 -1.9311
 7413SOL    HW233876   2.146   3.817  11.311  1.2753  1.4426  0.7367
 7414SOL     OW33877   3.770   3.843   2.199 -0.2056  0.4121 -0.0119
 7414SOL    HW133878   3.767   3.938   2.185 -0.7451  0.1035 -2.0447
 7414SOL    HW233879   3.682   3.820   2.169  0.1286 -0.3454 -0.4049
 7415SOL     OW33880   3.012   0.628   3.068  0.4355  1.1370 -0.5440
 7415SOL    HW133881   3.096   0.671   3.054  1.0788 -0.0321 -0.2185
 7415SOL    HW233882   2.948   0.700   3.071 -1.6619 -0.6726 -1.6241
 7416SOL     OW33883   3.819   0.672   2.756 -0.4760 -0.3309 -0.6784
 7416SOL    HW133884   3.773   0.756   2.751  3.1400  1.6646 -0.3565
 7416SOL    HW233885   3.842   0.652   2.665 -1.6913 -0.2379 -1.0051
 7417SOL     OW33886   3.475   0.115  16.531  0.5031  0.4429 -0.2533
 7417SOL    HW133887   3.495   0.175  16.603  1.1873 -0.3611  0.2278
 7417SOL    HW233888   3.498   0.173  16.458  1.2439 -0.9033 -1.0965
 7418SOL     OW33889   2.785   1.531   0.045 -0.0553  0.2196 -0.1835
 7418SOL    HW133890   2.828   1.531   0.130  1.5700 -2.3419 -0.9907
 7418SOL    HW233891   2.701   1.484   0.054 -0.7204  1.5752  0.6435
 7419SOL     OW33892   4.645   3.053   8.689 -0.3368  0.0557  0.2849
 7419SOL    HW133893   4.606   3.049   8.776  0.5991  0.6507  0.7393
 7419SOL    HW233894   4.570   3.083   8.638 -0.1151  0.1788  0.0277
 7420SOL     OW33895   2.419   2.581  17.434  0.3336 -0.3187  0.3082
 7420SOL    HW133896   2.326   2.562  17.446  0.3751 -0.5980  0.1930
 7420SOL    HW233897   2.435   2.633  17.512 -0.1723  0.0891  0.1461
 7421SOL     OW33898   3.047   4.624  13.424  0.2209  0.0994  0.4085
 7421SOL    HW133899   3.097   4.559  13.374 -2.1254 -0.1315 -1.6546
 7421SOL    HW233900   3.012   4.578  13.500  0.3220  0.8891  0.9346
 7422SOL     OW33901   0.831   2.616  17.315 -0.6187 -0.3444 -0.0225
 7422SOL    HW133902   0.839   2.684  17.382 -0.2461  0.8889 -1.3296
 7422SOL    HW233903   0.922   2.617  17.287 -0.1223 -0.2302  1.5902
 7423SOL     OW33904   0.736   1.885   8.619 -0.4046  0.9232 -0.4721
 7423SOL    HW133905   0.732   1.799   8.575  0.7102  1.4946 -1.7041
 7423SOL    HW233906   0.829   1.882   8.643 -1.1693 -1.6828  2.1983
 7424SOL     OW33907   1.839   4.042   3.219 -0.2353  0.9482 -0.1902
 7424SOL    HW133908   1.830   4.108   3.150 -1.0868  1.5213  0.4805
 7424SOL    HW233909   1.842   4.096   3.297 -0.3140 -2.6747  2.3214
 7425SOL     OW33910   1.165   4.284   3.642 -0.3393  0.2775  0.0445
 7425SOL    HW133911   1.198   4.339   3.713  1.3751 -1.6166  0.7282
 7425SOL    HW233912   1.201   4.200   3.671  0.9003  0.9544  0.4870
 7426SOL     OW33913   2.330   0.073  15.529  0.7372 -0.3859 -0.6260
 7426SOL    HW133914   2.260   0.032  15.579 -0.5342  0.0352 -2.0773
 7426SOL    HW233915   2.380   0.115  15.599  0.4484 -1.3273  0.1357
 7427SOL     OW33916   1.194   1.562   5.455 -0.1892  0.1109 -0.4088
 7427SOL    HW133917   1.211   1.497   5.523 -0.5387  0.1876 -0.2467
 7427SOL    HW233918   1.220   1.646   5.493  1.0658 -0.4553 -0.0395
 7428SOL     OW33919   3.948   0.985  16.410  0.4193 -0.3016 -0.2311
 7428SOL    HW133920   4.035   0.957  16.436 -1.4831 -3.5339  2.5944
 7428SOL    HW233921   3.964   1.075  16.381 -0.4852 -0.4479 -1.1936
 7429SOL     OW33922   1.835   1.850   3.643  0.6580 -0.0004 -0.3736
 7429SOL    HW133923   1.739   1.851   3.641  0.6686  1.0410 -0.0690
 7429SOL    HW233924   1.842   1.917   3.711 -0.4628 -0.6663  0.4000
 7430SOL     OW33925   0.009   2.779   8.981 -0.7108  0.0438  0.0076
 7430SOL    HW133926   0.025   2.783   9.075  0.0654  0.1333 -0.1270
 7430SOL    HW233927   0.017   2.873   8.961  1.3108 -0.3455 -0.9772
 7431SOL     OW33928   3.318   4.028   4.078 -0.1030 -0.0191  0.6355
 7431SOL    HW133929   3.399   4.071   4.050 -0.5945  0.3887 -0.1539
 7431SOL    HW233930   3.259   4.099   4.053  0.0050 -0.4484 -0.8764
 7432SOL     OW33931   2.268   1.274  14.506  0.1215 -0.7871 -0.6859
 7432SOL    HW133932   2.346   1.266  14.560 -0.1555 -2.0527 -0.4715
 7432SOL    HW233933   2.289   1.210  14.438  0.2146 -0.2286 -1.1844
 7433SOL     OW33934   3.727   0.569   6.782 -0.2465  0.0646 -0.7712
 7433SOL    HW133935   3.644   0.614   6.798 -0.0359  0.5821 -1.1329
 7433SOL    HW233936   3.770   0.631   6.723 -1.2810 -0.8658 -2.4846
 7434SOL     OW33937   3.048   0.530   5.195  0.2752  0.1638 -0.5671
 7434SOL    HW133938   3.024   0.506   5.105  0.7281 -1.7146 -0.1871
 7434SOL    HW233939   2.963   0.552   5.232  0.1192 -3.6171  1.3989
 7435SOL     OW33940   2.026   2.436   8.327  0.5059  0.1193  0.3531
 7435SOL    HW133941   1.937   2.409   8.349  0.5999 -0.8216 -0.4087
 7435SOL    HW233942   2.013   2.497   8.254  1.1733  0.4586  0.5154
 7436SOL     OW33943   3.954   3.603  11.597  0.7441 -0.0680 -0.1344
 7436SOL    HW133944   3.993   3.656  11.667 -0.0411  1.5731 -0.9344
 7436SOL    HW233945   4.022   3.603  11.529  1.4929  1.6778  0.5921
 7437SOL     OW33946   0.019   4.091   2.540  0.1012  0.1677 -0.4537
 7437SOL    HW133947   0.092   4.124   2.592 -1.4906  2.3021  0.4389
 7437SOL    HW233948   0.045   4.002   2.515  3.1550  0.9246 -0.0004
 7438SOL     OW33949   3.367   2.200   4.706  0.3197 -0.1616 -0.1714
 7438SOL    HW133950   3.328   2.113   4.704 -0.0781  0.0187 -0.3346
 7438SOL    HW233951   3.426   2.191   4.630 -0.3208 -1.9402 -0.4592
 7439SOL     OW33952   1.847   1.259   6.217 -0.0261  0.0741 -0.3687
 7439SOL    HW133953   1.753   1.271   6.230 -0.3151  0.0326 -2.4546
 7439SOL    HW233954   1.850   1.164   6.218 -3.4471 -0.0081  0.6980
 7440SOL     OW33955   0.554   1.858   5.595  0.2771  0.0349 -0.0926
 7440SOL    HW133956   0.622   1.809   5.641  0.5253  1.9779  1.5985
 7440SOL    HW233957   0.475   1.806   5.608  0.2448  0.5270  1.6133
 7441SOL     OW33958   2.746   2.990  12.686  0.0109  0.1473 -0.2674
 7441SOL    HW133959   2.761   3.038  12.767  0.4585 -2.2333  1.0608
 7441SOL    HW233960   2.756   3.056  12.617 -0.5903 -1.4965 -1.9189
 7442SOL     OW33961   0.329   3.973  15.561  0.0839 -0.8681 -0.3839
 7442SOL    HW133962   0.410   4.022  15.548 -0.8631  0.7978  0.0702
 7442SOL    HW233963   0.345   3.953  15.653 -1.0636 -0.3317 -0.0774
 7443SOL     OW33964   2.905   1.187   0.499 -1.1228 -0.2655 -0.3945
 7443SOL    HW133965   2.866   1.233   0.425 -2.8074 -1.3986 -0.2126
 7443SOL    HW233966   2.978   1.139   0.461 -0.0047  2.0322 -1.1116
 7444SOL     OW33967   0.277   0.580   3.854 -0.3693 -0.4662  0.0034
 7444SOL    HW133968   0.228   0.503   3.882  2.4783 -2.2327  0.0485
 7444SOL    HW233969   0.202   0.640   3.844 -0.6933 -0.6005  1.5511
 7445SOL     OW33970   4.482   1.047  17.695  0.0177 -0.0720  0.2780
 7445SOL    HW133971   4.566   1.018  17.658  0.0775 -0.1538  0.4774
 7445SOL    HW233972   4.448   1.090  17.616  0.4805 -0.0691  0.0798
 7446SOL     OW33973   3.415   3.966   6.138  0.3012  0.1398 -0.4286
 7446SOL    HW133974   3.442   4.028   6.205  1.7964 -1.1659  0.1859
 7446SOL    HW233975   3.383   3.893   6.190  0.6685  0.9397  0.9134
 7447SOL     OW33976   1.362   4.237   2.401  0.3624 -0.1564  0.1629
 7447SOL    HW133977   1.320   4.272   2.323  0.2204  3.1829  1.7092
 7447SOL    HW233978   1.402   4.157   2.367 -1.1197 -1.0779  0.6050
 7448SOL     OW33979   1.708   3.136  12.193  0.1155  0.3012 -0.0150
 7448SOL    HW133980   1.773   3.068  12.211  0.7724  0.7972 -0.5288
 7448SOL    HW233981   1.678   3.146  12.284  0.6935 -1.5272  0.3974
 7449SOL     OW33982   4.428   2.145  17.715  0.5264 -0.5957 -0.2153
 7449SOL    HW133983   4.358   2.199  17.680  0.4899 -1.5364 -1.5866
 7449SOL    HW233984   4.435   2.176   0.067 -3.2417 -1.2818  0.2825
 7450SOL     OW33985   4.226   1.886   9.590  0.3291 -0.0928 -0.2011
 7450SOL    HW133986   4.159   1.952   9.575  0.3787 -0.2160 -0.9779
 7450SOL    HW233987   4.257   1.876   9.500  1.3037  3.3333 -0.2240
 7451SOL     OW33988   2.451   3.479   6.321  0.7198  0.2455 -0.0276
 7451SOL    HW133989   2.383   3.427   6.365 -0.0559 -0.4774 -2.0855
 7451SOL    HW233990   2.479   3.526   6.400  0.3612  0.2680  0.0876
 7452SOL     OW33991   3.964   0.371  12.134 -0.3549  0.5965 -0.1251
 7452SOL    HW133992   3.909   0.406  12.204 -0.3736  2.2449 -0.9645
 7452SOL    HW233993   4.021   0.445  12.113  1.6377 -0.5519  1.1983
 7453SOL     OW33994   3.019   1.635  15.835 -0.1540 -0.1686 -0.3983
 7453SOL    HW133995   3.040   1.555  15.787 -1.0553 -0.7148  0.1230
 7453SOL    HW233996   3.080   1.702  15.804  1.0832 -0.2454  1.8689
 7454SOL     OW33997   1.697   3.418   1.817 -0.3588  0.5823  0.4857
 7454SOL    HW133998   1.606   3.409   1.790 -0.4382 -0.5875  1.1518
 7454SOL    HW233999   1.704   3.514   1.814  0.0463  0.4988 -0.9550
 7455SOL     OW34000   2.551   0.678   4.954  0.3588 -0.5840  0.1124
 7455SOL    HW134001   2.564   0.680   5.049  0.4216 -2.3952  0.1296
 7455SOL    HW234002   2.476   0.619   4.960 -1.8962  2.3883  1.2923
 7456SOL     OW34003   2.893   4.119  16.018 -0.1179  0.5663  0.1746
 7456SOL    HW134004   2.845   4.146  16.096  0.7862  0.2454  0.8316
 7456SOL    HW234005   2.977   4.105  16.062  0.7548  0.9153 -1.3847
 7457SOL     OW34006   1.902   4.157   6.334  0.2738  0.4480 -0.2193
 7457SOL    HW134007   1.863   4.187   6.416 -0.1936  0.5366 -0.4697
 7457SOL    HW234008   1.992   4.137   6.360  0.2258  0.3975 -0.0901
 7458SOL     OW34009   2.366   3.856   3.770  0.0127  0.4807 -0.3873
 7458SOL    HW134010   2.303   3.895   3.831 -1.6241 -0.4767 -1.4544
 7458SOL    HW234011   2.399   3.793   3.834  2.6899  0.9129 -1.3820
 7459SOL     OW34012   4.559   2.601   5.122  0.6755 -0.3208 -0.0554
 7459SOL    HW134013   4.617   2.675   5.104 -0.7611  0.7172 -0.4273
 7459SOL    HW234014   4.564   2.586   5.217  0.3571  0.1358  0.0345
 7460SOL     OW34015   3.027   2.246  11.834 -0.0370 -0.1890  0.1573
 7460SOL    HW134016   2.949   2.197  11.860 -0.8505  1.0328 -0.0100
 7460SOL    HW234017   3.036   2.308  11.905  0.8092 -1.4946  1.1797
 7461SOL     OW34018   1.810   1.117  16.064  0.5924  0.2130  0.0890
 7461SOL    HW134019   1.799   1.078  16.151  0.8816  1.4465  0.6759
 7461SOL    HW234020   1.800   1.040  16.007 -0.5595  0.8852 -0.6129
 7462SOL     OW34021   2.192   2.177   4.151  0.1344 -0.3651 -0.1777
 7462SOL    HW134022   2.164   2.184   4.242 -0.8800  1.3003 -0.6315
 7462SOL    HW234023   2.256   2.248   4.145  1.4661 -1.6998 -1.6400
 7463SOL     OW34024   4.193   1.261  12.746 -0.3363  0.1974 -0.0031
 7463SOL    HW134025   4.200   1.176  12.789 -0.7673  0.7678  1.2098
 7463SOL    HW234026   4.105   1.264  12.710 -0.6179 -0.4995  0.6286
 7464SOL     OW34027   2.684   3.494   7.236  0.5012  0.5219 -0.1224
 7464SOL    HW134028   2.682   3.489   7.331 -0.7370 -2.1910 -0.3045
 7464SOL    HW234029   2.597   3.527   7.215  0.5030  0.2626 -0.5474
 7465SOL     OW34030   0.941   3.596   1.404 -0.4630 -0.0535 -0.2348
 7465SOL    HW134031   0.864   3.616   1.457 -1.6136  1.3824 -2.4277
 7465SOL    HW234032   0.913   3.606   1.313  0.5497 -1.0946 -0.6659
 7466SOL     OW34033   2.785   1.786   6.622 -0.1111 -0.4158 -0.0203
 7466SOL    HW134034   2.759   1.833   6.701 -1.4798  0.9481 -1.2621
 7466SOL    HW234035   2.837   1.713   6.655 -3.1277 -1.5987  2.1429
 7467SOL     OW34036   0.483   2.517   8.395 -0.4323 -0.5616 -0.0549
 7467SOL    HW134037   0.488   2.489   8.304 -0.8732 -0.4692 -0.1082
 7467SOL    HW234038   0.392   2.506   8.423 -1.2741 -1.0600 -3.0574
 7468SOL     OW34039   0.515   3.574   5.054  0.2237 -0.5254  0.4763
 7468SOL    HW134040   0.591   3.537   5.100  0.0763 -0.5564  0.6903
 7468SOL    HW234041   0.464   3.613   5.124  1.0351  1.1844  0.1120
 7469SOL     OW34042   4.287   3.926  16.113  0.7270  0.2157 -0.0293
 7469SOL    HW134043   4.250   4.014  16.119 -1.8508 -0.6752 -3.0880
 7469SOL    HW234044   4.343   3.912  16.190  1.1592  0.0255 -0.3802
 7470SOL     OW34045   2.172   1.407  15.419 -0.2078  0.2610 -0.0451
 7470SOL    HW134046   2.181   1.472  15.489  0.2451  0.8804 -0.6815
 7470SOL    HW234047   2.127   1.335  15.464  1.3324 -1.5727 -1.4508
 7471SOL     OW34048   1.330   4.125   8.741  0.1580  0.5990  0.1971
 7471SOL    HW134049   1.377   4.199   8.704  1.6220  0.1890  1.2474
 7471SOL    HW234050   1.383   4.117   8.820  0.0496 -0.2248  0.1861
 7472SOL     OW34051   0.130   3.751   9.444  0.0982 -0.2108  0.3037
 7472SOL    HW134052   0.115   3.656   9.441 -1.0928 -0.0237  0.0876
 7472SOL    HW234053   0.114   3.766   9.537 -3.5436 -1.9092 -0.0419
 7473SOL     OW34054   3.089   0.459   0.652  1.0314 -0.2875  0.3867
 7473SOL    HW134055   3.128   0.476   0.567 -2.3756 -0.4941 -1.2165
 7473SOL    HW234056   3.016   0.520   0.655  1.3607  0.1175  0.0445
 7474SOL     OW34057   4.691   1.451   8.924 -0.5569  0.5655 -0.4283
 7474SOL    HW134058   0.049   1.476   8.920  0.3092 -2.1538  2.7729
 7474SOL    HW234059   4.682   1.386   8.994 -1.8155 -0.0436 -1.1478
 7475SOL     OW34060   4.634   4.293  13.033 -0.1263 -0.4679 -0.8122
 7475SOL    HW134061   4.568   4.336  13.087  1.3897  0.5668  0.2082
 7475SOL    HW234062   4.635   4.365  12.970  0.1970  1.6954  1.6749
 7476SOL     OW34063   0.079   0.655   5.401  0.2142 -0.5257 -0.1748
 7476SOL    HW134064   0.003   0.662   5.459  1.2939 -0.5107  1.2431
 7476SOL    HW234065   0.151   0.701   5.444  1.0223 -0.4056 -1.6793
 7477SOL     OW34066   4.484   0.406   2.482 -0.2515  0.5523 -0.3010
 7477SOL    HW134067   4.402   0.379   2.523 -1.8517  0.0709 -3.7472
 7477SOL    HW234068   4.470   0.487   2.433  1.4304 -0.5718 -2.6464
 7478SOL     OW34069   1.260   0.825   8.968 -0.2112 -0.4061 -0.1202
 7478SOL    HW134070   1.242   0.790   8.881  0.0202  0.2487 -0.4283
 7478SOL    HW234071   1.179   0.870   8.990 -0.1745  0.0905 -1.0088
 7479SOL     OW34072   4.503   4.037   2.707 -0.0489 -0.6603 -0.0148
 7479SOL    HW134073   4.557   3.982   2.765  1.7943  2.1229  0.9245
 7479SOL    HW234074   4.575   4.079   2.659 -0.1097 -0.3339  0.1827
 7480SOL     OW34075   2.471   2.934   2.153 -0.2460  0.2440 -0.5147
 7480SOL    HW134076   2.538   2.866   2.158  0.1544  0.5944 -1.1774
 7480SOL    HW234077   2.518   3.013   2.180 -1.2197  1.6348 -2.9361
 7481SOL     OW34078   0.232   4.405   7.917 -0.2651 -0.1996 -0.3838
 7481SOL    HW134079   0.273   4.489   7.937 -1.2945  0.1046  0.5013
 7481SOL    HW234080   0.306   4.345   7.924 -0.0983 -0.0811 -1.2182
 7482SOL     OW34081   2.603   1.093   7.745  0.1009 -0.7780  0.0577
 7482SOL    HW134082   2.565   1.007   7.724  0.0350 -0.7375  0.0110
 7482SOL    HW234083   2.695   1.076   7.762 -0.1459 -1.0253  1.1275
 7483SOL     OW34084   1.868   3.834   7.309  0.3730  0.0914 -0.4618
 7483SOL    HW134085   1.827   3.888   7.242 -0.9968 -0.6454 -0.2114
 7483SOL    HW234086   1.805   3.842   7.381 -0.6444  0.4437 -1.4014
 7484SOL     OW34087   2.362   0.219   9.128  0.0368 -0.4584 -0.3628
 7484SOL    HW134088   2.421   0.188   9.197  1.3173  2.6313 -0.0612
 7484SOL    HW234089   2.336   0.137   9.087  2.3038 -0.3747 -1.9490
 7485SOL     OW34090   0.117   0.534   5.141 -0.0571  0.6830  0.3831
 7485SOL    HW134091   0.096   0.620   5.102 -0.9117  0.3945  0.1888
 7485SOL    HW234092   0.103   0.563   5.231 -0.6234 -1.0682  0.8535
 7486SOL     OW34093   0.491   4.561   9.891  0.0970 -0.4885 -0.0522
 7486SOL    HW134094   0.570   4.603   9.925 -0.0901  0.0477 -0.2918
 7486SOL    HW234095   0.485   4.493   9.959 -1.4980 -2.6203 -2.3212
 7487SOL     OW34096   2.358   2.767   9.000  0.4009  0.1240 -0.0166
 7487SOL    HW134097   2.279   2.754   8.948  0.4511  1.4436 -0.4410
 7487SOL    HW234098   2.422   2.801   8.937  0.9257 -0.2325  0.3233
 7488SOL     OW34099   3.402   1.055   6.045  0.1777  0.6880  0.0552
 7488SOL    HW134100   3.405   1.088   6.135  0.1346  2.8079 -0.7194
 7488SOL    HW234101   3.419   1.138   5.999 -2.3734 -0.3776 -2.7978
 7489SOL     OW34102   1.675   0.574   8.956  0.2489 -0.0970  0.6131
 7489SOL    HW134103   1.601   0.596   9.013  0.5511  1.7475  0.2917
 7489SOL    HW234104   1.637   0.585   8.869  2.1844  0.4745 -0.1682
 7490SOL     OW34105   3.074   1.299   8.878  0.1380  0.3211 -0.2140
 7490SOL    HW134106   3.140   1.361   8.910 -0.1878  0.3352  0.4229
 7490SOL    HW234107   3.031   1.347   8.807  2.9899  0.3703 -1.8885
 7491SOL     OW34108   0.409   0.878   2.570  0.2166  0.5718  0.2729
 7491SOL    HW134109   0.424   0.959   2.619  2.3603  0.0243  0.5355
 7491SOL    HW234110   0.407   0.820   2.646  1.7464  2.2130  1.5704
 7492SOL     OW34111   3.488   1.996  16.768  0.3214 -0.1862  0.1935
 7492SOL    HW134112   3.437   2.057  16.714  0.3199  0.8373  1.3630
 7492SOL    HW234113   3.519   2.051  16.840  0.2924  0.6936 -0.4709
 7493SOL     OW34114   3.246   3.303   7.886  0.0353  0.2611  0.3235
 7493SOL    HW134115   3.199   3.288   7.968 -0.0205  0.2052  0.2815
 7493SOL    HW234116   3.209   3.231   7.835 -2.0615  1.3161  0.3863
 7494SOL     OW34117   0.610   1.158  14.751  0.4315 -0.2027  0.5693
 7494SOL    HW134118   0.680   1.147  14.687  0.8474 -2.1304  1.3462
 7494SOL    HW234119   0.561   1.227  14.707 -0.5007 -1.4892 -0.4413
 7495SOL     OW34120   1.366   0.976   8.176 -0.0077 -0.2659 -0.1226
 7495SOL    HW134121   1.439   0.964   8.115 -0.2003  0.8639 -0.5779
 7495SOL    HW234122   1.326   1.056   8.141 -0.5581 -0.0067  1.1011
 7496SOL     OW34123   4.621   0.939  17.324  0.1635  0.0941 -0.1698
 7496SOL    HW134124   4.531   0.919  17.350  0.2371  1.1497  0.8718
 7496SOL    HW234125   4.661   0.966  17.406 -1.1887  1.0815  0.1707
 7497SOL     OW34126   3.029   2.732   8.878  0.7256 -0.4367 -0.8474
 7497SOL    HW134127   3.061   2.654   8.923 -0.7231 -0.9134 -0.6109
 7497SOL    HW234128   2.998   2.780   8.955  1.3034 -1.4610  0.0324
 7498SOL     OW34129   1.868   0.458   3.040  0.0026  0.0028  0.0990
 7498SOL    HW134130   1.893   0.549   3.022 -0.3626 -0.1084 -0.9727
 7498SOL    HW234131   1.927   0.398   2.996 -1.4149 -0.2831 -1.4258
 7499SOL     OW34132   1.697   1.990   7.478 -0.0826  0.2962  1.1320
 7499SOL    HW134133   1.740   2.070   7.508  3.2942 -1.3700  0.7626
 7499SOL    HW234134   1.756   1.970   7.405 -0.8825 -0.5590  0.7162
 7500SOL     OW34135   1.854   0.697   2.308  0.2116 -0.4733 -0.2555
 7500SOL    HW134136   1.882   0.739   2.389  0.7078  0.0734 -0.7172
 7500SOL    HW234137   1.866   0.767   2.244 -0.4719  0.4088  0.5774
 7501SOL     OW34138   0.828   4.661   6.969  0.2731  0.3210 -0.4215
 7501SOL    HW134139   0.904   4.658   6.910  1.7732  1.8112  1.4680
 7501SOL    HW234140   0.762   4.682   6.902  1.8790  1.4176 -1.6559
 7502SOL     OW34141   4.564   1.044  14.772 -0.0768 -0.1374 -0.6414
 7502SOL    HW134142   4.560   1.092  14.854  2.2534 -1.1011  0.0470
 7502SOL    HW234143   4.591   0.957  14.802  0.0786  0.3201  0.5203
 7503SOL     OW34144   4.300   1.721   5.359  0.4194 -0.0315  0.0523
 7503SOL    HW134145   4.227   1.677   5.403 -0.5900  1.4551 -0.1491
 7503SOL    HW234146   4.282   1.703   5.267 -0.6068  0.7177  0.1150
 7504SOL     OW34147   2.422   1.580  13.119 -0.0187 -0.1041  0.7965
 7504SOL    HW134148   2.366   1.528  13.062  0.9401 -0.3170  0.0499
 7504SOL    HW234149   2.426   1.664  13.073 -0.6573 -0.6800 -0.3128
 7505SOL     OW34150   3.756   2.285  14.530 -0.0044 -0.3871 -0.3279
 7505SOL    HW134151   3.673   2.248  14.499 -0.0275 -0.5666 -0.0506
 7505SOL    HW234152   3.802   2.293  14.447  0.6166 -2.6772 -0.1975
 7506SOL     OW34153   2.010   3.009   3.654  0.0393 -0.3054 -0.0479
 7506SOL    HW134154   2.019   2.946   3.583  1.2892  0.6876 -0.7889
 7506SOL    HW234155   1.954   2.961   3.715  0.5864 -1.7905 -0.7085
 7507SOL     OW34156   0.829   3.059   6.353 -0.3392 -0.7100 -0.1959
 7507SOL    HW134157   0.778   3.126   6.309 -1.4713 -1.8190 -0.5761
 7507SOL    HW234158   0.884   3.035   6.279  1.2306  0.2027  0.6571
 7508SOL     OW34159   2.236   4.419  10.029  0.1113  0.1064 -0.5664
 7508SOL    HW134160   2.329   4.406  10.049 -0.5847  1.2293  3.4805
 7508SOL    HW234161   2.226   4.505   9.989  1.7844  0.1030 -1.0029
 7509SOL     OW34162   3.736   2.267   6.902  0.2339 -0.4421  0.2755
 7509SOL    HW134163   3.789   2.284   6.824  1.2378 -1.5245  0.7221
 7509SOL    HW234164   3.753   2.173   6.906 -1.4851 -0.8340 -1.5683
 7510SOL     OW34165   2.423   1.583  11.978 -0.2590 -0.4012 -0.4783
 7510SOL    HW134166   2.519   1.581  11.982 -0.4008 -4.0123  1.5780
 7510SOL    HW234167   2.401   1.587  12.071  0.4130 -0.7832 -0.3000
 7511SOL     OW34168   1.025   1.619  14.067 -0.6163  0.0487 -0.5462
 7511SOL    HW134169   1.039   1.713  14.082 -0.1680 -0.0929 -0.0417
 7511SOL    HW234170   0.945   1.608  14.118 -0.6783 -1.5380 -1.0086
 7512SOL     OW34171   2.763   1.167   5.164  0.6034  0.1768  0.3696
 7512SOL    HW134172   2.712   1.203   5.091 -0.1759  2.3919  2.0054
 7512SOL    HW234173   2.837   1.118   5.128 -1.1759 -3.0706  1.1361
 7513SOL     OW34174   0.302   4.244   8.978 -0.0374 -0.0672 -0.0813
 7513SOL    HW134175   0.291   4.232   9.072 -0.2857  0.1681 -0.0814
 7513SOL    HW234176   0.395   4.225   8.964 -0.0223  2.1412 -3.0432
 7514SOL     OW34177   0.352   0.315  17.713 -0.4060 -0.1785 -0.2049
 7514SOL    HW134178   0.296   0.281   0.045 -2.3600  1.5126 -0.9710
 7514SOL    HW234179   0.286   0.362  17.662 -2.9219 -1.2432  2.0466
 7515SOL     OW34180   3.305   4.132   4.748 -0.7333 -0.0868  0.2501
 7515SOL    HW134181   3.387   4.113   4.793 -1.0019 -2.3612 -0.2228
 7515SOL    HW234182   3.255   4.051   4.755  0.5358 -0.8453  0.4704
 7516SOL     OW34183   0.727   3.584   2.904 -0.2484 -0.1309  0.6107
 7516SOL    HW134184   0.640   3.575   2.945 -0.5664  0.0685 -0.0246
 7516SOL    HW234185   0.723   3.538   2.821 -0.0021  0.6724  0.1485
 7517SOL     OW34186   4.478   1.976  13.279 -0.3632 -0.2332 -0.0693
 7517SOL    HW134187   4.560   2.026  13.283 -0.4410 -0.1413  0.3597
 7517SOL    HW234188   4.522   1.894  13.256 -1.1607 -0.4853 -0.6917
 7518SOL     OW34189   0.250   1.179   2.869 -0.5257 -0.8327 -0.0590
 7518SOL    HW134190   0.317   1.131   2.918 -0.2789 -1.8149 -1.3243
 7518SOL    HW234191   0.192   1.105   2.848 -0.1107 -0.7029 -1.6492
 7519SOL     OW34192   3.950   4.343   5.256 -0.4617  0.4739  0.6861
 7519SOL    HW134193   4.044   4.332   5.241 -0.1314  3.5117  0.4915
 7519SOL    HW234194   3.922   4.253   5.272 -1.4918  0.4183 -1.5086
 7520SOL     OW34195   2.789   2.019  16.797 -0.0119 -0.1045  0.5299
 7520SOL    HW134196   2.820   2.003  16.708  0.6565 -0.3880  0.8138
 7520SOL    HW234197   2.694   2.026  16.793 -0.1740 -4.0509 -2.4758
 7521SOL     OW34198   0.959   0.229   4.790  0.0246  0.5671 -0.7340
 7521SOL    HW134199   0.871   0.218   4.828 -0.0364 -1.4751 -1.5041
 7521SOL    HW234200   0.966   0.324   4.778 -1.7502  0.6003 -1.5520
 7522SOL     OW34201   1.046   0.842   5.976  0.2656 -0.0596 -0.5384
 7522SOL    HW134202   1.043   0.937   5.961  0.7579  0.1443  0.6679
 7522SOL    HW234203   0.963   0.808   5.941  1.5168 -2.7949 -0.7908
 7523SOL     OW34204   4.608   1.382   6.656  0.0480  0.1364 -0.1496
 7523SOL    HW134205   4.580   1.472   6.671  1.0233  0.5818 -0.9791
 7523SOL    HW234206   4.598   1.342   6.742  1.8984  2.3524  1.1026
 7524SOL     OW34207   3.891   3.296   2.144  0.0825 -0.5725  0.2589
 7524SOL    HW134208   3.835   3.373   2.150 -0.3592 -0.7997 -1.0887
 7524SOL    HW234209   3.898   3.265   2.234  0.5792  0.9154  0.7312
 7525SOL     OW34210   2.409   4.700  13.250 -0.6033  0.2855 -0.2256
 7525SOL    HW134211   2.379   4.622  13.205  1.1168 -0.5343  0.0571
 7525SOL    HW234212   2.402   4.680  13.343 -2.1327  0.2665 -0.3483
 7526SOL     OW34213   0.263   3.321   4.406 -0.3753  0.0605  0.0567
 7526SOL    HW134214   0.190   3.313   4.467 -1.6715 -3.9938 -2.0077
 7526SOL    HW234215   0.209   3.310   4.328  1.7782  0.4200 -1.4933
 7527SOL     OW34216   3.198   2.002   3.173  0.0833 -0.0502 -0.3193
 7527SOL    HW134217   3.109   1.986   3.202  0.1157 -0.8276 -0.6548
 7527SOL    HW234218   3.217   1.926   3.118 -1.1201 -0.0489 -0.7215
 7528SOL     OW34219   3.799   1.801  11.769  0.3680  0.1490 -0.1000
 7528SOL    HW134220   3.737   1.791  11.697  1.1839  1.6557 -1.0185
 7528SOL    HW234221   3.774   1.887  11.803 -2.0986 -0.0278 -1.4823
 7529SOL     OW34222   1.240   1.028   4.947 -0.1668  0.3686  0.0378
 7529SOL    HW134223   1.213   0.962   5.011 -0.2045  0.0665 -0.2832
 7529SOL    HW234224   1.330   1.051   4.972 -0.4614  0.5987  0.8587
 7530SOL     OW34225   4.457   3.374  12.465  0.0524  0.1882 -0.1040
 7530SOL    HW134226   4.393   3.381  12.394  0.2773 -1.2701 -0.4617
 7530SOL    HW234227   4.502   3.458  12.479 -1.4313  0.9137  0.2635
 7531SOL     OW34228   3.924   3.438   3.882 -0.4343 -0.4859 -0.0242
 7531SOL    HW134229   3.969   3.389   3.814  0.3867  0.4783 -0.1752
 7531SOL    HW234230   3.922   3.530   3.854 -2.6515 -0.1566  1.2231
 7532SOL     OW34231   4.608   1.210   7.998  0.3425 -0.1210 -0.1634
 7532SOL    HW134232   4.687   1.170   8.036 -2.0714 -6.6045 -2.0243
 7532SOL    HW234233   4.537   1.180   8.054  1.3849  2.1888  2.4226
 7533SOL     OW34234   3.798   3.163   4.335  0.3935  0.1680  0.1657
 7533SOL    HW134235   3.717   3.200   4.298 -0.3413 -1.9007 -0.3200
 7533SOL    HW234236   3.857   3.180   4.262 -0.0424 -0.6974 -0.3926
 7534SOL     OW34237   2.391   3.998   3.523 -0.2027  0.4972 -0.4137
 7534SOL    HW134238   2.386   3.952   3.607 -0.3508  1.2387 -0.0193
 7534SOL    HW234239   2.474   3.970   3.486 -1.3948 -2.9309 -0.5554
 7535SOL     OW34240   4.039   2.123   0.886  0.0888 -0.4693 -0.5432
 7535SOL    HW134241   4.040   2.031   0.857 -0.5113 -0.8423  0.6023
 7535SOL    HW234242   4.081   2.170   0.814  0.8899 -0.9815 -0.4155
 7536SOL     OW34243   0.677   1.224   6.341 -0.6665 -0.6918 -0.6634
 7536SOL    HW134244   0.753   1.201   6.395 -1.2416 -1.1477 -0.0517
 7536SOL    HW234245   0.606   1.170   6.375 -1.3293  0.9072  0.4693
 7537SOL     OW34246   1.896   1.633   1.428 -0.5469 -0.4446 -0.2954
 7537SOL    HW134247   1.893   1.560   1.489 -0.1044  1.4614  2.0062
 7537SOL    HW234248   1.977   1.627   1.378 -0.1034 -1.2814  0.5185
 7538SOL     OW34249   1.240   2.443   1.610 -0.5553  0.2222  0.6520
 7538SOL    HW134250   1.290   2.362   1.622 -0.9580 -0.1747 -0.3803
 7538SOL    HW234251   1.305   2.511   1.627 -0.3009  0.4315 -1.2437
 7539SOL     OW34252   3.928   4.183   9.407  0.3729 -0.3145  0.2591
 7539SOL    HW134253   3.897   4.218   9.491 -0.3072 -0.4616  0.0732
 7539SOL    HW234254   3.853   4.126   9.388  0.7911 -1.2908  1.5248
 7540SOL     OW34255   3.521   2.187  14.437  0.4700  0.2453 -0.4118
 7540SOL    HW134256   3.475   2.184  14.521 -0.6935  3.1412 -0.9333
 7540SOL    HW234257   3.493   2.264  14.389 -1.2525 -0.9068 -1.2130
 7541SOL     OW34258   1.157   0.617   5.896  0.0285 -0.0525  0.1844
 7541SOL    HW134259   1.123   0.702   5.924  0.5665 -0.1352  1.1070
 7541SOL    HW234260   1.243   0.643   5.861 -0.0509  0.9754  0.7580
 7542SOL     OW34261   3.533   1.223  16.789  0.0672  0.1162  0.2204
 7542SOL    HW134262   3.600   1.174  16.740 -0.2374 -0.4364  0.3548
 7542SOL    HW234263   3.463   1.158  16.789  0.8476 -0.7237 -0.7734
 7543SOL     OW34264   0.570   1.055   7.486 -0.2613 -0.0479  0.6407
 7543SOL    HW134265   0.534   0.967   7.497 -2.2541  0.7221  0.2744
 7543SOL    HW234266   0.509   1.106   7.538 -2.5990 -0.5538 -1.6358
 7544SOL     OW34267   4.652   1.494   9.468 -0.0542  0.4580  0.5075
 7544SOL    HW134268   4.729   1.534   9.429  0.7105  0.8999  2.4725
 7544SOL    HW234269   4.589   1.553   9.425 -2.0447 -0.8337  1.6373
 7545SOL     OW34270   3.910   1.821  13.337 -0.2274 -0.2898 -0.1631
 7545SOL    HW134271   3.978   1.888  13.342 -2.4128  2.2007 -3.0193
 7545SOL    HW234272   3.846   1.860  13.398 -0.1000  0.1512 -0.3104
 7546SOL     OW34273   4.478   4.449   1.146 -0.1608 -0.1800 -0.4277
 7546SOL    HW134274   4.520   4.494   1.072  1.1911 -1.3317 -0.3407
 7546SOL    HW234275   4.485   4.358   1.119 -2.3532 -0.5664  0.2850
 7547SOL     OW34276   1.920   4.131   5.997 -0.2695 -0.0348  0.4987
 7547SOL    HW134277   1.866   4.125   6.076  0.7514 -0.3296  1.1671
 7547SOL    HW234278   1.921   4.040   5.968  0.1031 -0.5729  2.2078
 7548SOL     OW34279   4.535   3.176   6.781  0.0969  0.4281 -0.5449
 7548SOL    HW134280   4.595   3.172   6.855 -0.1079 -0.2199 -0.4198
 7548SOL    HW234281   4.470   3.111   6.808  0.2644  0.1169 -0.8972
 7549SOL     OW34282   2.309   1.026   9.804 -0.0677  0.1012 -0.9466
 7549SOL    HW134283   2.400   1.001   9.792 -0.0570 -0.1821 -0.3063
 7549SOL    HW234284   2.320   1.110   9.849 -0.2294  0.6282 -1.9050
 7550SOL     OW34285   2.935   4.677   0.578 -0.2430  0.5765 -0.2909
 7550SOL    HW134286   2.862   4.638   0.530 -1.7494  2.6897  0.2947
 7550SOL    HW234287   2.881   4.703   0.652  2.3231  2.6054  0.8711
 7551SOL     OW34288   3.763   3.829   9.325  0.2024 -0.2569 -0.1602
 7551SOL    HW134289   3.784   3.784   9.242 -0.8684 -1.5707  0.2911
 7551SOL    HW234290   3.700   3.896   9.298 -0.1795 -1.7940 -3.1067
 7552SOL     OW34291   2.522   2.507  10.032  0.2687  0.2720 -0.2177
 7552SOL    HW134292   2.596   2.447  10.042 -0.3597 -0.4922 -0.2475
 7552SOL    HW234293   2.460   2.445  10.069  2.9715 -1.5453  1.3059
 7553SOL     OW34294   0.597   3.557   0.825 -0.4021 -0.2549 -0.3543
 7553SOL    HW134295   0.572   3.465   0.835  1.4259 -0.8243 -1.0436
 7553SOL    HW234296   0.531   3.594   0.884 -0.0712  0.7624 -0.6160
 7554SOL     OW34297   4.603   1.545  16.193 -0.2289  0.1227  0.1873
 7554SOL    HW134298   4.519   1.512  16.161 -0.4871  0.5514  0.4178
 7554SOL    HW234299   4.589   1.639  16.181 -0.0401  0.1833  0.4512
 7555SOL     OW34300   3.952   3.127   1.282  0.4841 -0.1626  0.0755
 7555SOL    HW134301   3.877   3.175   1.315  0.4207 -0.0377 -0.2455
 7555SOL    HW234302   4.007   3.185   1.229  0.1106  0.6489  0.5856
 7556SOL     OW34303   0.352   1.308   7.532 -0.1268 -0.6162  0.2483
 7556SOL    HW134304   0.293   1.282   7.603  0.2612 -0.3547  0.6648
 7556SOL    HW234305   0.409   1.353   7.595  1.4706  0.0279 -1.6885
 7557SOL     OW34306   2.486   2.747   4.649  0.5801  0.6024  0.1248
 7557SOL    HW134307   2.489   2.669   4.595 -2.4598  0.4153  0.2066
 7557SOL    HW234308   2.390   2.750   4.650  0.5420 -1.4141  2.7509
 7558SOL     OW34309   3.725   1.523   1.846  0.1674  0.1735  0.4581
 7558SOL    HW134310   3.818   1.543   1.837  0.1012  0.1883 -0.1428
 7558SOL    HW234311   3.716   1.571   1.929  3.7807 -1.0355  1.5538
 7559SOL     OW34312   2.041   0.789   3.766  0.6235 -0.1252  0.7247
 7559SOL    HW134313   1.949   0.779   3.742  1.1915  0.0882 -1.5121
 7559SOL    HW234314   2.090   0.750   3.693  2.8257  2.7463  0.6666
 7560SOL     OW34315   2.267   0.698   2.720 -0.1976 -0.2451  0.3840
 7560SOL    HW134316   2.215   0.675   2.796 -0.4765  0.4979  0.4172
 7560SOL    HW234317   2.204   0.704   2.648  0.9661 -0.1729 -0.6340
 7561SOL     OW34318   1.997   4.403   3.011  0.6396 -0.0564 -0.0206
 7561SOL    HW134319   1.988   4.432   3.101 -0.8078 -0.8263  0.0842
 7561SOL    HW234320   2.022   4.310   3.013  0.7639 -0.0385 -0.8601
 7562SOL     OW34321   3.269   2.524   9.508 -0.3390 -0.2554 -0.4179
 7562SOL    HW134322   3.201   2.560   9.565 -0.1246  0.0353 -0.3463
 7562SOL    HW234323   3.336   2.491   9.568  0.3180 -0.4777 -1.2847
 7563SOL     OW34324   4.535   0.056  12.555 -0.0723 -0.5840 -0.4783
 7563SOL    HW134325   4.509   0.010  12.635 -0.7590 -0.1345 -0.4374
 7563SOL    HW234326   4.535   4.712  12.501  1.2461 -1.6407  1.0708
 7564SOL     OW34327   4.149   4.260   3.283  0.1991  0.3225 -0.0973
 7564SOL    HW134328   4.075   4.282   3.226  0.3851  0.6300 -0.2237
 7564SOL    HW234329   4.134   4.327   3.350 -0.1558  0.3102 -0.1620
 7565SOL     OW34330   2.751   3.504   7.695  0.0434  0.0424 -0.1145
 7565SOL    HW134331   2.806   3.557   7.638 -0.2405  1.1501  0.6468
 7565SOL    HW234332   2.688   3.476   7.628 -1.1883  2.9657 -0.1976
 7566SOL     OW34333   0.495   0.304   8.505 -0.1405  0.2325 -0.3787
 7566SOL    HW134334   0.472   0.229   8.450  0.2315 -0.4626  0.4092
 7566SOL    HW234335   0.425   0.360   8.472 -0.3870  0.4849  0.5917
 7567SOL     OW34336   3.822   0.022   9.468  0.5468 -0.0319 -0.2752
 7567SOL    HW134337   3.730   4.731   9.471  0.6874 -0.4962 -0.1186
 7567SOL    HW234338   3.863   4.692   9.411 -0.8198  0.1497 -1.4681
 7568SOL     OW34339   2.759   4.137   7.473 -0.0564  0.6553 -0.1231
 7568SOL    HW134340   2.763   4.048   7.509 -2.0468  0.1037 -1.1926
 7568SOL    HW234341   2.706   4.166   7.547 -2.3216 -2.3191 -0.5639
 7569SOL     OW34342   1.123   2.959   5.298  0.0243 -0.3422  0.4291
 7569SOL    HW134343   1.115   3.043   5.253  0.1741  1.1493  3.2134
 7569SOL    HW234344   1.032   2.931   5.286  0.0188 -0.3781  0.5585
 7570SOL     OW34345   0.946   3.814   7.339  0.4683 -0.3136 -0.3886
 7570SOL    HW134346   0.916   3.803   7.429  0.5770 -0.4483 -0.3696
 7570SOL    HW234347   1.035   3.844   7.351 -0.4434  2.0646  0.3033
 7571SOL     OW34348   1.699   3.981   6.104 -0.3211 -0.7336 -0.3542
 7571SOL    HW134349   1.691   4.038   6.180  1.6576 -0.1771 -0.5538
 7571SOL    HW234350   1.618   3.986   6.054 -0.0182  0.4008 -0.7306
 7572SOL     OW34351   4.644   4.179   0.203 -0.3742 -0.3028 -0.1795
 7572SOL    HW134352   4.685   4.264   0.189 -0.8012 -0.0234  0.2800
 7572SOL    HW234353   4.693   4.124   0.142 -0.2306 -0.2623 -0.1014
 7573SOL     OW34354   3.512   1.004   9.746  0.2338 -0.0377 -0.1145
 7573SOL    HW134355   3.467   1.002   9.661  0.3726  0.8222 -0.2112
 7573SOL    HW234356   3.528   0.910   9.759  2.4065  0.6226  2.0334
 7574SOL     OW34357   4.102   2.910   3.026  0.2410 -0.3427 -0.0035
 7574SOL    HW134358   4.153   2.849   2.972 -1.0658 -1.2613 -0.2215
 7574SOL    HW234359   4.124   2.993   2.985  2.1544 -0.3728  0.9756
 7575SOL     OW34360   4.043   3.490   8.432 -0.1520 -0.5172  0.2358
 7575SOL    HW134361   3.987   3.507   8.508 -1.7393 -3.5117 -0.2875
 7575SOL    HW234362   4.055   3.574   8.387 -0.8321 -0.2271  0.6022
 7576SOL     OW34363   0.895   3.104  14.470 -0.5688 -0.1930  0.0519
 7576SOL    HW134364   0.870   3.031  14.413 -0.4050  0.2702 -0.6138
 7576SOL    HW234365   0.990   3.098  14.454 -0.0974  1.0311  2.3260
 7577SOL     OW34366   2.886   4.443   3.085 -0.5175 -0.8841  0.1710
 7577SOL    HW134367   2.809   4.399   3.121 -0.7827  1.4421  2.3741
 7577SOL    HW234368   2.842   4.503   3.024  2.3208 -0.6000 -1.5954
 7578SOL     OW34369   3.764   1.296  12.234 -0.1238 -0.1074 -0.0668
 7578SOL    HW134370   3.676   1.309  12.269  0.6686  2.3498  0.9776
 7578SOL    HW234371   3.740   1.311  12.143 -0.9925  0.3993  0.2509
 7579SOL     OW34372   3.198   1.384   1.714 -0.0685  0.1713 -0.5701
 7579SOL    HW134373   3.186   1.398   1.620 -1.0615  1.4529 -0.2421
 7579SOL    HW234374   3.221   1.471   1.747  0.4180  0.0014 -0.4582
 7580SOL     OW34375   3.323   0.788   2.589  0.2458  0.5514  0.6330
 7580SOL    HW134376   3.239   0.763   2.551 -0.4391  2.7839  0.6397
 7580SOL    HW234377   3.303   0.882   2.595 -1.0302  0.2952  0.4473
 7581SOL     OW34378   1.484   2.118  14.871 -0.1361  0.4680 -0.1349
 7581SOL    HW134379   1.506   2.209  14.852 -1.0154  1.0812  1.7664
 7581SOL    HW234380   1.511   2.115  14.963 -1.9866 -0.3442  0.3994
 7582SOL     OW34381   3.629   0.627   7.866  0.9747 -0.3392 -0.5525
 7582SOL    HW134382   3.721   0.607   7.853  1.1932  0.1357  0.2763
 7582SOL    HW234383   3.621   0.672   7.782 -2.9878 -0.0544 -0.0320
 7583SOL     OW34384   4.319   0.898   6.029  0.3292  0.0657  0.0390
 7583SOL    HW134385   4.333   0.966   6.095  0.4667  1.1697 -1.1192
 7583SOL    HW234386   4.239   0.865   6.071  0.5774  0.1727  0.6018
 7584SOL     OW34387   2.037   4.705  16.570  0.2205  0.0337  0.1273
 7584SOL    HW134388   1.950   4.721  16.605  1.1119  2.0492  1.4280
 7584SOL    HW234389   2.089   4.675  16.644 -0.4731 -0.5347  0.3791
 7585SOL     OW34390   3.803   2.917   7.172 -0.0456  0.2746  0.2354
 7585SOL    HW134391   3.819   2.960   7.088 -1.4183  0.7702  0.2212
 7585SOL    HW234392   3.707   2.918   7.167 -0.0519  1.2260  0.5206
 7586SOL     OW34393   4.047   0.400   4.788 -0.7323  0.1541  0.4286
 7586SOL    HW134394   4.131   0.382   4.830 -2.5409  1.0253  4.4855
 7586SOL    HW234395   4.028   0.493   4.805  1.2980  0.7954 -0.8502
 7587SOL     OW34396   2.140   1.172   8.330 -0.1277 -0.1448  0.2028
 7587SOL    HW134397   2.130   1.081   8.359  1.3531 -0.0428  1.0793
 7587SOL    HW234398   2.216   1.158   8.273 -1.4856 -2.3487 -1.0760
 7588SOL     OW34399   2.850   4.201  15.015 -0.1033  0.2299  0.2693
 7588SOL    HW134400   2.793   4.261  14.967  2.2922  2.3361  0.0765
 7588SOL    HW234401   2.935   4.244  15.012  0.0169  0.1208  2.1311
 7589SOL     OW34402   4.298   4.667   7.240  0.1203 -0.1839  0.0340
 7589SOL    HW134403   4.223   4.706   7.195 -2.0867 -4.3157  0.1714
 7589SOL    HW234404   4.360   0.005   7.244 -1.7021  1.3075  0.7032
 7590SOL     OW34405   1.843   2.295  10.355 -0.5896  0.4020  0.5529
 7590SOL    HW134406   1.784   2.240  10.407 -1.4481  2.5083  1.7838
 7590SOL    HW234407   1.912   2.229  10.352 -0.7941  0.1642  1.0842
 7591SOL     OW34408   4.151   1.178   7.662  0.0149 -0.1174  0.1300
 7591SOL    HW134409   4.226   1.132   7.698 -0.1486  0.8654  1.7138
 7591SOL    HW234410   4.181   1.196   7.573 -0.0437 -0.2440  0.0854
 7592SOL     OW34411   1.496   3.888   7.031 -0.4063  0.1999  0.2528
 7592SOL    HW134412   1.449   3.812   7.066  2.2452 -2.0794 -1.1751
 7592SOL    HW234413   1.580   3.884   7.077  0.3199 -3.2919 -1.3478
 7593SOL     OW34414   2.905   0.288   5.070  0.8207 -0.2184  0.4499
 7593SOL    HW134415   2.842   0.218   5.051  3.1930 -2.1078 -0.3078
 7593SOL    HW234416   2.989   0.244   5.063  1.2911  0.9741 -1.5627
 7594SOL     OW34417   1.673   1.128   4.335  0.1558 -0.2088 -0.3850
 7594SOL    HW134418   1.603   1.063   4.330 -0.0791  0.0992 -1.1213
 7594SOL    HW234419   1.744   1.066   4.319  0.7778 -0.0980  1.9196
 7595SOL     OW34420   2.031   2.006   6.805  0.5483  0.5553  0.1529
 7595SOL    HW134421   2.124   1.987   6.803  0.6950  0.9625  2.4003
 7595SOL    HW234422   2.040   2.101   6.797  2.2332  0.4983  1.5070
 7596SOL     OW34423   4.312   1.563   0.145 -0.5899 -0.4012 -0.0177
 7596SOL    HW134424   4.265   1.606   0.074 -2.0816  0.1396  1.2797
 7596SOL    HW234425   4.315   1.472   0.115 -0.3397 -0.4133  0.0488
 7597SOL     OW34426   3.035   2.786   4.997  0.2847 -0.0080  0.1169
 7597SOL    HW134427   3.104   2.720   5.006 -0.6327 -0.7577  1.5212
 7597SOL    HW234428   3.078   2.853   4.943 -0.8848  0.6336 -0.0035
 7598SOL     OW34429   4.456   0.204   3.849  0.3461  0.3459 -0.5249
 7598SOL    HW134430   4.393   0.159   3.905  0.4222 -2.8878 -2.9851
 7598SOL    HW234431   4.540   0.178   3.887 -0.2632 -1.9292 -0.7256
 7599SOL     OW34432   0.174   0.904   2.889  0.3945 -0.4589  0.4043
 7599SOL    HW134433   0.241   0.837   2.873  1.6556  1.2761 -1.5596
 7599SOL    HW234434   0.109   0.858   2.836 -0.5535  1.9287 -0.5050
 7600SOL     OW34435   0.824   4.304   5.380 -0.1931 -0.2097  0.4070
 7600SOL    HW134436   0.894   4.314   5.444  0.0864  1.0980 -0.1134
 7600SOL    HW234437   0.822   4.396   5.355 -0.7722  0.1548  1.7892
 7601SOL     OW34438   2.724   1.767   3.400  0.0189  0.0336  0.0248
 7601SOL    HW134439   2.729   1.773   3.495  1.5536 -1.2107  0.0256
 7601SOL    HW234440   2.779   1.690   3.393 -1.6129 -0.8184 -3.6250
 7602SOL     OW34441   4.218   0.098  11.144 -0.2788 -0.1306 -0.1422
 7602SOL    HW134442   4.277   0.143  11.083 -0.4841  0.9811  0.4770
 7602SOL    HW234443   4.256   0.116  11.230  1.3683 -1.4334 -0.5881
 7603SOL     OW34444   2.605   1.070  12.176  0.4828  0.0410 -0.0131
 7603SOL    HW134445   2.548   1.050  12.251  1.3966  0.5847  0.8395
 7603SOL    HW234446   2.563   1.141  12.128 -0.1170 -0.8796 -0.8409
 7604SOL     OW34447   0.399   2.203   1.436  0.4849  0.3785  0.6039
 7604SOL    HW134448   0.482   2.244   1.410  0.3999 -0.8067 -1.5568
 7604SOL    HW234449   0.398   2.216   1.530  1.7415  0.5025  0.6032
 7605SOL     OW34450   1.927   0.510   9.243 -0.2367 -0.0657  0.3002
 7605SOL    HW134451   2.010   0.462   9.242  0.4998  1.1452  3.7060
 7605SOL    HW234452   1.889   0.486   9.158 -2.2346 -1.1873  1.5180
 7606SOL     OW34453   1.701   0.778  16.558  0.2044 -0.1047  0.6826
 7606SOL    HW134454   1.673   0.864  16.590  0.0653  0.1250 -0.0439
 7606SOL    HW234455   1.656   0.774  16.474  1.5276 -0.2782 -0.0199
 7607SOL     OW34456   3.333   4.717  17.275  0.1857  0.0759 -0.0233
 7607SOL    HW134457   3.263   4.683  17.218  0.7582  1.4312 -1.5290
 7607SOL    HW234458   3.400   4.650  17.261  0.7869  0.7064 -0.1828
 7608SOL     OW34459   1.462   2.332   9.438 -0.1531 -0.1880  0.1987
 7608SOL    HW134460   1.391   2.343   9.376  1.0512 -1.5787 -1.4456
 7608SOL    HW234461   1.501   2.254   9.398  0.2299  0.2989 -0.3973
 7609SOL     OW34462   4.368   3.277  14.163 -0.4221 -0.1592  0.5035
 7609SOL    HW134463   4.362   3.372  14.146  1.2447 -0.3030 -0.8471
 7609SOL    HW234464   4.311   3.263  14.239 -3.6499 -0.9862 -2.0559
 7610SOL     OW34465   3.090   0.304  12.924 -0.1040  0.4461  0.0930
 7610SOL    HW134466   3.043   0.313  12.841  1.0329 -1.6091 -0.7544
 7610SOL    HW234467   3.175   0.347  12.914  0.7085 -0.7892  1.6299
 7611SOL     OW34468   2.707   3.730  17.103  0.2458  0.2353 -0.2784
 7611SOL    HW134469   2.699   3.817  17.063  0.1455  0.0854 -0.5893
 7611SOL    HW234470   2.627   3.715  17.153  1.9536 -2.3262  1.7021
 7612SOL     OW34471   0.469   1.917  10.929  0.2718  0.2628  0.2480
 7612SOL    HW134472   0.407   1.986  10.903 -0.3127  0.4352  2.0810
 7612SOL    HW234473   0.439   1.911  11.019 -2.0553 -0.5185 -0.6027
 7613SOL     OW34474   2.523   2.508   5.842  0.0367  0.2699  0.5739
 7613SOL    HW134475   2.455   2.461   5.793  0.7794 -0.0066 -0.1881
 7613SOL    HW234476   2.483   2.588   5.875  1.4414  0.1248  2.6788
 7614SOL     OW34477   3.656   2.042   3.197  0.4624 -0.3019  0.2131
 7614SOL    HW134478   3.743   2.079   3.181  1.1621 -1.7930  0.5768
 7614SOL    HW234479   3.673   1.974   3.262 -2.0176  0.7388  1.9141
 7615SOL     OW34480   2.519   0.316   9.950  0.1847 -0.8618 -0.1999
 7615SOL    HW134481   2.604   0.300   9.992  0.3788  0.8000  0.0252
 7615SOL    HW234482   2.505   0.406   9.981 -1.1958 -0.7587 -1.1391
 7616SOL     OW34483   0.662   1.234   1.581 -0.6844  0.5248  0.2609
 7616SOL    HW134484   0.732   1.299   1.574 -0.4701  0.4205  1.3686
 7616SOL    HW234485   0.646   1.197   1.495  1.0887  1.8821 -0.6593
 7617SOL     OW34486   1.820   2.482   3.181  0.3071 -0.1763 -0.3915
 7617SOL    HW134487   1.768   2.426   3.238 -0.0592  1.4106  0.8543
 7617SOL    HW234488   1.889   2.500   3.245  1.5974 -3.7088 -0.8113
 7618SOL     OW34489   0.119   2.149   4.880  1.1799  0.4125  0.2789
 7618SOL    HW134490   0.160   2.135   4.965 -1.2066 -0.0006  1.3492
 7618SOL    HW234491   0.195   2.146   4.822  0.3612 -2.9045 -0.6621
 7619SOL     OW34492   2.883   2.044   0.907  0.3677  0.3594  0.5075
 7619SOL    HW134493   2.967   2.032   0.862 -0.4118  0.6570 -1.0402
 7619SOL    HW234494   2.862   1.953   0.928  1.2268  0.4940  1.8868
 7620SOL     OW34495   4.499   2.815   6.295 -0.2545 -0.3429 -0.1784
 7620SOL    HW134496   4.501   2.820   6.200 -3.4228  0.6765 -0.1912
 7620SOL    HW234497   4.565   2.750   6.319  0.8177  0.6335 -0.5038
 7621SOL     OW34498   2.843   4.312  12.062  0.1758  0.2945  0.1519
 7621SOL    HW134499   2.796   4.256  12.001  1.4138  0.8987 -1.3638
 7621SOL    HW234500   2.798   4.396  12.048  0.2461  0.0594 -1.4380
 7622SOL     OW34501   0.012   1.226  11.191 -0.0795 -0.3326 -0.1068
 7622SOL    HW134502   0.081   1.252  11.130 -0.3936 -1.0096 -0.7354
 7622SOL    HW234503   0.026   1.134  11.172 -0.5818 -0.3497 -0.3827
 7623SOL     OW34504   4.402   3.451   8.097  0.1718 -1.0944 -0.2330
 7623SOL    HW134505   4.412   3.456   8.192  0.1266  0.7119 -0.3310
 7623SOL    HW234506   4.489   3.438   8.061 -0.2247 -1.0947 -1.1743
 7624SOL     OW34507   1.241   0.391   4.491 -0.6111 -0.3731 -0.0076
 7624SOL    HW134508   1.162   0.340   4.473 -0.2380 -0.6398 -0.8719
 7624SOL    HW234509   1.282   0.404   4.406 -1.0355  0.3317 -0.1022
 7625SOL     OW34510   0.524   1.817   7.029 -0.4805  0.6079 -0.0046
 7625SOL    HW134511   0.504   1.729   7.061 -0.2911 -0.1381 -1.9257
 7625SOL    HW234512   0.471   1.872   7.086  0.4742  1.4037  0.1241
 7626SOL     OW34513   2.227   3.527   4.753  0.6720  0.0527 -0.3704
 7626SOL    HW134514   2.171   3.450   4.743 -0.4247  1.1012 -2.3749
 7626SOL    HW234515   2.310   3.487   4.728  0.9437  1.1345 -1.1842
 7627SOL     OW34516   2.921   2.941   5.774 -0.2087 -0.5050  0.2473
 7627SOL    HW134517   2.925   2.905   5.685 -0.3086 -2.5777  1.0711
 7627SOL    HW234518   2.860   2.883   5.818 -0.7696  0.6867  1.0239
 7628SOL     OW34519   4.419   2.202   4.550  0.3249  0.3342 -0.1450
 7628SOL    HW134520   4.473   2.124   4.549 -0.6263 -0.2808 -2.5145
 7628SOL    HW234521   4.354   2.172   4.614 -0.1382 -1.7281 -1.5721
 7629SOL     OW34522   4.694   2.866   6.907  0.0142 -0.1238  0.1002
 7629SOL    HW134523   4.705   2.960   6.915  0.9163 -0.4138  2.2728
 7629SOL    HW234524   4.635   2.842   6.978  1.6911 -0.3471  1.4209
 7630SOL     OW34525   2.851   4.546  13.197  0.0158  0.6332  0.1003
 7630SOL    HW134526   2.927   4.569  13.252 -0.8406 -0.6059  1.7910
 7630SOL    HW234527   2.788   4.610  13.231  0.0570  0.7440 -0.0284
 7631SOL     OW34528   2.516   4.287   5.446  0.1530  0.7103  0.6040
 7631SOL    HW134529   2.610   4.271   5.458  0.0855  0.3347  0.6067
 7631SOL    HW234530   2.505   4.240   5.364 -0.2370  0.2097  0.9382
 7632SOL     OW34531   1.943   1.422  12.329 -0.4276  0.1913 -0.8969
 7632SOL    HW134532   1.965   1.342  12.376  1.0463  1.9139  1.3550
 7632SOL    HW234533   1.857   1.440  12.366 -1.2817 -1.0388 -2.2764
 7633SOL     OW34534   1.619   4.416  12.351  0.2554 -0.4404  0.3558
 7633SOL    HW134535   1.661   4.409  12.266  0.6041 -0.1899  0.5070
 7633SOL    HW234536   1.648   4.332  12.386 -1.7509 -1.5343 -0.5667
 7634SOL     OW34537   1.711   3.029   9.693 -0.0024 -0.2282 -0.1697
 7634SOL    HW134538   1.705   2.937   9.717 -0.4290 -0.0619  0.3678
 7634SOL    HW234539   1.628   3.055   9.734 -0.9330 -4.1848  0.4166
 7635SOL     OW34540   1.066   4.487   5.282  0.6812  0.6821 -0.5271
 7635SOL    HW134541   1.052   4.461   5.191  1.3900  2.0572 -1.0409
 7635SOL    HW234542   1.162   4.495   5.277  0.9695  1.2081  5.4808
 7636SOL     OW34543   1.825   0.769   9.359  0.9504 -0.3072 -0.2835
 7636SOL    HW134544   1.855   0.800   9.444 -0.4100 -1.3005  0.5539
 7636SOL    HW234545   1.904   0.730   9.320  0.8694 -1.5209  0.7663
 7637SOL     OW34546   1.408   0.442  10.276  0.0990 -0.0783 -0.1544
 7637SOL    HW134547   1.378   0.533  10.279  2.0048  0.5133  1.3344
 7637SOL    HW234548   1.396   0.417  10.368 -3.1802 -0.8374 -0.8064
 7638SOL     OW34549   2.417   0.977   4.947  0.4306  0.2997  0.0257
 7638SOL    HW134550   2.368   0.944   5.022  0.5039  1.8479  0.7642
 7638SOL    HW234551   2.459   0.899   4.911  0.0795  1.1071 -2.1207
 7639SOL     OW34552   3.425   0.739  16.089  0.2547 -0.1246 -0.2257
 7639SOL    HW134553   3.431   0.781  16.003 -0.4729 -1.8083 -1.0989
 7639SOL    HW234554   3.370   0.799  16.139  0.3550  0.0829 -0.3638
 7640SOL     OW34555   2.078   2.335   8.922 -0.1729 -0.3357  0.3429
 7640SOL    HW134556   2.168   2.329   8.953 -0.9069 -1.4486  2.2684
 7640SOL    HW234557   2.056   2.242   8.909  1.0380 -0.5352 -0.2344
 7641SOL     OW34558   3.703   1.041  17.341 -0.4874  0.0153 -0.1727
 7641SOL    HW134559   3.650   1.121  17.345 -0.7557  0.0610 -3.8922
 7641SOL    HW234560   3.656   0.989  17.276 -1.8522  0.3849  0.5241
 7642SOL     OW34561   3.926   1.254   3.933 -0.5908  0.0752  0.0983
 7642SOL    HW134562   3.875   1.336   3.939 -1.0210 -0.0644 -1.5197
 7642SOL    HW234563   4.004   1.275   3.984  1.1949 -1.8419 -1.8546
 7643SOL     OW34564   2.089   1.359   6.357 -0.3827 -0.3603  0.5114
 7643SOL    HW134565   2.155   1.402   6.303  0.1909  0.0252  1.5080
 7643SOL    HW234566   2.014   1.361   6.298  0.4230  0.6911 -0.4640
 7644SOL     OW34567   2.721   2.798   2.582 -0.3182 -0.2256  0.2356
 7644SOL    HW134568   2.812   2.772   2.592 -0.1667  0.3857  0.4682
 7644SOL    HW234569   2.723   2.838   2.495  0.4299 -1.1770 -0.1745
 7645SOL     OW34570   2.075   2.893   8.127  0.3953  0.0731  0.0941
 7645SOL    HW134571   2.027   2.830   8.074 -0.1898 -0.5574  1.4051
 7645SOL    HW234572   2.150   2.843   8.159 -0.0285  0.3391  1.4806
 7646SOL     OW34573   3.150   2.100  10.797  0.0867  1.0201 -0.0741
 7646SOL    HW134574   3.095   2.041  10.745  0.5491  2.3985 -2.1257
 7646SOL    HW234575   3.212   2.139  10.735  0.5196 -2.1098 -1.6198
 7647SOL     OW34576   4.315   2.631   4.163 -0.6933 -0.0992  0.2592
 7647SOL    HW134577   4.221   2.614   4.173 -0.6040 -0.0660  1.1243
 7647SOL    HW234578   4.330   2.560   4.101 -1.4627  0.3631 -0.4522
 7648SOL     OW34579   3.550   2.403  13.400 -0.2543  0.3729  0.0203
 7648SOL    HW134580   3.505   2.434  13.479  1.1743 -0.4761  1.1644
 7648SOL    HW234581   3.549   2.310  13.424 -0.5980  0.4710  0.3817
 7649SOL     OW34582   1.143   4.594   7.715 -0.0528  0.2410 -0.4687
 7649SOL    HW134583   1.160   4.524   7.651  0.2509 -1.2011  1.2052
 7649SOL    HW234584   1.182   4.666   7.665  2.6712 -1.1720 -0.3791
 7650SOL     OW34585   0.313   1.944   1.674 -0.1363 -0.3542 -0.4412
 7650SOL    HW134586   0.274   1.911   1.593 -0.4838  0.9705 -0.8157
 7650SOL    HW234587   0.284   1.883   1.741  0.2366 -1.1093 -0.9647
 7651SOL     OW34588   3.898   0.010   4.691  0.4238  0.1265  0.0927
 7651SOL    HW134589   3.923   0.073   4.759  0.9836 -0.3237  0.3062
 7651SOL    HW234590   3.899   0.060   4.610  0.7998 -1.1699 -0.7054
 7652SOL     OW34591   1.861   1.001   2.090 -0.0058 -0.3144 -0.8908
 7652SOL    HW134592   1.892   1.063   2.156 -0.5132 -0.3114 -0.6578
 7652SOL    HW234593   1.862   1.055   2.011 -2.4610 -1.3518 -1.6358
 7653SOL     OW34594   2.436   0.358  13.316 -0.1047  0.5629 -0.0468
 7653SOL    HW134595   2.484   0.300  13.376 -1.4311 -0.9479 -0.4697
 7653SOL    HW234596   2.478   0.445  13.317  0.1226  0.4628 -0.5000
 7654SOL     OW34597   4.028   3.430   2.493 -0.2754  0.2261  0.7612
 7654SOL    HW134598   3.992   3.510   2.454  2.4652  0.4571 -1.2739
 7654SOL    HW234599   4.110   3.455   2.535  1.0016 -2.6955 -0.0217
 7655SOL     OW34600   3.978   4.561   3.592 -0.3115  0.0419  0.4194
 7655SOL    HW134601   4.049   4.501   3.568 -1.7368 -0.2153 -3.0754
 7655SOL    HW234602   3.909   4.496   3.599 -0.5339  0.0920 -1.2468
 7656SOL     OW34603   0.557   3.757   3.533 -0.5448  0.4929 -0.0839
 7656SOL    HW134604   0.476   3.804   3.511 -1.3192 -0.6789  0.2109
 7656SOL    HW234605   0.611   3.774   3.456 -1.2993  1.9900 -0.2857
 7657SOL     OW34606   1.105   1.695   9.312 -0.0518  0.5248  0.3562
 7657SOL    HW134607   1.114   1.600   9.313  1.1014  0.6584  3.3089
 7657SOL    HW234608   1.185   1.729   9.351 -0.7223  0.8073  1.5013
 7658SOL     OW34609   1.872   1.277   5.188  0.4674  0.1697 -0.3708
 7658SOL    HW134610   1.894   1.347   5.249 -2.1120  0.8430 -0.1983
 7658SOL    HW234611   1.843   1.324   5.109 -0.2987 -0.0252 -0.2112
 7659SOL     OW34612   0.815   3.216   4.403 -0.3872 -0.6297  0.4072
 7659SOL    HW134613   0.874   3.242   4.332 -1.4118 -1.9230 -0.9177
 7659SOL    HW234614   0.740   3.271   4.378  1.6227  1.5919 -0.7832
 7660SOL     OW34615   0.064   1.070   1.233  0.0707 -0.2014  0.1378
 7660SOL    HW134616   0.133   1.006   1.216 -0.4139 -0.1906 -1.8790
 7660SOL    HW234617   0.063   1.107   1.145 -2.2439  3.4433  1.6748
 7661SOL     OW34618   2.080   3.900   2.165  0.6077 -0.2160 -0.3848
 7661SOL    HW134619   2.148   3.919   2.231 -0.4589 -3.4464  1.6529
 7661SOL    HW234620   2.057   3.808   2.176  1.3768 -0.1745  1.7172
 7662SOL     OW34621   3.233   0.755   3.221 -0.0543  0.1699 -0.4300
 7662SOL    HW134622   3.312   0.726   3.267 -0.0941  2.5527  1.1143
 7662SOL    HW234623   3.251   0.848   3.236 -1.1822  0.1061  1.2432
 7663SOL     OW34624   2.167   0.938   1.991 -0.1409 -0.4657  0.5878
 7663SOL    HW134625   2.113   1.015   1.974 -0.6936 -0.8637  0.5238
 7663SOL    HW234626   2.157   0.902   1.903  2.5841 -2.1222  0.9406
 7664SOL     OW34627   2.055   0.473  10.532  0.1028 -0.1195 -0.2563
 7664SOL    HW134628   1.994   0.530  10.578  3.3017 -0.0994  3.9273
 7664SOL    HW234629   2.075   0.527  10.456  0.3115 -0.4688 -0.4513
 7665SOL     OW34630   1.818   1.725  13.723  0.2373  0.0512 -0.2246
 7665SOL    HW134631   1.859   1.654  13.675  2.7890  1.1295  0.3907
 7665SOL    HW234632   1.769   1.674  13.787  1.3221 -0.1582  0.4290
 7666SOL     OW34633   4.463   3.139   9.376  0.5746  0.1368  0.3635
 7666SOL    HW134634   4.369   3.150   9.390  0.4991 -0.4441  0.2966
 7666SOL    HW234635   4.496   3.158   9.463 -1.7695  3.6363  0.5251
 7667SOL     OW34636   0.773   3.983   0.714 -0.0382  0.1118 -0.3671
 7667SOL    HW134637   0.692   3.995   0.764  0.6780 -1.7427  1.2429
 7667SOL    HW234638   0.773   4.067   0.668 -0.1427  0.4307  0.2200
 7668SOL     OW34639   3.682   3.069   4.049 -0.4898 -0.2818  0.3194
 7668SOL    HW134640   3.705   3.027   3.965  0.2011 -0.8512  0.7945
 7668SOL    HW234641   3.610   3.013   4.076 -0.8249  0.0679  0.1599
 7669SOL     OW34642   1.364   0.534   9.487  0.5666  0.2975  0.7920
 7669SOL    HW134643   1.421   0.609   9.504  0.4099 -0.3393  4.0916
 7669SOL    HW234644   1.417   0.457   9.508 -0.7788 -0.7752  0.2798
 7670SOL     OW34645   0.436   0.430   3.140 -0.1116 -0.0913  0.5213
 7670SOL    HW134646   0.443   0.351   3.193  1.9631  0.5279  1.1955
 7670SOL    HW234647   0.456   0.400   3.051 -1.9280 -0.1431  0.1296
 7671SOL     OW34648   3.885   3.108   2.645  0.0272  1.0714  0.3811
 7671SOL    HW134649   3.973   3.104   2.606 -0.1977  1.4910 -0.1644
 7671SOL    HW234650   3.826   3.062   2.585  0.6823 -0.3329  0.8112
 7672SOL     OW34651   2.165   2.603   9.448 -0.5117 -0.2026 -0.2666
 7672SOL    HW134652   2.258   2.589   9.467  0.0278  1.8450 -1.4788
 7672SOL    HW234653   2.146   2.556   9.367 -0.1009 -1.2374  0.2298
 7673SOL     OW34654   2.739   1.244   5.864 -0.4121 -0.2217  0.1819
 7673SOL    HW134655   2.645   1.236   5.847 -1.2158  2.5872  3.3801
 7673SOL    HW234656   2.773   1.222   5.777 -0.2489 -1.2579  0.5000
 7674SOL     OW34657   3.885   0.296   3.007 -0.1714  0.7360  0.2423
 7674SOL    HW134658   3.939   0.374   2.995  1.0133  0.1960  2.0748
 7674SOL    HW234659   3.939   0.251   3.071 -0.2986 -1.4504 -1.1852
 7675SOL     OW34660   2.047   2.139   6.456 -0.2698  0.2612 -0.1391
 7675SOL    HW134661   2.044   2.096   6.370  1.4697  1.3098 -0.7163
 7675SOL    HW234662   2.138   2.166   6.446 -0.2014 -0.0844 -0.4670
 7676SOL     OW34663   2.714   0.200  11.340  0.0029 -0.0698  0.3030
 7676SOL    HW134664   2.639   0.141  11.340 -0.3891  0.4669  3.3482
 7676SOL    HW234665   2.674   0.275  11.383  1.8537 -0.1229  2.1311
 7677SOL     OW34666   1.517   0.029   5.413 -0.0410  0.1367  0.5052
 7677SOL    HW134667   1.424   0.036   5.392  0.1429  1.3867  0.1515
 7677SOL    HW234668   1.509   0.058   5.504 -1.6290  0.1199  0.3695
 7678SOL     OW34669   4.545   4.714   4.607 -0.4617  0.6188 -0.7025
 7678SOL    HW134670   4.577   0.015   4.691  1.5643 -2.0349 -0.3365
 7678SOL    HW234671   4.620   4.667   4.572 -0.0039  0.1963  0.8306
 7679SOL     OW34672   3.332   0.619   8.661 -0.1350  0.1824 -0.1736
 7679SOL    HW134673   3.334   0.686   8.593 -0.3990 -0.8288 -1.1731
 7679SOL    HW234674   3.332   0.672   8.741  1.9907  1.2465 -0.8789
 7680SOL     OW34675   1.510   0.646  17.516  0.0535  0.7676 -0.2203
 7680SOL    HW134676   1.481   0.699  17.442 -0.2916  0.1784 -0.5006
 7680SOL    HW234677   1.605   0.656  17.509  0.0444  0.7415 -0.3836
 7681SOL     OW34678   0.589   0.918   9.344 -0.0673  0.1781  0.5345
 7681SOL    HW134679   0.575   0.928   9.438  1.3540 -1.7949  0.9450
 7681SOL    HW234680   0.594   0.824   9.333  0.9877  0.3618 -0.5011
 7682SOL     OW34681   2.118   2.999   8.679 -0.6573 -0.1489 -0.2513
 7682SOL    HW134682   2.136   2.914   8.719 -0.8278 -0.1119 -0.0935
 7682SOL    HW234683   2.152   2.990   8.590  1.6126 -1.0285  0.7124
 7683SOL     OW34684   2.387   1.479   2.368 -0.0782 -0.5436 -0.2659
 7683SOL    HW134685   2.460   1.503   2.310 -0.1000 -2.2468 -0.9837
 7683SOL    HW234686   2.389   1.384   2.363  1.0809 -0.4573 -1.6580
 7684SOL     OW34687   0.383   0.599   0.020 -0.1301 -0.2936  0.2036
 7684SOL    HW134688   0.367   0.505   0.022  1.8040 -0.5738  1.5401
 7684SOL    HW234689   0.460   0.598  17.702 -1.8174 -1.9993 -2.0759
 7685SOL     OW34690   4.336   0.581   8.109 -0.0271 -0.3484 -0.1904
 7685SOL    HW134691   4.241   0.574   8.105 -0.0207 -0.6742  0.2183
 7685SOL    HW234692   4.351   0.675   8.119 -2.5188  0.0035  0.2933
 7686SOL     OW34693   4.491   3.412   2.259  0.1799 -0.3202 -0.0444
 7686SOL    HW134694   4.449   3.394   2.175  1.2497  0.0008 -0.6624
 7686SOL    HW234695   4.418   3.408   2.320  0.1112 -0.2568 -0.1212
 7687SOL     OW34696   2.427   2.138   9.807  0.0953 -0.1931  0.3730
 7687SOL    HW134697   2.484   2.201   9.763  1.9196 -2.5682 -0.6588
 7687SOL    HW234698   2.458   2.149   9.897 -0.8272  1.9281  0.4222
 7688SOL     OW34699   3.073   3.661   6.071  0.5266  0.1625 -0.4291
 7688SOL    HW134700   3.113   3.672   5.985  1.2632  2.1316  0.1649
 7688SOL    HW234701   3.010   3.731   6.080 -0.7870 -0.8503 -1.7097
 7689SOL     OW34702   2.588   0.187   9.361  0.2744 -0.1763  0.1403
 7689SOL    HW134703   2.630   0.101   9.356 -0.1598 -0.2451 -2.2757
 7689SOL    HW234704   2.641   0.238   9.300 -0.0664 -0.9404 -0.7961
 7690SOL     OW34705   2.113   4.153   3.054  0.1673 -0.3487 -0.0563
 7690SOL    HW134706   2.104   4.084   2.988 -0.0956  1.1909 -1.6308
 7690SOL    HW234707   2.197   4.186   3.022  0.1405  0.6767  0.9558
 7691SOL     OW34708   2.365   4.169   2.926  0.4615 -0.5118  0.0417
 7691SOL    HW134709   2.374   4.074   2.924  1.1283 -0.4123 -1.6509
 7691SOL    HW234710   2.457   4.194   2.916  0.9532 -1.3560  2.4539
 7692SOL     OW34711   3.753   4.244  12.879 -0.2199  0.0961 -0.6781
 7692SOL    HW134712   3.821   4.247  12.947 -1.2444 -0.6794  0.3763
 7692SOL    HW234713   3.801   4.249  12.797  0.6932  1.3142 -0.0601
 7693SOL     OW34714   4.134   2.076   2.455 -0.0887  0.0182  0.3992
 7693SOL    HW134715   4.109   2.169   2.455  0.2984  0.1242  1.5587
 7693SOL    HW234716   4.206   2.088   2.516  1.8007 -1.5021 -1.5327
 7694SOL     OW34717   0.723   0.734  14.008 -0.1654 -0.5771 -0.0141
 7694SOL    HW134718   0.670   0.777  14.075  0.8758 -0.2234  0.5850
 7694SOL    HW234719   0.665   0.745  13.933 -2.2787 -4.0329  1.1588
 7695SOL     OW34720   4.396   3.837   4.358  0.1838 -0.2166  0.3286
 7695SOL    HW134721   4.308   3.800   4.354 -1.2325  3.1025  1.0052
 7695SOL    HW234722   4.427   3.812   4.271  1.9079 -2.2573  1.5185
 7696SOL     OW34723   3.691   0.994  13.993 -0.1339 -0.4933  0.2157
 7696SOL    HW134724   3.608   1.040  14.004  0.2927  0.3868 -0.2126
 7696SOL    HW234725   3.707   0.962  14.082  3.1046  0.4657 -0.0362
 7697SOL     OW34726   0.954   2.008   6.557  0.0789  0.3945  0.0705
 7697SOL    HW134727   0.881   2.064   6.531  0.9891  1.5497 -0.0093
 7697SOL    HW234728   1.023   2.075   6.554  2.6217 -2.3477 -1.9789
 7698SOL     OW34729   4.540   1.045  16.517  0.1670  0.1764 -0.4413
 7698SOL    HW134730   4.513   1.129  16.554 -0.2288  0.1026 -0.5707
 7698SOL    HW234731   4.635   1.055  16.508 -0.0188  2.3046 -0.0391
 7699SOL     OW34732   0.426   1.993   3.626 -0.1709  0.6591  0.2895
 7699SOL    HW134733   0.354   2.055   3.640  0.9994  1.6238  1.9607
 7699SOL    HW234734   0.498   2.055   3.635  0.8551 -0.3637 -0.7987
 7700SOL     OW34735   1.380   2.833   7.238  0.6322  0.5454  0.3144
 7700SOL    HW134736   1.439   2.898   7.201  1.3792 -0.8319 -0.8669
 7700SOL    HW234737   1.373   2.770   7.167  1.0687 -0.7772  1.4387
 7701SOL     OW34738   3.938   1.249  11.348  0.4948  0.5289 -0.1404
 7701SOL    HW134739   3.993   1.210  11.415 -0.9002  0.3702  0.9105
 7701SOL    HW234740   3.929   1.341  11.370 -1.1128  0.7132 -1.5008
 7702SOL     OW34741   3.384   0.741  13.230  0.0071  0.0187 -0.0074
 7702SOL    HW134742   3.461   0.698  13.193  2.2702  1.5307  2.9897
 7702SOL    HW234743   3.313   0.676  13.237  0.0314  0.3072  2.6655
 7703SOL     OW34744   0.020   3.574   7.118  0.5725  0.6468  0.1789
 7703SOL    HW134745   0.052   3.578   7.208 -2.0077  0.1726  1.1189
 7703SOL    HW234746   4.663   3.555   7.136  0.3056 -0.6082 -2.6140
 7704SOL     OW34747   3.090   0.509   6.138 -0.5357 -0.1018 -0.2472
 7704SOL    HW134748   3.157   0.572   6.165 -0.3587 -0.1541 -0.5572
 7704SOL    HW234749   3.098   0.441   6.204 -2.9119  1.7638  1.9574
 7705SOL     OW34750   0.930   1.850   5.859 -0.1276  0.3302  0.2024
 7705SOL    HW134751   0.970   1.936   5.862  0.8217 -0.0118 -2.8986
 7705SOL    HW234752   0.960   1.822   5.773  0.9686  1.1151  0.3398
 7706SOL     OW34753   0.164   3.908   6.514 -0.2840  0.2120 -0.3565
 7706SOL    HW134754   0.115   3.977   6.470 -0.6661  1.7467  2.4420
 7706SOL    HW234755   0.222   3.970   6.558 -0.1078 -0.6776  0.6706
 7707SOL     OW34756   4.051   3.500   7.173 -0.3983  0.5626 -0.1174
 7707SOL    HW134757   4.139   3.492   7.212 -0.2200  0.1010 -0.6182
 7707SOL    HW234758   4.078   3.514   7.082 -0.6721 -0.6390 -0.3831
 7708SOL     OW34759   1.226   2.177   8.702  0.4680  0.3045  0.0495
 7708SOL    HW134760   1.174   2.099   8.720 -0.0680  0.1398 -2.1382
 7708SOL    HW234761   1.293   2.141   8.643 -0.6826  0.2253 -1.2134
 7709SOL     OW34762   3.683   1.065   3.943 -0.2804  0.0387  0.5946
 7709SOL    HW134763   3.753   1.003   3.964  1.0678  0.5925 -2.2815
 7709SOL    HW234764   3.732   1.125   3.888 -0.3991 -0.3872  0.0159
 7710SOL     OW34765   1.992   0.165   9.195 -0.0359  0.2406 -0.9551
 7710SOL    HW134766   2.009   0.100   9.263  0.8061  1.5192  0.0514
 7710SOL    HW234767   1.908   0.199   9.226 -1.3098 -2.0337 -1.9103
 7711SOL     OW34768   2.276   1.236   9.219  0.4263 -0.1903  0.1289
 7711SOL    HW134769   2.193   1.274   9.246  0.7661  0.1128  0.7636
 7711SOL    HW234770   2.278   1.250   9.124  1.4875 -1.8400 -0.0983
 7712SOL     OW34771   3.709   2.089  13.717  0.1498  0.1790  0.3222
 7712SOL    HW134772   3.699   2.018  13.653  1.5008 -1.0442  1.4766
 7712SOL    HW234773   3.708   2.172  13.669  0.6368 -0.9318 -1.6197
 7713SOL     OW34774   0.962   2.319  11.072 -0.3681 -0.5064  0.3478
 7713SOL    HW134775   0.976   2.245  11.013 -1.2546  0.3571 -0.9540
 7713SOL    HW234776   1.049   2.337  11.106  0.0347 -2.3419  0.2696
 7714SOL     OW34777   1.281   0.367   3.655 -0.7497 -0.1860 -0.4627
 7714SOL    HW134778   1.358   0.416   3.626 -0.5151  0.6167  1.5313
 7714SOL    HW234779   1.214   0.413   3.604 -0.2186  0.2891 -0.7319
 7715SOL     OW34780   1.081   4.635  16.995  0.0052  0.7658 -0.2930
 7715SOL    HW134781   1.101   4.545  16.970  1.7659  1.1939 -0.3565
 7715SOL    HW234782   1.055   4.614  17.085  1.9316 -0.8553 -0.1202
 7716SOL     OW34783   2.238   1.685   1.359  0.3950 -0.4664  0.1943
 7716SOL    HW134784   2.202   1.619   1.300  2.2039 -1.2360 -0.0447
 7716SOL    HW234785   2.275   1.626   1.424 -2.5795 -0.5206  1.8348
 7717SOL     OW34786   4.500   3.308   4.820 -0.3277  0.1757 -0.3257
 7717SOL    HW134787   4.562   3.274   4.885  1.6697  0.2795 -2.2037
 7717SOL    HW234788   4.442   3.233   4.807  0.4505 -0.3653 -0.6526
 7718SOL     OW34789   0.101   3.854   2.485  0.0438 -0.8223 -0.2216
 7718SOL    HW134790   0.050   3.802   2.424 -0.0672 -0.0812 -0.7628
 7718SOL    HW234791   0.179   3.800   2.497  1.5491  1.7436  1.7195
 7719SOL     OW34792   3.018   4.123   8.776 -0.1328  0.5411 -0.0575
 7719SOL    HW134793   3.033   4.190   8.843 -0.1384 -0.4200  0.9037
 7719SOL    HW234794   3.083   4.147   8.710  3.0917  0.4670  3.0962
 7720SOL     OW34795   0.178   4.363   2.687  0.1294  0.3467  0.8453
 7720SOL    HW134796   0.266   4.398   2.675  0.9786 -2.2999 -0.6422
 7720SOL    HW234797   0.187   4.301   2.759 -1.2319  0.1703  0.8554
 7721SOL     OW34798   4.203   1.572   7.239 -0.2405 -0.3183  0.3992
 7721SOL    HW134799   4.144   1.552   7.312  0.8946  1.0800  1.7068
 7721SOL    HW234800   4.236   1.658   7.265 -2.6496  1.2558 -1.7593
 7722SOL     OW34801   4.699   0.697  17.657  0.2604  0.2455 -0.5028
 7722SOL    HW134802   0.004   0.643  17.725 -1.1610 -2.9507 -2.1815
 7722SOL    HW234803   4.612   0.656  17.661  0.2414  0.2119 -1.3363
 7723SOL     OW34804   3.299   0.282   7.930  0.8298  0.0108  0.4062
 7723SOL    HW134805   3.273   0.344   7.862  1.7605 -0.5063 -0.4278
 7723SOL    HW234806   3.347   0.329   7.998 -0.2426  1.0899  0.4107
 7724SOL     OW34807   4.230   1.306   4.253  0.0213 -0.3438  0.2448
 7724SOL    HW134808   4.301   1.241   4.261 -0.1993 -0.5198  0.7608
 7724SOL    HW234809   4.217   1.323   4.346  1.6706 -0.5139  0.5129
 7725SOL     OW34810   1.818   3.778   1.292 -0.3389 -0.8440 -0.1768
 7725SOL    HW134811   1.848   3.695   1.329 -1.6936 -1.6822 -0.9535
 7725SOL    HW234812   1.818   3.843   1.362  0.0891 -1.4134  0.3525
 7726SOL     OW34813   3.784   1.447   5.869  0.0759  0.0181  0.5135
 7726SOL    HW134814   3.813   1.521   5.922 -1.8225  0.4158  0.9858
 7726SOL    HW234815   3.868   1.406   5.849  1.3349  2.4200  0.8810
 7727SOL     OW34816   3.972   1.106   2.387 -0.3166 -0.2564 -0.6536
 7727SOL    HW134817   3.879   1.085   2.395 -0.0228 -0.7029  1.5983
 7727SOL    HW234818   4.016   1.022   2.395 -0.0660 -0.1548 -0.9846
 7728SOL     OW34819   1.715   2.945   7.360  0.5957 -0.0967  0.3923
 7728SOL    HW134820   1.786   2.942   7.295 -1.2818  1.2785 -1.7299
 7728SOL    HW234821   1.635   2.970   7.314  1.6147 -1.4540 -2.1161
 7729SOL     OW34822   1.850   0.556   3.895  0.4311 -0.3267  0.7293
 7729SOL    HW134823   1.844   0.627   3.831  0.2396 -0.6801  0.3587
 7729SOL    HW234824   1.834   0.600   3.978 -0.3154  1.2285 -0.2455
 7730SOL     OW34825   0.392   3.322   3.936  0.0830 -0.1786 -0.1348
 7730SOL    HW134826   0.348   3.400   3.902  1.1194 -0.4937 -2.2171
 7730SOL    HW234827   0.484   3.348   3.932 -0.3216  1.2514 -0.2674
 7731SOL     OW34828   0.310   2.197   7.440 -0.3405 -0.3788  0.0204
 7731SOL    HW134829   0.249   2.128   7.466  0.8843 -1.6526 -0.4923
 7731SOL    HW234830   0.287   2.258   7.511  1.0769 -1.4566  1.4156
 7732SOL     OW34831   4.628   3.945   8.338  0.5580  0.2044  0.1189
 7732SOL    HW134832   4.698   3.983   8.391  0.6228  1.5858 -0.9596
 7732SOL    HW234833   4.674   3.890   8.276 -0.3970 -0.3400 -0.0976
 7733SOL     OW34834   4.515   0.861   8.063 -0.5189  0.5124  0.4452
 7733SOL    HW134835   4.446   0.848   8.128 -0.5627  0.5850  0.4136
 7733SOL    HW234836   4.475   0.936   8.020  1.7731  1.1812 -0.5144
 7734SOL     OW34837   0.818   1.075   5.710 -0.4011  0.8377 -0.2593
 7734SOL    HW134838   0.782   1.112   5.630  1.4982  1.2630 -0.9242
 7734SOL    HW234839   0.745   1.027   5.750  1.5436 -1.3499  0.7072
 7735SOL     OW34840   0.747   1.588  12.756 -0.1960 -0.1198 -0.2266
 7735SOL    HW134841   0.679   1.544  12.807 -0.0388 -1.1725 -0.9289
 7735SOL    HW234842   0.818   1.598  12.820 -0.8607  0.5094  0.4127
 7736SOL     OW34843   1.671   2.155   6.172 -0.8847  0.2316 -0.1845
 7736SOL    HW134844   1.732   2.086   6.145 -1.3623 -0.5702  0.7466
 7736SOL    HW234845   1.593   2.128   6.122 -0.0197 -0.6909 -1.0281
 7737SOL     OW34846   2.164   2.000   5.934 -0.3411 -0.0146 -0.2965
 7737SOL    HW134847   2.144   1.906   5.940  0.9620 -0.1369  1.9259
 7737SOL    HW234848   2.233   2.006   5.999 -0.6755  1.4930 -0.0926
 7738SOL     OW34849   0.277   1.903   3.358  0.1995  0.5681  0.4600
 7738SOL    HW134850   0.203   1.878   3.414 -1.0205 -0.0165 -1.3911
 7738SOL    HW234851   0.318   1.816   3.357  0.1567  0.5650 -2.0809
 7739SOL     OW34852   2.142   3.729   1.845 -0.4039  0.1968 -0.0651
 7739SOL    HW134853   2.106   3.817   1.845  0.8898  0.7181  0.2325
 7739SOL    HW234854   2.211   3.745   1.782 -1.0483 -0.7145 -1.0204
 7740SOL     OW34855   1.409   3.885  17.209 -0.1052 -0.0137  0.1922
 7740SOL    HW134856   1.469   3.879  17.135  1.1916  0.4292  1.2158
 7740SOL    HW234857   1.369   3.798  17.204  0.4457 -0.4320  2.8162
 7741SOL     OW34858   4.084   1.252  17.379 -0.4095 -0.4285  0.2837
 7741SOL    HW134859   4.053   1.327  17.429  0.8644  0.1668  0.1978
 7741SOL    HW234860   4.028   1.254  17.301 -1.0377 -0.5605  0.7329
 7742SOL     OW34861   3.312   0.863   8.506 -0.2784  0.3798 -0.2548
 7742SOL    HW134862   3.287   0.879   8.415 -0.4661 -0.2969 -0.3249
 7742SOL    HW234863   3.258   0.930   8.548  1.7288  1.7782  0.0873
 7743SOL     OW34864   3.702   1.797  12.220  0.3256  0.1278  0.2584
 7743SOL    HW134865   3.744   1.717  12.253 -1.0887 -0.7138  0.0234
 7743SOL    HW234866   3.778   1.834  12.176  0.2261  0.2135  0.1578
 7744SOL     OW34867   0.938   0.576  17.035 -0.1859  0.0828 -0.5005
 7744SOL    HW134868   1.009   0.524  17.073 -1.5617 -0.6419  1.0433
 7744SOL    HW234869   0.992   0.642  16.991 -0.7397  1.1750  0.4747
 7745SOL     OW34870   3.396   2.991   5.197 -0.3447 -0.5263  0.0318
 7745SOL    HW134871   3.368   3.010   5.107  0.0943 -0.7403 -0.1513
 7745SOL    HW234872   3.491   2.998   5.184 -0.4540  0.5574 -0.1463
 7746SOL     OW34873   3.761   1.857   9.391  0.2082 -0.1271  0.1935
 7746SOL    HW134874   3.831   1.823   9.447  0.3081  0.2322  0.2888
 7746SOL    HW234875   3.694   1.892   9.450 -0.6838 -2.1313  0.3573
 7747SOL     OW34876   2.483   3.589  15.944 -0.3172  0.1247 -0.4744
 7747SOL    HW134877   2.578   3.600  15.940 -0.0674 -1.4280  1.0671
 7747SOL    HW234878   2.466   3.630  16.029  0.0779 -1.1048  0.1963
 7748SOL     OW34879   0.610   3.355  12.064 -0.0061 -0.7017 -0.2260
 7748SOL    HW134880   0.684   3.299  12.087 -0.0661 -1.4015 -1.7058
 7748SOL    HW234881   0.622   3.432  12.119 -0.7514 -0.9896  0.3473
 7749SOL     OW34882   0.977   1.478   2.477 -0.0348  0.0162 -0.3583
 7749SOL    HW134883   1.049   1.532   2.510 -1.9075  2.3433 -0.0865
 7749SOL    HW234884   0.905   1.540   2.485  1.2248  1.1814  1.9721
 7750SOL     OW34885   1.751   3.561   6.470  0.4522  0.5790 -0.1553
 7750SOL    HW134886   1.776   3.546   6.561  0.3645 -0.9377 -0.3703
 7750SOL    HW234887   1.729   3.654   6.477  0.5558  0.4582  1.7840
 7751SOL     OW34888   1.819   0.680  13.262 -0.6723  0.2481  0.0655
 7751SOL    HW134889   1.782   0.592  13.272 -0.8068  0.1843 -1.0212
 7751SOL    HW234890   1.904   0.663  13.222  1.0019  0.1136  3.6802
 7752SOL     OW34891   1.011   2.498   5.216  0.5486  0.0936 -0.0605
 7752SOL    HW134892   1.059   2.465   5.140 -0.4320 -0.0485 -0.6191
 7752SOL    HW234893   1.085   2.525   5.270  2.2656 -2.4956 -1.1143
 7753SOL     OW34894   2.438   1.674   1.758 -0.0702  0.0259  0.1857
 7753SOL    HW134895   2.445   1.584   1.725  0.3152 -1.0032  3.0369
 7753SOL    HW234896   2.374   1.708   1.696  3.9619 -2.6468 -5.4924
 7754SOL     OW34897   0.250   2.159   2.685  0.5808 -0.1226 -0.3667
 7754SOL    HW134898   0.192   2.096   2.642  3.2117 -1.9363 -1.2607
 7754SOL    HW234899   0.190   2.217   2.731  1.2162  0.8557 -0.7746
 7755SOL     OW34900   4.094   4.375   8.994 -0.0983  0.0917 -0.5864
 7755SOL    HW134901   4.102   4.444   9.060  0.5049  0.3298 -0.9096
 7755SOL    HW234902   4.112   4.297   9.046  1.4608  0.5229 -0.5013
 7756SOL     OW34903   3.727   2.599   3.321  0.2387  0.4090 -0.3368
 7756SOL    HW134904   3.771   2.517   3.297 -1.4892 -0.8344  0.7476
 7756SOL    HW234905   3.668   2.604   3.247 -3.9880 -0.7129  2.9712
 7757SOL     OW34906   2.775   3.613   4.806  0.0120 -0.6059  0.1824
 7757SOL    HW134907   2.744   3.647   4.723  2.0510 -0.6364 -0.6072
 7757SOL    HW234908   2.704   3.635   4.866 -2.0833 -0.6817 -2.2952
 7758SOL     OW34909   3.622   2.304   8.140 -0.1160 -0.3295  0.1785
 7758SOL    HW134910   3.567   2.344   8.208 -0.4121 -0.7262  0.1757
 7758SOL    HW234911   3.640   2.220   8.181  0.2354  0.1661  1.0368
 7759SOL     OW34912   2.489   3.208   5.783 -0.1174  0.2609  0.4603
 7759SOL    HW134913   2.460   3.137   5.725 -2.0398  1.1124  0.3683
 7759SOL    HW234914   2.558   3.243   5.727  0.1821  0.0829  0.7217
 7760SOL     OW34915   4.527   4.124   8.535  0.2372  0.1385  0.3204
 7760SOL    HW134916   4.456   4.062   8.514 -1.5720  1.0926  3.5234
 7760SOL    HW234917   4.538   4.164   8.449 -2.2830 -1.1810 -0.6096
 7761SOL     OW34918   4.637   1.733   6.474  0.5890  0.0451 -0.0812
 7761SOL    HW134919   4.590   1.803   6.519  2.7288  1.6556 -0.3740
 7761SOL    HW234920   4.594   1.718   6.390 -1.0341 -0.2590  0.8194
 7762SOL     OW34921   4.723   2.873   1.087  0.1880  0.1766  0.6397
 7762SOL    HW134922   4.705   2.943   1.025  2.8048  0.4718  0.2044
 7762SOL    HW234923   0.013   2.812   1.018 -2.3789  0.1423 -0.2650
 7763SOL     OW34924   2.920   2.876   8.111 -0.2718  0.5420  0.1069
 7763SOL    HW134925   2.829   2.854   8.090  0.4214 -0.8659 -1.4626
 7763SOL    HW234926   2.965   2.825   8.044 -0.4713  2.2813 -1.3745
 7764SOL     OW34927   3.697   2.034  11.831 -0.1145 -0.2376  0.5423
 7764SOL    HW134928   3.621   2.070  11.786 -0.1541 -1.0553 -0.0200
 7764SOL    HW234929   3.757   2.108  11.822 -0.0210 -0.2374  1.1252
 7765SOL     OW34930   2.803   2.965   6.830  0.6471 -0.4740 -0.1948
 7765SOL    HW134931   2.771   3.028   6.895 -1.0595  0.0274 -1.5469
 7765SOL    HW234932   2.883   3.013   6.806  1.3390 -1.4631  0.1150
 7766SOL     OW34933   0.899   4.530   0.238  0.6061 -0.6049 -0.5435
 7766SOL    HW134934   0.954   4.609   0.241 -0.4141  0.0859 -0.0754
 7766SOL    HW234935   0.900   4.524   0.142 -1.4723  1.3152 -0.6728
 7767SOL     OW34936   4.294   2.632   5.632 -0.0327 -0.4651 -0.0505
 7767SOL    HW134937   4.223   2.688   5.665 -2.2785 -3.2794 -0.0786
 7767SOL    HW234938   4.277   2.636   5.537  2.9545 -0.3755 -0.5622
 7768SOL     OW34939   0.025   1.851   5.564  0.1094  0.4216 -0.0735
 7768SOL    HW134940   4.706   1.927   5.542 -2.4986 -1.1152  1.0705
 7768SOL    HW234941   0.114   1.887   5.564  1.0627 -1.9752  2.4476
 7769SOL     OW34942   2.785   1.593   8.476  0.3179 -0.0095  0.5270
 7769SOL    HW134943   2.766   1.662   8.412 -1.0684  0.1869  1.1396
 7769SOL    HW234944   2.705   1.542   8.482  0.9468 -1.0464  0.0087
 7770SOL     OW34945   4.399   3.314   4.102 -0.3786 -0.1790 -0.2277
 7770SOL    HW134946   4.367   3.298   4.190  0.0297 -0.5182 -0.1379
 7770SOL    HW234947   4.481   3.265   4.103 -2.0270 -2.8911  1.6332
 7771SOL     OW34948   3.535   1.899  10.567  0.0362  0.3056  0.0937
 7771SOL    HW134949   3.442   1.921  10.570  0.4646  2.1974 -0.3290
 7771SOL    HW234950   3.524   1.815  10.523 -0.1459  0.5523 -0.3346
 7772SOL     OW34951   3.637   4.380   0.725  0.0910 -0.4527  0.3867
 7772SOL    HW134952   3.679   4.411   0.805 -0.3786  0.7415  0.1839
 7772SOL    HW234953   3.551   4.351   0.754 -0.4234  0.5357 -0.1345
 7773SOL     OW34954   2.780   1.804   3.897 -0.3951  0.1709  0.2764
 7773SOL    HW134955   2.769   1.801   3.992 -1.3194 -1.4290  0.1011
 7773SOL    HW234956   2.833   1.885   3.892 -0.7336  0.3953  0.3352
 7774SOL     OW34957   2.740   2.748   7.545 -0.2592  0.1703  0.0752
 7774SOL    HW134958   2.818   2.739   7.490  1.1023  2.7451  1.5809
 7774SOL    HW234959   2.682   2.687   7.500 -1.2743  1.5111 -0.4473
 7775SOL     OW34960   3.893   3.096   7.964  0.3540 -0.3749 -0.8533
 7775SOL    HW134961   3.879   3.184   8.000  0.7754 -0.8260  0.4147
 7775SOL    HW234962   3.864   3.123   7.877  0.1784  0.9617 -0.3890
 7776SOL     OW34963   1.475   2.226   5.079  0.1897 -0.0713  0.0122
 7776SOL    HW134964   1.502   2.152   5.134  0.5869 -0.3908 -0.6056
 7776SOL    HW234965   1.517   2.195   4.998  1.0157  0.1738  0.3409
 7777SOL     OW34966   2.293   3.869   6.390 -0.2145 -0.4241  0.1875
 7777SOL    HW134967   2.368   3.870   6.330  0.3715  1.5485  0.9278
 7777SOL    HW234968   2.333   3.833   6.469 -0.3720  0.3430  0.6202
 7778SOL     OW34969   4.126   1.519   2.488 -0.2026  0.0535  0.4740
 7778SOL    HW134970   4.097   1.511   2.579  0.5363 -0.4869  0.6554
 7778SOL    HW234971   4.048   1.567   2.460  0.7041 -0.0353 -2.1351
 7779SOL     OW34972   1.771   3.279   3.473 -0.5274 -0.1808  0.2205
 7779SOL    HW134973   1.738   3.333   3.401 -0.5055 -0.9917 -0.3888
 7779SOL    HW234974   1.795   3.205   3.418 -1.3197 -0.2629 -0.0160
 7780SOL     OW34975   1.536   2.242  16.122 -0.1760  0.6723 -0.3396
 7780SOL    HW134976   1.513   2.157  16.085 -0.2474  0.8731 -0.7489
 7780SOL    HW234977   1.631   2.239  16.119 -0.1890 -1.2946  0.8272
 7781SOL     OW34978   3.328   0.911   3.627  0.8210 -0.1831  0.1533
 7781SOL    HW134979   3.270   0.835   3.637 -1.2290  1.4815  1.1029
 7781SOL    HW234980   3.370   0.904   3.713 -0.6236  0.2566  0.9071
 7782SOL     OW34981   3.185   4.567   4.866 -0.0864 -0.0651 -0.2236
 7782SOL    HW134982   3.267   4.528   4.896 -0.2757 -0.6569 -0.4826
 7782SOL    HW234983   3.123   4.494   4.859  1.2849 -1.1506 -0.9733
 7783SOL     OW34984   2.760   1.043  13.009  0.0378  0.0650  0.2211
 7783SOL    HW134985   2.812   0.963  13.000 -0.6968 -0.0978 -2.3791
 7783SOL    HW234986   2.810   1.087  13.078 -0.6109  0.6415  0.3264
 7784SOL     OW34987   0.213   2.715  15.203  0.2620 -0.0677 -0.4579
 7784SOL    HW134988   0.278   2.691  15.137 -1.0227 -3.1702 -0.6022
 7784SOL    HW234989   0.209   2.807  15.180  1.2386  0.2386  0.5867
 7785SOL     OW34990   3.410   4.733   1.684  0.6173 -0.7279 -0.2746
 7785SOL    HW134991   3.491   4.684   1.673  1.4058  0.8610 -1.5211
 7785SOL    HW234992   3.382   4.706   1.772  0.5013  0.5193  0.0716
 7786SOL     OW34993   0.814   4.125   3.506  0.7144  0.0387 -0.1118
 7786SOL    HW134994   0.836   4.112   3.598 -2.1926  1.2358  0.7458
 7786SOL    HW234995   0.863   4.059   3.457  2.3161  0.3058  1.1302
 7787SOL     OW34996   4.588   3.167   5.217 -0.1618 -0.1027  0.1592
 7787SOL    HW134997   4.594   3.231   5.146  1.4445 -1.0591 -0.5742
 7787SOL    HW234998   4.520   3.202   5.275 -0.4878  0.3489 -0.5023
 7788SOL     OW34999   1.817   1.467   2.997 -0.0760 -0.2159 -0.4494
 7788SOL    HW135000   1.856   1.387   3.032 -2.3227 -1.3899 -0.6006
 7788SOL    HW235001   1.825   1.449   2.903  1.8028 -0.8203 -0.1746
 7789SOL     OW35002   3.923   2.138   4.089 -0.1380  0.3231 -0.0248
 7789SOL    HW135003   3.831   2.128   4.114 -0.4451 -0.2666 -1.3776
 7789SOL    HW235004   3.926   2.087   4.008 -1.7527  0.8218 -0.3935
 7790SOL     OW35005   4.347   0.209   7.223  0.0741 -0.4242  0.3405
 7790SOL    HW135006   4.423   0.264   7.209 -0.2903 -0.3410 -1.2895
 7790SOL    HW235007   4.301   0.248   7.149 -0.6121  0.4747  1.2249
 7791SOL     OW35008   2.740   2.227   5.752 -0.1338  0.1444 -0.0096
 7791SOL    HW135009   2.663   2.185   5.712  0.2053  1.0254 -1.5687
 7791SOL    HW235010   2.712   2.318   5.755 -2.9763 -0.7336  0.5313
 7792SOL     OW35011   0.121   0.778   5.002 -0.6707 -0.0385 -0.3107
 7792SOL    HW135012   0.127   0.821   4.917 -0.1217  0.3010 -0.1001
 7792SOL    HW235013   0.153   0.854   5.050 -1.3898  0.7542 -1.0965
 7793SOL     OW35014   3.694   0.995   8.201 -0.0962 -0.2383  0.3975
 7793SOL    HW135015   3.660   1.013   8.289  1.7586 -0.1185  1.0792
 7793SOL    HW235016   3.635   1.046   8.144  0.4446  0.2646  0.2937
 7794SOL     OW35017   3.504   2.073  13.896 -0.3196 -0.4887  0.3342
 7794SOL    HW135018   3.505   2.166  13.918  1.6681 -0.9871  2.3026
 7794SOL    HW235019   3.591   2.061  13.858 -0.8372 -0.6367 -0.7898
 7795SOL     OW35020   1.082   3.621   5.096  0.6480  0.0369  0.2408
 7795SOL    HW135021   1.125   3.665   5.023 -1.1631  0.8369 -0.3246
 7795SOL    HW235022   1.046   3.690   5.152 -1.0112 -2.2933  2.0458
 7796SOL     OW35023   3.689   1.561  16.710 -0.2899 -0.5353  0.8036
 7796SOL    HW135024   3.680   1.653  16.685 -0.6110 -0.1535  2.3674
 7796SOL    HW235025   3.599   1.546  16.740 -0.4329 -1.1633  0.0459
 7797SOL     OW35026   0.373   0.992  16.108 -0.8151  0.1365  0.3372
 7797SOL    HW135027   0.339   0.905  16.087 -1.2084  0.3095  0.2534
 7797SOL    HW235028   0.299   1.028  16.156 -0.2076  1.7908  0.0227
 7798SOL     OW35029   4.552   2.000  14.297 -0.0816 -0.0684 -0.1232
 7798SOL    HW135030   4.554   2.061  14.223 -0.4598  2.1633  1.7158
 7798SOL    HW235031   4.599   2.049  14.364 -1.4897 -0.0268  0.8167
 7799SOL     OW35032   4.417   1.797   4.803  0.1459  0.1166 -0.4819
 7799SOL    HW135033   4.492   1.850   4.776  0.6988  0.2447  1.2717
 7799SOL    HW235034   4.426   1.818   4.896  0.5960 -2.1009 -0.0221
 7800SOL     OW35035   3.791   0.877   2.084  0.0854 -0.2250 -1.0718
 7800SOL    HW135036   3.887   0.868   2.082  0.0477 -0.4077 -1.9123
 7800SOL    HW235037   3.790   0.925   2.002 -0.5368 -0.7390 -1.3593
 7801SOL     OW35038   4.437   3.631  12.356  0.2870 -0.5129  1.2790
 7801SOL    HW135039   4.371   3.672  12.412 -1.2436  0.0326 -0.9092
 7801SOL    HW235040   4.510   3.691  12.375 -1.3865  1.2768  2.0310
 7802SOL     OW35041   4.542   4.522   8.821  0.2807  0.0256  0.1541
 7802SOL    HW135042   4.523   4.543   8.729 -0.2884 -2.6298 -0.3198
 7802SOL    HW235043   4.585   4.437   8.813  0.1196 -0.0549  0.1325
 7803SOL     OW35044   3.574   4.467   2.137  0.4755  0.4078  0.8602
 7803SOL    HW135045   3.483   4.481   2.165 -0.0090 -0.4468 -0.2715
 7803SOL    HW235046   3.565   4.399   2.071 -1.4429 -0.4243  1.9833
 7804SOL     OW35047   3.644   1.606  13.602 -0.2567  1.1169  0.3247
 7804SOL    HW135048   3.608   1.517  13.601 -1.5811  1.6481  0.6162
 7804SOL    HW235049   3.566   1.647  13.640 -0.1105 -0.2331  2.1099
 7805SOL     OW35050   4.690   1.767   4.054  0.6414 -0.0928  0.3053
 7805SOL    HW135051   0.046   1.770   4.024 -0.2796  0.2322 -2.4129
 7805SOL    HW235052   4.696   1.722   4.138  2.7112 -0.6033 -0.1233
 7806SOL     OW35053   0.068   3.614  17.409  0.4612 -0.2311 -0.2082
 7806SOL    HW135054   0.044   3.599  17.318  0.8460  0.5681 -0.4383
 7806SOL    HW235055   0.163   3.608  17.399  0.4574  1.4811 -1.3307
 7807SOL     OW35056   0.972   0.391   5.545  0.5067 -0.2054  0.3051
 7807SOL    HW135057   1.046   0.332   5.554  1.6608  1.4401  1.5333
 7807SOL    HW235058   0.971   0.440   5.628  3.0570  2.5280 -1.2801
 7808SOL     OW35059   1.431   3.771   7.503 -0.6978  0.1955  0.5372
 7808SOL    HW135060   1.395   3.769   7.591 -1.7582  0.5725  0.1018
 7808SOL    HW235061   1.524   3.791   7.519 -0.7852  0.9811  0.0595
 7809SOL     OW35062   2.599   0.125   8.653  0.5156 -0.6040  0.1276
 7809SOL    HW135063   2.647   0.129   8.570 -2.2244  0.2167 -1.4045
 7809SOL    HW235064   2.510   0.133   8.619  0.0358 -0.8452  1.3397
 7810SOL     OW35065   4.669   2.528   4.056 -0.6798 -0.1098  0.1788
 7810SOL    HW135066   4.672   2.624   4.049  0.4392 -0.1094  0.6303
 7810SOL    HW235067   0.028   2.508   4.058 -0.6385 -0.2370 -2.9578
 7811SOL     OW35068   2.109   2.909   0.737 -0.2024  0.2352 -0.2179
 7811SOL    HW135069   2.029   2.877   0.779 -0.5148  0.8475 -0.3513
 7811SOL    HW235070   2.118   2.987   0.792  2.0163 -0.1528 -0.0053
 7812SOL     OW35071   3.930   2.506   1.560  0.6453  0.0519  1.0007
 7812SOL    HW135072   3.954   2.420   1.594 -0.2637  0.0880  1.7175
 7812SOL    HW235073   3.915   2.478   1.470 -2.8661  0.5222  1.4578
 7813SOL     OW35074   0.457   2.690   6.133  0.0614 -0.1482  0.4398
 7813SOL    HW135075   0.400   2.623   6.094 -0.0152 -1.0541  2.1285
 7813SOL    HW235076   0.405   2.771   6.135 -1.2768 -0.9929 -0.3704
 7814SOL     OW35077   4.068   1.547  11.177  0.7930  0.2164 -0.4439
 7814SOL    HW135078   4.061   1.562  11.083 -2.3874  2.3755  0.1815
 7814SOL    HW235079   4.071   1.638  11.207 -2.3268  0.0226  0.4450
 7815SOL     OW35080   4.108   1.316   2.248  0.0897  0.0335  0.2213
 7815SOL    HW135081   4.118   1.377   2.322  0.3869  0.3585 -0.0858
 7815SOL    HW235082   4.113   1.233   2.295  0.8394 -0.3451 -0.5349
 7816SOL     OW35083   4.213   2.911   1.950  0.3079  0.2823 -0.2961
 7816SOL    HW135084   4.280   2.844   1.945 -0.7531 -0.9349  1.7816
 7816SOL    HW235085   4.206   2.924   1.856  1.8055  1.4537 -0.2402
 7817SOL     OW35086   1.630   4.698   6.145  0.2477 -0.4110 -0.3723
 7817SOL    HW135087   1.695   4.643   6.100  1.2369  1.9732 -1.8316
 7817SOL    HW235088   1.680   0.009   6.212 -0.0202 -1.8448  0.8136
 7818SOL     OW35089   3.456   3.500   8.257  0.2546 -0.0762 -0.4389
 7818SOL    HW135090   3.500   3.483   8.340 -3.0878 -1.7643  0.9692
 7818SOL    HW235091   3.374   3.545   8.279  2.3501  2.6792  1.8409
 7819SOL     OW35092   0.230   2.651  13.326  0.3569  0.0676  0.7353
 7819SOL    HW135093   0.263   2.668  13.414  0.4813 -0.7253  0.8441
 7819SOL    HW235094   0.304   2.629  13.269  0.3350 -1.4533  1.2942
 7820SOL     OW35095   0.430   1.716   6.638 -0.0934 -0.2673 -0.5910
 7820SOL    HW135096   0.337   1.720   6.619 -0.6102  2.1041  2.4123
 7820SOL    HW235097   0.446   1.622   6.643  0.9733 -0.1395 -1.3717
 7821SOL     OW35098   0.428   1.122   8.352 -0.2699  0.1331  0.5247
 7821SOL    HW135099   0.364   1.084   8.291 -0.3942 -0.1045  0.8032
 7821SOL    HW235100   0.359   1.152   8.411  0.4408  2.5191  0.1047
 7822SOL     OW35101   2.343   3.630  16.594 -0.4894  0.2038  0.2224
 7822SOL    HW135102   2.394   3.568  16.645 -2.0213 -0.1825  1.2833
 7822SOL    HW235103   2.320   3.700  16.655 -1.4673 -0.6079  0.7891
 7823SOL     OW35104   0.714   2.343   7.203  0.2218 -0.0641  0.1023
 7823SOL    HW135105   0.620   2.349   7.218  0.2546  0.8181 -0.0218
 7823SOL    HW235106   0.718   2.366   7.111  1.5587  0.3606  0.2575
 7824SOL     OW35107   2.627   0.557  15.172 -0.6912 -0.1177  0.5224
 7824SOL    HW135108   2.617   0.558  15.077 -0.4067 -1.2950  0.4789
 7824SOL    HW235109   2.550   0.608  15.197 -0.2448  0.2411  1.1684
 7825SOL     OW35110   4.491   3.612   2.857  0.4312 -0.4950 -0.1271
 7825SOL    HW135111   4.409   3.641   2.897 -1.5081 -2.2956 -2.8157
 7825SOL    HW235112   4.482   3.516   2.857  0.8310 -0.5284  0.6580
 7826SOL     OW35113   1.480   0.091   5.031 -0.4062  0.1333  0.8271
 7826SOL    HW135114   1.394   0.084   5.071 -1.3042 -1.4326 -1.4053
 7826SOL    HW235115   1.473   0.052   4.944  0.5493  0.2529  0.6897
 7827SOL     OW35116   0.915   3.010   4.907 -0.0282  0.8944 -0.4569
 7827SOL    HW135117   0.954   2.926   4.929 -2.4605 -0.9340 -3.1335
 7827SOL    HW235118   0.944   3.031   4.818  1.2677  3.2246  0.4856
 7828SOL     OW35119   3.155   4.490   4.560 -0.2191 -0.5772  0.4169
 7828SOL    HW135120   3.095   4.427   4.520 -1.5246  1.3285 -0.6269
 7828SOL    HW235121   3.140   4.469   4.652 -0.0252  0.7207  0.7496
 7829SOL     OW35122   0.656   3.518   3.707 -0.3569 -0.1031  0.3813
 7829SOL    HW135123   0.568   3.554   3.719 -0.1073  0.9001 -0.7952
 7829SOL    HW235124   0.680   3.469   3.785  2.1376  1.9488  0.8789
 7830SOL     OW35125   3.826   1.795   8.714  0.1514  0.4200 -0.2377
 7830SOL    HW135126   3.824   1.888   8.734 -1.4922  0.3692 -0.1700
 7830SOL    HW235127   3.921   1.786   8.702  0.0975  0.5369 -0.7585
 7831SOL     OW35128   3.526   0.805   6.031  0.7518  0.2995 -0.0933
 7831SOL    HW135129   3.491   0.894   6.022 -0.7661 -0.0489  2.1785
 7831SOL    HW235130   3.590   0.813   6.102 -0.4523 -0.7615  1.1243
 7832SOL     OW35131   3.308   2.262   8.830 -0.4288 -0.0022  0.7546
 7832SOL    HW135132   3.389   2.256   8.880 -0.2526 -0.1131  0.4602
 7832SOL    HW235133   3.254   2.207   8.887  1.2642 -0.2408  2.1128
 7833SOL     OW35134   0.790   2.453  15.967 -0.3046 -0.6513  0.1971
 7833SOL    HW135135   0.756   2.526  16.018  2.6676  0.9137 -0.0517
 7833SOL    HW235136   0.784   2.493  15.881  3.3494  1.2578  0.8309
 7834SOL     OW35137   4.655   1.638   0.342  0.4178  0.2146  0.5476
 7834SOL    HW135138   4.680   1.643   0.250 -0.9946 -1.0237  0.0978
 7834SOL    HW235139   4.654   1.542   0.350  0.6423  0.2159  0.5998
 7835SOL     OW35140   3.320   1.551   9.243 -0.7332  0.0207  0.2368
 7835SOL    HW135141   3.332   1.521   9.333 -0.4215 -0.0933  0.1560
 7835SOL    HW235142   3.364   1.635   9.232 -0.2406 -0.3429 -0.5637
 7836SOL     OW35143   0.965   0.847  13.631 -0.5794 -0.0375 -0.2710
 7836SOL    HW135144   0.933   0.770  13.679  0.8437 -1.0761 -1.0156
 7836SOL    HW235145   0.912   0.848  13.551 -0.6077 -0.5243 -0.2541
 7837SOL     OW35146   0.406   2.344   6.238  0.3797 -0.1260 -0.1780
 7837SOL    HW135147   0.468   2.319   6.169  0.9454  1.6587 -0.3165
 7837SOL    HW235148   0.464   2.387   6.301  1.2788  1.2271 -1.9207
 7838SOL     OW35149   0.802   4.238   1.824  0.0328 -0.2925  0.0442
 7838SOL    HW135150   0.749   4.169   1.863 -0.1563  0.0079  0.3169
 7838SOL    HW235151   0.774   4.312   1.878  2.8102  0.4009  0.5443
 7839SOL     OW35152   2.814   0.325   6.773 -0.5510  0.0391  0.4966
 7839SOL    HW135153   2.857   0.282   6.847  1.0902  1.8930  0.6480
 7839SOL    HW235154   2.803   0.253   6.711 -0.2254 -1.2466  1.9430
 7840SOL     OW35155   2.204   2.577   3.640  0.2994 -0.4962 -0.2341
 7840SOL    HW135156   2.138   2.631   3.683 -0.6425 -2.0745  0.3255
 7840SOL    HW235157   2.245   2.642   3.583 -0.6234  0.9781  0.8154
 7841SOL     OW35158   1.583   2.824   4.633 -0.1262 -0.0474  0.4422
 7841SOL    HW135159   1.530   2.897   4.601  0.6772  0.1027 -0.5314
 7841SOL    HW235160   1.557   2.756   4.570  0.5775  0.0965  0.0030
 7842SOL     OW35161   1.044   4.315   3.304 -0.4305  0.3144 -0.2908
 7842SOL    HW135162   1.057   4.235   3.355 -0.4050  0.3952 -0.1682
 7842SOL    HW235163   1.133   4.334   3.275 -1.1545  3.0976 -0.7074
 7843SOL     OW35164   3.491   0.240  15.028 -0.2895 -0.0451 -0.2996
 7843SOL    HW135165   3.438   0.161  15.019  0.2032 -0.7370  2.7915
 7843SOL    HW235166   3.580   0.206  15.043  1.0462  2.9883 -1.2622
 7844SOL     OW35167   2.038   0.516   4.706 -0.4267  0.0250  0.8143
 7844SOL    HW135168   1.983   0.438   4.711  0.7758 -0.7567  1.8311
 7844SOL    HW235169   2.023   0.534   4.613  0.4357  2.2278  1.0978
 7845SOL     OW35170   1.176   4.338  12.493 -0.1005 -0.0623 -0.6236
 7845SOL    HW135171   1.238   4.386  12.438  0.8461 -2.1910 -1.4119
 7845SOL    HW235172   1.223   4.327  12.576 -2.3095  0.5519  0.7306
 7846SOL     OW35173   1.071   0.038   3.913 -0.2008  0.1138  0.5512
 7846SOL    HW135174   0.994   0.058   3.965 -0.5658  1.0204 -0.3243
 7846SOL    HW235175   1.104   0.125   3.889 -0.1121 -0.0731 -0.0124
 7847SOL     OW35176   3.496   0.750  13.850 -0.0338 -0.1825  0.4614
 7847SOL    HW135177   3.588   0.739  13.872  0.7713  0.2600 -2.7167
 7847SOL    HW235178   3.487   0.845  13.850 -0.7526 -0.2476 -0.1666
 7848SOL     OW35179   3.298   2.386  11.985  0.3735  0.1913 -0.6780
 7848SOL    HW135180   3.273   2.417  11.898 -1.5771 -1.0351 -0.5644
 7848SOL    HW235181   3.223   2.335  12.016  1.0044 -0.3600 -0.0800
 7849SOL     OW35182   2.848   1.309  11.136  0.2807  0.1264  0.0521
 7849SOL    HW135183   2.813   1.237  11.082  1.0581 -1.7141  2.0169
 7849SOL    HW235184   2.882   1.263  11.213  0.6201 -1.7041 -1.1823
 7850SOL     OW35185   1.329   1.088   4.536 -0.1720  0.0337  0.5538
 7850SOL    HW135186   1.365   1.033   4.467 -0.5933  3.0258 -2.0314
 7850SOL    HW235187   1.287   1.157   4.486  1.9503  0.8138 -0.1764
 7851SOL     OW35188   4.018   4.127   4.374  0.1339  0.5751 -0.3040
 7851SOL    HW135189   3.991   4.218   4.364  1.5845  0.8772 -1.5673
 7851SOL    HW235190   4.112   4.143   4.377  0.4042 -0.8363 -0.9325
 7852SOL     OW35191   3.376   1.906   0.760  0.2093 -0.5241  0.1521
 7852SOL    HW135192   3.406   1.821   0.790  1.3142 -0.9413 -2.0642
 7852SOL    HW235193   3.410   1.917   0.671 -0.9816  1.2876 -0.0840
 7853SOL     OW35194   2.000   1.613  12.555 -0.4714  0.0489 -0.5126
 7853SOL    HW135195   1.979   1.585  12.466  0.6624  0.0111 -0.7652
 7853SOL    HW235196   2.085   1.575  12.578 -0.5472 -0.2244 -0.6929
 7854SOL     OW35197   2.845   1.077   7.059 -0.3571 -0.1309 -0.2283
 7854SOL    HW135198   2.805   1.040   7.137  1.6186 -1.0212  0.3536
 7854SOL    HW235199   2.787   1.041   6.991 -1.3753  2.9583 -0.9846
 7855SOL     OW35200   1.912   1.295   6.837  0.2299 -0.1634  0.1676
 7855SOL    HW135201   1.862   1.374   6.816 -0.0057 -0.0900  1.0009
 7855SOL    HW235202   1.854   1.222   6.812 -0.3419  0.0117  0.9844
 7856SOL     OW35203   0.825   2.311   5.691  0.1048  0.2656  0.3253
 7856SOL    HW135204   0.898   2.299   5.630 -0.8996 -0.6004 -0.6893
 7856SOL    HW235205   0.752   2.290   5.633 -0.4104  1.5518  0.5195
 7857SOL     OW35206   2.489   3.921   5.243  0.8759 -0.3319 -0.0207
 7857SOL    HW135207   2.473   3.923   5.149  1.9566  0.6797 -0.1975
 7857SOL    HW235208   2.506   4.015   5.250  0.7195 -0.4520  1.9389
 7858SOL     OW35209   0.099   1.206   2.548 -0.0393 -0.0350  0.0223
 7858SOL    HW135210   0.174   1.202   2.488 -0.8931 -0.1491 -1.0337
 7858SOL    HW235211   0.045   1.138   2.509 -0.2856 -0.4191  1.0595
 7859SOL     OW35212   1.929   4.296  12.402  0.0624  0.7641 -0.7647
 7859SOL    HW135213   1.914   4.342  12.485  0.1323  0.8542 -0.8015
 7859SOL    HW235214   1.946   4.206  12.432 -3.5209  0.0838 -0.7918
 7860SOL     OW35215   3.563   4.179  15.059  0.7939 -0.2761 -0.2883
 7860SOL    HW135216   3.627   4.177  14.988  0.7231  3.7554 -0.4923
 7860SOL    HW235217   3.488   4.212  15.009  0.0828 -2.0837 -0.4246
 7861SOL     OW35218   0.063   0.971  14.176 -0.2831 -0.7113 -0.1694
 7861SOL    HW135219   0.029   0.909  14.242  0.4967 -1.3451 -0.3696
 7861SOL    HW235220   4.723   0.983  14.117 -1.8270 -2.1440  1.4705
 7862SOL     OW35221   3.236   2.112  16.624 -0.3756  0.3748 -0.3174
 7862SOL    HW135222   3.203   2.197  16.595  0.6545  0.9668  0.2378
 7862SOL    HW235223   3.268   2.077  16.541  0.4614 -0.9063  0.5382
 7863SOL     OW35224   2.632   3.987   8.518 -0.7487  0.2388 -0.1031
 7863SOL    HW135225   2.543   3.997   8.552 -1.1198  1.8620 -1.5241
 7863SOL    HW235226   2.680   3.989   8.601  2.1413  0.1007 -1.7708
 7864SOL     OW35227   1.870   1.459   8.238  0.0342  0.6545  0.2046
 7864SOL    HW135228   1.931   1.521   8.279  0.1210 -0.4551  1.7794
 7864SOL    HW235229   1.932   1.413   8.182  0.8002  2.2928 -0.2922
 7865SOL     OW35230   0.556   1.339   2.495  0.4939 -0.9882  0.2246
 7865SOL    HW135231   0.574   1.395   2.570  1.1709 -0.1982 -0.5386
 7865SOL    HW235232   0.612   1.382   2.430  0.5651  0.3783  1.2018
 7866SOL     OW35233   3.897   2.983   8.939 -1.0371  0.6627 -0.0626
 7866SOL    HW135234   3.881   2.993   8.845  1.7518 -0.2184 -0.6239
 7866SOL    HW235235   3.886   2.888   8.944  1.1930  0.3455 -1.3928
 7867SOL     OW35236   0.806   1.484  14.213  0.0209  0.0656  0.4504
 7867SOL    HW135237   0.762   1.403  14.240 -1.0502  0.9784  1.3890
 7867SOL    HW235238   0.864   1.508  14.285 -1.7690  1.1255  1.5366
 7868SOL     OW35239   0.694   0.706   6.446 -0.3226 -0.4637 -0.2369
 7868SOL    HW135240   0.619   0.746   6.401  0.6207 -0.0087 -1.4196
 7868SOL    HW235241   0.664   0.684   6.534  1.8369  1.4677  0.9912
 7869SOL     OW35242   3.166   4.207  15.842 -0.0565  0.2870  0.3491
 7869SOL    HW135243   3.074   4.232  15.843  0.3800  1.9166 -0.1932
 7869SOL    HW235244   3.155   4.127  15.790 -1.0249  0.4312  0.3376
 7870SOL     OW35245   3.654   1.815   3.395  0.4383  0.2019  0.0595
 7870SOL    HW135246   3.723   1.761   3.357 -0.9305 -1.1277 -0.5625
 7870SOL    HW235247   3.576   1.773   3.358 -1.0843  1.7055  1.5505
 7871SOL     OW35248   1.943   0.718  16.629 -0.4364  0.2520 -0.1201
 7871SOL    HW135249   1.984   0.758  16.553  0.6368 -2.0886 -0.7792
 7871SOL    HW235250   1.852   0.747  16.625  0.3839  2.7936  0.1675
 7872SOL     OW35251   0.837   0.926   4.462 -0.3811  0.2247  0.0870
 7872SOL    HW135252   0.770   0.977   4.418 -0.7240 -0.3609 -0.0785
 7872SOL    HW235253   0.891   0.998   4.494 -2.1423  1.2615  0.7419
 7873SOL     OW35254   3.015   2.265  15.856  0.4109 -0.5782 -0.3637
 7873SOL    HW135255   3.004   2.211  15.778  0.9268 -1.8007  0.4199
 7873SOL    HW235256   2.933   2.315  15.853  0.0464 -1.0795  2.0134
 7874SOL     OW35257   4.145   3.103   7.850 -0.4557  0.6485 -0.6427
 7874SOL    HW135258   4.061   3.080   7.890  0.4953 -1.2503  0.2712
 7874SOL    HW235259   4.168   3.176   7.908 -2.8626  0.0636  1.0780
 7875SOL     OW35260   1.273   0.862   5.604 -0.0770 -0.0626  0.2960
 7875SOL    HW135261   1.181   0.887   5.606 -0.5757 -1.6987 -1.6823
 7875SOL    HW235262   1.280   0.834   5.695  0.2227 -0.2684  0.2129
 7876SOL     OW35263   3.014   1.132   1.416 -0.4363  0.4416 -0.2541
 7876SOL    HW135264   3.048   1.221   1.409 -1.6156  0.9397  0.2691
 7876SOL    HW235265   3.054   1.109   1.500 -0.8576  0.7686  0.0342
 7877SOL     OW35266   1.014   3.748   4.696 -0.0580  0.0135  0.0695
 7877SOL    HW135267   0.925   3.782   4.708  0.5117  1.5188  0.0271
 7877SOL    HW235268   1.009   3.682   4.627 -0.9404 -1.8005  1.8610
 7878SOL     OW35269   0.906   1.489   5.021  0.1478 -0.0319  0.1233
 7878SOL    HW135270   0.921   1.508   5.114 -1.4090 -0.7259  0.5292
 7878SOL    HW235271   0.966   1.415   5.019  0.7584  0.4844 -0.5601
 7879SOL     OW35272   1.032   1.958   1.290 -0.0428 -0.0921 -0.4665
 7879SOL    HW135273   0.965   2.020   1.318  1.1702  1.6388 -1.4322
 7879SOL    HW235274   1.030   1.990   1.200 -0.3907 -0.8745 -0.7374
 7880SOL     OW35275   2.587   1.352   7.427 -0.2310 -0.6900  0.0285
 7880SOL    HW135276   2.638   1.277   7.396  0.7147 -0.1634  0.3442
 7880SOL    HW235277   2.656   1.411   7.456  0.4263 -1.5097  0.1486
 7881SOL     OW35278   0.292   1.936   6.459  0.4238  0.4447 -0.0996
 7881SOL    HW135279   0.386   1.916   6.454  0.0560 -0.6696 -2.5956
 7881SOL    HW235280   0.298   2.031   6.472 -2.6119  0.3859  1.6965
 7882SOL     OW35281   2.409   1.037   6.742 -0.3305  1.0916 -0.3023
 7882SOL    HW135282   2.330   1.084   6.766  0.1956  2.8579 -2.0791
 7882SOL    HW235283   2.384   0.970   6.678 -2.0616  0.9533  0.5231
 7883SOL     OW35284   4.039   3.005  14.762 -0.1604  0.2629  0.3980
 7883SOL    HW135285   3.989   3.051  14.695  1.6838 -0.5970 -1.5804
 7883SOL    HW235286   4.062   2.921  14.722 -0.5321  0.3000  0.1087
 7884SOL     OW35287   2.443   3.015  13.589 -0.9670  0.2522 -0.0651
 7884SOL    HW135288   2.513   3.075  13.562 -1.7878  1.6648  0.9378
 7884SOL    HW235289   2.377   3.076  13.621 -1.2255 -0.7198  1.2505
 7885SOL     OW35290   4.326   0.918  15.934 -0.1511  0.2556  0.0332
 7885SOL    HW135291   4.286   0.832  15.920  1.3786 -0.5730  0.7311
 7885SOL    HW235292   4.376   0.929  15.853 -1.8817  0.0999 -1.0541
 7886SOL     OW35293   2.910   4.520   5.380  0.0299 -0.1816  0.0005
 7886SOL    HW135294   2.893   4.443   5.434 -0.7981 -0.0236 -0.0300
 7886SOL    HW235295   3.001   4.536   5.405  0.1964 -1.9371  0.5216
 7887SOL     OW35296   1.232   0.243  10.181  0.6058 -0.4836 -0.2226
 7887SOL    HW135297   1.225   0.326  10.227  2.9823 -0.3565 -0.0735
 7887SOL    HW235298   1.180   0.181  10.231  0.0379  0.8062  0.7672
 7888SOL     OW35299   0.129   2.546   9.277  0.3066  0.1217  0.2528
 7888SOL    HW135300   0.128   2.477   9.343  1.1192 -0.6054 -0.5068
 7888SOL    HW235301   0.049   2.531   9.227  0.0790 -1.0688  0.9789
 7889SOL     OW35302   4.607   1.901   3.309  0.0603 -0.2696  0.0825
 7889SOL    HW135303   4.675   1.899   3.376 -0.3388  0.1217  0.4914
 7889SOL    HW235304   4.623   1.985   3.265  1.2476 -0.8674 -0.6222
 7890SOL     OW35305   0.347   0.843   3.661  0.4764  0.0386  0.0032
 7890SOL    HW135306   0.270   0.896   3.641  0.7717  0.8589  1.0122
 7890SOL    HW235307   0.326   0.770   3.603  0.5557 -0.5412  0.6997
 7891SOL     OW35308   3.230   0.204   8.708 -0.3205  0.2115  0.4049
 7891SOL    HW135309   3.318   0.201   8.671 -0.2448  0.5127  0.5535
 7891SOL    HW235310   3.211   0.294   8.680  0.2025  0.2904  0.3002
 7892SOL     OW35311   2.265   2.786   7.168  0.0494  0.3711 -0.1910
 7892SOL    HW135312   2.275   2.716   7.104 -0.7939 -1.8635  2.1542
 7892SOL    HW235313   2.301   2.754   7.250 -0.1804 -0.1313 -0.2893
 7893SOL     OW35314   1.733   0.137   1.825  0.4106  0.0934  0.5714
 7893SOL    HW135315   1.697   0.059   1.784 -1.7232  0.2975  2.1194
 7893SOL    HW235316   1.728   0.115   1.918 -1.0621  0.0642  0.4807
 7894SOL     OW35317   0.286   2.146   4.683  0.0534  0.0545  0.4795
 7894SOL    HW135318   0.321   2.172   4.598 -1.7099 -0.6094 -0.4581
 7894SOL    HW235319   0.236   2.065   4.669 -0.1307  0.3644 -0.6349
 7895SOL     OW35320   1.980   4.010  12.490 -0.3131  0.0835 -0.2344
 7895SOL    HW135321   1.902   3.976  12.533  0.6464 -0.4397  1.0855
 7895SOL    HW235322   2.010   3.948  12.423 -1.2377 -1.1749  0.5240
 7896SOL     OW35323   3.791   4.257   5.020 -0.1212 -0.4108  0.2249
 7896SOL    HW135324   3.834   4.342   5.011 -1.9297  0.3485 -1.1318
 7896SOL    HW235325   3.819   4.228   5.107 -0.5539 -0.6214  0.2887
 7897SOL     OW35326   1.734   2.742   2.630  0.7411 -0.4528 -0.3782
 7897SOL    HW135327   1.774   2.660   2.659  0.8330 -0.0250  0.7098
 7897SOL    HW235328   1.778   2.807   2.684  0.4832 -0.5835 -0.0077
 7898SOL     OW35329   3.872   1.144   6.647  0.0359 -0.1121 -1.3049
 7898SOL    HW135330   3.928   1.071   6.671  0.8877 -0.1135 -3.2806
 7898SOL    HW235331   3.830   1.110   6.568 -2.6641  0.7404 -0.2335
 7899SOL     OW35332   2.739   0.735   7.108 -0.0692  0.4353  0.1001
 7899SOL    HW135333   2.719   0.771   7.022  0.3204 -0.2363 -0.2696
 7899SOL    HW235334   2.661   0.754   7.159 -0.7307  0.4059 -0.9073
 7900SOL     OW35335   1.543   4.657   2.622 -0.1675 -0.3486 -0.1499
 7900SOL    HW135336   1.479   4.683   2.555 -0.9801  1.5691  1.3535
 7900SOL    HW235337   1.600   4.734   2.629  0.5774 -0.8483 -0.7109
 7901SOL     OW35338   2.319   1.694   6.630 -0.1515  0.1882  0.6619
 7901SOL    HW135339   2.260   1.619   6.619 -1.1504  1.0071  0.5279
 7901SOL    HW235340   2.378   1.655   6.695 -0.8695 -0.6562  0.8151
 7902SOL     OW35341   2.605   2.553   6.502  0.3427 -0.5836  0.7190
 7902SOL    HW135342   2.668   2.598   6.558 -0.1831  0.1695  0.7012
 7902SOL    HW235343   2.617   2.459   6.513  1.7664 -0.3771  1.0094
 7903SOL     OW35344   1.865   4.270  13.359  0.0605  0.0646  0.5041
 7903SOL    HW135345   1.902   4.348  13.318 -0.2262  1.4995  2.9575
 7903SOL    HW235346   1.803   4.250  13.289  0.4189  0.6622  0.0198
 7904SOL     OW35347   0.285   3.948   4.653 -0.6889  0.0585  0.4128
 7904SOL    HW135348   0.207   3.916   4.698 -0.4933 -1.4435 -0.3115
 7904SOL    HW235349   0.355   3.941   4.718  1.2287  0.6730 -1.6041
 7905SOL     OW35350   4.379   4.373   8.298 -0.4408 -0.2316 -0.1580
 7905SOL    HW135351   4.385   4.290   8.251 -2.9439 -0.4302 -0.1105
 7905SOL    HW235352   4.400   4.426   8.221 -1.2442 -0.8857 -0.8257
 7906SOL     OW35353   2.770   2.352   7.833  0.1224  0.5139  0.1168
 7906SOL    HW135354   2.737   2.324   7.748 -0.5052  0.3087  0.4335
 7906SOL    HW235355   2.716   2.290   7.882  3.7881 -4.2883 -1.8261
 7907SOL     OW35356   3.943   3.687   5.017  0.0530 -0.1435  0.3842
 7907SOL    HW135357   3.860   3.700   5.063  0.4447  0.4293  0.9354
 7907SOL    HW235358   3.923   3.609   4.966  2.7418 -0.7827  0.2965
 7908SOL     OW35359   2.193   3.750   5.800  0.0876 -0.4953 -0.0984
 7908SOL    HW135360   2.136   3.751   5.877 -0.5780  1.9878 -0.6213
 7908SOL    HW235361   2.150   3.677   5.755 -0.0972  0.6270 -1.7665
 7909SOL     OW35362   0.870   2.114   9.528  0.3338 -0.0881  0.1316
 7909SOL    HW135363   0.876   2.156   9.443  2.3878  1.3515  0.9875
 7909SOL    HW235364   0.958   2.135   9.560  0.3158  0.5897 -0.2710
 7910SOL     OW35365   2.202   2.404  11.668 -0.1498 -0.0733  0.2377
 7910SOL    HW135366   2.171   2.355  11.745 -3.1625 -0.4187 -1.1819
 7910SOL    HW235367   2.296   2.391  11.676 -0.1985 -0.7280 -0.3525
 7911SOL     OW35368   4.685   0.722   2.390  0.7849 -0.4420  0.6276
 7911SOL    HW135369   0.006   0.774   2.447 -0.2624  1.8013 -0.4234
 7911SOL    HW235370   0.014   0.655   2.364 -0.4168 -0.3892 -2.3947
 7912SOL     OW35371   3.789   0.001   7.532 -0.1235  0.2125  0.0422
 7912SOL    HW135372   3.753   0.078   7.489  0.8534  0.0520 -1.0416
 7912SOL    HW235373   3.870   4.731   7.482 -0.2122 -1.3862  0.0440
 7913SOL     OW35374   2.259   3.315  10.084 -0.6554  0.1911  0.2301
 7913SOL    HW135375   2.296   3.231  10.056  0.6278  0.2002  1.8611
 7913SOL    HW235376   2.172   3.308  10.046 -1.7712 -1.9926  3.1370
 7914SOL     OW35377   2.498   2.614   2.409  0.2822  0.2400 -0.4758
 7914SOL    HW135378   2.577   2.630   2.461  1.6494 -0.5507 -2.2824
 7914SOL    HW235379   2.525   2.545   2.348  0.2266  0.6041 -0.9100
 7915SOL     OW35380   2.751   3.276   0.803 -0.0887 -0.1725 -0.2917
 7915SOL    HW135381   2.678   3.217   0.786  1.1233 -1.1804 -2.0486
 7915SOL    HW235382   2.745   3.328   0.723  1.3510  1.6047  0.7304
 7916SOL     OW35383   2.123   3.068   4.499 -0.2477  0.0964  0.2587
 7916SOL    HW135384   2.173   3.141   4.463  2.4269 -0.5231  2.7278
 7916SOL    HW235385   2.033   3.101   4.500 -0.6736 -1.0765  0.3545
 7917SOL     OW35386   4.172   0.664   9.273  0.2167 -0.7866  0.3214
 7917SOL    HW135387   4.181   0.569   9.274 -3.7763 -1.1505  1.2629
 7917SOL    HW235388   4.103   0.675   9.339  0.7033 -2.7861  1.1565
 7918SOL     OW35389   1.316   0.616   2.409  0.7074  0.1158  0.0291
 7918SOL    HW135390   1.260   0.607   2.332  0.3468 -0.8261  0.4048
 7918SOL    HW235391   1.395   0.647   2.365  0.8538  0.6383  0.6483
 7919SOL     OW35392   1.648   1.366   4.636 -0.2601 -0.2512 -0.2018
 7919SOL    HW135393   1.624   1.458   4.621 -1.3089 -0.3124  1.1995
 7919SOL    HW235394   1.565   1.330   4.666 -0.9248  1.1052 -0.4192
 7920SOL     OW35395   4.495   0.138  10.319 -0.2970  0.3233 -0.1413
 7920SOL    HW135396   4.464   0.227  10.302 -0.1753  0.6513  1.3927
 7920SOL    HW235397   4.497   0.140  10.414 -1.3840  0.7394 -0.1211
 7921SOL     OW35398   1.659   1.906  11.775  0.8131 -0.3163 -0.2590
 7921SOL    HW135399   1.573   1.895  11.816 -0.4271 -2.3824 -3.4554
 7921SOL    HW235400   1.714   1.842  11.821 -0.7624 -1.0422  0.5935
 7922SOL     OW35401   3.729   3.956   8.143  0.9439  0.0761 -0.2267
 7922SOL    HW135402   3.728   4.050   8.157 -2.5623 -0.3748  2.7847
 7922SOL    HW235403   3.686   3.937   8.227  1.2791  1.7471  0.3086
 7923SOL     OW35404   3.832   2.155  15.042 -0.0144 -0.3325 -0.0267
 7923SOL    HW135405   3.760   2.095  15.061 -1.8334  0.8119 -3.2364
 7923SOL    HW235406   3.863   2.124  14.957  0.5384  1.7776 -0.5982
 7924SOL     OW35407   1.595   1.285   0.576 -0.8026  0.3685 -0.4315
 7924SOL    HW135408   1.604   1.341   0.499  2.0285  0.4136 -0.0963
 7924SOL    HW235409   1.511   1.316   0.609 -0.4898  0.8562 -0.0949
 7925SOL     OW35410   0.180   3.904   3.205  0.1301  0.4143  0.3998
 7925SOL    HW135411   0.154   3.991   3.236 -1.2785 -0.7042  2.3426
 7925SOL    HW235412   0.272   3.927   3.219 -0.0064 -0.8379  3.2007
 7926SOL     OW35413   2.110   1.510   6.952 -0.5492  0.5251  0.2197
 7926SOL    HW135414   2.029   1.484   6.909 -0.3611  0.0377  0.1593
 7926SOL    HW235415   2.130   1.431   7.002  1.9993  0.5744 -0.6972
 7927SOL     OW35416   1.159   4.609  14.224 -0.6318  0.6643  0.5172
 7927SOL    HW135417   1.150   4.595  14.129  2.2462 -4.1207  0.9052
 7927SOL    HW235418   1.241   4.656  14.235  0.2586 -0.7851  0.0171
 7928SOL     OW35419   1.750   4.229   6.557 -0.1456 -0.2935  0.0499
 7928SOL    HW135420   1.664   4.200   6.586 -0.1172 -0.7003 -0.2759
 7928SOL    HW235421   1.744   4.322   6.537  0.4216  0.0689  1.5724
 7929SOL     OW35422   0.924   2.802   7.597  0.0993  0.6958  0.1749
 7929SOL    HW135423   0.928   2.714   7.560  0.5624  1.6986 -2.1691
 7929SOL    HW235424   0.902   2.856   7.521 -2.2712  0.7016  0.8647
 7930SOL     OW35425   4.118   3.456   7.574 -0.6348 -0.5192  0.4242
 7930SOL    HW135426   4.180   3.398   7.528 -0.7017 -1.6829  1.7967
 7930SOL    HW235427   4.164   3.537   7.593  1.2254 -1.6453  0.7368
 7931SOL     OW35428   2.456   3.196   2.980 -0.3498  0.2251  0.0949
 7931SOL    HW135429   2.426   3.152   3.060 -0.3833 -0.8256 -0.4990
 7931SOL    HW235430   2.536   3.150   2.956  0.0703  0.5420  0.8721
 7932SOL     OW35431   2.863   2.709   6.424 -0.1261 -0.4205  0.3461
 7932SOL    HW135432   2.882   2.794   6.464  0.3995  0.0740 -0.9372
 7932SOL    HW235433   2.929   2.655   6.466 -0.5176 -0.3853  1.0019
 7933SOL     OW35434   4.103   1.689   8.261  0.0492 -0.4256  0.3923
 7933SOL    HW135435   4.194   1.679   8.232  0.4340  1.2490  1.0342
 7933SOL    HW235436   4.109   1.739   8.342 -1.4038 -0.9828  0.8395
 7934SOL     OW35437   2.202   3.573   4.487  0.6384 -0.1650 -0.2188
 7934SOL    HW135438   2.205   3.603   4.578 -1.5916 -2.3044  0.5684
 7934SOL    HW235439   2.106   3.582   4.485  0.6891  0.4685  0.1254
 7935SOL     OW35440   0.183   4.675  12.798 -0.3991  0.3436 -0.1604
 7935SOL    HW135441   0.111   4.658  12.859  1.1537 -0.6157  1.4185
 7935SOL    HW235442   0.132   4.676  12.717 -3.2373  3.7834  1.6484
 7936SOL     OW35443   0.138   3.695   3.506  0.0673 -0.2133  0.3099
 7936SOL    HW135444   0.117   3.609   3.542 -1.5546  0.3939  0.7864
 7936SOL    HW235445   0.144   3.673   3.413  2.5636 -3.3042  1.1735
 7937SOL     OW35446   3.584   1.980   1.624 -0.1659  0.4185  0.2629
 7937SOL    HW135447   3.536   2.005   1.545  0.1055 -3.2347 -1.0611
 7937SOL    HW235448   3.512   2.007   1.680  0.2125  1.7128  0.1174
 7938SOL     OW35449   1.243   0.956   7.754  0.2509  0.1617 -0.2747
 7938SOL    HW135450   1.165   0.982   7.706  0.0656 -1.4633 -0.8532
 7938SOL    HW235451   1.301   0.994   7.688  0.8061  1.1745  0.7939
 7939SOL     OW35452   2.283   3.905   1.668  0.4854 -0.3859 -0.2530
 7939SOL    HW135453   2.316   3.841   1.604  2.6532  2.0583 -1.5797
 7939SOL    HW235454   2.357   3.962   1.688  0.4617 -0.0089 -1.2565
 7940SOL     OW35455   0.765   2.879  15.722  0.5135  0.2213 -0.4175
 7940SOL    HW135456   0.791   2.788  15.736  0.5048  0.5582  1.7333
 7940SOL    HW235457   0.842   2.926  15.689  0.9978 -1.0415 -1.1093
 7941SOL     OW35458   0.255   2.960   7.013 -0.2582 -0.2580 -0.4853
 7941SOL    HW135459   0.296   3.044   7.034 -1.4909  0.6939 -1.8560
 7941SOL    HW235460   0.180   2.953   7.071 -0.3823 -1.1636 -0.7628
 7942SOL     OW35461   0.422   0.500   5.124  0.4431 -0.4084 -0.6489
 7942SOL    HW135462   0.332   0.498   5.157  0.4943 -2.5698 -0.6450
 7942SOL    HW235463   0.421   0.558   5.048  1.8148 -1.1364 -1.2228
 7943SOL     OW35464   2.350   0.951   9.159 -0.2899  0.2542  0.0013
 7943SOL    HW135465   2.300   0.870   9.147  1.1488 -0.7485  0.7548
 7943SOL    HW235466   2.280   1.013   9.181  0.0480  0.2230  1.1818
 7944SOL     OW35467   0.883   2.160   5.446  0.3712 -0.2540  0.0130
 7944SOL    HW135468   0.810   2.100   5.453  0.6547 -0.5217  0.7617
 7944SOL    HW235469   0.898   2.147   5.353  0.2243 -1.0035  0.0935
 7945SOL     OW35470   3.293   3.927   5.908  0.3689 -0.0827 -0.3041
 7945SOL    HW135471   3.253   4.010   5.884  2.5510  0.5957 -1.5472
 7945SOL    HW235472   3.342   3.947   5.988  0.2502 -0.2974 -0.1773
 7946SOL     OW35473   1.097   3.206   8.694 -0.2063 -0.6099 -0.5147
 7946SOL    HW135474   1.189   3.227   8.707 -0.1216  0.3167 -2.6294
 7946SOL    HW235475   1.063   3.232   8.780  0.2208  1.7897 -1.0793
 7947SOL     OW35476   4.572   1.646   1.883 -0.1505  0.3281 -0.0605
 7947SOL    HW135477   4.508   1.656   1.812 -1.8265 -0.2276  1.3803
 7947SOL    HW235478   4.577   1.552   1.901 -1.4448  0.4195  0.7801
 7948SOL     OW35479   0.107   1.944  10.631 -0.3357 -0.4908 -0.4415
 7948SOL    HW135480   0.079   2.021  10.582 -0.6687 -0.6853 -0.5567
 7948SOL    HW235481   0.201   1.943  10.613 -0.4718 -2.5928 -0.9874
 7949SOL     OW35482   1.313   0.974   9.795 -0.6479  0.0481  0.8224
 7949SOL    HW135483   1.407   0.972   9.778 -0.9482  1.2142 -0.9214
 7949SOL    HW235484   1.274   0.997   9.711  1.4575 -2.6853 -0.8963
 7950SOL     OW35485   4.698   4.100   6.366  0.0136 -0.1682 -0.4074
 7950SOL    HW135486   4.722   4.102   6.273  0.0276  0.3476 -0.3895
 7950SOL    HW235487   4.708   4.193   6.387 -0.2569 -0.1903 -0.1895
 7951SOL     OW35488   3.760   0.284   8.865 -1.1927  0.3932 -0.3426
 7951SOL    HW135489   3.775   0.264   8.958  1.2870 -2.2150 -1.2771
 7951SOL    HW235490   3.677   0.331   8.862 -1.7103 -0.5773 -1.1922
 7952SOL     OW35491   4.230   0.514   6.579  0.7027  0.5057 -0.3608
 7952SOL    HW135492   4.217   0.511   6.674 -0.6046  0.6525 -0.5318
 7952SOL    HW235493   4.320   0.484   6.566  0.5518 -0.1700  0.1305
 7953SOL     OW35494   0.715   0.096  16.904 -0.3146 -0.0785 -0.1548
 7953SOL    HW135495   0.796   0.074  16.859  0.9584 -0.8005  2.4704
 7953SOL    HW235496   0.748   0.167  16.960 -0.2475  0.4535 -0.8810
 7954SOL     OW35497   0.211   4.642  16.781 -0.0650  0.3286 -0.1056
 7954SOL    HW135498   0.146   4.624  16.848 -0.1513  0.1468 -0.2376
 7954SOL    HW235499   0.169   4.596  16.708 -1.7295  1.0307  0.4320
 7955SOL     OW35500   2.838   0.795   5.539  0.2241  0.4445  0.4234
 7955SOL    HW135501   2.908   0.811   5.476 -0.9046  2.7321 -0.2756
 7955SOL    HW235502   2.854   0.704   5.561 -2.3015 -0.0604  0.1738
 7956SOL     OW35503   2.513   4.120   8.171 -0.3986 -0.0767  0.5142
 7956SOL    HW135504   2.558   4.205   8.162  1.8233 -1.1674  1.4416
 7956SOL    HW235505   2.424   4.153   8.180 -0.4631  0.1988 -1.0081
 7957SOL     OW35506   2.678   0.207   2.688 -0.7318  0.5723 -0.1422
 7957SOL    HW135507   2.707   0.128   2.641 -0.6140  0.1526  0.6281
 7957SOL    HW235508   2.686   0.181   2.780 -0.7914  1.5256  0.1253
 7958SOL     OW35509   4.190   1.683   4.667 -0.2126 -0.3642  0.2838
 7958SOL    HW135510   4.234   1.609   4.626  0.7525  0.8701 -0.8824
 7958SOL    HW235511   4.266   1.727   4.706 -0.0841  0.3678 -0.7948
 7959SOL     OW35512   3.196   4.141   5.798 -0.5505 -0.2977 -0.0248
 7959SOL    HW135513   3.168   4.230   5.822  0.7524 -0.4791  2.2126
 7959SOL    HW235514   3.269   4.151   5.737 -0.4524 -3.0709 -0.3425
 7960SOL     OW35515   4.146   1.215   8.867  0.1854 -0.5755  0.4175
 7960SOL    HW135516   4.156   1.230   8.961 -1.5905 -0.5825  0.6108
 7960SOL    HW235517   4.237   1.223   8.840  0.2284  0.0907  0.7579
 7961SOL     OW35518   0.361   3.923   3.492  0.6903 -0.2666  0.3415
 7961SOL    HW135519   0.396   4.011   3.477  0.4128 -0.4969 -1.7737
 7961SOL    HW235520   0.270   3.951   3.486  0.3624 -1.6000 -1.0212
 7962SOL     OW35521   1.932   0.443   5.488  0.7464 -0.2232 -0.0707
 7962SOL    HW135522   2.008   0.418   5.540  1.7855  1.8962 -0.5771
 7962SOL    HW235523   1.879   0.455   5.566  0.5012 -0.2037 -0.2386
 7963SOL     OW35524   2.684   3.995   9.691 -0.2995  0.2875  0.0763
 7963SOL    HW135525   2.664   3.956   9.606  0.9443 -2.5428  1.0764
 7963SOL    HW235526   2.675   4.088   9.670 -0.0214  0.5435  1.1310
 7964SOL     OW35527   0.499   4.500   4.623  0.1451 -0.1361 -0.0099
 7964SOL    HW135528   0.481   4.591   4.648  0.3411 -0.3638  0.9429
 7964SOL    HW235529   0.574   4.525   4.569 -1.6950  0.1258 -2.4361
 7965SOL     OW35530   1.183   3.052  14.451  0.1848  0.2757 -0.0675
 7965SOL    HW135531   1.177   3.012  14.538 -1.3224  2.9738  1.0688
 7965SOL    HW235532   1.231   2.991  14.395  0.9179 -0.9014  1.8368
 7966SOL     OW35533   0.163   0.827  15.709  0.1930  0.2632 -0.0035
 7966SOL    HW135534   0.122   0.771  15.774 -0.4917  0.9193  0.1230
 7966SOL    HW235535   0.108   0.802  15.635 -0.3750 -0.5869  0.7077
 7967SOL     OW35536   3.245   0.753   5.491  0.5441  0.0874 -0.5162
 7967SOL    HW135537   3.205   0.748   5.578 -1.3871  0.0144 -1.4081
 7967SOL    HW235538   3.165   0.753   5.439 -0.7104  3.2884  1.4233
 7968SOL     OW35539   4.135   2.730   7.663  0.1303  0.3785 -0.2301
 7968SOL    HW135540   4.217   2.717   7.710 -0.6737  1.3849  1.4334
 7968SOL    HW235541   4.139   2.648   7.613  0.7135  1.1168 -1.3764
 7969SOL     OW35542   4.321   1.263   8.515  0.1284 -0.0436  0.2291
 7969SOL    HW135543   4.244   1.206   8.508  0.1000  0.0727 -0.3879
 7969SOL    HW235544   4.391   1.198   8.516 -0.5350 -0.7717 -0.8642
 7970SOL     OW35545   2.739   2.978   8.962 -0.2564  0.0710 -0.2396
 7970SOL    HW135546   2.677   3.043   8.996 -0.1620  0.4489 -0.7959
 7970SOL    HW235547   2.769   2.926   9.037  0.7390 -0.2789 -0.8850
 7971SOL     OW35548   2.919   3.084   1.956 -0.1064 -0.0621  0.9753
 7971SOL    HW135549   2.923   2.988   1.955  1.1269  0.0210 -0.8604
 7971SOL    HW235550   2.847   3.106   1.896 -0.2191 -0.6460  0.8942
 7972SOL     OW35551   3.936   3.661   2.369  0.4656  0.2907  0.4383
 7972SOL    HW135552   3.900   3.719   2.436  2.1726  0.3544  1.3137
 7972SOL    HW235553   3.916   3.711   2.290  1.2241  0.0368  0.0822
 7973SOL     OW35554   0.958   2.838   4.344 -0.1401 -0.1327 -0.2979
 7973SOL    HW135555   0.990   2.894   4.274 -0.2804  0.5919  0.2166
 7973SOL    HW235556   0.868   2.866   4.361 -0.0637 -0.8669  1.3356
 7974SOL     OW35557   0.113   2.184   9.058  0.9133 -0.5231  0.2909
 7974SOL    HW135558   0.122   2.100   9.013 -1.5110 -1.0560  0.7659
 7974SOL    HW235559   0.199   2.223   9.047  0.5223  0.6549  1.4188
 7975SOL     OW35560   4.493   0.503   7.894 -0.3381 -0.0716 -0.2467
 7975SOL    HW135561   4.474   0.590   7.858  0.1794 -0.1871 -0.8121
 7975SOL    HW235562   4.446   0.533   7.971  0.4646  0.4154  0.0489
 7976SOL     OW35563   1.555   2.069   8.189 -0.4269 -0.0637 -0.0212
 7976SOL    HW135564   1.587   1.988   8.229 -1.4101 -0.3819  0.1198
 7976SOL    HW235565   1.462   2.054   8.173 -0.1439 -0.8360 -0.9595
 7977SOL     OW35566   0.646   3.809   9.327  0.3339 -0.3027  0.2746
 7977SOL    HW135567   0.630   3.717   9.348  0.4236 -0.6619 -1.2446
 7977SOL    HW235568   0.711   3.840   9.390 -0.5174 -0.9094  1.4347
 7978SOL     OW35569   4.259   1.880  14.137  0.0047 -0.4532  1.1002
 7978SOL    HW135570   4.206   1.891  14.216  0.6985 -1.8842  1.7614
 7978SOL    HW235571   4.326   1.818  14.164 -0.4966 -2.3634 -2.0530
 7979SOL     OW35572   0.712   0.796   6.977  0.3277  0.2290  0.3785
 7979SOL    HW135573   0.627   0.800   7.021 -0.6972 -2.0136 -1.3900
 7979SOL    HW235574   0.709   0.855   6.902 -1.4080  0.6312  0.7671
 7980SOL     OW35575   4.055   1.629  11.757 -0.1592  0.7356  0.2572
 7980SOL    HW135576   4.100   1.544  11.753  0.4764  0.9591  2.4751
 7980SOL    HW235577   4.029   1.623  11.849  3.1049 -2.3970  1.0199
 7981SOL     OW35578   4.638   0.674   6.806 -0.2991 -0.1712  0.1546
 7981SOL    HW135579   4.599   0.638   6.885  0.2903  0.4972  0.7507
 7981SOL    HW235580   4.557   0.707   6.767  0.1851  2.5561  1.4602
 7982SOL     OW35581   0.998   3.063  11.191 -0.2141 -0.4295 -0.0928
 7982SOL    HW135582   1.078   3.091  11.147 -0.1081 -0.6954 -0.0671
 7982SOL    HW235583   0.999   2.967  11.191  0.4473 -0.4198 -0.7009
 7983SOL     OW35584   2.697   4.018  12.346 -0.1048  0.3358 -0.0736
 7983SOL    HW135585   2.741   4.103  12.335  1.6435 -0.4654  0.6234
 7983SOL    HW235586   2.623   4.035  12.404 -0.8534 -0.7780 -0.7048
 7984SOL     OW35587   0.439   3.592   6.890 -0.1241  0.6430  0.1069
 7984SOL    HW135588   0.390   3.565   6.812 -1.1302  0.9756  0.6270
 7984SOL    HW235589   0.384   3.543   6.950 -2.6983  1.7390 -1.3806
 7985SOL     OW35590   1.234   4.661   8.186 -0.0136  0.1910 -0.4209
 7985SOL    HW135591   1.254   4.625   8.099 -0.8524  0.4619 -0.7345
 7985SOL    HW235592   1.139   4.675   8.179  0.3139  1.2618 -2.9640
 7986SOL     OW35593   0.493   0.011  14.791  0.7427 -0.5828  0.7308
 7986SOL    HW135594   0.555   0.083  14.802 -1.8411  1.2259  3.5470
 7986SOL    HW235595   0.416   0.061  14.766  1.0292 -1.4160 -1.7969
 7987SOL     OW35596   2.375   3.563   7.386 -0.1289  0.5403 -0.3795
 7987SOL    HW135597   2.327   3.543   7.467  1.8680  2.8670  1.3929
 7987SOL    HW235598   2.311   3.615   7.338  0.9682  2.0517 -0.2074
 7988SOL     OW35599   3.991   1.793   6.141 -0.0519  0.1231  0.4164
 7988SOL    HW135600   4.070   1.815   6.092  0.1574  0.0717  0.7319
 7988SOL    HW235601   4.011   1.832   6.226  1.2703  2.1164 -0.8226
 7989SOL     OW35602   0.895   0.270   7.719 -0.1695  0.0535  0.3003
 7989SOL    HW135603   0.806   0.263   7.754 -0.1592 -2.3089 -0.1358
 7989SOL    HW235604   0.938   0.213   7.782  1.5640  1.2069  0.1705
 7990SOL     OW35605   0.422   4.233   6.346  0.8094  0.0775  0.5406
 7990SOL    HW135606   0.355   4.175   6.311  0.4709 -0.4913  2.1357
 7990SOL    HW235607   0.438   4.293   6.273 -0.4783 -0.6278 -0.3191
 7991SOL     OW35608   3.032   1.989   2.353  0.1062  0.1472 -0.2323
 7991SOL    HW135609   3.061   2.048   2.284 -0.8694  0.1434 -0.6333
 7991SOL    HW235610   3.112   1.993   2.407 -0.8162  1.0548  1.0763
 7992SOL     OW35611   3.559   0.483   1.656  0.0355 -0.0444 -0.0149
 7992SOL    HW135612   3.516   0.433   1.587  0.2037 -0.7676  0.4077
 7992SOL    HW235613   3.499   0.477   1.730 -0.1439 -1.1584 -0.2562
 7993SOL     OW35614   3.120   1.702   0.901  0.2697 -0.5634  0.0457
 7993SOL    HW135615   3.089   1.613   0.916  1.3302 -0.5394  2.4164
 7993SOL    HW235616   3.099   1.711   0.808 -1.3018 -2.0636  0.2671
 7994SOL     OW35617   3.956   4.211   7.000 -0.0862  0.0190  0.1444
 7994SOL    HW135618   3.881   4.151   7.006  3.0821 -4.0826 -1.3431
 7994SOL    HW235619   3.926   4.283   6.945  0.4771  0.2880  0.1866
 7995SOL     OW35620   3.410   3.947   4.327  0.5403 -0.3512  0.2240
 7995SOL    HW135621   3.353   3.951   4.249  1.3818  0.2517 -0.3552
 7995SOL    HW235622   3.408   4.038   4.358 -2.8680 -0.0714 -0.7625
 7996SOL     OW35623   0.844   2.972   5.305 -0.1963 -0.5892  0.2681
 7996SOL    HW135624   0.811   2.977   5.215 -0.2758 -0.1592  0.3232
 7996SOL    HW235625   0.791   2.901   5.343 -1.9687  1.0751  0.8941
 7997SOL     OW35626   0.725   3.541   6.223 -0.1592 -0.2997  0.3975
 7997SOL    HW135627   0.653   3.579   6.173 -0.7916 -0.0358  1.4878
 7997SOL    HW235628   0.810   3.576   6.196  0.5089 -0.2195  2.5654
 7998SOL     OW35629   4.539   4.373  16.935  0.5079  0.0391 -0.1634
 7998SOL    HW135630   4.614   4.342  16.884 -0.1152  1.5731 -2.0142
 7998SOL    HW235631   4.471   4.377  16.867  0.0243 -1.3443  0.2545
 7999SOL     OW35632   2.292   2.518  12.589  0.2041  0.3976  0.4288
 7999SOL    HW135633   2.376   2.563  12.579  0.8832 -0.8949  0.2892
 7999SOL    HW235634   2.326   2.429  12.597  2.3206  1.2767  1.1839
 8000SOL     OW35635   4.384   3.368   1.992 -0.3603  0.1828  0.7169
 8000SOL    HW135636   4.409   3.445   1.941  1.7229 -0.1794  1.1913
 8000SOL    HW235637   4.303   3.401   2.031 -0.8193  0.0654 -0.1497
 8001SOL     OW35638   4.140   4.456   6.331  0.1416 -0.3549  0.2516
 8001SOL    HW135639   4.197   4.379   6.325 -0.8356 -0.9621 -1.2579
 8001SOL    HW235640   4.200   4.517   6.373 -0.3525  0.4322 -0.1845
 8002SOL     OW35641   3.442   2.908   3.757  0.8102  0.2514 -0.7669
 8002SOL    HW135642   3.448   2.876   3.667  2.1245  0.8745 -0.8963
 8002SOL    HW235643   3.527   2.891   3.798  0.0010  0.3599  0.9452
 8003SOL     OW35644   1.926   2.548   1.901 -0.3315 -0.3111  0.0458
 8003SOL    HW135645   1.934   2.452   1.909  0.3429 -0.1210  1.7739
 8003SOL    HW235646   1.924   2.570   1.994 -2.4057 -2.0317  0.4017
 8004SOL     OW35647   2.318   4.571   7.614  0.5269 -0.4424  0.0314
 8004SOL    HW135648   2.344   4.533   7.530 -0.1930  0.8540 -0.7715
 8004SOL    HW235649   2.393   4.544   7.667  1.1029 -0.2636 -0.6908
 8005SOL     OW35650   3.115   0.357  13.697  0.5554  0.1182  0.2671
 8005SOL    HW135651   3.081   0.287  13.641  0.3050 -0.9543  1.7611
 8005SOL    HW235652   3.188   0.318  13.745 -0.2899  0.0302  1.4939
 8006SOL     OW35653   2.111   2.901   0.460 -0.1218 -0.8065 -0.0912
 8006SOL    HW135654   2.056   2.980   0.457 -1.0985 -1.5855 -2.5521
 8006SOL    HW235655   2.117   2.889   0.555 -1.8098 -1.1516 -0.0317
 8007SOL     OW35656   3.560   4.711   9.382 -0.3148 -0.0656 -0.1080
 8007SOL    HW135657   3.547   0.053   9.327 -3.2074  1.3069  2.4684
 8007SOL    HW235658   3.484   4.662   9.349 -0.1831  0.2463 -0.8536
 8008SOL     OW35659   2.396   1.538   3.361 -0.1240 -0.2664 -0.0843
 8008SOL    HW135660   2.489   1.521   3.376  0.1121  0.1899 -0.9902
 8008SOL    HW235661   2.392   1.629   3.389  0.1132  0.0335 -1.0229
 8009SOL     OW35662   3.734   3.750   5.465  0.2004  0.2525 -0.1478
 8009SOL    HW135663   3.699   3.780   5.549 -1.5080  3.0964 -1.9363
 8009SOL    HW235664   3.782   3.822   5.424  1.2214  0.0530  0.6697
 8010SOL     OW35665   1.696   3.408   4.124 -0.0627 -0.1561 -0.6921
 8010SOL    HW135666   1.621   3.432   4.178  0.8901 -0.4325  0.7544
 8010SOL    HW235667   1.734   3.338   4.177 -1.1279  0.0301  0.3235
 8011SOL     OW35668   2.630   3.051   5.085  0.1303 -0.7789 -0.3332
 8011SOL    HW135669   2.624   2.959   5.059 -0.7744 -0.5011 -1.0939
 8011SOL    HW235670   2.717   3.082   5.058  0.3582 -1.8137 -0.8017
 8012SOL     OW35671   2.482   0.860   8.381 -0.1424  0.3197  0.5354
 8012SOL    HW135672   2.502   0.872   8.474 -0.0941 -1.2236  0.7213
 8012SOL    HW235673   2.468   0.766   8.368  0.8207  0.1787  0.4580
 8013SOL     OW35674   4.025   1.640   1.887 -0.0216  0.1096 -0.2709
 8013SOL    HW135675   4.117   1.658   1.905  0.0843 -1.0485  0.3880
 8013SOL    HW235676   4.027   1.631   1.792 -0.5728  1.8363 -0.4531
 8014SOL     OW35677   4.032   2.840   2.424 -0.3222 -0.5574  0.0822
 8014SOL    HW135678   4.058   2.914   2.478 -0.4565 -0.6844  0.3248
 8014SOL    HW235679   3.998   2.885   2.347  1.6398  1.3890  0.3805
 8015SOL     OW35680   3.835   2.869  16.042 -0.4214 -0.2372 -0.8901
 8015SOL    HW135681   3.877   2.850  16.126  1.0254  1.4569 -1.2477
 8015SOL    HW235682   3.878   2.949  16.013  0.7785 -1.4414 -2.4353
 8016SOL     OW35683   2.622   3.548  14.324  0.0209 -0.1559 -0.1879
 8016SOL    HW135684   2.602   3.545  14.417 -0.0333  2.3398 -0.1145
 8016SOL    HW235685   2.677   3.626  14.326 -0.7642  0.3494  1.3512
 8017SOL     OW35686   1.873   2.253  10.012  0.0244  0.3236  0.5060
 8017SOL    HW135687   1.904   2.344  10.019  0.5304  0.0300  2.1112
 8017SOL    HW235688   1.786   2.275   9.979 -0.6816  1.1805  2.9162
 8018SOL     OW35689   3.723   4.402  13.287  0.4901 -0.5528 -0.2056
 8018SOL    HW135690   3.643   4.351  13.295  0.8708 -1.0965  0.1506
 8018SOL    HW235691   3.785   4.331  13.270 -1.2215 -1.6981 -1.5759
 8019SOL     OW35692   1.932   2.785   8.481 -0.0953 -0.1115 -0.4509
 8019SOL    HW135693   1.884   2.702   8.488 -1.9406  1.1252  1.8120
 8019SOL    HW235694   2.024   2.763   8.492 -0.0291 -0.0845 -0.9575
 8020SOL     OW35695   2.115   0.194   6.230 -0.5859 -0.1501  0.7067
 8020SOL    HW135696   2.195   0.193   6.283 -1.0773 -0.1344  1.4518
 8020SOL    HW235697   2.114   0.105   6.197 -0.8166  0.3294 -0.5759
 8021SOL     OW35698   2.097   2.706   6.624 -0.2946  0.6055  0.9040
 8021SOL    HW135699   2.095   2.643   6.552 -0.2678  0.2273  1.2397
 8021SOL    HW235700   2.074   2.789   6.581 -0.7019 -1.0846 -2.1237
 8022SOL     OW35701   2.939   1.893   2.901 -0.6753 -0.7253  0.5618
 8022SOL    HW135702   3.025   1.923   2.871 -1.6158 -0.9950 -2.4616
 8022SOL    HW235703   2.896   1.974   2.926 -0.1027  0.2619 -1.6531
 8023SOL     OW35704   0.120   2.042   7.558  0.1133 -0.0433  0.5134
 8023SOL    HW135705   0.082   2.024   7.644 -0.8093  1.6328  0.4766
 8023SOL    HW235706   0.038   2.062   7.512  0.6230  0.9877  0.0561
 8024SOL     OW35707   1.145   2.118   2.249 -0.6431  0.1989  0.2529
 8024SOL    HW135708   1.106   2.077   2.171  0.0610  0.7097 -0.3635
 8024SOL    HW235709   1.204   2.053   2.287 -0.1883 -0.1304 -0.9976
 8025SOL     OW35710   2.773   4.439   1.887  1.0208  0.0114  0.4360
 8025SOL    HW135711   2.838   4.450   1.818 -2.0672  2.7618 -2.0423
 8025SOL    HW235712   2.692   4.459   1.840  1.4494  0.0010 -0.3079
 8026SOL     OW35713   2.487   3.825  12.950 -0.0304 -0.1158 -0.1562
 8026SOL    HW135714   2.500   3.892  12.883  0.0842 -0.1978 -0.2141
 8026SOL    HW235715   2.485   3.890  13.020  1.9338 -1.5889  1.2498
 8027SOL     OW35716   2.833   3.101   8.709  0.5166  0.1000 -0.2574
 8027SOL    HW135717   2.797   3.031   8.763  0.4879 -0.1630 -0.6149
 8027SOL    HW235718   2.919   3.111   8.750  1.1146 -1.6379 -1.1112
 8028SOL     OW35719   0.648   2.700  16.046 -0.7814 -0.3954  0.5587
 8028SOL    HW135720   0.625   2.734  16.133 -2.6358 -1.2196  0.3832
 8028SOL    HW235721   0.625   2.774  15.990  1.3753  1.8034  2.5671
 8029SOL     OW35722   2.122   2.888   9.287 -1.0098 -0.6324 -0.2641
 8029SOL    HW135723   2.054   2.873   9.222 -2.3131  2.5810  0.3366
 8029SOL    HW235724   2.132   2.799   9.320 -0.1833  0.3880  2.2333
 8030SOL     OW35725   2.330   4.518  15.788 -0.1322  0.2133  0.6513
 8030SOL    HW135726   2.338   4.495  15.695  2.1877  0.8679  0.6789
 8030SOL    HW235727   2.269   4.591  15.781  0.2905  0.5821  0.7874
 8031SOL     OW35728   0.040   2.500  15.214 -0.0438 -1.4615  0.1161
 8031SOL    HW135729   4.733   2.512  15.299  0.5911  0.3950  0.1524
 8031SOL    HW235730   0.086   2.583  15.199 -0.8768 -0.6661  2.0011
 8032SOL     OW35731   0.611   3.482  17.607  0.2040 -0.0299  0.2537
 8032SOL    HW135732   0.537   3.535  17.576  1.6664  0.9758 -1.5271
 8032SOL    HW235733   0.654   3.535  17.674  1.2855  0.3139 -0.7145
 8033SOL     OW35734   1.725   0.344   5.936 -0.1635 -0.4093 -0.2530
 8033SOL    HW135735   1.682   0.274   5.887 -1.3996  2.6792 -3.5531
 8033SOL    HW235736   1.802   0.348   5.881  0.8290  1.7912  1.3058
 8034SOL     OW35737   1.621   3.664   0.076 -0.6033 -0.3078 -0.0295
 8034SOL    HW135738   1.636   3.570   0.090 -0.6669 -0.3316 -0.1200
 8034SOL    HW235739   1.566   3.671  17.735 -2.8827  0.1432  1.5978
 8035SOL     OW35740   2.109   0.507   5.283  0.1325  0.2066 -0.1943
 8035SOL    HW135741   2.143   0.419   5.265  0.2204  0.3230 -0.6007
 8035SOL    HW235742   2.047   0.485   5.353  4.3183  1.3401  3.9056
 8036SOL     OW35743   3.897   4.200   0.922  0.0336 -0.0553 -0.3174
 8036SOL    HW135744   3.809   4.162   0.923  0.5343 -1.2763 -2.0837
 8036SOL    HW235745   3.946   4.132   0.876  2.3934  0.5872  1.2622
 8037SOL     OW35746   3.303   4.527   2.138 -0.4951 -0.2059  0.4874
 8037SOL    HW135747   3.266   4.472   2.208 -0.3279 -0.9687 -0.0252
 8037SOL    HW235748   3.220   4.554   2.099 -1.2901  0.3141  2.4947
 8038SOL     OW35749   0.140   2.815   2.983  0.1602 -0.0310 -0.0323
 8038SOL    HW135750   0.057   2.768   2.993 -0.6179  1.2682 -0.3399
 8038SOL    HW235751   0.173   2.801   3.072  0.0506 -0.3078 -0.0350
 8039SOL     OW35752   3.581   3.102   7.454 -0.2247  0.2069  0.2157
 8039SOL    HW135753   3.581   3.145   7.539 -2.3282  0.5137  0.0649
 8039SOL    HW235754   3.639   3.028   7.472  1.9256  1.2967 -2.2382
 8040SOL     OW35755   1.807   1.353   5.655  0.6514 -0.0650  0.0931
 8040SOL    HW135756   1.799   1.271   5.607 -0.2913 -1.5376  2.7696
 8040SOL    HW235757   1.748   1.340   5.729 -2.5713  0.2785 -2.4559
 8041SOL     OW35758   1.691   3.539   9.588 -0.3543  0.2035  0.2733
 8041SOL    HW135759   1.602   3.522   9.558 -0.1244 -0.7804  0.1369
 8041SOL    HW235760   1.723   3.449   9.578  1.4212  0.8190  0.4733
 8042SOL     OW35761   0.595   0.183   7.107 -0.0283  0.0083  0.0174
 8042SOL    HW135762   0.580   0.246   7.037 -0.9696 -1.4098 -1.0727
 8042SOL    HW235763   0.556   0.233   7.179 -0.0922 -0.8208  0.5638
 8043SOL     OW35764   2.277   0.096  12.463  0.0032 -0.0199 -0.6433
 8043SOL    HW135765   2.222   0.066  12.390 -1.8797  0.4774  0.5780
 8043SOL    HW235766   2.253   0.053  12.545 -1.0203  2.1184  0.1648
 8044SOL     OW35767   1.120   4.707   6.972  0.3710  0.5491  0.1393
 8044SOL    HW135768   1.149   0.048   7.022  0.4057  1.0546 -0.6596
 8044SOL    HW235769   1.095   4.651   7.046 -0.9924 -0.5958 -1.1947
 8045SOL     OW35770   0.601   2.221   3.518 -0.2595 -0.1725  0.4642
 8045SOL    HW135771   0.554   2.300   3.490 -1.7660 -1.5381 -0.8615
 8045SOL    HW235772   0.619   2.175   3.436  0.7645 -0.2923  0.7473
 8046SOL     OW35773   2.547   3.151  10.438  0.0927  0.4120  0.0633
 8046SOL    HW135774   2.500   3.223  10.479  0.1183  1.4887 -1.8378
 8046SOL    HW235775   2.499   3.120  10.361 -1.0396  1.1848  0.4505
 8047SOL     OW35776   2.197   3.780   3.245 -0.2159  0.4804  0.3143
 8047SOL    HW135777   2.132   3.815   3.305  1.1594 -0.1764  2.1876
 8047SOL    HW235778   2.220   3.693   3.277 -2.4511 -0.9803 -1.9902
 8048SOL     OW35779   2.848   2.968  16.596 -0.2915  0.1475 -0.1220
 8048SOL    HW135780   2.895   2.891  16.629  1.6672  1.0652 -0.7834
 8048SOL    HW235781   2.758   2.947  16.622 -0.4475 -1.0161 -1.5891
 8049SOL     OW35782   3.761   3.294   8.455 -0.2641  0.1426  0.0427
 8049SOL    HW135783   3.726   3.239   8.385  0.4856  0.2128 -0.3897
 8049SOL    HW235784   3.836   3.247   8.492 -0.1703  0.4072  0.1902
 8050SOL     OW35785   0.537   2.820   4.859 -0.2315 -0.6031  0.1988
 8050SOL    HW135786   0.536   2.913   4.836  2.0822 -0.4237  0.7894
 8050SOL    HW235787   0.445   2.798   4.868  0.1382 -2.2221  0.0681
 8051SOL     OW35788   0.177   1.451   4.128 -0.4120  0.5054 -0.0326
 8051SOL    HW135789   0.117   1.419   4.061 -2.1325 -0.3820  1.9213
 8051SOL    HW235790   0.253   1.404   4.094 -0.9508 -0.4480  0.0576
 8052SOL     OW35791   4.000   2.804   0.503 -0.6356 -0.6225 -0.1127
 8052SOL    HW135792   4.039   2.871   0.560  0.2980  0.7356 -2.3405
 8052SOL    HW235793   3.974   2.729   0.557  1.6159 -0.0782  1.7284
 8053SOL     OW35794   1.792   0.987   6.187 -0.2859 -0.1654  0.3925
 8053SOL    HW135795   1.789   1.004   6.093 -2.7034  2.3045  0.9337
 8053SOL    HW235796   1.815   0.894   6.182  2.6627  0.5504  0.7176
 8054SOL     OW35797   4.653   0.169   2.453  0.1745 -0.1544  0.2021
 8054SOL    HW135798   4.597   0.246   2.456  2.5978  1.5774  0.8381
 8054SOL    HW235799   4.585   0.102   2.448 -0.6044  0.5680  1.0684
 8055SOL     OW35800   4.264   3.739   7.542 -0.2780 -0.1837  0.2162
 8055SOL    HW135801   4.263   3.835   7.549  0.9823 -0.2942  1.9085
 8055SOL    HW235802   4.177   3.740   7.502 -0.5248 -2.6408  0.6870
 8056SOL     OW35803   2.198   2.445   7.071  0.2190 -0.7055 -0.1418
 8056SOL    HW135804   2.288   2.456   7.040  0.4657  0.9207  1.1353
 8056SOL    HW235805   2.204   2.389   7.149 -1.0464  0.4151  0.7619
 8057SOL     OW35806   4.412   4.361  12.842 -0.0289 -0.3500  0.3636
 8057SOL    HW135807   4.493   4.310  12.836 -0.3698 -0.8541  0.1134
 8057SOL    HW235808   4.349   4.294  12.818 -0.1916  0.4857 -1.5794
 8058SOL     OW35809   2.797   0.808   4.238 -0.4733 -0.3609  0.0130
 8058SOL    HW135810   2.724   0.870   4.236 -0.5346 -0.4150  0.4769
 8058SOL    HW235811   2.849   0.841   4.165 -1.1450 -0.0094 -0.3089
 8059SOL     OW35812   4.286   1.332   9.890 -0.1019  0.4922 -0.2036
 8059SOL    HW135813   4.296   1.421   9.855  1.8609  1.1729  2.0872
 8059SOL    HW235814   4.258   1.359   9.978  1.6909  0.0850  0.4875
 8060SOL     OW35815   1.718   3.428   2.211 -0.0724 -0.3157 -0.1762
 8060SOL    HW135816   1.671   3.355   2.253  2.0544 -0.8796  1.2061
 8060SOL    HW235817   1.772   3.389   2.143  0.4873 -0.0520  0.1189
 8061SOL     OW35818   1.780   4.182   3.436  0.3708 -0.1426  0.3601
 8061SOL    HW135819   1.831   4.222   3.507  0.0127  1.1461 -0.1100
 8061SOL    HW235820   1.687   4.197   3.448 -0.0058 -0.0590 -2.6425
 8062SOL     OW35821   3.433   0.087   4.221  0.2520 -0.6049  0.8074
 8062SOL    HW135822   3.452   0.057   4.310  2.6952 -0.0692  0.4867
 8062SOL    HW235823   3.438   0.181   4.238  2.2955 -1.0269  2.7053
 8063SOL     OW35824   2.727   3.232   8.076  0.1376 -0.0089 -0.2848
 8063SOL    HW135825   2.812   3.210   8.115  1.1317  1.2644 -1.7163
 8063SOL    HW235826   2.730   3.183   7.994  1.6390 -3.4118  1.8032
 8064SOL     OW35827   1.007   2.812   5.534 -0.3823 -0.0471  0.5552
 8064SOL    HW135828   1.007   2.729   5.581  2.3058 -0.1231  0.4037
 8064SOL    HW235829   1.058   2.783   5.458  1.2474  0.5969  1.4094
 8065SOL     OW35830   1.583   1.084   2.886 -0.3666  0.2595  0.2297
 8065SOL    HW135831   1.556   1.161   2.936  1.3469  0.5705  0.7091
 8065SOL    HW235832   1.495   1.052   2.871  0.0513 -0.9994  0.4687
 8066SOL     OW35833   2.424   2.818   5.417  0.0436  0.2459  0.0811
 8066SOL    HW135834   2.392   2.758   5.485 -1.4763  0.8821 -0.0811
 8066SOL    HW235835   2.500   2.768   5.386  0.6814  1.4776 -0.3325
 8067SOL     OW35836   1.424   1.537   2.798  0.0142  0.4233 -0.6009
 8067SOL    HW135837   1.474   1.576   2.726 -0.4400  0.4411 -0.9056
 8067SOL    HW235838   1.470   1.577   2.872  0.4756 -1.8201  0.3395
 8068SOL     OW35839   2.456   2.352  11.692 -0.4974 -0.0266 -0.7803
 8068SOL    HW135840   2.444   2.258  11.703 -2.0483  0.3001  0.2655
 8068SOL    HW235841   2.518   2.354  11.619 -2.1201 -0.8182 -2.1847
 8069SOL     OW35842   3.736   2.974   3.813  0.4942  0.1947 -0.7717
 8069SOL    HW135843   3.829   2.971   3.837  0.2265 -1.5342  0.1341
 8069SOL    HW235844   3.742   3.025   3.732 -2.8283  1.7921  0.0047
 8070SOL     OW35845   2.762   3.868   2.360  0.3375 -0.5006 -0.0828
 8070SOL    HW135846   2.780   3.780   2.325  1.5725  0.0167 -0.7405
 8070SOL    HW235847   2.724   3.897   2.278  2.2553  1.5933 -0.2445
 8071SOL     OW35848   1.333   1.038   8.658  0.0622  0.5411 -0.3195
 8071SOL    HW135849   1.373   1.105   8.714 -0.7005 -1.1258  2.1998
 8071SOL    HW235850   1.398   1.044   8.589 -0.4010 -0.3098 -0.8249
 8072SOL     OW35851   1.148   4.074   6.005  0.4709  0.4276 -0.0800
 8072SOL    HW135852   1.080   4.140   5.990 -0.5605 -0.4702  0.5901
 8072SOL    HW235853   1.105   3.990   6.022  0.6712  0.0965 -1.1577
 8073SOL     OW35854   4.014   3.363   5.655  0.3834 -0.0064 -0.0272
 8073SOL    HW135855   3.953   3.370   5.728  2.7765 -1.0198  2.0746
 8073SOL    HW235856   3.974   3.407   5.581 -0.2899 -0.4405  0.0826
 8074SOL     OW35857   0.020   2.643   0.336 -0.1536 -0.3732  0.1100
 8074SOL    HW135858   4.684   2.639   0.271  0.1452 -0.3550 -0.2187
 8074SOL    HW235859   0.070   2.571   0.299 -0.4762 -1.0918  1.0769
 8075SOL     OW35860   1.733   3.299  14.933  1.1511  0.1549 -0.1604
 8075SOL    HW135861   1.726   3.377  14.878 -0.3325  0.9582  1.1294
 8075SOL    HW235862   1.827   3.295  14.948  0.9256 -0.7626  1.0531
 8076SOL     OW35863   1.209   4.372   6.156 -0.1251 -0.1005 -0.3141
 8076SOL    HW135864   1.292   4.401   6.195  0.8826 -1.7303 -1.2542
 8076SOL    HW235865   1.229   4.285   6.121 -0.1037  0.6083 -2.0337
 8077SOL     OW35866   0.190   3.398   3.627  0.4953 -0.0639 -0.3553
 8077SOL    HW135867   0.148   3.429   3.708 -0.4366 -2.1577 -0.0252
 8077SOL    HW235868   0.126   3.337   3.590 -0.5679  0.8627 -0.0323
 8078SOL     OW35869   1.593   2.015  14.098  0.6692  0.0737  0.3489
 8078SOL    HW135870   1.650   2.033  14.023  1.3070  0.8856  1.0355
 8078SOL    HW235871   1.508   2.005  14.054  0.1546  2.3815  0.8238
 8079SOL     OW35872   2.954   1.682   0.345  0.2089  0.2574 -0.1257
 8079SOL    HW135873   2.911   1.761   0.375 -2.7107  0.6183 -5.3090
 8079SOL    HW235874   2.991   1.718   0.265 -1.5795 -0.3774 -1.2258
 8080SOL     OW35875   3.873   3.980   0.354  0.2840  0.3853  0.2462
 8080SOL    HW135876   3.835   4.042   0.292 -0.5425 -0.1898  0.1744
 8080SOL    HW235877   3.804   3.929   0.395  1.3214  0.0434  1.5534
 8081SOL     OW35878   3.833   1.182   6.073  0.4541  0.0367  0.3479
 8081SOL    HW135879   3.759   1.242   6.064  0.0520 -0.5420 -0.1827
 8081SOL    HW235880   3.817   1.125   5.997  0.1536  0.9355 -0.2573
 8082SOL     OW35881   0.545   4.176   6.719 -0.2146  0.0103 -0.1108
 8082SOL    HW135882   0.638   4.196   6.704 -0.5083 -0.3713 -2.3943
 8082SOL    HW235883   0.533   4.218   6.804  2.1532 -0.3518  0.4112
 8083SOL     OW35884   0.243   2.567  17.112  0.1042 -0.1699 -0.0850
 8083SOL    HW135885   0.227   2.558  17.018  1.2359  0.9893 -0.3975
 8083SOL    HW235886   0.294   2.648  17.106  0.5990 -0.4544  0.3490
 8084SOL     OW35887   3.303   1.186  17.191  0.1077 -0.0609  0.3832
 8084SOL    HW135888   3.239   1.256  17.177  0.7247  0.2326 -0.9938
 8084SOL    HW235889   3.368   1.232  17.244  0.5732  0.0937 -0.3242
 8085SOL     OW35890   4.339   1.651   6.211  0.1397  0.0188  0.2835
 8085SOL    HW135891   4.425   1.665   6.173 -0.3431 -0.8352 -1.0972
 8085SOL    HW235892   4.293   1.734   6.200 -1.5387 -1.1718 -1.6647
 8086SOL     OW35893   2.322   0.659   8.969 -0.0703  0.3450  0.0239
 8086SOL    HW135894   2.332   0.691   8.880 -0.9764  0.9573  0.1398
 8086SOL    HW235895   2.396   0.598   8.969  0.5355  1.0875 -0.1584
 8087SOL     OW35896   0.329   0.763  15.971  0.4155 -0.3016  0.0620
 8087SOL    HW135897   0.399   0.716  15.927 -0.1907  0.4966 -1.7681
 8087SOL    HW235898   0.251   0.709  15.960  1.3328 -1.4587 -0.6267
 8088SOL     OW35899   2.344   2.371  13.271  0.3186 -0.0140  0.7871
 8088SOL    HW135900   2.332   2.454  13.317  1.2705 -0.7029  2.2571
 8088SOL    HW235901   2.390   2.402  13.193  0.7731  0.8216  1.3865
 8089SOL     OW35902   0.558   0.532   2.842 -0.3964  0.2816 -0.2423
 8089SOL    HW135903   0.628   0.526   2.777  1.6254 -1.4971  2.1030
 8089SOL    HW235904   0.614   0.527   2.920  0.4910 -0.8984 -0.9585
 8090SOL     OW35905   0.342   2.730   8.668 -0.3836 -0.1171  0.0557
 8090SOL    HW135906   0.348   2.794   8.739  0.9977  0.0574 -0.2237
 8090SOL    HW235907   0.321   2.642   8.700  3.0822 -1.0052 -0.1036
 8091SOL     OW35908   3.692   1.049   3.504  0.8786  0.3179 -0.8304
 8091SOL    HW135909   3.606   1.082   3.481  0.7054  0.3873 -0.0975
 8091SOL    HW235910   3.748   1.081   3.434  0.6455 -0.4928 -1.3847
 8092SOL     OW35911   1.513   3.929   4.681  0.4951  0.2863 -0.1148
 8092SOL    HW135912   1.569   3.985   4.627  0.2565  0.7479  0.1055
 8092SOL    HW235913   1.463   4.001   4.720 -1.4340 -2.3576  2.2725
 8093SOL     OW35914   4.598   2.958   0.843 -0.5251  0.1266  0.4884
 8093SOL    HW135915   4.629   3.041   0.878  0.4048  0.4006 -1.0012
 8093SOL    HW235916   4.507   2.962   0.873 -0.2564 -1.6639  1.5537
 8094SOL     OW35917   0.025   3.765   1.874 -0.6343  0.1971 -0.1541
 8094SOL    HW135918   0.111   3.748   1.912 -0.9291 -0.2115  0.3150
 8094SOL    HW235919   4.708   3.790   1.950 -1.2271 -0.4006 -0.3666
 8095SOL     OW35920   3.328   4.015   2.896  0.1420 -0.0453  0.1069
 8095SOL    HW135921   3.282   3.938   2.862  0.7118 -0.5998  0.5810
 8095SOL    HW235922   3.310   4.005   2.990  1.4067 -0.5162  0.2949
 8096SOL     OW35923   3.732   3.146   5.187  0.2614 -0.5125  0.2419
 8096SOL    HW135924   3.737   3.160   5.282  0.4362  1.4543 -0.0624
 8096SOL    HW235925   3.765   3.060   5.162 -0.3297 -0.2806 -1.3288
 8097SOL     OW35926   3.506   0.430   8.819 -0.1750 -0.1443 -0.0794
 8097SOL    HW135927   3.451   0.434   8.897  1.5380  0.8309  1.0941
 8097SOL    HW235928   3.440   0.446   8.752  0.8078  1.5407 -0.6400
 8098SOL     OW35929   2.050   1.941   1.992 -0.3322 -0.2669  0.7175
 8098SOL    HW135930   2.134   1.971   1.957  0.3510  0.2978  2.8606
 8098SOL    HW235931   2.010   1.921   1.907 -1.3237  2.8204  0.4458
 8099SOL     OW35932   3.106   0.554   2.662 -0.2230 -0.1655 -0.3732
 8099SOL    HW135933   3.182   0.548   2.719  0.1830  1.8254 -0.7018
 8099SOL    HW235934   3.039   0.587   2.721  1.1825  1.5094  0.3011
 8100SOL     OW35935   1.724   1.584   0.609 -0.5395  0.0468 -0.0339
 8100SOL    HW135936   1.641   1.565   0.565 -0.7083 -0.2097  0.4042
 8100SOL    HW235937   1.757   1.495   0.600 -0.8940  0.2485 -3.2449
 8101SOL     OW35938   2.641   1.517  16.542 -0.8535  0.6094  0.2719
 8101SOL    HW135939   2.664   1.425  16.537  1.5965  1.1979  0.6966
 8101SOL    HW235940   2.591   1.546  16.465 -2.2253 -1.3495  0.4189
 8102SOL     OW35941   1.185   2.313   9.234  0.2670  0.4324  0.3301
 8102SOL    HW135942   1.214   2.310   9.143  2.5727  2.4733  1.0155
 8102SOL    HW235943   1.156   2.404   9.234  0.2764  0.4148 -2.4244
 8103SOL     OW35944   4.167   0.358   2.394 -0.0586  0.7246  0.0133
 8103SOL    HW135945   4.088   0.312   2.365 -0.7583  1.2681  1.0463
 8103SOL    HW235946   4.219   0.282   2.419 -1.8899 -0.2128  0.9762
 8104SOL     OW35947   3.707   4.646   3.114  0.2495  0.1773 -0.2221
 8104SOL    HW135948   3.708   4.550   3.117  1.9423  0.2383  0.8059
 8104SOL    HW235949   3.802   4.649   3.110  0.4373 -1.0959  3.6697
 8105SOL     OW35950   3.463   0.674   3.318  0.1915 -0.4562  0.0731
 8105SOL    HW135951   3.511   0.735   3.374 -1.7974  1.5057 -0.3696
 8105SOL    HW235952   3.485   0.594   3.365 -0.7667 -0.8274 -0.1108
 8106SOL     OW35953   1.494   0.208  10.110 -0.5633 -0.1956 -0.1781
 8106SOL    HW135954   1.543   0.232  10.188 -1.1157 -0.5378  0.2798
 8106SOL    HW235955   1.405   0.225  10.141 -1.1081  1.4514 -2.6052
 8107SOL     OW35956   1.782   3.077   4.094 -0.4027 -0.0008  0.7777
 8107SOL    HW135957   1.701   3.026   4.106 -1.3235  1.0033 -1.1344
 8107SOL    HW235958   1.797   3.114   4.181  0.3584 -2.6392  1.7549
 8108SOL     OW35959   0.158   0.413   7.674 -0.3273  0.1968 -0.7706
 8108SOL    HW135960   0.081   0.385   7.725  0.5030 -0.1261  0.3026
 8108SOL    HW235961   0.190   0.323   7.666 -0.2906  0.1247  0.1294
 8109SOL     OW35962   1.655   0.303   4.963 -0.0509 -0.6546  0.0256
 8109SOL    HW135963   1.589   0.350   4.912 -2.1548 -0.0949  3.2681
 8109SOL    HW235964   1.609   0.223   4.988  0.3726 -0.9546 -0.1449
 8110SOL     OW35965   2.591   2.152   7.934  0.0194 -0.0745  0.1161
 8110SOL    HW135966   2.625   2.077   7.885  0.7211 -1.0594  2.1138
 8110SOL    HW235967   2.527   2.198   7.881 -1.0010  0.3306  1.6991
 8111SOL     OW35968   2.168   1.584   2.508 -0.6502 -0.0281 -0.7553
 8111SOL    HW135969   2.088   1.589   2.456  0.1685  1.9661 -1.8192
 8111SOL    HW235970   2.235   1.561   2.444  0.0419  0.6974 -0.2903
 8112SOL     OW35971   1.841   3.212   1.699 -0.2840  0.1839 -0.5198
 8112SOL    HW135972   1.793   3.289   1.730 -3.0199 -1.2844 -1.1113
 8112SOL    HW235973   1.767   3.151   1.699  0.2771 -0.4951 -2.6499
 8113SOL     OW35974   4.268   2.977  10.002 -0.3385 -0.6425  0.0587
 8113SOL    HW135975   4.354   2.973  10.044 -0.8047 -1.8299  0.8753
 8113SOL    HW235976   4.257   3.068   9.974 -1.1872 -0.5325  0.7533
 8114SOL     OW35977   0.557   3.568   1.755 -0.3927 -0.1239 -0.8023
 8114SOL    HW135978   0.585   3.573   1.847  1.1730  0.6100 -1.3108
 8114SOL    HW235979   0.467   3.600   1.756 -0.4470 -0.3012  0.8321
 8115SOL     OW35980   4.653   0.739   0.237  0.0038 -0.3669 -0.2038
 8115SOL    HW135981   4.699   0.665   0.197  0.1823 -0.6797  0.5724
 8115SOL    HW235982   4.727   0.800   0.235 -0.1999 -0.0488  1.7563
 8116SOL     OW35983   1.507   4.422  17.446  0.8233 -0.6182 -0.3573
 8116SOL    HW135984   1.429   4.419  17.391 -0.5913  0.9611  1.5563
 8116SOL    HW235985   1.568   4.441  17.374 -0.0280  0.3835 -0.8184
 8117SOL     OW35986   3.477   1.400   6.970 -0.3133 -0.3992 -0.1056
 8117SOL    HW135987   3.441   1.320   7.008  1.2978 -1.3715 -0.6251
 8117SOL    HW235988   3.402   1.458   6.986  0.1353  1.3106 -4.1702
 8118SOL     OW35989   0.278   0.643   4.645 -0.5697  0.2401 -0.5830
 8118SOL    HW135990   0.275   0.731   4.683  0.3087  0.6126 -1.3491
 8118SOL    HW235991   0.374   0.639   4.638 -0.5979 -2.6334  0.8327
 8119SOL     OW35992   2.828   1.523  12.203  0.2122  0.3782 -0.2611
 8119SOL    HW135993   2.872   1.489  12.281  0.3371 -0.5405 -0.7395
 8119SOL    HW235994   2.858   1.614  12.200  2.1847 -0.2013  1.4371
 8120SOL     OW35995   1.635   1.636   4.326  0.5851 -0.0624  0.1607
 8120SOL    HW135996   1.553   1.685   4.318 -0.1083 -1.5815 -1.8059
 8120SOL    HW235997   1.610   1.546   4.342  2.1799 -0.5199  0.1360
 8121SOL     OW35998   4.273   1.402   2.915 -0.3178 -1.0378 -0.5687
 8121SOL    HW135999   4.298   1.389   2.824  3.0489  0.7061  0.1168
 8121SOL    HW236000   4.308   1.318   2.946  2.0939  0.0886 -0.1939
 8122SOL     OW36001   1.257   3.430   5.155 -0.2867 -0.3170  0.5266
 8122SOL    HW136002   1.195   3.484   5.107 -1.7517 -0.7671  1.9168
 8122SOL    HW236003   1.221   3.454   5.240  0.2056 -2.2487  1.2929
 8123SOL     OW36004   2.313   2.359  15.979 -0.4007 -0.4515 -0.4000
 8123SOL    HW136005   2.394   2.404  15.957  0.3610 -0.6925  1.8956
 8123SOL    HW236006   2.341   2.273  16.011  1.7545 -0.1279 -1.4020
 8124SOL     OW36007   2.159   4.223  13.532  0.7178  0.2028 -0.0444
 8124SOL    HW136008   2.114   4.193  13.453  1.7147 -1.0827 -0.1254
 8124SOL    HW236009   2.225   4.154  13.531  0.0062 -0.4713 -1.5700
 8125SOL     OW36010   4.418   3.147   0.111  0.1868 -0.1387  0.0973
 8125SOL    HW136011   4.359   3.211   0.151 -0.3512  1.1452 -2.7421
 8125SOL    HW236012   4.506   3.176   0.134  1.2800 -2.8769 -0.6828
 8126SOL     OW36013   4.572   1.395   1.033 -1.0243 -0.4573  0.0671
 8126SOL    HW136014   4.617   1.416   0.951 -0.0178 -1.5301  0.3519
 8126SOL    HW236015   4.513   1.328   0.998  1.1432 -1.9174 -0.8285
 8127SOL     OW36016   4.499   2.340   1.908  0.4441 -0.3088  0.2006
 8127SOL    HW136017   4.521   2.304   1.822 -0.0075 -0.4340  0.1358
 8127SOL    HW236018   4.508   2.260   1.960  0.6204 -0.5079 -0.1380
 8128SOL     OW36019   2.266   1.059   6.176 -0.6385 -0.4848 -0.3930
 8128SOL    HW136020   2.233   1.065   6.086 -1.0641  2.1408 -0.0751
 8128SOL    HW236021   2.301   1.146   6.197  0.6196 -1.2577  0.7016
 8129SOL     OW36022   1.780   2.245   8.240  0.4415 -0.4208 -0.4078
 8129SOL    HW136023   1.711   2.181   8.228 -0.4400  0.4627 -0.1066
 8129SOL    HW236024   1.769   2.296   8.160  0.1534  0.0194 -0.0852
 8130SOL     OW36025   3.399   2.920  15.213 -0.3468 -0.2392  0.0449
 8130SOL    HW136026   3.329   2.863  15.180 -1.4730  1.7002 -0.8678
 8130SOL    HW236027   3.473   2.859  15.214 -0.2663 -0.1429 -0.3400
 8131SOL     OW36028   2.753   1.318   7.169 -0.1080 -0.0441 -0.0835
 8131SOL    HW136029   2.665   1.294   7.141  0.2799 -1.6519  0.0618
 8131SOL    HW236030   2.792   1.238   7.135 -0.5422 -0.1906 -0.2295
 8132SOL     OW36031   1.515   1.768  12.423  0.1691 -0.1961 -0.4886
 8132SOL    HW136032   1.476   1.780  12.510 -0.9919 -0.0692 -1.0244
 8132SOL    HW236033   1.440   1.788  12.366  0.4091  0.6998 -0.4819
 8133SOL     OW36034   0.886   1.178   4.344  0.5473 -0.3829 -0.0280
 8133SOL    HW136035   0.953   1.208   4.405 -2.2338  1.4572  2.1214
 8133SOL    HW236036   0.878   1.248   4.279 -0.1160 -0.3139  0.1272
 8134SOL     OW36037   0.994   1.280   7.299 -0.4144 -0.3904  0.2103
 8134SOL    HW136038   1.072   1.229   7.278  0.4345 -0.0451  2.5202
 8134SOL    HW236039   0.934   1.216   7.336  1.2863 -1.2266  1.5331
 8135SOL     OW36040   3.833   2.026  14.613 -0.8547 -0.0305  0.1342
 8135SOL    HW136041   3.805   2.112  14.582  1.4038 -0.0843 -2.0611
 8135SOL    HW236042   3.749   1.990  14.641  0.0823 -0.1333  2.8246
 8136SOL     OW36043   2.614   1.935   4.362  0.9327 -0.5211 -0.1457
 8136SOL    HW136044   2.525   1.919   4.392  1.2875 -2.0392  0.1472
 8136SOL    HW236045   2.595   1.986   4.283  0.8412  1.2254  1.0144
 8137SOL     OW36046   1.709   1.543   3.539 -0.1917 -0.2029  0.1157
 8137SOL    HW136047   1.802   1.567   3.537 -0.5994  1.2185 -2.0529
 8137SOL    HW236048   1.677   1.576   3.623  0.6228  0.4539  0.1713
 8138SOL     OW36049   0.933   3.690   6.150 -0.1378 -0.1574 -0.2399
 8138SOL    HW136050   0.965   3.717   6.064  2.9165 -4.7540 -0.5774
 8138SOL    HW236051   1.002   3.733   6.200  0.0392 -0.0906 -0.5390
 8139SOL     OW36052   2.388   4.119   8.488  0.5527  0.3926 -0.1949
 8139SOL    HW136053   2.354   4.163   8.566 -0.8605 -0.1486 -0.5078
 8139SOL    HW236054   2.376   4.178   8.414 -1.3034  0.2312 -0.0093
 8140SOL     OW36055   0.721   3.366   8.215  0.2179 -0.7358 -0.5196
 8140SOL    HW136056   0.763   3.282   8.238  1.6305 -0.4090 -1.8771
 8140SOL    HW236057   0.637   3.359   8.259  0.1946  0.6137 -0.3503
 8141SOL     OW36058   1.834   0.380   9.004  0.0190  0.0400 -0.3129
 8141SOL    HW136059   1.766   0.446   8.987  1.0416  1.4020  0.8734
 8141SOL    HW236060   1.819   0.326   8.926 -0.3218 -1.1267  0.5718
 8142SOL     OW36061   0.271   4.190   4.980  0.5413 -0.1627 -0.1399
 8142SOL    HW136062   0.357   4.180   4.938  0.7246  0.8673  0.0038
 8142SOL    HW236063   0.248   4.275   4.942  0.7178  0.4016  1.0192
 8143SOL     OW36064   4.638   4.583   8.283  0.5868 -0.5095  0.0214
 8143SOL    HW136065   4.551   4.620   8.299  1.0897  0.5770  0.2417
 8143SOL    HW236066   4.620   4.554   8.194 -0.9302 -0.6130  0.3690
 8144SOL     OW36067   4.288   3.484  12.668 -0.5423  0.2846 -0.4617
 8144SOL    HW136068   4.281   3.572  12.630 -0.0415 -0.1988 -1.6757
 8144SOL    HW236069   4.351   3.446  12.607 -0.6589 -0.5530 -0.0569
 8145SOL     OW36070   2.000   4.262   7.243  0.1858 -0.4116  0.6318
 8145SOL    HW136071   2.071   4.199   7.228 -0.3418 -1.3948  2.2664
 8145SOL    HW236072   1.957   4.262   7.158  0.0285  2.3190  0.7127
 8146SOL     OW36073   3.727   2.074   8.742 -0.2001  0.0126  0.4788
 8146SOL    HW136074   3.647   2.083   8.795  1.3583 -1.3682  3.0684
 8146SOL    HW236075   3.766   2.159   8.724  2.4155 -0.8348  2.1801
 8147SOL     OW36076   1.937   3.406  12.908 -0.1148  0.0119  0.1219
 8147SOL    HW136077   2.013   3.408  12.850 -0.5833  3.4721 -0.3541
 8147SOL    HW236078   1.918   3.313  12.925  1.5601 -0.0149  1.8092
 8148SOL     OW36079   0.816   3.344   6.641 -0.2364  0.1461 -0.7220
 8148SOL    HW136080   0.893   3.293   6.665 -1.5819 -2.4797 -1.9878
 8148SOL    HW236081   0.857   3.430   6.628 -1.8083  1.1958  1.1741
 8149SOL     OW36082   1.738   2.233  17.709  0.1681 -0.1364  0.0841
 8149SOL    HW136083   1.782   2.234   0.056  1.4487  3.3731 -0.5943
 8149SOL    HW236084   1.662   2.283  17.738  1.3532  2.2483 -0.8479
 8150SOL     OW36085   0.382   3.200   7.047 -0.8904  0.1834 -0.0417
 8150SOL    HW136086   0.444   3.231   6.980  0.1453 -4.6416 -1.3267
 8150SOL    HW236087   0.338   3.281   7.072 -0.8613 -0.3219  1.6052
 8151SOL     OW36088   3.474   0.702   4.735 -0.8734 -0.5182 -0.0644
 8151SOL    HW136089   3.398   0.650   4.763 -1.8702  0.4973 -0.8799
 8151SOL    HW236090   3.540   0.642   4.769  0.6771  1.5824  0.6083
 8152SOL     OW36091   3.284   4.641   9.281 -0.4792 -0.3396  0.5421
 8152SOL    HW136092   3.191   4.641   9.303 -0.4399 -0.6735  0.7104
 8152SOL    HW236093   3.298   0.000   9.267 -1.7299 -0.4310 -1.3808
 8153SOL     OW36094   2.473   2.529   3.269 -0.0137  0.0914 -0.0081
 8153SOL    HW136095   2.557   2.484   3.283  0.6706  0.5376 -2.5421
 8153SOL    HW236096   2.491   2.562   3.180 -1.1237  2.9531  0.8367
 8154SOL     OW36097   2.947   3.263   3.722  0.3249  0.0494  0.2167
 8154SOL    HW136098   2.981   3.213   3.648  1.9209  2.8501 -0.9659
 8154SOL    HW236099   2.888   3.204   3.769 -0.6304  0.5470 -0.3573
 8155SOL     OW36100   2.003   0.914  14.181 -0.1065  0.1335 -0.1640
 8155SOL    HW136101   2.044   0.870  14.256 -0.1636 -0.0249 -0.2284
 8155SOL    HW236102   2.006   0.850  14.110  1.0185  2.4575 -2.2253
 8156SOL     OW36103   4.201   1.378   1.712 -0.2889  0.0437 -0.4208
 8156SOL    HW136104   4.221   1.412   1.799 -2.1020 -0.2312  0.1001
 8156SOL    HW236105   4.184   1.461   1.666  1.0395 -0.3614 -1.6336
 8157SOL     OW36106   4.247   4.699   3.747 -0.1924 -0.3467 -0.1409
 8157SOL    HW136107   4.158   4.701   3.782  0.1782  1.2627  0.7107
 8157SOL    HW236108   4.290   0.039   3.790 -2.3296  0.0332  1.3439
 8158SOL     OW36109   1.409   0.866   9.264 -0.5103 -0.1992 -0.7067
 8158SOL    HW136110   1.355   0.944   9.282  1.4127  1.0324 -0.2850
 8158SOL    HW236111   1.336   0.806   9.249 -0.1044 -0.5640 -1.2100
 8159SOL     OW36112   1.804   1.940   4.449  0.3520 -0.8508  0.2606
 8159SOL    HW136113   1.779   1.876   4.517 -0.0467 -0.7151  0.2456
 8159SOL    HW236114   1.831   1.874   4.385 -0.4717 -1.6112  0.6820
 8160SOL     OW36115   1.605   4.529   7.051  0.0067  0.2536  0.2263
 8160SOL    HW136116   1.665   4.568   7.114 -1.4390 -2.7648  3.4869
 8160SOL    HW236117   1.629   4.586   6.978  0.8890  0.4509  0.6704
 8161SOL     OW36118   4.508   1.814   6.961  0.1122 -0.1755 -0.4530
 8161SOL    HW136119   4.440   1.861   7.009 -0.4089  0.5659 -1.9508
 8161SOL    HW236120   4.544   1.892   6.919  0.1855  0.0044 -0.0589
 8162SOL     OW36121   1.327   4.286   5.535 -0.0464 -0.1563 -0.5034
 8162SOL    HW136122   1.355   4.204   5.575 -0.0054  1.2192  2.2716
 8162SOL    HW236123   1.320   4.264   5.442 -0.1923 -1.6508 -0.1261
 8163SOL     OW36124   4.073   1.113   4.154 -0.2375 -0.2744  0.1978
 8163SOL    HW136125   4.034   1.125   4.241 -0.2728  0.9190  0.0138
 8163SOL    HW236126   4.132   1.188   4.154  0.6173 -0.9652 -2.3412
 8164SOL     OW36127   1.437   4.041   5.966  0.2822  0.0047 -0.0169
 8164SOL    HW136128   1.448   4.040   5.871 -0.5831  0.8235 -0.1250
 8164SOL    HW236129   1.347   4.072   5.974  0.2629 -0.3389  1.0540
 8165SOL     OW36130   2.181   0.935   0.489 -0.0968 -0.0570 -0.0548
 8165SOL    HW136131   2.107   0.971   0.439  0.4542  0.2546 -0.6515
 8165SOL    HW236132   2.182   0.986   0.570  2.6792  0.4721 -0.4139
 8166SOL     OW36133   3.185   2.252   0.846  0.3153  0.1267 -0.1241
 8166SOL    HW136134   3.235   2.227   0.924  0.4856  0.4796 -0.1222
 8166SOL    HW236135   3.136   2.329   0.876  1.3224  0.8955 -0.4624
 8167SOL     OW36136   2.342   2.327   6.007 -0.1267  0.3024 -0.4957
 8167SOL    HW136137   2.416   2.382   5.982  0.3228  0.5066  1.2596
 8167SOL    HW236138   2.317   2.300   5.919 -1.0637 -0.0634 -0.1214
 8168SOL     OW36139   2.600   0.557   8.522 -0.1489 -0.4670 -0.0982
 8168SOL    HW136140   2.660   0.596   8.586  1.0931  0.5214 -1.8916
 8168SOL    HW236141   2.654   0.576   8.446  1.4318  1.9754  1.6503
 8169SOL     OW36142   4.064   2.323  15.579  0.4568 -0.2624  0.0662
 8169SOL    HW136143   3.989   2.337  15.636 -0.8691 -2.4192 -1.1471
 8169SOL    HW236144   4.121   2.392  15.612 -1.3247 -0.2758  3.1695
 8170SOL     OW36145   2.822   3.484   7.968 -0.1901  0.2169  0.1893
 8170SOL    HW136146   2.798   3.473   7.876 -1.9173 -1.6285  0.8340
 8170SOL    HW236147   2.757   3.427   8.010  0.1542 -1.1566 -1.1520
 8171SOL     OW36148   2.248   3.781   9.276 -0.6628 -0.3947 -0.2877
 8171SOL    HW136149   2.187   3.828   9.218 -1.6096 -1.3704 -0.0889
 8171SOL    HW236150   2.267   3.855   9.334 -0.0184 -1.3377  0.6701
 8172SOL     OW36151   2.957   1.139   2.930  0.1354 -0.0429 -0.2113
 8172SOL    HW136152   3.048   1.162   2.950 -0.1503  1.5462 -0.7389
 8172SOL    HW236153   2.974   1.060   2.879  0.1422 -0.9418  1.1784
 8173SOL     OW36154   4.406   4.294   3.855 -0.0166  0.1422  0.3714
 8173SOL    HW136155   4.412   4.200   3.873  1.0998  0.2870  0.7371
 8173SOL    HW236156   4.366   4.329   3.934  0.6133 -2.1350  1.6740
 8174SOL     OW36157   1.714   3.753   4.938  0.3327 -0.0294  1.1029
 8174SOL    HW136158   1.672   3.822   4.991 -1.0178  0.4987 -0.6810
 8174SOL    HW236159   1.643   3.716   4.886  0.9143  1.2603 -0.5887
 8175SOL     OW36160   4.561   3.385   8.825 -0.3754 -0.1383  0.8518
 8175SOL    HW136161   4.493   3.452   8.814  1.3636  1.9273  2.6909
 8175SOL    HW236162   4.623   3.427   8.765 -1.1291  0.8144  0.7318
 8176SOL     OW36163   4.271   2.911   4.153 -0.2173  0.8408 -0.5991
 8176SOL    HW136164   4.202   2.899   4.218  0.8173  2.9007  0.8827
 8176SOL    HW236165   4.291   2.818   4.143  0.7512  0.8117  1.5376
 8177SOL     OW36166   3.486   3.798   8.782 -0.0084  0.6970 -0.3400
 8177SOL    HW136167   3.504   3.704   8.778  0.3410  0.6086  2.6845
 8177SOL    HW236168   3.444   3.803   8.696  0.0392 -2.5055 -0.5332
 8178SOL     OW36169   3.462   2.397   6.213 -0.6222 -0.1165  0.3401
 8178SOL    HW136170   3.537   2.337   6.209 -0.1447  0.6030 -1.1968
 8178SOL    HW236171   3.414   2.368   6.291 -0.0981 -2.6281 -0.2546
 8179SOL     OW36172   3.230   3.390  12.315  0.3222 -0.3897  0.2449
 8179SOL    HW136173   3.300   3.354  12.369  0.5864  0.1040  0.2352
 8179SOL    HW236174   3.242   3.346  12.231  1.6386 -3.6208  2.1273
 8180SOL     OW36175   3.846   1.341   5.381 -0.3270  0.0452  0.0404
 8180SOL    HW136176   3.846   1.308   5.471  2.5158  1.3564  0.5242
 8180SOL    HW236177   3.776   1.287   5.345  0.8485 -1.7175  0.4012
 8181SOL     OW36178   2.571   4.043  14.421 -0.7396  0.1845  0.4886
 8181SOL    HW136179   2.506   4.031  14.352  0.3810  1.3517 -0.7560
 8181SOL    HW236180   2.656   4.016  14.387 -0.8403 -1.2309  1.3678
 8182SOL     OW36181   2.917   0.567   9.239 -0.0195 -0.3623 -0.1259
 8182SOL    HW136182   2.832   0.550   9.280 -0.3895  0.8561 -0.4019
 8182SOL    HW236183   2.969   0.487   9.248 -1.5166 -1.2656  0.5091
 8183SOL     OW36184   3.633   4.384   2.535  0.1199  0.1140  0.4127
 8183SOL    HW136185   3.609   4.292   2.523  0.1455  0.3894 -1.6953
 8183SOL    HW236186   3.661   4.380   2.626  0.8831 -1.5747  0.0970
 8184SOL     OW36187   1.885   2.071   9.295  0.1767  0.1516  0.0294
 8184SOL    HW136188   1.830   2.122   9.355 -0.2648  0.0681 -0.2997
 8184SOL    HW236189   1.823   2.084   9.223  0.4649  1.4545  0.0062
 8185SOL     OW36190   2.286   4.661   3.401  0.5988 -1.1232 -0.1345
 8185SOL    HW136191   2.201   4.698   3.378  1.9976  2.2294  0.1806
 8185SOL    HW236192   2.266   4.569   3.419 -1.0892 -0.1068  3.2557
 8186SOL     OW36193   1.085   4.373  11.739 -0.0916 -0.4249  0.4033
 8186SOL    HW136194   1.039   4.301  11.694 -1.1982  0.4380  0.1544
 8186SOL    HW236195   1.018   4.441  11.731  0.6355  0.1633 -0.6614
 8187SOL     OW36196   3.883   1.864   4.406 -0.4920 -0.5782  0.2928
 8187SOL    HW136197   3.795   1.900   4.397 -0.0927 -0.2901 -2.4591
 8187SOL    HW236198   3.878   1.788   4.349 -1.2488  0.7567 -1.4121
 8188SOL     OW36199   3.173   0.716   4.579  0.0536 -0.6042 -0.7580
 8188SOL    HW136200   3.113   0.686   4.647 -1.1030 -1.2802 -2.0772
 8188SOL    HW236201   3.183   0.808   4.602 -1.4445 -0.7214  0.3686
 8189SOL     OW36202   3.995   0.007   7.377  0.3881 -0.0475  0.0085
 8189SOL    HW136203   4.039   4.717   7.296  0.1119  1.8094 -0.6892
 8189SOL    HW236204   4.045   0.082   7.410 -1.2142  0.4447  1.3590
 8190SOL     OW36205   2.249   2.911   2.886  0.5441  0.3570 -0.6395
 8190SOL    HW136206   2.320   2.854   2.915 -0.9604 -1.2195 -0.0431
 8190SOL    HW236207   2.290   2.931   2.802 -0.4029  0.7185 -1.0108
 8191SOL     OW36208   0.374   4.576  16.575  0.0968  0.0408  0.3592
 8191SOL    HW136209   0.317   4.599  16.649 -0.8452 -0.1126 -0.3147
 8191SOL    HW236210   0.452   4.628  16.595 -2.1765  2.7844  2.1554
 8192SOL     OW36211   1.175   4.049  11.873  0.0728 -0.0205 -0.3329
 8192SOL    HW136212   1.261   4.022  11.839 -0.2029  1.5664 -2.2916
 8192SOL    HW236213   1.148   3.972  11.924  0.3101  1.6568  2.3092
 8193SOL     OW36214   2.988   4.572   4.319 -0.8435 -0.0076 -0.2619
 8193SOL    HW136215   3.079   4.551   4.298 -0.2361  1.8566  0.5234
 8193SOL    HW236216   2.939   4.539   4.243 -0.6122  0.5302 -0.6479
 8194SOL     OW36217   0.493   1.058  16.427  0.3392 -0.8319  0.6201
 8194SOL    HW136218   0.585   1.082  16.416 -1.1039  3.1312 -2.4833
 8194SOL    HW236219   0.493   0.981  16.371 -2.1823 -0.3510 -0.0067
 8195SOL     OW36220   4.178   3.822   6.831  0.1254  0.2925  0.1375
 8195SOL    HW136221   4.161   3.891   6.895  1.0948 -0.4746  1.2129
 8195SOL    HW236222   4.273   3.816   6.835  0.1305  0.8788  0.8475
 8196SOL     OW36223   4.379   2.660   7.740 -0.6905 -0.1165  0.3383
 8196SOL    HW136224   4.421   2.584   7.779 -1.6760 -1.5563 -1.4117
 8196SOL    HW236225   4.442   2.727   7.766  0.5983 -0.9916 -0.5363
 8197SOL     OW36226   4.715   2.392  17.535 -0.5309 -0.1138  0.1746
 8197SOL    HW136227   0.021   2.406  17.620 -1.0546 -0.5647  0.4968
 8197SOL    HW236228   0.006   2.475  17.493  0.8019 -0.5174  0.2039
 8198SOL     OW36229   2.325   4.101   5.572  0.1781 -0.2817  0.0540
 8198SOL    HW136230   2.312   4.150   5.490 -0.2796 -0.2329  0.1554
 8198SOL    HW236231   2.418   4.083   5.560  0.1817  1.2436 -2.1948
 8199SOL     OW36232   2.105   3.848   5.078 -0.3263  0.9431  0.3457
 8199SOL    HW136233   2.070   3.798   5.152  0.6876 -2.0360 -1.1833
 8199SOL    HW236234   2.174   3.786   5.056 -0.8017  1.0542 -1.4294
 8200SOL     OW36235   2.716   1.252   2.385 -0.6066  0.1348 -0.3646
 8200SOL    HW136236   2.667   1.250   2.303 -0.3108  0.7873 -0.5600
 8200SOL    HW236237   2.807   1.269   2.361 -0.1993  1.1153  1.8831
 8201SOL     OW36238   3.482   1.711   1.633  0.2234  0.2566 -0.3457
 8201SOL    HW136239   3.433   1.743   1.557 -0.2031 -1.5317 -0.8348
 8201SOL    HW236240   3.553   1.775   1.635  0.8753 -0.4820  0.4914
 8202SOL     OW36241   3.591   1.861   8.618 -0.4665  0.3189  0.2814
 8202SOL    HW136242   3.621   1.776   8.651 -1.9796  0.4013  1.8624
 8202SOL    HW236243   3.674   1.902   8.641 -0.7991  0.5637  1.0474
 8203SOL     OW36244   1.692   3.726  15.045  0.3952 -0.5810 -0.4460
 8203SOL    HW136245   1.761   3.791  15.035 -0.9335  0.9984  0.7115
 8203SOL    HW236246   1.654   3.740  14.959 -0.9549 -1.4422  0.0054
 8204SOL     OW36247   3.859   2.311   5.103  0.3490  0.4374  0.0255
 8204SOL    HW136248   3.865   2.382   5.039 -2.1029  1.4189  0.8729
 8204SOL    HW236249   3.843   2.235   5.047  0.0949  0.7131 -0.2809
 8205SOL     OW36250   1.694   3.505  14.767 -0.2236  0.1993 -0.4061
 8205SOL    HW136251   1.656   3.593  14.768 -3.4214 -1.1642 -2.4369
 8205SOL    HW236252   1.776   3.531  14.725 -0.3306  0.4115 -0.4840
 8206SOL     OW36253   1.446   1.048   8.962 -0.4540 -0.1822 -0.0086
 8206SOL    HW136254   1.375   0.983   8.960  0.0757 -0.6893 -2.6989
 8206SOL    HW236255   1.409   1.126   8.920 -1.0188 -0.1612  0.5303
 8207SOL     OW36256   0.949   2.974   2.458 -0.5862  0.1870 -0.3761
 8207SOL    HW136257   0.921   3.032   2.387 -3.8439 -1.0303 -0.0495
 8207SOL    HW236258   0.957   2.893   2.409  2.5387  1.2176 -1.6055
 8208SOL     OW36259   0.243   0.832   1.201  0.1453  0.5030 -0.0360
 8208SOL    HW136260   0.189   0.766   1.157  1.6053 -0.5905 -0.2050
 8208SOL    HW236261   0.240   0.795   1.289  0.2033  0.8811  0.1269
 8209SOL     OW36262   3.562   1.061   7.098  0.5950 -0.8981  0.1223
 8209SOL    HW136263   3.573   1.059   7.193 -0.8475 -4.1348  0.2036
 8209SOL    HW236264   3.489   1.122   7.103  0.5549 -0.9455  0.1176
 8210SOL     OW36265   3.201   2.889  16.175  0.0596 -0.1995  0.2008
 8210SOL    HW136266   3.108   2.889  16.199  0.7685 -0.5138  2.9974
 8210SOL    HW236267   3.243   2.849  16.251  3.7480 -0.7599 -2.1435
 8211SOL     OW36268   1.953   4.578   6.810  0.0531  0.2437 -0.2617
 8211SOL    HW136269   1.985   4.601   6.723 -0.6954  1.8243 -0.1186
 8211SOL    HW236270   1.957   4.654   6.869 -1.2443 -0.0782  0.2446
 8212SOL     OW36271   4.714   4.419   3.123 -0.4653  0.1803 -0.3957
 8212SOL    HW136272   0.025   4.477   3.062  0.4824 -2.5381 -2.2407
 8212SOL    HW236273   4.675   4.357   3.061  0.1541 -1.5829  0.9715
 8213SOL     OW36274   2.115   3.297  13.786 -0.1838 -0.0258  0.1640
 8213SOL    HW136275   2.165   3.294  13.868 -0.3767 -2.8385  0.1689
 8213SOL    HW236276   2.182   3.299  13.718  0.1348 -0.2378  0.4697
 8214SOL     OW36277   3.351   0.577   2.822  0.0762  0.0137 -0.4586
 8214SOL    HW136278   3.366   0.613   2.909  0.4297 -0.8287 -0.1711
 8214SOL    HW236279   3.374   0.648   2.763  1.0314  0.9485  1.0562
 8215SOL     OW36280   1.908   1.967   0.153  0.2761 -0.5266 -0.5758
 8215SOL    HW136281   1.952   1.939   0.234 -0.6694  2.0516  0.8216
 8215SOL    HW236282   1.859   2.040   0.191  1.2059 -0.2691  0.1387
 8216SOL     OW36283   0.477   3.926   0.054 -0.1580  0.1427  0.6736
 8216SOL    HW136284   0.494   3.867   0.127  0.6232 -1.7711 -1.0639
 8216SOL    HW236285   0.565   3.921   0.017 -0.0140 -0.6706  1.1257
 8217SOL     OW36286   2.671   1.500   8.072 -0.1518  0.3981  0.1292
 8217SOL    HW136287   2.605   1.497   8.142  1.2114 -0.4849  1.3791
 8217SOL    HW236288   2.693   1.593   8.069 -2.5079  0.9046 -1.7162
 8218SOL     OW36289   3.845   3.586   4.129 -0.1629  0.6674 -0.4943
 8218SOL    HW136290   3.757   3.555   4.152  0.5574 -0.9331  0.1198
 8218SOL    HW236291   3.824   3.653   4.065  0.3487 -0.0089 -1.3645
 8219SOL     OW36292   4.518   0.523   7.255  0.2388  0.0755 -0.3288
 8219SOL    HW136293   4.521   0.480   7.341  0.0362  0.0243 -0.3482
 8219SOL    HW236294   4.497   0.609   7.289  0.7633 -0.0895  0.4181
 8220SOL     OW36295   4.505   3.546  10.924 -0.3769 -0.2452  0.0665
 8220SOL    HW136296   4.421   3.572  10.887 -0.4702  0.0630  0.4870
 8220SOL    HW236297   4.557   3.627  10.922 -0.5846 -0.1302 -0.5060
 8221SOL     OW36298   0.461   1.011   5.725 -0.4145  0.1868 -0.2446
 8221SOL    HW136299   0.388   1.003   5.664 -0.3615 -0.6239 -0.2040
 8221SOL    HW236300   0.530   0.961   5.681 -1.9659 -0.0486 -2.4233
 8222SOL     OW36301   4.289   1.819   0.282 -0.1895  0.0724 -0.8290
 8222SOL    HW136302   4.272   1.732   0.245 -2.3404  0.5147 -0.9215
 8222SOL    HW236303   4.374   1.845   0.248  0.1460  0.0449 -0.0121
 8223SOL     OW36304   2.758   1.208   1.909  0.3570  0.1152  0.9357
 8223SOL    HW136305   2.816   1.133   1.915  0.6007  0.1221 -1.3806
 8223SOL    HW236306   2.675   1.177   1.947  1.1191 -0.2428  2.3214
 8224SOL     OW36307   3.382   1.718   4.036  0.3817  0.0052  0.2461
 8224SOL    HW136308   3.334   1.635   4.034 -0.6348  0.5914  0.3856
 8224SOL    HW236309   3.306   1.776   4.031  0.8539  0.5650 -0.4573
 8225SOL     OW36310   2.600   1.841   8.735  0.5057  0.4268  0.1299
 8225SOL    HW136311   2.595   1.755   8.778 -0.3415  0.6510  0.4935
 8225SOL    HW236312   2.541   1.895   8.787  1.1339 -0.2375  1.5466
 8226SOL     OW36313   1.776   3.119   2.435  0.1791  0.3678  0.2416
 8226SOL    HW136314   1.680   3.111   2.439  0.2685  1.1780  4.4716
 8226SOL    HW236315   1.791   3.106   2.342 -1.1468  0.1786  0.0521
 8227SOL     OW36316   2.057   0.068   4.923 -0.1712 -0.5176 -0.0098
 8227SOL    HW136317   2.004   0.063   5.003 -2.0642 -1.1305 -1.3132
 8227SOL    HW236318   2.140   0.098   4.961 -0.2931 -0.4862  0.2362
 8228SOL     OW36319   2.935   0.327   3.800 -0.1237  0.2382 -0.0068
 8228SOL    HW136320   2.962   0.249   3.752 -0.2509  0.6924 -0.8326
 8228SOL    HW236321   2.872   0.293   3.863 -0.4026  0.8251  0.0326
 8229SOL     OW36322   0.991   0.031   0.172 -0.0044 -0.0936 -0.3475
 8229SOL    HW136323   0.943   0.032   0.090 -0.7753  0.2742  0.1039
 8229SOL    HW236324   0.987   0.123   0.199 -0.1397  0.1423 -1.1753
 8230SOL     OW36325   0.394   3.312   6.091 -0.1700  0.6203 -0.2496
 8230SOL    HW136326   0.436   3.232   6.058  0.0215  0.8339 -0.5245
 8230SOL    HW236327   0.318   3.281   6.141 -1.0260 -1.8449 -3.0955
 8231SOL     OW36328   3.748   2.628  11.368 -0.3970 -0.5243 -0.4162
 8231SOL    HW136329   3.781   2.675  11.291 -2.3548 -0.3271 -1.1495
 8231SOL    HW236330   3.653   2.633  11.353 -0.5571 -1.4897  0.2855
 8232SOL     OW36331   3.799   4.507   4.608  0.0609 -0.4955  0.1298
 8232SOL    HW136332   3.809   4.601   4.627 -3.2953  0.4913 -2.9755
 8232SOL    HW236333   3.829   4.469   4.691 -0.7627  0.3336  0.8072
 8233SOL     OW36334   3.576   1.923  14.342  0.0349  0.5980  0.2161
 8233SOL    HW136335   3.547   1.932  14.251 -1.6494  0.6630  0.7654
 8233SOL    HW236336   3.563   2.011  14.376 -1.5306 -0.2560  1.8172
 8234SOL     OW36337   0.179   1.602   3.394  0.7522  0.1160 -0.6435
 8234SOL    HW136338   0.201   1.509   3.389  1.2396  0.1413  1.3503
 8234SOL    HW236339   0.099   1.599   3.446  1.0270 -0.9326 -0.2761
 8235SOL     OW36340   3.058   0.084   2.983 -0.6650 -0.0404 -0.3287
 8235SOL    HW136341   3.138   0.045   2.950 -0.4356 -0.0048  0.1832
 8235SOL    HW236342   3.062   0.178   2.966  0.0832  0.1309  0.7690
 8236SOL     OW36343   3.952   2.864   5.494  0.0169  0.1686 -0.0571
 8236SOL    HW136344   3.988   2.809   5.564 -1.4257 -0.4903  0.1780
 8236SOL    HW236345   3.972   2.957   5.508 -2.0763  0.3576  1.7625
 8237SOL     OW36346   2.799   3.596   1.420 -0.0044  0.2704  0.4769
 8237SOL    HW136347   2.833   3.512   1.389 -0.9578 -0.7658  2.2065
 8237SOL    HW236348   2.740   3.620   1.349  2.6977  0.0348 -1.8561
 8238SOL     OW36349   3.258   1.731   8.216  0.2171  0.4586  0.0616
 8238SOL    HW136350   3.256   1.696   8.127 -3.7180 -0.2447  0.4028
 8238SOL    HW236351   3.335   1.788   8.217 -0.1857  0.9907  1.6907
 8239SOL     OW36352   4.524   1.637   3.280 -0.2067  0.3431  0.3458
 8239SOL    HW136353   4.559   1.726   3.293 -1.5570  0.7800  1.0140
 8239SOL    HW236354   4.471   1.648   3.201 -1.7102 -2.6299  0.9512
 8240SOL     OW36355   0.383   3.330   8.956 -0.0566  0.2971  0.0676
 8240SOL    HW136356   0.330   3.372   8.889 -0.7367 -0.3785  0.1837
 8240SOL    HW236357   0.473   3.338   8.924  0.0743  1.2511  0.6877
 8241SOL     OW36358   1.203   1.036   6.863 -0.0538 -0.2860 -0.2011
 8241SOL    HW136359   1.132   0.974   6.851  1.1141 -1.6804  0.1307
 8241SOL    HW236360   1.170   1.071   6.946 -0.8553  0.1759 -0.7137
 8242SOL     OW36361   0.334   1.939   8.293  0.1028  0.0092 -0.3024
 8242SOL    HW136362   0.334   1.992   8.213  1.8494 -0.3180 -0.5111
 8242SOL    HW236363   0.421   1.958   8.326 -0.2735 -2.2981  1.9866
 8243SOL     OW36364   4.068   3.656  11.832  0.4173  0.5022  0.1696
 8243SOL    HW136365   3.995   3.647  11.893 -0.0649  3.4250  0.0311
 8243SOL    HW236366   4.137   3.643  11.897  2.1887 -1.7953 -2.1756
 8244SOL     OW36367   3.600   0.422  10.030  0.0165 -0.5119  0.6212
 8244SOL    HW136368   3.665   0.492  10.025  0.1081 -0.7979 -2.3392
 8244SOL    HW236369   3.647   0.364   9.971 -0.9997  1.2176 -1.9066
 8245SOL     OW36370   2.155   3.474   9.603 -0.3446  0.1672  0.2145
 8245SOL    HW136371   2.132   3.385   9.579  0.5161 -0.1828  0.7034
 8245SOL    HW236372   2.144   3.513   9.516  1.4907  0.4279  0.0897
 8246SOL     OW36373   3.926   2.121   3.177 -0.0420  0.7644 -0.3735
 8246SOL    HW136374   3.948   2.072   3.098  2.0524 -0.1581  0.7408
 8246SOL    HW236375   3.966   2.205   3.157  0.7030 -0.0816 -2.4579
 8247SOL     OW36376   3.422   3.697   2.425  0.2344  0.6743  0.0849
 8247SOL    HW136377   3.377   3.656   2.351 -0.7617  1.5601  0.2049
 8247SOL    HW236378   3.502   3.645   2.440  0.5815  1.3186  0.4423
 8248SOL     OW36379   0.949   2.625   2.117  0.2213  0.4385 -0.3837
 8248SOL    HW136380   1.022   2.577   2.079  0.0218 -0.9796  1.0213
 8248SOL    HW236381   0.898   2.554   2.155 -2.6751  2.1985 -0.9675
 8249SOL     OW36382   4.171   1.584   9.030  0.3718 -0.0976 -0.0038
 8249SOL    HW136383   4.089   1.537   9.014  1.2946 -1.9423  0.6759
 8249SOL    HW236384   4.208   1.527   9.097  1.5388 -0.9341 -1.3627
 8250SOL     OW36385   1.744   0.561   5.736  0.3038  1.1346 -0.6116
 8250SOL    HW136386   1.723   0.569   5.829 -0.1761  0.7831 -0.6883
 8250SOL    HW236387   1.655   0.543   5.707 -0.0729 -0.6435  1.5913
 8251SOL     OW36388   0.428   0.148  17.476  0.2531 -0.0310  0.1213
 8251SOL    HW136389   0.404   0.196  17.555 -0.4544 -0.6726  0.3006
 8251SOL    HW236390   0.442   0.219  17.414  0.7766  2.0367  2.5874
 8252SOL     OW36391   4.482   3.682   5.954  0.3277  0.6320 -0.2133
 8252SOL    HW136392   4.389   3.702   5.947  0.0927  0.1559  1.6424
 8252SOL    HW236393   4.481   3.588   5.936 -0.7692  0.5088  0.5047
 8253SOL     OW36394   4.160   3.431   0.637  0.2316 -0.1726 -0.3678
 8253SOL    HW136395   4.225   3.493   0.672  1.1175 -0.6289 -1.2070
 8253SOL    HW236396   4.208   3.386   0.568  0.3481 -0.5999 -0.0103
 8254SOL     OW36397   2.920   4.123   5.925  0.1371  0.0825 -0.1118
 8254SOL    HW136398   2.883   4.210   5.939 -0.9896 -0.0502 -2.2278
 8254SOL    HW236399   3.011   4.120   5.955  0.7643 -0.2384 -2.0159
 8255SOL     OW36400   1.589   3.133   6.201 -0.2532 -0.2459  0.1133
 8255SOL    HW136401   1.588   3.131   6.106  0.7890 -3.0518  0.1504
 8255SOL    HW236402   1.649   3.205   6.218 -0.4653  0.5331 -2.4952
 8256SOL     OW36403   3.736   0.247  17.681 -0.0923  0.3898 -0.1302
 8256SOL    HW136404   3.666   0.275   0.002 -0.3051 -0.2020 -0.1024
 8256SOL    HW236405   3.736   0.295  17.599  2.1349  1.7062  0.6357
 8257SOL     OW36406   4.431   2.041   4.072 -0.4536 -0.2392  0.4269
 8257SOL    HW136407   4.351   2.086   4.098 -0.7318 -0.4921  0.0027
 8257SOL    HW236408   4.390   1.978   4.012  0.9404  0.9880 -1.8098
 8258SOL     OW36409   0.922   3.420   9.806 -0.3234 -0.4252  0.3366
 8258SOL    HW136410   0.920   3.414   9.902  1.2520 -0.4696  0.3565
 8258SOL    HW236411   0.958   3.336   9.777  4.3797  1.6227  0.2570
 8259SOL     OW36412   1.724   3.068  11.626 -0.0841  0.3756  0.1879
 8259SOL    HW136413   1.760   3.080  11.538 -0.7656 -0.8984 -0.2649
 8259SOL    HW236414   1.784   3.131  11.666  1.0819 -0.9741  0.5395
 8260SOL     OW36415   1.885   3.914  14.692 -0.1423 -0.1063 -0.5876
 8260SOL    HW136416   1.868   3.844  14.629 -0.2709 -1.7167  1.2494
 8260SOL    HW236417   1.926   3.857  14.757  3.0047  0.3954 -2.1083
 8261SOL     OW36418   0.869   0.076   4.152 -0.2087  0.3816 -0.1908
 8261SOL    HW136419   0.900   0.009   4.213 -1.5869 -0.4705 -0.4190
 8261SOL    HW236420   0.800   0.027   4.108  0.7897 -0.3270 -0.9618
 8262SOL     OW36421   1.984   1.053   2.466 -0.2761  0.3201  0.1338
 8262SOL    HW136422   1.904   1.069   2.516 -0.6046 -0.5862 -0.1184
 8262SOL    HW236423   1.957   1.084   2.380  1.7215  1.9815  0.1135
 8263SOL     OW36424   3.370   2.160   4.009 -0.0939  0.1379  0.1045
 8263SOL    HW136425   3.382   2.119   4.095  0.6839  0.2482  0.0545
 8263SOL    HW236426   3.275   2.161   4.007 -0.1351 -0.8046  1.5612
 8264SOL     OW36427   2.908   1.457   4.247  0.0562  0.1617 -0.4443
 8264SOL    HW136428   2.925   1.364   4.257  2.8413  0.6793 -0.3604
 8264SOL    HW236429   2.944   1.483   4.332 -4.3559  0.9648  1.2179
 8265SOL     OW36430   0.984   3.515   8.225  0.2427  0.7794  0.3539
 8265SOL    HW136431   0.908   3.496   8.170 -1.2117  0.8045  2.3663
 8265SOL    HW236432   0.944   3.588   8.273  0.9375  1.9272 -0.7928
 8266SOL     OW36433   4.452   0.325   8.462 -0.6089  0.1067  0.0177
 8266SOL    HW136434   4.469   0.285   8.377  1.8371  0.1188  0.4930
 8266SOL    HW236435   4.475   0.251   8.519 -1.5988 -0.8983 -0.8821
 8267SOL     OW36436   1.776   2.334  15.077 -0.0408  0.0381 -0.1705
 8267SOL    HW136437   1.771   2.400  15.008 -1.6491  0.9046  0.7775
 8267SOL    HW236438   1.861   2.292  15.063 -0.1363 -0.7324  1.4869
 8268SOL     OW36439   3.936   2.374   1.911  0.1676  0.0905  0.7355
 8268SOL    HW136440   3.938   2.319   1.989 -1.1778  1.6378  1.8539
 8268SOL    HW236441   4.028   2.372   1.884  0.1723 -2.0818  0.8685
 8269SOL     OW36442   0.547   2.410   7.858 -0.0209 -0.2495  0.0080
 8269SOL    HW136443   0.605   2.475   7.818  1.2154 -1.2451  0.2129
 8269SOL    HW236444   0.562   2.335   7.801  2.6101  0.3145 -0.0350
 8270SOL     OW36445   2.856   1.759   5.391  0.3362  0.1682  0.1002
 8270SOL    HW136446   2.913   1.794   5.323  1.2724 -2.3511 -0.4342
 8270SOL    HW236447   2.829   1.683   5.339 -1.6445  1.2679 -0.4558
 8271SOL     OW36448   4.210   3.650  11.507 -0.2985 -0.3582  0.1943
 8271SOL    HW136449   4.294   3.625  11.470 -1.4693 -0.0016 -2.6943
 8271SOL    HW236450   4.235   3.730  11.553  0.6273 -0.4229 -0.2045
 8272SOL     OW36451   3.858   0.149   0.901  0.2824  0.3295 -0.7175
 8272SOL    HW136452   3.875   0.234   0.859 -0.2955  0.9319  0.2625
 8272SOL    HW236453   3.844   0.163   0.994  2.0529 -0.8285 -0.2785
 8273SOL     OW36454   2.127   4.190   2.271 -0.3724  0.1231  0.0885
 8273SOL    HW136455   2.049   4.203   2.324 -1.0838  1.0856 -1.2068
 8273SOL    HW236456   2.193   4.144   2.324  0.6028  0.2181 -1.0256
 8274SOL     OW36457   0.172   1.442   2.675  0.3097  0.4273 -0.5356
 8274SOL    HW136458   0.246   1.429   2.734 -1.5531 -2.2663  1.2066
 8274SOL    HW236459   0.156   1.355   2.639  0.0817 -0.4948  1.7560
 8275SOL     OW36460   2.021   3.874  12.741 -0.6416  0.1834 -0.0576
 8275SOL    HW136461   1.956   3.944  12.742  0.1271  0.8931 -0.0433
 8275SOL    HW236462   2.027   3.855  12.647 -1.9479  0.9551 -0.2974
 8276SOL     OW36463   3.396   2.183   2.333 -0.4294 -0.1327  0.4846
 8276SOL    HW136464   3.408   2.255   2.396 -1.6359 -0.9489  1.6545
 8276SOL    HW236465   3.388   2.237   2.255  0.0334  0.7407  1.0337
 8277SOL     OW36466   1.631   4.608   1.567 -0.1382  0.1311  0.0540
 8277SOL    HW136467   1.704   4.582   1.624 -1.7798 -0.7229  1.7718
 8277SOL    HW236468   1.675   4.634   1.487 -2.9288 -1.5986 -2.0294
 8278SOL     OW36469   2.763   4.171   5.498  0.5722  0.0625  0.3101
 8278SOL    HW136470   2.819   4.169   5.420 -1.6435 -1.0369 -1.2749
 8278SOL    HW236471   2.823   4.205   5.564  1.1516  0.8466 -0.6068
 8279SOL     OW36472   0.646   2.359   1.450 -0.3049  0.4860 -0.8381
 8279SOL    HW136473   0.615   2.355   1.541  0.0764  2.1530 -0.6402
 8279SOL    HW236474   0.690   2.442   1.466  0.4335 -0.0001 -0.3388
 8280SOL     OW36475   0.913   3.400   8.497 -0.1389 -0.1803  0.4791
 8280SOL    HW136476   0.944   3.405   8.406 -0.2963 -0.1691  0.4269
 8280SOL    HW236477   0.972   3.459   8.544 -2.4421  1.2630  1.5441
 8281SOL     OW36478   1.903   4.002   6.730  0.0971 -0.1407  0.2701
 8281SOL    HW136479   1.904   3.949   6.650  0.5111 -2.1249  1.5937
 8281SOL    HW236480   1.886   4.086   6.687  1.3539 -0.1377 -0.2290
 8282SOL     OW36481   1.750   1.475   7.689  0.1925 -0.8472  0.3743
 8282SOL    HW136482   1.769   1.556   7.641  2.2506 -0.6042  1.5970
 8282SOL    HW236483   1.662   1.452   7.660 -0.1157  2.1661 -1.0891
 8283SOL     OW36484   4.547   3.070   7.981 -0.3148 -0.3543 -0.3178
 8283SOL    HW136485   4.457   3.090   8.005 -0.7924 -1.8295 -0.8844
 8283SOL    HW236486   4.593   3.153   7.994  0.3739 -0.9364  0.9222
 8284SOL     OW36487   0.209   0.645   4.120 -0.2688  0.3431 -0.3564
 8284SOL    HW136488   0.246   0.733   4.132  2.5790 -1.0562  1.0477
 8284SOL    HW236489   0.267   0.621   4.048 -0.5713 -0.7338 -0.2472
 8285SOL     OW36490   4.719   3.113   4.872  0.0021  0.0034 -0.3068
 8285SOL    HW136491   4.688   3.050   4.807  0.2847 -1.0428  0.5894
 8285SOL    HW236492   0.031   3.061   4.936 -2.6429 -1.0881  0.7567
 8286SOL     OW36493   2.094   1.343  14.174 -0.1128 -0.8523  0.6087
 8286SOL    HW136494   2.014   1.295  14.156  0.3139 -1.2488 -0.1950
 8286SOL    HW236495   2.147   1.282  14.123 -0.9299 -0.1231 -1.1154
 8287SOL     OW36496   2.117   4.371   3.710 -0.3659  0.3238  0.0706
 8287SOL    HW136497   2.157   4.393   3.626 -0.0684  0.8074  0.3364
 8287SOL    HW236498   2.124   4.455   3.756  0.3695  0.4307 -0.2284
 8288SOL     OW36499   4.620   3.280  15.943 -0.2361  0.1882  0.8217
 8288SOL    HW136500   4.642   3.355  15.997 -2.8754  0.5943  1.3368
 8288SOL    HW236501   4.636   3.312  15.854  0.7005 -1.6962  0.3127
 8289SOL     OW36502   1.706   3.363   8.828  0.1366  0.8645  0.0344
 8289SOL    HW136503   1.679   3.305   8.757  3.7878  0.3722 -0.9632
 8289SOL    HW236504   1.631   3.421   8.830  0.9294  1.7840  2.7364
 8290SOL     OW36505   2.927   4.103   4.843 -0.2184  0.2051 -0.3691
 8290SOL    HW136506   2.998   4.045   4.816 -1.1652 -1.4889  0.7880
 8290SOL    HW236507   2.852   4.069   4.796 -0.1664  0.7071 -0.8139
 8291SOL     OW36508   0.826   4.695  14.273  0.2550 -0.2253 -0.7585
 8291SOL    HW136509   0.921   4.692  14.282  0.1169 -1.3477  0.4460
 8291SOL    HW236510   0.804   4.631  14.341  0.3370 -1.3526 -1.7920
 8292SOL     OW36511   4.270   2.593   5.068 -0.2052 -0.5468  0.4817
 8292SOL    HW136512   4.285   2.676   5.024  2.2866 -2.0563 -1.5491
 8292SOL    HW236513   4.358   2.562   5.087  0.4758  0.4148 -1.1419
 8293SOL     OW36514   1.325   2.985   9.531 -0.5287 -0.3083  0.4441
 8293SOL    HW136515   1.372   2.943   9.603 -0.4614 -0.7140  0.1612
 8293SOL    HW236516   1.250   2.925   9.529 -0.1162 -0.8279  0.7242
 8294SOL     OW36517   3.839   3.650   7.258 -0.3292 -0.3095 -0.2946
 8294SOL    HW136518   3.903   3.584   7.233  0.4411  0.1446  0.4750
 8294SOL    HW236519   3.864   3.726   7.205 -2.9889  1.6957  1.3565
 8295SOL     OW36520   3.792   0.662   3.187  0.1945 -0.0128  0.0138
 8295SOL    HW136521   3.715   0.701   3.228 -0.5284 -1.6578  0.2274
 8295SOL    HW236522   3.757   0.576   3.162  1.4823 -0.1322 -1.4151
 8296SOL     OW36523   3.264   2.629   7.393  0.1035  0.3647  0.7820
 8296SOL    HW136524   3.243   2.606   7.302  2.8972 -2.8638  0.9621
 8296SOL    HW236525   3.360   2.634   7.400  0.1110  0.3042  0.7295
 8297SOL     OW36526   1.954   3.094   1.085 -0.0357  0.4202  0.3415
 8297SOL    HW136527   1.872   3.135   1.058  0.3689  1.1254  0.1858
 8297SOL    HW236528   1.948   3.001   1.064  0.6295  0.4335  0.0857
 8298SOL     OW36529   3.214   0.868  14.018  0.2343 -0.1934 -0.7802
 8298SOL    HW136530   3.265   0.933  14.067  0.9856 -0.1809 -1.5710
 8298SOL    HW236531   3.185   0.912  13.938 -1.3022  1.5069  0.6778
 8299SOL     OW36532   3.830   4.131  11.365 -0.7776 -0.3696 -0.4140
 8299SOL    HW136533   3.800   4.114  11.276 -0.0986  0.7638 -0.8656
 8299SOL    HW236534   3.793   4.217  11.385 -0.9768  0.0933 -2.8826
 8300SOL     OW36535   3.551   0.698   3.904 -0.2126  0.4559  0.5060
 8300SOL    HW136536   3.645   0.703   3.885 -0.2575 -0.2615  0.0950
 8300SOL    HW236537   3.530   0.639   3.832  1.2174  2.1231 -1.2892
 8301SOL     OW36538   4.003   2.585   5.139  0.0100  0.0355 -0.2521
 8301SOL    HW136539   4.097   2.605   5.137  0.3575 -1.4952  1.0121
 8301SOL    HW236540   3.976   2.614   5.052  1.3836 -1.1263 -1.0765
 8302SOL     OW36541   3.099   4.430   0.894  0.0305  0.5063 -0.3396
 8302SOL    HW136542   3.106   4.360   0.829 -2.3706  0.6342 -0.7268
 8302SOL    HW236543   3.149   4.502   0.857 -2.6961  1.6362 -1.8425
 8303SOL     OW36544   2.164   1.514  14.463 -0.3097  0.4514  0.0767
 8303SOL    HW136545   2.090   1.504  14.522  0.3095 -2.1275  0.4262
 8303SOL    HW236546   2.210   1.433  14.485  0.1184  0.4367 -0.8428
 8304SOL     OW36547   3.123   2.006   0.760  0.5013  0.1451 -0.2385
 8304SOL    HW136548   3.209   1.965   0.752  1.7877  2.7627  0.2442
 8304SOL    HW236549   3.147   2.095   0.784 -0.1680 -0.3161  2.1482
 8305SOL     OW36550   0.547   0.710   4.939 -0.1032  0.0118  0.1829
 8305SOL    HW136551   0.610   0.774   4.972  0.9357 -0.7164 -0.3911
 8305SOL    HW236552   0.517   0.749   4.857  0.5941 -0.3665 -0.2505
 8306SOL     OW36553   2.682   2.268  13.238  0.0053  0.5240  0.5013
 8306SOL    HW136554   2.765   2.273  13.286 -0.4895  0.4290  1.3629
 8306SOL    HW236555   2.623   2.319  13.293 -1.4238  0.8713 -1.3514
 8307SOL     OW36556   0.880   2.010  12.254 -0.6699  0.0051  0.2985
 8307SOL    HW136557   0.842   2.049  12.333  0.0200 -0.2098  0.7418
 8307SOL    HW236558   0.969   2.014  12.289 -0.8688  0.6137  0.7414
 8308SOL     OW36559   1.806   1.717  11.939  0.2087  0.0881 -0.2367
 8308SOL    HW136560   1.882   1.673  11.978  0.9105 -0.5486 -2.3115
 8308SOL    HW236561   1.751   1.720  12.017  0.2589  0.1867 -0.2056
 8309SOL     OW36562   0.694   2.641   4.971  0.2744  0.0379  0.2986
 8309SOL    HW136563   0.722   2.589   4.896 -0.3396 -0.2198  0.2488
 8309SOL    HW236564   0.655   2.715   4.924  2.0653 -0.3486 -1.7661
 8310SOL     OW36565   3.877   4.499  14.334 -0.0011 -0.5924  0.1676
 8310SOL    HW136566   3.954   4.556  14.341 -1.3519  0.9776  2.4230
 8310SOL    HW236567   3.858   4.528  14.245  1.1833  0.2358  0.1916
 8311SOL     OW36568   0.333   0.539  15.606 -0.2140 -0.2395  0.8157
 8311SOL    HW136569   0.275   0.463  15.606 -0.1635 -0.2644  2.6030
 8311SOL    HW236570   0.286   0.611  15.563  0.0148 -1.2428 -1.1326
 8312SOL     OW36571   1.057   4.194   1.781  0.8195 -0.2902  0.1919
 8312SOL    HW136572   0.962   4.207   1.775  0.9289  0.1694 -0.5155
 8312SOL    HW236573   1.069   4.111   1.736  1.2998  0.0475 -0.3108
 8313SOL     OW36574   3.151   1.427   5.083  0.6720  0.6297  0.5009
 8313SOL    HW136575   3.124   1.352   5.136  0.7057 -0.5574 -1.1710
 8313SOL    HW236576   3.245   1.435   5.102  1.8343 -1.1843 -4.5293
 8314SOL     OW36577   1.853   3.543  17.543  0.2964  0.2045 -0.7577
 8314SOL    HW136578   1.854   3.493  17.625 -1.6845  0.2532 -0.7156
 8314SOL    HW236579   1.894   3.485  17.479 -1.8736 -2.8018  0.5915
 8315SOL     OW36580   2.770   3.096   2.656  0.2589 -0.2995 -0.0436
 8315SOL    HW136581   2.689   3.083   2.606  0.6353  0.2959 -0.8228
 8315SOL    HW236582   2.838   3.068   2.595 -0.9446  0.6267 -1.8434
 8316SOL     OW36583   0.275   4.050  10.128  0.5223  0.0103 -0.2661
 8316SOL    HW136584   0.348   4.029  10.187  1.1517  1.2341 -0.6034
 8316SOL    HW236585   0.280   3.970  10.074  4.8739  0.5648 -0.7298
 8317SOL     OW36586   2.972   1.673   8.128  0.3551 -1.0134  0.0774
 8317SOL    HW136587   3.049   1.699   8.178  1.0296  1.4044 -2.1594
 8317SOL    HW236588   2.901   1.721   8.170  0.3530  0.5315 -1.6430
 8318SOL     OW36589   0.041   4.618   6.853  0.8804 -0.0595 -0.4797
 8318SOL    HW136590   0.124   4.612   6.807  0.4649  1.3345 -1.4270
 8318SOL    HW236591   0.049   4.710   6.880 -2.2190 -0.2460  1.0634
 8319SOL     OW36592   0.605   3.946   6.849 -0.1966  0.6864  0.4918
 8319SOL    HW136593   0.585   4.017   6.788 -0.5346  0.2783  0.1351
 8319SOL    HW236594   0.660   3.885   6.800  0.0123  2.4317 -1.4160
 8320SOL     OW36595   3.155   0.247   5.790 -0.3434  0.0250  0.1085
 8320SOL    HW136596   3.090   0.245   5.861 -0.1329  1.6308  0.3418
 8320SOL    HW236597   3.205   0.321   5.824 -0.8375  0.1628  0.5366
 8321SOL     OW36598   2.943   1.384   8.015  0.0430 -0.3253  0.4329
 8321SOL    HW136599   2.857   1.414   7.985  1.3839  0.4964 -2.6401
 8321SOL    HW236600   2.965   1.446   8.084  1.1877 -1.6259  1.2382
 8322SOL     OW36601   0.223   3.616   7.763 -0.3308 -0.6469  0.5542
 8322SOL    HW136602   0.224   3.612   7.668  1.3881 -2.8357  0.6510
 8322SOL    HW236603   0.318   3.621   7.776 -0.2071  0.0846 -0.6399
 8323SOL     OW36604   4.645   0.956   4.675  0.3898  0.3360  0.0086
 8323SOL    HW136605   4.643   0.977   4.582 -1.9650 -0.2523 -0.0866
 8323SOL    HW236606   0.001   0.934   4.696  0.3461 -0.6360 -0.7932
 8324SOL     OW36607   2.682   4.461   5.177  0.6590 -0.2378 -0.1914
 8324SOL    HW136608   2.698   4.380   5.127  0.7321  0.7507 -1.7592
 8324SOL    HW236609   2.625   4.426   5.246  0.1158  1.6072  0.2903
 8325SOL     OW36610   1.258   2.739  17.013  0.9511 -0.3339 -0.2303
 8325SOL    HW136611   1.227   2.722  16.924 -0.9149 -2.2786  0.7865
 8325SOL    HW236612   1.323   2.807  16.993  0.3464  0.4424  0.4184
 8326SOL     OW36613   2.793   3.297   4.215 -0.1910  0.1484  0.4037
 8326SOL    HW136614   2.837   3.382   4.214 -0.0066  0.0205 -1.8070
 8326SOL    HW236615   2.721   3.319   4.274  1.2497 -1.0080  2.6335
 8327SOL     OW36616   2.554   3.717   4.941 -0.2293  0.4263  0.3721
 8327SOL    HW136617   2.479   3.689   4.994 -2.0629 -0.5932 -2.7444
 8327SOL    HW236618   2.516   3.768   4.869 -0.2530 -0.1405 -0.0246
 8328SOL     OW36619   4.571   3.287   6.539 -0.4517  0.2788  0.5387
 8328SOL    HW136620   4.608   3.200   6.546 -0.4607  0.0069 -2.4665
 8328SOL    HW236621   4.527   3.276   6.623 -0.3462 -1.5705  0.3523
 8329SOL     OW36622   2.052   1.548   7.863  0.1941 -0.3345  0.4006
 8329SOL    HW136623   2.096   1.469   7.832 -1.1157 -0.0196 -2.2296
 8329SOL    HW236624   1.973   1.499   7.883  0.5800 -0.9970  0.3307
 8330SOL     OW36625   2.026   1.521  17.156  0.1038  0.1916 -0.4094
 8330SOL    HW136626   2.005   1.540  17.247  0.7609  0.5506 -0.3333
 8330SOL    HW236627   1.948   1.559  17.115 -0.5854  0.7609  1.4477
 8331SOL     OW36628   1.091   2.790  11.789  0.0157  0.1868 -0.5665
 8331SOL    HW136629   1.128   2.801  11.876 -0.8866  0.5403 -0.2290
 8331SOL    HW236630   1.115   2.698  11.779  2.6299  0.7913  0.0768
 8332SOL     OW36631   0.411   4.384   3.087  0.1863  0.4177  0.1537
 8332SOL    HW136632   0.465   4.306   3.100 -0.8565 -0.5981 -1.6236
 8332SOL    HW236633   0.461   4.451   3.041 -1.0031  0.1972 -1.4461
 8333SOL     OW36634   0.345   0.513  16.385  0.1254  0.3859 -0.8137
 8333SOL    HW136635   0.255   0.540  16.364 -0.9421 -0.2977  2.9849
 8333SOL    HW236636   0.370   0.594  16.429  1.2968 -0.2220 -0.3729
 8334SOL     OW36637   2.384   2.194   4.403  0.2617  0.3135  0.0799
 8334SOL    HW136638   2.372   2.145   4.322 -1.5279  1.8182 -0.5864
 8334SOL    HW236639   2.380   2.127   4.471  1.4482 -1.6206 -1.7518
 8335SOL     OW36640   3.523   0.843  15.832  0.0477 -0.4275  0.0899
 8335SOL    HW136641   3.479   0.852  15.747  0.7525  0.6955 -0.1620
 8335SOL    HW236642   3.593   0.782  15.809 -0.5531 -1.0376 -0.1121
 8336SOL     OW36643   1.465   3.211   4.051 -0.3313  0.4052 -0.3534
 8336SOL    HW136644   1.453   3.283   4.113 -0.9497  0.5075 -0.5905
 8336SOL    HW236645   1.464   3.260   3.968  0.0444 -0.9714 -1.1660
 8337SOL     OW36646   1.667   0.646   5.969 -0.1753  0.7852 -0.3085
 8337SOL    HW136647   1.737   0.647   6.034 -1.4923 -1.3835  1.1722
 8337SOL    HW236648   1.595   0.640   6.032 -0.8069 -0.9814 -1.2044
 8338SOL     OW36649   4.634   3.572  12.609 -0.1691  0.0931  0.4519
 8338SOL    HW136650   4.639   3.618  12.693  1.2629  1.0570 -0.1591
 8338SOL    HW236651   4.683   3.628  12.550 -0.8786  0.9126  0.6426
 8339SOL     OW36652   1.912   2.783  10.286 -0.0691 -0.2301  0.0706
 8339SOL    HW136653   1.944   2.693  10.291 -1.4845 -0.8856 -3.0043
 8339SOL    HW236654   1.817   2.776  10.276  0.0534 -0.3317 -0.9512
 8340SOL     OW36655   2.780   1.700   9.556 -0.1875 -0.0151 -0.5758
 8340SOL    HW136656   2.777   1.605   9.548 -0.4817  0.0790 -1.6099
 8340SOL    HW236657   2.731   1.704   9.638 -0.3010  1.5636 -0.7184
 8341SOL     OW36658   1.772   1.669   1.996 -0.6107  0.1923  0.0317
 8341SOL    HW136659   1.868   1.666   1.990 -0.4018  2.7669  1.9512
 8341SOL    HW236660   1.768   1.662   2.092 -0.9923  0.5236  0.0400
 8342SOL     OW36661   2.610   4.352  13.422 -0.6779  0.0114  0.1404
 8342SOL    HW136662   2.690   4.299  13.430  0.3321  1.6257  0.6390
 8342SOL    HW236663   2.544   4.286  13.398  1.2497 -2.2556  1.0022
 8343SOL     OW36664   4.024   3.015  13.554 -0.0966  0.2699  0.4125
 8343SOL    HW136665   4.102   2.959  13.551  1.0188  1.8805 -1.0793
 8343SOL    HW236666   4.030   3.043  13.645 -1.1893 -0.0890  0.5976
 8344SOL     OW36667   1.144   3.064   3.072  0.1560  0.2845 -0.0671
 8344SOL    HW136668   1.053   3.045   3.049 -0.4364  1.5108  1.2491
 8344SOL    HW236669   1.136   3.157   3.093 -0.9351  0.7146 -2.3036
 8345SOL     OW36670   1.811   0.016  15.384  0.0169 -0.3005 -0.0831
 8345SOL    HW136671   1.840   4.715  15.300  1.2149 -1.3488  0.7769
 8345SOL    HW236672   1.720   4.729  15.367 -0.3391  0.9062  0.2763
 8346SOL     OW36673   4.090   3.330   3.687 -0.5819  0.4649 -0.4573
 8346SOL    HW136674   4.096   3.391   3.614  1.5732  0.7490 -0.0545
 8346SOL    HW236675   4.155   3.372   3.743 -0.0463 -2.1840  0.9196
 8347SOL     OW36676   0.035   3.336   5.694 -0.2986 -0.4231 -0.2191
 8347SOL    HW136677   4.704   3.314   5.760 -0.4003  0.4992 -0.0167
 8347SOL    HW236678   0.113   3.285   5.716  0.4253  0.0762 -1.6449
 8348SOL     OW36679   4.705   2.757   7.305 -0.8220 -0.1919 -0.3806
 8348SOL    HW136680   4.699   2.749   7.400  0.1294 -1.2440 -0.4117
 8348SOL    HW236681   0.036   2.689   7.290  0.9069  1.3859 -0.1105
 8349SOL     OW36682   0.871   3.792   1.984 -0.1502 -0.1249  0.3142
 8349SOL    HW136683   0.792   3.745   1.958 -1.3096  3.7805 -3.2207
 8349SOL    HW236684   0.858   3.814   2.077  0.6602  1.3014  0.1018
 8350SOL     OW36685   0.272   0.325   7.337  0.2665 -0.5575  0.0869
 8350SOL    HW136686   0.200   0.269   7.363  1.2071 -1.1134  1.4563
 8350SOL    HW236687   0.301   0.290   7.253 -0.8806 -0.2825 -0.4290
 8351SOL     OW36688   3.940   4.376  13.029  0.1783  0.0014  0.3521
 8351SOL    HW136689   3.930   4.465  12.994  0.3630  0.6221  1.9088
 8351SOL    HW236690   4.033   4.372  13.007  0.1357  0.9441 -0.0455
 8352SOL     OW36691   4.064   0.652   9.805 -0.1963 -0.1496  0.0778
 8352SOL    HW136692   4.006   0.693   9.741 -3.5854 -2.0873  1.9010
 8352SOL    HW236693   4.002   0.609   9.865  0.7010 -0.5039  0.7484
 8353SOL     OW36694   4.614   1.005   3.928  0.6934  0.5196  0.1583
 8353SOL    HW136695   4.688   1.063   3.911  0.3387  2.0192  3.5957
 8353SOL    HW236696   4.595   0.977   3.839 -0.2747  0.9808  0.2161
 8354SOL     OW36697   4.697   3.888  13.473  0.3723  0.0451  0.1323
 8354SOL    HW136698   4.628   3.901  13.538 -1.6042 -0.1097 -1.9446
 8354SOL    HW236699   4.649   3.841  13.405 -0.2451  1.4283 -0.3924
 8355SOL     OW36700   3.319   2.480   1.885  0.0602  0.2280 -0.0746
 8355SOL    HW136701   3.401   2.526   1.863  0.2958 -0.7896 -1.3422
 8355SOL    HW236702   3.263   2.505   1.811 -0.2989 -1.3015 -0.3127
 8356SOL     OW36703   3.760   4.505   1.024  0.4308  0.3092  0.1864
 8356SOL    HW136704   3.676   4.552   1.025 -0.4590 -1.2569 -1.3756
 8356SOL    HW236705   3.746   4.457   1.106  0.6336 -1.5222 -0.8519
 8357SOL     OW36706   2.245   1.160   9.556  0.0786  0.9760  0.3057
 8357SOL    HW136707   2.249   1.109   9.637 -2.9394 -0.6498 -0.5693
 8357SOL    HW236708   2.164   1.210   9.568  1.0790  2.3541  1.3625
 8358SOL     OW36709   3.871   1.579  17.136 -0.0355 -0.0996 -0.2487
 8358SOL    HW136710   3.840   1.621  17.216 -2.0610 -1.7742 -0.1665
 8358SOL    HW236711   3.791   1.594  17.085  0.5829  1.9511 -0.6270
 8359SOL     OW36712   2.757   0.541   4.171 -0.3039  0.5380  1.0873
 8359SOL    HW136713   2.851   0.524   4.181  0.0439  2.4661  1.0942
 8359SOL    HW236714   2.752   0.632   4.198 -0.0925  0.0188  2.8811
 8360SOL     OW36715   3.473   3.719  11.524  0.1860 -0.5298  0.0596
 8360SOL    HW136716   3.561   3.753  11.543 -0.3399  2.2939 -2.6813
 8360SOL    HW236717   3.430   3.723  11.609  1.2060  0.5574  0.5343
 8361SOL     OW36718   3.196   1.308   8.074 -0.1855 -0.4325 -0.2457
 8361SOL    HW136719   3.103   1.323   8.089  0.0498  1.9494 -1.1313
 8361SOL    HW236720   3.229   1.328   8.162  0.0237 -1.2495 -0.1390
 8362SOL     OW36721   0.110   2.761   9.449 -0.0476  0.1708  0.2831
 8362SOL    HW136722   0.171   2.707   9.499 -1.3182 -0.8385  0.7224
 8362SOL    HW236723   0.096   2.708   9.371  0.9661  1.6380 -0.9138
 8363SOL     OW36724   0.373   2.089   6.110 -0.0814  0.2037 -0.3275
 8363SOL    HW136725   0.466   2.097   6.089  0.1503 -1.8282 -0.0557
 8363SOL    HW236726   0.359   2.146   6.186  1.5629 -0.1673  0.2586
 8364SOL     OW36727   4.536   2.674   4.866 -0.2802 -0.4563  0.2299
 8364SOL    HW136728   4.489   2.612   4.810 -1.4819  0.9979 -0.3740
 8364SOL    HW236729   4.565   2.626   4.944 -0.6132 -1.0266 -0.0025
 8365SOL     OW36730   1.478   0.562   0.044  0.1977  0.0437  0.0200
 8365SOL    HW136731   1.474   0.613  17.701 -0.0696  3.4441  2.1635
 8365SOL    HW236732   1.528   0.485   0.016 -0.2853 -0.8089  1.5051
 8366SOL     OW36733   3.414   2.332  13.921 -0.0643 -0.1191  0.5180
 8366SOL    HW136734   3.338   2.309  13.974 -1.8672  0.3820 -1.8546
 8366SOL    HW236735   3.439   2.417  13.957 -1.1731  1.6086 -2.7928
 8367SOL     OW36736   1.888   3.975  17.618  0.3518 -0.2256 -0.1383
 8367SOL    HW136737   1.799   4.010  17.613  0.0472 -1.0601 -0.5620
 8367SOL    HW236738   1.939   4.054  17.599  0.7071 -0.2791  0.5630
 8368SOL     OW36739   3.700   0.242   7.948 -0.1818  0.7963  0.1646
 8368SOL    HW136740   3.759   0.225   8.021  0.8870  1.3250 -0.5829
 8368SOL    HW236741   3.631   0.293   7.990 -0.8337 -2.1460  2.6553
 8369SOL     OW36742   1.229   3.755  12.589  0.0846  0.1201 -0.0622
 8369SOL    HW136743   1.149   3.788  12.630 -0.6025 -1.5056 -0.1287
 8369SOL    HW236744   1.258   3.683  12.646 -2.7710 -0.3672  0.7498
 8370SOL     OW36745   0.848   0.679   0.975 -0.1408 -0.2535 -0.8969
 8370SOL    HW136746   0.766   0.707   0.936 -1.3501 -1.4713  0.7599
 8370SOL    HW236747   0.842   0.701   1.068 -1.1246 -3.9016 -0.0961
 8371SOL     OW36748   1.742   4.177   4.935  0.3355 -0.3322 -0.2719
 8371SOL    HW136749   1.662   4.182   4.883  0.2938 -0.0987 -0.1832
 8371SOL    HW236750   1.727   4.103   4.993  0.3630 -0.9583 -1.0629
 8372SOL     OW36751   3.366   0.543   7.141  0.4091  0.2610  0.2773
 8372SOL    HW136752   3.374   0.634   7.113  2.7592 -0.5269 -1.6182
 8372SOL    HW236753   3.388   0.489   7.065 -0.7059 -2.3867  1.8280
 8373SOL     OW36754   0.212   1.581   4.867 -0.0919 -0.0895 -0.7968
 8373SOL    HW136755   0.234   1.662   4.822 -1.3285  0.6178 -0.1372
 8373SOL    HW236756   0.117   1.593   4.873 -0.2217 -0.9998 -0.9930
 8374SOL     OW36757   2.466   4.006   1.916 -0.0611  0.1987  0.5867
 8374SOL    HW136758   2.374   3.984   1.927  0.6841 -2.4295  1.5713
 8374SOL    HW236759   2.465   4.072   1.847 -3.0046 -0.1121  0.3556
 8375SOL     OW36760   2.115   2.142   5.539  0.0216  0.6794 -0.3669
 8375SOL    HW136761   2.096   2.160   5.447 -0.8770  2.6557  0.1986
 8375SOL    HW236762   2.039   2.184   5.580  0.9105  1.4047  0.5421
 8376SOL     OW36763   0.504   3.445  11.294  0.1938  0.2504 -0.3159
 8376SOL    HW136764   0.515   3.536  11.321 -0.1332  0.1217  0.2641
 8376SOL    HW236765   0.420   3.428  11.337  0.4507 -1.1481 -0.3675
 8377SOL     OW36766   2.040   4.293  13.896  0.4952  0.4392 -0.2809
 8377SOL    HW136767   1.964   4.256  13.940  0.5075  0.8087  0.0522
 8377SOL    HW236768   1.992   4.346  13.832  0.1810  0.3406 -0.1268
 8378SOL     OW36769   4.249   2.671   8.445  0.1471 -0.3566 -0.9380
 8378SOL    HW136770   4.156   2.662   8.423 -0.1889  0.1747  0.1993
 8378SOL    HW236771   4.291   2.589   8.420  2.2229  1.0050 -1.9151
 8379SOL     OW36772   2.984   3.023  13.198 -0.1261 -0.2563  0.1301
 8379SOL    HW136773   3.056   3.085  13.206  0.1908 -0.8919  2.0804
 8379SOL    HW236774   2.940   3.039  13.281  3.4904  1.4157  1.7325
 8380SOL     OW36775   0.222   3.759  10.060 -0.0541 -0.5507  0.1676
 8380SOL    HW136776   0.278   3.718   9.994  1.1104  1.2021  0.0776
 8380SOL    HW236777   0.234   3.699  10.134 -0.0511  0.4189  0.9484
 8381SOL     OW36778   4.335   1.320  17.705  0.6905 -0.0859  0.5574
 8381SOL    HW136779   4.410   1.359  17.661  0.8352  0.6138  1.4276
 8381SOL    HW236780   4.302   1.257  17.641  1.4316 -0.1284  0.2302
 8382SOL     OW36781   2.452   4.398  13.962  0.3010  0.3613 -0.8312
 8382SOL    HW136782   2.412   4.413  13.876  0.0549  0.3389 -0.7203
 8382SOL    HW236783   2.504   4.478  13.967  3.0678 -1.4864  0.6112
 8383SOL     OW36784   3.467   1.572   7.469  0.6273  0.5969  0.4896
 8383SOL    HW136785   3.517   1.605   7.394  1.7568  0.2666  1.0931
 8383SOL    HW236786   3.398   1.637   7.480  0.9620  1.2505 -1.3119
 8384SOL     OW36787   1.558   3.063   4.476 -0.4005 -0.0455 -0.1193
 8384SOL    HW136788   1.528   3.086   4.564 -0.5381 -1.4378  0.1970
 8384SOL    HW236789   1.483   3.078   4.419 -1.7156 -0.3607  1.5432
 8385SOL     OW36790   2.340   2.568   4.924 -0.6212 -0.0896  0.1772
 8385SOL    HW136791   2.269   2.504   4.913  0.7399 -1.1538 -2.5193
 8385SOL    HW236792   2.295   2.638   4.971  0.8164  1.1426 -0.2735
 8386SOL     OW36793   3.174   3.520   5.185 -0.0232  0.0162 -0.5380
 8386SOL    HW136794   3.112   3.584   5.151  1.4263  1.2605 -0.8221
 8386SOL    HW236795   3.127   3.472   5.253  1.2648 -2.3940 -1.3423
 8387SOL     OW36796   1.500   2.595   4.427 -0.3765 -0.2884 -0.0065
 8387SOL    HW136797   1.553   2.545   4.365  2.7567  0.8830  1.7289
 8387SOL    HW236798   1.458   2.524   4.476 -0.5609  0.3921  0.8236
 8388SOL     OW36799   0.712   1.677   7.375  0.2535 -0.1304  0.3944
 8388SOL    HW136800   0.646   1.634   7.321  1.3179 -0.6356 -0.5161
 8388SOL    HW236801   0.764   1.600   7.400  2.4540  0.8915 -1.1041
 8389SOL     OW36802   3.478   4.261   1.997 -0.4903 -0.4325  0.2520
 8389SOL    HW136803   3.410   4.276   1.932 -1.4320 -0.0269  1.3314
 8389SOL    HW236804   3.528   4.196   1.947 -0.7017  0.6534 -1.3763
 8390SOL     OW36805   3.399   3.056   8.764  0.0737 -0.2634 -0.9334
 8390SOL    HW136806   3.395   3.057   8.669  0.1246  0.0444 -0.9301
 8390SOL    HW236807   3.478   3.105   8.784 -1.4138  0.8962  2.1051
 8391SOL     OW36808   0.167   1.546   2.243  0.4579  0.1715 -0.5404
 8391SOL    HW136809   0.093   1.606   2.235 -1.5433 -2.0553  1.2671
 8391SOL    HW236810   0.128   1.463   2.213 -1.4978  1.2574 -1.0001
 8392SOL     OW36811   2.904   3.605   7.073 -0.9464 -0.4761 -0.4403
 8392SOL    HW136812   2.819   3.632   7.038 -0.7622  1.4762  0.6460
 8392SOL    HW236813   2.868   3.564   7.151 -0.4542  1.0466  0.5824
 8393SOL     OW36814   0.685   2.013   1.959  0.2440 -0.1292 -0.0776
 8393SOL    HW136815   0.649   2.034   1.873 -1.3120 -2.0004  0.1133
 8393SOL    HW236816   0.599   2.009   2.000  0.7809  3.8939  1.4050
 8394SOL     OW36817   4.473   0.693   7.676  0.1550  0.1380  0.2883
 8394SOL    HW136818   4.386   0.714   7.710 -0.5562 -2.0520 -0.1696
 8394SOL    HW236819   4.471   0.732   7.588 -0.2036 -2.1627 -0.7332
 8395SOL     OW36820   4.351   1.937   3.835  0.3121  0.2703  0.0890
 8395SOL    HW136821   4.321   2.023   3.806 -2.8865 -0.3590  1.6142
 8395SOL    HW236822   4.265   1.897   3.845  0.3074 -0.4161 -2.7102
 8396SOL     OW36823   0.178   3.329   4.953  0.5501  0.3395 -0.2844
 8396SOL    HW136824   0.110   3.261   4.955 -0.7951  1.5952 -2.1849
 8396SOL    HW236825   0.141   3.386   4.885  1.1221  0.1879 -0.7310
 8397SOL     OW36826   3.859   4.306  10.027  0.5325  0.4623  0.4767
 8397SOL    HW136827   3.883   4.213  10.028  0.4682  0.4138 -1.2555
 8397SOL    HW236828   3.766   4.299  10.048  0.8415  1.7052  2.2478
 8398SOL     OW36829   0.224   4.381  16.072  0.5602  0.2960  0.2406
 8398SOL    HW136830   0.267   4.373  15.987  0.1207 -1.6977  0.1986
 8398SOL    HW236831   0.217   4.290  16.102  0.2462  0.6173  1.1332
 8399SOL     OW36832   4.068   2.590   4.339 -0.1239 -0.0883 -0.6081
 8399SOL    HW136833   4.129   2.520   4.362  2.2813  2.1977 -0.0541
 8399SOL    HW236834   4.056   2.560   4.249 -1.2620 -1.5716  0.0462
 8400SOL     OW36835   2.197   4.113  11.112  0.2050  0.4776  0.3342
 8400SOL    HW136836   2.246   4.038  11.147  1.6992  1.2517 -0.1420
 8400SOL    HW236837   2.149   4.138  11.191  0.2384 -0.8968  0.8019
 8401SOL     OW36838   1.686   0.058  15.052  0.0804  0.3928 -0.5477
 8401SOL    HW136839   1.643   4.731  15.112  1.8335  0.5193  0.8115
 8401SOL    HW236840   1.715   4.725  14.990 -1.7719  0.6476 -1.7024
 8402SOL     OW36841   1.855   3.495  14.134  0.4636  0.8463 -0.3276
 8402SOL    HW136842   1.763   3.501  14.109  0.0561 -2.1116  0.4218
 8402SOL    HW236843   1.854   3.427  14.202 -1.2049  0.9805 -0.2243
 8403SOL     OW36844   3.950   0.835  16.697  0.6126 -0.1005 -0.5255
 8403SOL    HW136845   3.986   0.802  16.779  2.2286 -0.9366 -1.5708
 8403SOL    HW236846   4.030   0.858  16.650  2.5760 -1.0242  2.3171
 8404SOL     OW36847   1.103   3.894   5.087  0.7593 -0.2061  0.2512
 8404SOL    HW136848   1.188   3.920   5.121  1.4324 -0.0708 -1.5278
 8404SOL    HW236849   1.088   3.958   5.017 -0.7367 -0.1826  0.5964
 8405SOL     OW36850   1.123   3.349   3.225  0.1930 -0.4270 -0.4716
 8405SOL    HW136851   1.197   3.409   3.232  1.3114 -2.0401  1.2568
 8405SOL    HW236852   1.101   3.367   3.133 -0.3603 -0.4639 -0.3444
 8406SOL     OW36853   1.435   3.207   3.196  0.3952 -0.3468 -0.6204
 8406SOL    HW136854   1.479   3.269   3.138 -1.2931  0.4758 -1.0255
 8406SOL    HW236855   1.391   3.267   3.256  0.1973 -0.7418 -0.3701
 8407SOL     OW36856   1.479   1.007   3.925 -0.0861  0.9464  0.4640
 8407SOL    HW136857   1.515   1.092   3.951 -0.6623  1.3893 -0.1855
 8407SOL    HW236858   1.391   1.042   3.908 -0.0408 -0.2075 -2.2782
 8408SOL     OW36859   4.025   3.412  12.168  1.3816 -0.7428 -0.1199
 8408SOL    HW136860   3.955   3.459  12.212  0.1233 -1.7817 -0.9856
 8408SOL    HW236861   4.034   3.450  12.081  1.1182 -1.2703 -0.3812
 8409SOL     OW36862   4.097   1.942   1.704 -0.0003 -0.1356  0.4618
 8409SOL    HW136863   4.157   1.948   1.631 -1.2778  0.7046 -0.5116
 8409SOL    HW236864   4.016   1.974   1.664  0.6722  3.0344  1.6085
 8410SOL     OW36865   1.177   4.597  16.602  0.4545 -0.2006  0.5556
 8410SOL    HW136866   1.242   4.587  16.531  1.2329  1.2070  1.0718
 8410SOL    HW236867   1.216   4.672  16.646  2.3619 -0.2898 -0.9464
 8411SOL     OW36868   0.024   1.013   2.124 -0.0532 -0.3090  0.4483
 8411SOL    HW136869   0.058   1.036   2.038 -0.6367  2.7228  1.0065
 8411SOL    HW236870   0.098   0.953   2.138 -1.1150 -1.4603  1.1097
 8412SOL     OW36871   3.838   1.658   3.212 -0.5508 -0.0620  0.9166
 8412SOL    HW136872   3.847   1.588   3.148  0.5313  0.5233  0.4199
 8412SOL    HW236873   3.926   1.672   3.247 -0.7565  2.1166  0.5611
 8413SOL     OW36874   3.753   2.631  10.193  0.2930  0.3739 -0.2636
 8413SOL    HW136875   3.813   2.695  10.156  0.4001  1.9956  2.6347
 8413SOL    HW236876   3.699   2.675  10.259  0.5544 -0.5041  0.5516
 8414SOL     OW36877   0.078   2.334  12.443 -0.2883 -0.3850  0.9042
 8414SOL    HW136878   0.132   2.259  12.418  1.2742  0.4633  1.7568
 8414SOL    HW236879   4.729   2.287  12.438  0.3309 -1.5228  1.2142
 8415SOL     OW36880   1.068   2.647   0.629  0.5675 -0.0460  0.4014
 8415SOL    HW136881   1.109   2.728   0.659 -0.6625  0.6190  0.2751
 8415SOL    HW236882   1.093   2.653   0.537 -1.0736  0.1351 -0.0268
 8416SOL     OW36883   2.961   4.458  10.279  0.1769  0.3109 -0.4016
 8416SOL    HW136884   2.919   4.375  10.303  2.8249 -0.9422 -0.0168
 8416SOL    HW236885   2.970   4.443  10.185  2.2780  0.0604 -0.1559
 8417SOL     OW36886   2.156   2.191   5.242 -0.5245 -0.3477 -0.3757
 8417SOL    HW136887   2.172   2.107   5.199  0.2164 -1.1621  1.4782
 8417SOL    HW236888   2.070   2.216   5.209 -0.4893 -1.4875 -1.3214
 8418SOL     OW36889   1.236   4.532   5.580  0.4485  0.3462 -0.3015
 8418SOL    HW136890   1.263   4.441   5.573 -0.4875  0.1057 -0.7813
 8418SOL    HW236891   1.141   4.533   5.568  0.3097  1.2861  0.9626
 8419SOL     OW36892   2.772   1.934  12.802  0.3530 -0.2336 -0.4878
 8419SOL    HW136893   2.826   2.001  12.846 -1.6891  0.9157  0.3031
 8419SOL    HW236894   2.700   1.993  12.781  0.1328 -0.6459 -0.8743
 8420SOL     OW36895   1.948   3.061  12.735 -0.2367  0.1733 -0.4893
 8420SOL    HW136896   1.919   3.112  12.811 -1.5484 -1.2934 -0.0058
 8420SOL    HW236897   1.972   3.130  12.673 -0.7080  1.7067  1.0091
 8421SOL     OW36898   3.582   4.262  17.376 -0.6270  0.3321  0.2474
 8421SOL    HW136899   3.663   4.236  17.332  0.0286 -1.0675  2.2649
 8421SOL    HW236900   3.523   4.188  17.360 -0.7738 -0.1119  2.8245
 8422SOL     OW36901   1.118   0.400   7.301  0.2535 -0.3528 -0.5235
 8422SOL    HW136902   1.200   0.430   7.341  0.0621 -1.1106  0.4456
 8422SOL    HW236903   1.089   0.332   7.362  1.2664  0.6832  1.0975
 8423SOL     OW36904   4.707   3.578   9.082 -0.3314  0.3309 -0.1711
 8423SOL    HW136905   0.019   3.502   9.048  0.9320  0.9701  0.1322
 8423SOL    HW236906   4.641   3.539   9.139  0.8832  0.8336  1.6037
 8424SOL     OW36907   4.226   2.417  14.760 -0.1544  0.0159 -0.3812
 8424SOL    HW136908   4.161   2.375  14.703 -0.6793  1.3316 -0.7570
 8424SOL    HW236909   4.179   2.494  14.793  1.9374  1.0296  0.1701
 8425SOL     OW36910   0.925   2.185   5.176 -0.2147  0.0403  0.3899
 8425SOL    HW136911   0.931   2.089   5.181 -0.1699 -0.0574 -1.3683
 8425SOL    HW236912   1.011   2.213   5.144 -0.0768 -1.0788 -0.2305
 8426SOL     OW36913   1.384   3.719   6.687 -0.1409  0.3644  0.0013
 8426SOL    HW136914   1.459   3.738   6.743  1.1210 -0.4290 -1.4206
 8426SOL    HW236915   1.401   3.630   6.657  0.8432  0.3775  0.5484
 8427SOL     OW36916   3.554   0.430  17.721  0.6178  0.5435 -0.2430
 8427SOL    HW136917   3.474   0.397  17.681 -1.3902  2.3560  2.2883
 8427SOL    HW236918   3.540   0.524  17.732 -0.6618  0.1457  1.4930
 8428SOL     OW36919   0.292   1.809   4.684 -0.2477 -0.0223 -0.3063
 8428SOL    HW136920   0.293   1.859   4.603  0.8032 -0.2922 -0.4601
 8428SOL    HW236921   0.370   1.847   4.724 -1.3781 -0.0867  2.0052
 8429SOL     OW36922   0.527   1.770   9.364  0.2058  0.1590  0.0427
 8429SOL    HW136923   0.603   1.737   9.412 -1.3539 -0.5143  2.0305
 8429SOL    HW236924   0.495   1.839   9.422  1.1386  1.0163 -0.4490
 8430SOL     OW36925   2.300   4.264   8.711 -0.4283 -0.0238  0.5407
 8430SOL    HW136926   2.304   4.353   8.747  0.8656  0.6523 -1.2523
 8430SOL    HW236927   2.302   4.210   8.790 -0.5334 -1.3191 -0.3612
 8431SOL     OW36928   1.088   4.418   7.274 -0.2678 -0.8694 -0.2575
 8431SOL    HW136929   1.031   4.341   7.275 -1.8301  0.2658 -1.5634
 8431SOL    HW236930   1.129   4.401   7.190 -1.6907 -1.4167 -0.8575
 8432SOL     OW36931   2.955   2.534  16.858 -0.1242  1.0311 -0.6489
 8432SOL    HW136932   2.875   2.561  16.905  1.0964  1.2972  1.2806
 8432SOL    HW236933   2.901   2.470  16.812  1.9302 -0.4539 -0.9669
 8433SOL     OW36934   4.460   1.960  17.349 -0.4087 -0.1918  0.1183
 8433SOL    HW136935   4.510   2.026  17.398  0.2045 -2.1716  2.1512
 8433SOL    HW236936   4.475   1.885  17.405  1.0432  0.6312  0.8315
 8434SOL     OW36937   2.779   0.808  16.744  0.5010 -0.2735  0.1275
 8434SOL    HW136938   2.870   0.828  16.722  0.2573  0.0203 -0.5906
 8434SOL    HW236939   2.797   0.745  16.815  1.0144  3.0164  2.9207
 8435SOL     OW36940   0.588   3.715  11.383 -0.0989  0.9392  0.1639
 8435SOL    HW136941   0.543   3.798  11.366  2.0850  2.5382  2.2817
 8435SOL    HW236942   0.656   3.712  11.315 -1.1221 -0.4092 -0.7945
 8436SOL     OW36943   2.818   0.518   5.556 -0.0699  0.1033  0.1896
 8436SOL    HW136944   2.790   0.560   5.475  0.8501  0.4614  0.0632
 8436SOL    HW236945   2.887   0.459   5.526  0.0648 -0.6214  1.9062
 8437SOL     OW36946   1.371   2.133   7.793 -0.1285 -0.2258  0.0571
 8437SOL    HW136947   1.399   2.169   7.709  1.4727  1.4035  1.2791
 8437SOL    HW236948   1.410   2.189   7.860 -1.0700 -0.6715  0.9735
 8438SOL     OW36949   1.180   3.453   9.143  0.2321  0.2155 -0.3065
 8438SOL    HW136950   1.213   3.514   9.078 -4.1168  2.1236 -0.7553
 8438SOL    HW236951   1.145   3.516   9.206  2.0561  1.2948 -0.3749
 8439SOL     OW36952   2.383   4.103   8.947 -0.0878  0.4984 -0.0707
 8439SOL    HW136953   2.336   4.129   9.027 -1.4946  1.3959 -1.1774
 8439SOL    HW236954   2.390   4.008   8.953 -1.7060  0.2710 -1.6075
 8440SOL     OW36955   4.651   4.718   2.050 -0.3054  0.3724  0.5455
 8440SOL    HW136956   4.690   4.643   2.006 -0.2320  0.5261  0.3537
 8440SOL    HW236957   4.619   0.037   1.978 -2.5499  0.3337  1.4867
 8441SOL     OW36958   4.097   2.809   0.954  0.1393  0.6896 -0.0929
 8441SOL    HW136959   4.081   2.832   1.046 -0.2856 -0.9672  0.2452
 8441SOL    HW236960   4.098   2.713   0.957 -0.9387  0.7151  1.3858
 8442SOL     OW36961   4.369   3.216   3.727 -0.2575  0.3833  0.2685
 8442SOL    HW136962   4.441   3.166   3.767  0.3721 -0.6866 -2.2486
 8442SOL    HW236963   4.296   3.168   3.766  0.2032 -0.6186 -0.1038
 8443SOL     OW36964   3.894   0.654   7.661 -0.0122  0.8946  0.2334
 8443SOL    HW136965   3.875   0.693   7.575 -1.6575  1.2377  0.7492
 8443SOL    HW236966   3.935   0.569   7.647 -0.5888  0.6217  0.1917
 8444SOL     OW36967   3.049   2.703   3.995 -0.2562  0.1567 -0.1330
 8444SOL    HW136968   2.966   2.713   3.947 -1.2276 -2.2178  1.0750
 8444SOL    HW236969   3.103   2.755   3.936 -0.7391  0.8185  0.0041
 8445SOL     OW36970   3.756   4.436   3.508 -0.1387  0.1995 -0.1413
 8445SOL    HW136971   3.722   4.392   3.585 -1.6393 -0.0933 -0.9659
 8445SOL    HW236972   3.686   4.449   3.444  1.2529  0.6559 -1.5653
 8446SOL     OW36973   1.748   2.347   1.385 -0.7439  0.1000  0.0312
 8446SOL    HW136974   1.798   2.424   1.361 -1.2372 -0.0272 -1.4105
 8446SOL    HW236975   1.673   2.384   1.431 -1.1828  0.0734 -0.6556
 8447SOL     OW36976   0.369   0.701   3.106  0.1398  0.3198  0.0007
 8447SOL    HW136977   0.414   0.617   3.114  1.2962  0.7725 -1.8263
 8447SOL    HW236978   0.420   0.756   3.165 -1.2565  1.7831 -0.1323
 8448SOL     OW36979   4.222   1.096   5.519 -0.1981 -0.6377  0.5022
 8448SOL    HW136980   4.145   1.102   5.575  1.2637 -0.1898  2.4768
 8448SOL    HW236981   4.252   1.187   5.524  2.8560 -1.6918  1.3704
 8449SOL     OW36982   0.607   3.056  14.000 -0.5593 -0.2176 -0.4813
 8449SOL    HW136983   0.656   3.076  14.080 -1.0404  0.5479 -0.3863
 8449SOL    HW236984   0.605   2.960  14.004  0.0065 -0.0941  2.5502
 8450SOL     OW36985   1.298   0.552   5.083 -0.0629 -0.2684  0.0940
 8450SOL    HW136986   1.374   0.537   5.140  0.1284  2.0414  0.4647
 8450SOL    HW236987   1.229   0.524   5.143 -0.2382 -0.0776 -0.0182
 8451SOL     OW36988   3.067   2.542   6.537 -0.0824 -0.4780 -0.0094
 8451SOL    HW136989   3.055   2.503   6.450 -1.3721 -2.2288  0.9428
 8451SOL    HW236990   3.135   2.605   6.512  0.0628 -1.5734 -2.3510
 8452SOL     OW36991   2.298   0.356   8.705 -0.2673  0.3458 -0.0012
 8452SOL    HW136992   2.292   0.451   8.694 -0.3437  0.5435  1.7153
 8452SOL    HW236993   2.234   0.348   8.777 -0.6014  1.6490 -0.1512
 8453SOL     OW36994   2.096   3.915   8.116 -0.3671  0.0143 -0.0907
 8453SOL    HW136995   2.162   3.947   8.054 -2.5125  1.2337 -1.7216
 8453SOL    HW236996   2.114   3.823   8.096  0.2995 -0.1352  1.1937
 8454SOL     OW36997   0.917   2.142   5.912 -0.2263 -0.2044  0.1380
 8454SOL    HW136998   0.869   2.188   5.843 -1.1714  0.1127  1.0048
 8454SOL    HW236999   0.920   2.211   5.978 -0.4272 -2.3781  2.4326
 8455SOL     OW37000   0.946   0.408   1.028 -0.5342  0.0564 -0.4935
 8455SOL    HW137001   0.932   0.319   0.993  0.5059 -0.7505  1.1605
 8455SOL    HW237002   0.936   0.455   0.945 -0.6654  0.6650 -0.1299
 8456SOL     OW37003   0.435   3.515  15.606  0.2044 -0.4459 -0.0724
 8456SOL    HW137004   0.397   3.457  15.672 -0.1032 -0.7844 -0.5473
 8456SOL    HW237005   0.388   3.599  15.611 -2.7770 -2.2800  2.4995
 8457SOL     OW37006   1.329   0.565   7.445 -0.3936  0.6644 -0.5329
 8457SOL    HW137007   1.413   0.611   7.443 -0.3691  0.5976 -1.1479
 8457SOL    HW237008   1.271   0.626   7.399 -0.5096  1.5191  0.7674
 8458SOL     OW37009   4.216   0.156   5.647 -0.4928 -0.1432 -0.0793
 8458SOL    HW137010   4.277   0.202   5.705  0.7932 -0.5710 -1.0851
 8458SOL    HW237011   4.230   0.203   5.564 -0.8962  3.2568  1.8028
 8459SOL     OW37012   0.188   3.015   3.363  0.2229 -0.0777 -0.0700
 8459SOL    HW137013   0.270   3.059   3.339  0.0048  0.4256  0.1061
 8459SOL    HW237014   0.205   2.979   3.449  1.4493 -1.2494 -0.8099
 8460SOL     OW37015   3.152   4.063   6.423 -0.0297  0.4307  0.3061
 8460SOL    HW137016   3.155   3.973   6.456 -1.8612  0.2868  0.0294
 8460SOL    HW237017   3.241   4.080   6.392 -0.0304 -1.2084 -0.5803
 8461SOL     OW37018   1.337   2.792  13.934  0.3324 -0.3962  0.0301
 8461SOL    HW137019   1.392   2.862  13.969 -0.1448  0.8128 -1.5925
 8461SOL    HW237020   1.300   2.750  14.011  1.0583  2.9462  2.1753
 8462SOL     OW37021   3.425   4.055  16.990  0.0694 -0.2630  0.3342
 8462SOL    HW137022   3.399   4.040  17.081  2.1191 -3.1222  0.4731
 8462SOL    HW237023   3.506   4.004  16.984 -0.1483 -0.6892  0.9783
 8463SOL     OW37024   0.826   0.487   1.252  0.3161  0.0820 -0.5435
 8463SOL    HW137025   0.880   0.464   1.176 -1.6992 -0.0998 -1.9240
 8463SOL    HW237026   0.846   0.414   1.311 -1.1947  1.3517  1.5088
 8464SOL     OW37027   2.918   2.735   6.126  0.0726 -0.2516 -0.2239
 8464SOL    HW137028   2.978   2.807   6.104  2.0753 -0.9292  3.0578
 8464SOL    HW237029   2.904   2.749   6.220 -2.0937  1.5506 -0.8038
 8465SOL     OW37030   2.526   3.014  12.959  0.3583 -0.3703  0.5558
 8465SOL    HW137031   2.618   3.038  12.975  1.1505 -2.1922 -1.3883
 8465SOL    HW237032   2.483   3.099  12.946  0.2261 -0.5301 -0.0304
 8466SOL     OW37033   3.554   3.526   8.009  0.2279  0.2726  0.5005
 8466SOL    HW137034   3.508   3.519   8.093  0.0945 -0.0473  0.4040
 8466SOL    HW237035   3.646   3.510   8.030  0.6007 -0.2683 -1.5868
 8467SOL     OW37036   0.374   2.434  15.196 -0.1257 -0.1343  0.2073
 8467SOL    HW137037   0.442   2.466  15.255  0.4123 -1.0426  0.0664
 8467SOL    HW237038   0.383   2.495  15.122  1.0186 -0.4700  0.0768
 8468SOL     OW37039   2.813   1.150   6.168  0.2748  0.5852 -0.1372
 8468SOL    HW137040   2.876   1.088   6.132  0.3179  1.4676 -1.5607
 8468SOL    HW237041   2.774   1.193   6.092  0.9044  2.1523  0.4277
 8469SOL     OW37042   0.156   2.956   8.573 -0.2612 -0.0201  0.5116
 8469SOL    HW137043   0.064   2.939   8.555 -0.0386 -0.4003 -0.2836
 8469SOL    HW237044   0.202   2.872   8.565 -1.1487 -0.4410 -0.1465
 8470SOL     OW37045   2.446   2.783   3.071 -0.3107 -0.4381 -0.3045
 8470SOL    HW137046   2.534   2.746   3.066  0.1150  0.5805 -0.2517
 8470SOL    HW237047   2.458   2.871   3.106  1.8392 -1.2187  0.9068
 8471SOL     OW37048   0.445   2.885   3.335 -0.1369  0.1443 -0.2228
 8471SOL    HW137049   0.500   2.825   3.386  0.7227 -0.1200 -1.4570
 8471SOL    HW237050   0.513   2.924   3.280  0.6890  0.8856  1.3230
 8472SOL     OW37051   0.377   2.480   2.304 -0.1231  0.1745 -0.7195
 8472SOL    HW137052   0.454   2.532   2.327 -0.6493 -0.2426  1.9468
 8472SOL    HW237053   0.401   2.389   2.316 -0.9235 -0.0782 -0.9794
 8473SOL     OW37054   3.710   3.393   8.853  0.3101  0.2151  0.1782
 8473SOL    HW137055   3.631   3.421   8.899  0.2740  1.6407 -0.7367
 8473SOL    HW237056   3.692   3.299   8.855 -0.1099  0.2903 -0.1500
 8474SOL     OW37057   3.964   4.094  10.214  0.6366 -0.0697 -0.3036
 8474SOL    HW137058   4.025   4.031  10.251 -1.4892 -0.8244  1.9579
 8474SOL    HW237059   3.955   4.064  10.124  0.2336 -0.5167 -0.1194
 8475SOL     OW37060   3.062   2.079   8.689 -0.2730  0.0839  0.6624
 8475SOL    HW137061   3.138   2.093   8.632 -0.1285 -0.0241  0.8318
 8475SOL    HW237062   3.100   2.016   8.749 -1.9927 -0.9225  0.6730
 8476SOL     OW37063   1.788   3.585   3.951  0.2243 -0.0987 -0.3280
 8476SOL    HW137064   1.803   3.522   3.881 -1.3012 -0.8024 -0.0292
 8476SOL    HW237065   1.760   3.529   4.024 -0.4575 -1.9728 -2.0368
 8477SOL     OW37066   0.988   0.056   7.855  0.3983  0.4634  0.2741
 8477SOL    HW137067   1.039   4.712   7.836 -2.2154 -1.6754  2.2231
 8477SOL    HW237068   1.015   0.080   7.944  1.8502 -4.3311  1.0969
 8478SOL     OW37069   3.750   1.980   8.051 -0.2922 -0.5218 -0.4489
 8478SOL    HW137070   3.827   1.923   8.049 -0.0238 -0.1705 -0.1481
 8478SOL    HW237071   3.762   2.011   7.962 -1.3318 -0.7374 -0.6649
 8479SOL     OW37072   0.985   3.904  12.647  0.2350 -0.7798 -0.6112
 8479SOL    HW137073   0.942   3.963  12.585  0.4748  0.5799  0.5336
 8479SOL    HW237074   0.944   3.933  12.728  0.2659  1.0264 -1.2336
 8480SOL     OW37075   4.251   0.372   1.616  0.2996  0.1099 -0.7423
 8480SOL    HW137076   4.326   0.327   1.575 -0.2690 -1.2602 -0.2533
 8480SOL    HW237077   4.176   0.345   1.564  2.0574 -1.1856 -2.6320
 8481SOL     OW37078   4.672   4.303   6.698 -0.2608  0.4954  0.2618
 8481SOL    HW137079   4.624   4.382   6.672  0.3909  0.5841 -0.6542
 8481SOL    HW237080   4.621   4.234   6.656 -2.0464  1.0676  1.4674
 8482SOL     OW37081   0.106   1.287   2.189  0.1895 -1.1121 -0.8502
 8482SOL    HW137082   0.191   1.257   2.221  1.4243  3.7688  0.5114
 8482SOL    HW237083   0.074   1.204   2.154  1.2140 -1.4564 -0.9575
 8483SOL     OW37084   0.203   1.230   9.009 -0.1988  0.4655 -0.0966
 8483SOL    HW137085   0.249   1.148   8.993 -1.8929 -0.6283  0.7180
 8483SOL    HW237086   0.232   1.248   9.099 -0.3406 -1.5252  0.3476
 8484SOL     OW37087   3.341   1.624   7.976  0.2060  0.1639  0.1849
 8484SOL    HW137088   3.423   1.606   8.021 -0.1470  0.1362  0.8149
 8484SOL    HW237089   3.367   1.700   7.924  2.3814 -1.1215 -0.6150
 8485SOL     OW37090   1.088   3.774  10.861 -0.4734 -0.1647  0.1052
 8485SOL    HW137091   0.994   3.788  10.878 -0.6538 -0.6514 -0.5175
 8485SOL    HW237092   1.086   3.711  10.789  1.6707 -3.7011  3.1028
 8486SOL     OW37093   0.310   4.124   6.603  0.0726 -0.2849 -0.5090
 8486SOL    HW137094   0.362   4.163   6.532 -1.9994  0.3335 -1.6783
 8486SOL    HW237095   0.371   4.134   6.676 -0.1934  1.3409 -0.4917
 8487SOL     OW37096   0.885   2.431   0.403 -0.4978  0.4097 -0.6637
 8487SOL    HW137097   0.932   2.351   0.426  1.5389  1.9110  0.3689
 8487SOL    HW237098   0.957   2.491   0.387 -0.0064  0.1170  0.4560
 8488SOL     OW37099   0.138   0.530   2.366 -0.2535  0.2573  0.0170
 8488SOL    HW137100   0.149   0.482   2.447  1.4234 -1.7812 -1.4343
 8488SOL    HW237101   0.101   0.465   2.307  0.5599  0.1189 -0.3373
 8489SOL     OW37102   2.389   3.033   8.057 -0.1404 -0.1470  0.1854
 8489SOL    HW137103   2.443   2.958   8.082 -0.5050 -0.7833 -0.9526
 8489SOL    HW237104   2.395   3.085   8.137  0.5556 -0.9540  0.6585
 8490SOL     OW37105   0.258   2.796  14.795  0.5545 -0.1003  0.0420
 8490SOL    HW137106   0.277   2.760  14.708 -1.5263 -2.0172  0.3631
 8490SOL    HW237107   0.336   2.845  14.819 -0.7571  1.0942  1.8789
 8491SOL     OW37108   0.040   2.525   5.658  0.4493 -0.9773  0.0075
 8491SOL    HW137109   4.688   2.523   5.618  0.0598  2.8268  0.6728
 8491SOL    HW237110   0.054   2.432   5.639  1.0553 -0.8576 -0.1302
 8492SOL     OW37111   3.360   2.053   7.343 -0.1658 -0.5690 -0.2390
 8492SOL    HW137112   3.329   2.142   7.333  1.9331 -0.1198 -2.6753
 8492SOL    HW237113   3.419   2.032   7.270 -1.5670  1.3302 -1.8993
 8493SOL     OW37114   4.281   2.160   1.004  0.1103  0.3971 -0.6281
 8493SOL    HW137115   4.302   2.068   0.991  0.6662  0.2548  1.2701
 8493SOL    HW237116   4.193   2.162   0.967 -0.0053 -2.0547 -0.4572
 8494SOL     OW37117   4.548   2.578   5.493  0.1572 -0.1010  0.8943
 8494SOL    HW137118   4.571   2.670   5.485 -0.3433 -0.0897 -0.3243
 8494SOL    HW237119   4.462   2.585   5.536  0.2369 -1.8135  1.3769
 8495SOL     OW37120   2.741   3.652   2.186 -0.4222  0.0860  0.0096
 8495SOL    HW137121   2.731   3.588   2.116  0.9512 -0.6970  0.5152
 8495SOL    HW237122   2.693   3.613   2.258 -2.2404  0.7139 -0.8662
 8496SOL     OW37123   3.759   1.568   2.859  0.0998 -0.2919  0.3030
 8496SOL    HW137124   3.745   1.659   2.833  1.6587 -0.5150 -1.2742
 8496SOL    HW237125   3.678   1.529   2.826  1.0963 -1.8474 -0.2934
 8497SOL     OW37126   3.052   1.282   4.049  0.1819 -0.3477 -0.3060
 8497SOL    HW137127   3.091   1.207   4.004  2.7435  1.0538 -0.4208
 8497SOL    HW237128   2.977   1.238   4.090 -0.6842  0.9368 -0.5243
 8498SOL     OW37129   0.682   3.360  11.691 -0.5478  0.5442  0.4051
 8498SOL    HW137130   0.708   3.444  11.653 -0.9855 -0.4625 -2.1037
 8498SOL    HW237131   0.721   3.364  11.778 -0.2925  0.0476  0.3133
 8499SOL     OW37132   2.444   3.465  15.173  0.0562 -0.4018 -0.1410
 8499SOL    HW137133   2.505   3.450  15.101  0.2856 -1.4284  0.2627
 8499SOL    HW237134   2.418   3.376  15.198  0.5865 -0.3834  0.4819
 8500SOL     OW37135   3.443   3.464   5.133 -0.1820  0.4913  0.3844
 8500SOL    HW137136   3.360   3.483   5.177  0.0479 -0.7156  1.3330
 8500SOL    HW237137   3.508   3.522   5.173  1.8938  0.4681 -2.9399
 8501SOL     OW37138   2.137   0.274  17.520 -0.0214 -0.0231 -0.0563
 8501SOL    HW137139   2.116   0.295  17.429 -0.9591  0.8951  0.3749
 8501SOL    HW237140   2.063   0.312  17.566  0.9367  1.5222  0.2037
 8502SOL     OW37141   0.899   2.403   8.792  0.2430  0.3761  0.1392
 8502SOL    HW137142   0.828   2.445   8.839  0.3567  1.6582 -0.8339
 8502SOL    HW237143   0.966   2.472   8.789 -0.1562  0.6588 -1.8785
 8503SOL     OW37144   4.314   3.657   4.094 -0.3913  0.0212  0.2025
 8503SOL    HW137145   4.266   3.595   4.149 -1.2444  0.3334 -0.1894
 8503SOL    HW237146   4.247   3.725   4.088 -1.4146 -0.9671  0.3813
 8504SOL     OW37147   3.736   0.667   1.793  0.0533  0.7251  0.0915
 8504SOL    HW137148   3.652   0.640   1.757  0.4431  1.9663 -1.7069
 8504SOL    HW237149   3.724   0.638   1.884 -1.7666  1.4755  0.0953
 8505SOL     OW37150   1.722   4.206   3.034 -0.1260  0.1088  0.3038
 8505SOL    HW137151   1.696   4.298   3.029  1.0942  0.5843  2.7245
 8505SOL    HW237152   1.739   4.182   2.943  2.3753  1.6476  0.3716
 8506SOL     OW37153   1.683   0.382   3.213 -0.0832 -0.0313  0.1525
 8506SOL    HW137154   1.704   0.296   3.249 -0.7495  0.1083  0.8795
 8506SOL    HW237155   1.750   0.409   3.150 -1.4786 -0.2992 -1.4472
 8507SOL     OW37156   3.338   3.165   7.293  0.3141 -0.1247  0.0985
 8507SOL    HW137157   3.407   3.113   7.333  1.8440  1.9494  0.1786
 8507SOL    HW237158   3.298   3.219   7.362  1.0818 -0.5074  0.8460
 8508SOL     OW37159   0.488   0.758   6.258  0.2481  0.1423  0.0097
 8508SOL    HW137160   0.505   0.851   6.245  1.4238 -0.1942 -0.7851
 8508SOL    HW237161   0.399   0.758   6.222  0.8040  0.1879 -1.3469
 8509SOL     OW37162   4.100   3.270   6.691  0.3686 -0.3129  0.2125
 8509SOL    HW137163   4.152   3.256   6.611  0.9516 -1.4815  0.7977
 8509SOL    HW237164   4.055   3.352   6.672  1.4907  0.2466 -0.0323
 8510SOL     OW37165   2.306   0.133   2.366 -0.0757  0.0216 -0.1642
 8510SOL    HW137166   2.225   0.158   2.410 -0.3763 -1.2548  0.0253
 8510SOL    HW237167   2.274   0.080   2.293  3.7200 -1.5265 -0.6891
 8511SOL     OW37168   2.610   2.082   8.200 -0.2327  0.4540 -0.2809
 8511SOL    HW137169   2.516   2.064   8.202 -0.8188  3.5819  0.4231
 8511SOL    HW237170   2.611   2.127   8.115 -1.3647  0.1666 -0.4451
 8512SOL     OW37171   1.505   2.313   8.904 -0.2563 -0.6022  0.1341
 8512SOL    HW137172   1.433   2.305   8.842 -0.9785  0.0951  0.8812
 8512SOL    HW237173   1.488   2.400   8.940 -2.6989 -0.7679 -0.6426
 8513SOL     OW37174   2.588   1.034   9.775  0.4790 -0.1660 -0.2122
 8513SOL    HW137175   2.577   0.980   9.697 -2.4045  1.0315 -0.6319
 8513SOL    HW237176   2.620   1.115   9.736 -0.2450  0.1115 -0.2206
 8514SOL     OW37177   0.732   1.889   5.022 -0.2935  0.7572  0.5110
 8514SOL    HW137178   0.781   1.903   5.103 -0.8499  0.7342  0.8471
 8514SOL    HW237179   0.644   1.868   5.054 -1.4408  2.7648 -1.4149
 8515SOL     OW37180   2.655   3.708  12.479  0.1728  0.5901  0.5482
 8515SOL    HW137181   2.614   3.623  12.491  3.5902 -0.9787  0.9728
 8515SOL    HW237182   2.578   3.764  12.492  0.2847  0.9922 -0.4895
 8516SOL     OW37183   2.706   1.446   9.055 -0.1725  0.1745  0.2896
 8516SOL    HW137184   2.744   1.478   8.973 -1.1794 -0.2781 -0.3589
 8516SOL    HW237185   2.689   1.355   9.033 -0.9311  0.1318  1.0353
 8517SOL     OW37186   3.991   1.705   7.653 -0.2343  0.0976  0.3967
 8517SOL    HW137187   3.921   1.676   7.594  0.2317  1.0692 -0.6281
 8517SOL    HW237188   3.941   1.725   7.732 -0.8049 -0.5189  0.1916
 8518SOL     OW37189   0.263   1.911   3.068  0.6251  0.0188 -0.1969
 8518SOL    HW137190   0.283   1.926   3.160  3.3299 -1.6063 -0.4957
 8518SOL    HW237191   0.268   1.815   3.070 -1.6987 -0.0308  2.5103
 8519SOL     OW37192   1.814   2.701   0.129 -0.1250 -0.3292 -0.4265
 8519SOL    HW137193   1.880   2.766   0.153 -1.5674  1.5161 -1.4672
 8519SOL    HW237194   1.785   2.743   0.048  2.4976  3.3519  0.5533
 8520SOL     OW37195   0.564   2.566  17.234 -0.0002 -0.4120 -0.3257
 8520SOL    HW137196   0.655   2.572  17.262  0.9552 -2.5961 -2.9202
 8520SOL    HW237197   0.563   2.590  17.141  3.7343  0.3449 -0.1420
 8521SOL     OW37198   0.076   3.964   1.705  0.4620  0.3371  1.0803
 8521SOL    HW137199   0.048   3.881   1.745 -0.9845  1.1985  1.8427
 8521SOL    HW237200   0.126   3.927   1.632 -0.9319 -2.2908  1.4576
 8522SOL     OW37201   3.180   1.454   5.844 -0.2896 -0.2015 -0.2542
 8522SOL    HW137202   3.123   1.453   5.767 -0.1528 -0.6684 -0.3513
 8522SOL    HW237203   3.121   1.425   5.913  0.4964 -2.3222 -0.4831
 8523SOL     OW37204   1.624   1.901   2.927 -0.0242  0.2742 -0.0502
 8523SOL    HW137205   1.663   1.888   2.840  2.8873  0.5724  1.2388
 8523SOL    HW237206   1.607   1.809   2.946 -1.0174  0.7068  1.1399
 8524SOL     OW37207   1.750   4.059   8.025  0.3533 -0.3693  0.1469
 8524SOL    HW137208   1.701   4.139   8.008  0.7007  0.2787  2.2619
 8524SOL    HW237209   1.813   4.076   7.955 -0.4747 -0.5616 -0.6466
 8525SOL     OW37210   1.494   4.624   7.572 -0.3948 -0.4890  0.6905
 8525SOL    HW137211   1.527   4.655   7.488  1.3790 -1.3992  1.0419
 8525SOL    HW237212   1.406   4.661   7.582 -0.5196  0.0879 -2.5388
 8526SOL     OW37213   4.386   2.604  10.419  0.2274  0.2893 -0.6536
 8526SOL    HW137214   4.471   2.648  10.427  1.1817 -1.7209  0.3136
 8526SOL    HW237215   4.371   2.581  10.327  0.6811 -3.3216  0.2028
 8527SOL     OW37216   1.858   4.136   7.421 -0.5889 -0.4955  0.2447
 8527SOL    HW137217   1.895   4.179   7.344 -0.9237  0.6252  0.7052
 8527SOL    HW237218   1.941   4.103   7.456  2.3929  2.6713 -3.7630
 8528SOL     OW37219   4.191   2.102   5.533 -0.1233  0.1017 -0.4531
 8528SOL    HW137220   4.111   2.081   5.486  0.9135  0.2914 -2.2957
 8528SOL    HW237221   4.258   2.042   5.500 -1.7538 -2.1526  0.3783
 8529SOL     OW37222   4.355   0.711   3.772 -0.0526 -0.5930  0.4129
 8529SOL    HW137223   4.405   0.643   3.816 -0.0664 -0.2658  0.9400
 8529SOL    HW237224   4.412   0.724   3.696 -1.7571  1.5596 -0.5126
 8530SOL     OW37225   3.708   4.246   5.600 -0.2359  0.4795 -0.1313
 8530SOL    HW137226   3.784   4.189   5.596  0.2009  1.1420 -1.2232
 8530SOL    HW237227   3.748   4.326   5.634 -1.4885  2.2845 -2.9264
 8531SOL     OW37228   0.369   1.070   1.182 -0.0544  0.2076 -0.2224
 8531SOL    HW137229   0.434   1.035   1.120 -1.6525  0.6519 -2.1681
 8531SOL    HW237230   0.314   0.992   1.189 -0.4910  0.5115 -0.3125
 8532SOL     OW37231   3.037   0.585   4.195  0.2384  0.2032  0.7674
 8532SOL    HW137232   3.074   0.566   4.108  1.7611  1.4671  1.1386
 8532SOL    HW237233   3.058   0.676   4.214  0.2306  0.3965 -0.1232
 8533SOL     OW37234   4.085   2.367   7.826  0.1092 -0.2001 -0.0467
 8533SOL    HW137235   4.073   2.359   7.732  1.6211 -1.0667 -0.1528
 8533SOL    HW237236   3.995   2.352   7.857 -0.3519 -0.2876 -1.4484
 8534SOL     OW37237   4.199   0.433   8.506  0.5718  0.1368  0.1479
 8534SOL    HW137238   4.284   0.388   8.505  0.4660 -0.0154 -1.6155
 8534SOL    HW237239   4.237   0.516   8.477  1.1757  0.4482  1.8228
 8535SOL     OW37240   2.512   1.428   4.599 -0.0050  0.0099 -0.0181
 8535SOL    HW137241   2.570   1.356   4.573 -0.3107  0.3244 -1.5905
 8535SOL    HW237242   2.568   1.505   4.587 -1.2774  0.9248 -0.0068
 8536SOL     OW37243   4.245   3.723   2.939  0.4934  0.1102  0.6959
 8536SOL    HW137244   4.265   3.812   2.912  3.2410 -1.0718 -1.1277
 8536SOL    HW237245   4.183   3.740   3.010  1.2878  2.3762  0.8452
 8537SOL     OW37246   3.991   1.856   6.425 -0.1471 -0.2730  0.0080
 8537SOL    HW137247   3.991   1.772   6.470  1.1080 -1.4611 -2.2251
 8537SOL    HW237248   3.958   1.916   6.492  2.1731 -0.1807  1.0973
 8538SOL     OW37249   3.191   3.937  15.841  0.5579  0.2163  0.0279
 8538SOL    HW137250   3.269   3.979  15.876  2.2700 -3.1674  0.3487
 8538SOL    HW237251   3.219   3.911  15.753  1.8309  0.6071  0.3148
 8539SOL     OW37252   2.869   3.003  10.806 -0.0073  0.4522  0.3420
 8539SOL    HW137253   2.805   3.071  10.785 -0.7602 -0.0700  0.9295
 8539SOL    HW237254   2.943   3.032  10.753 -0.9134  2.0598 -0.0401
 8540SOL     OW37255   0.306   3.459   7.068 -0.0663 -0.3361  0.2470
 8540SOL    HW137256   0.342   3.448   7.156 -1.5520 -0.1073  0.8656
 8540SOL    HW237257   0.214   3.484   7.067  0.6159  2.2080  0.0180
 8541SOL     OW37258   3.876   0.559   2.234  0.0328 -0.2293 -0.5558
 8541SOL    HW137259   3.931   0.592   2.163  1.9868 -3.5179 -0.5717
 8541SOL    HW237260   3.888   0.464   2.231  0.5912 -0.1526 -0.7346
 8542SOL     OW37261   0.241   3.934   7.465  0.0926 -0.4996  0.8906
 8542SOL    HW137262   0.215   3.945   7.373  1.1210  0.7410  0.7421
 8542SOL    HW237263   0.318   3.876   7.459  0.6703  0.5100 -1.7306
 8543SOL     OW37264   2.983   2.834  16.374 -0.1954 -0.3124 -0.0605
 8543SOL    HW137265   2.900   2.881  16.379  0.2582  0.2210  2.4492
 8543SOL    HW237266   3.017   2.830  16.464  3.1610 -1.6975 -1.4010
 8544SOL     OW37267   0.754   4.489   1.913 -0.6377 -0.4143 -0.0563
 8544SOL    HW137268   0.846   4.511   1.929 -1.1308  0.6984  1.2338
 8544SOL    HW237269   0.737   4.549   1.840 -0.4875 -0.2443  0.0490
 8545SOL     OW37270   2.214   3.187   8.284 -0.2487  0.4198 -0.0664
 8545SOL    HW137271   2.129   3.149   8.305  0.2920 -0.4649  0.5766
 8545SOL    HW237272   2.259   3.151   8.361  0.3414 -0.6618 -0.9198
 8546SOL     OW37273   0.017   1.405   7.848 -0.4383 -0.4019 -0.1338
 8546SOL    HW137274   4.713   1.405   7.760 -1.1815 -0.5526  0.1943
 8546SOL    HW237275   4.693   1.341   7.888 -0.8457  0.5118  0.7271
 8547SOL     OW37276   0.017   2.076   9.743  0.6569 -0.2162  0.4007
 8547SOL    HW137277   0.026   2.076   9.838  0.6887  0.4100  0.3973
 8547SOL    HW237278   0.018   1.980   9.738  1.3672 -0.0718 -2.1025
 8548SOL     OW37279   3.165   2.127   5.244 -0.0071 -0.4609 -0.3747
 8548SOL    HW137280   3.256   2.145   5.266 -1.0635 -1.5066  4.8144
 8548SOL    HW237281   3.144   2.216   5.215 -0.6880 -0.6001 -0.3161
 8549SOL     OW37282   3.157   4.049  13.775 -0.1790  0.0963  0.4742
 8549SOL    HW137283   3.229   3.993  13.746  0.9644  1.8065 -0.0281
 8549SOL    HW237284   3.189   4.067  13.864  1.5336 -0.4599 -0.0327
 8550SOL     OW37285   1.592   2.278   3.666 -0.3067  0.6698 -0.0067
 8550SOL    HW137286   1.546   2.228   3.599  0.3518  0.0052  0.0285
 8550SOL    HW237287   1.516   2.330   3.692  0.3932  0.6887  2.0133
 8551SOL     OW37288   2.151   2.704   7.876  0.3720 -0.0752  0.7314
 8551SOL    HW137289   2.244   2.715   7.899  1.1557 -0.7002 -2.1532
 8551SOL    HW237290   2.145   2.610   7.864  2.7683 -0.1159 -0.0659
 8552SOL     OW37291   3.329   1.304   0.495  0.4638 -0.0488  0.3442
 8552SOL    HW137292   3.259   1.315   0.431  0.1480 -0.3333  0.6323
 8552SOL    HW237293   3.400   1.338   0.442  0.9097  0.2417  1.1247
 8553SOL     OW37294   4.667   2.212   5.768 -0.4033 -0.3433  0.2688
 8553SOL    HW137295   4.627   2.158   5.699 -0.1937 -1.3427  0.9324
 8553SOL    HW237296   4.641   2.300   5.742 -1.9545 -0.8800  0.0103
 8554SOL     OW37297   3.547   0.140   3.977  0.4141 -0.1445 -0.0836
 8554SOL    HW137298   3.473   0.146   3.915  1.0593  0.9019 -0.7621
 8554SOL    HW237299   3.501   0.111   4.055  1.3385 -2.4530 -0.3974
 8555SOL     OW37300   0.131   0.709   7.608 -0.1573 -0.4218  0.0079
 8555SOL    HW137301   0.134   0.616   7.628  1.9609 -0.1052  1.1881
 8555SOL    HW237302   0.170   0.753   7.684 -0.1979  0.2529 -0.3588
 8556SOL     OW37303   0.960   1.515  12.971  0.4017 -0.2861 -0.0061
 8556SOL    HW137304   0.979   1.421  12.975 -0.9614 -0.4561  2.7048
 8556SOL    HW237305   1.045   1.559  12.977 -0.0798  0.8928 -2.0811
 8557SOL     OW37306   2.614   1.791   3.142 -0.0989  0.1319 -0.5096
 8557SOL    HW137307   2.590   1.702   3.116 -2.9335  0.1540  2.0453
 8557SOL    HW237308   2.664   1.775   3.222  0.4826 -2.9993 -1.5130
 8558SOL     OW37309   3.869   0.580  11.883  0.2864 -0.3826 -0.5397
 8558SOL    HW137310   3.878   0.611  11.973 -0.6591  1.6322 -1.1388
 8558SOL    HW237311   3.959   0.554  11.862  0.3296  0.9704 -2.0234
 8559SOL     OW37312   4.035   3.416   6.158  0.6263  0.3044 -0.2149
 8559SOL    HW137313   4.028   3.506   6.188 -0.4179 -0.7029  2.4989
 8559SOL    HW237314   3.946   3.386   6.141  0.0094  1.4643  1.0986
 8560SOL     OW37315   3.499   2.560   5.857 -0.1298  0.3008 -0.1975
 8560SOL    HW137316   3.469   2.537   5.769 -1.8253 -0.2596  0.5299
 8560SOL    HW237317   3.415   2.586   5.896  0.2294 -0.3329  0.9860
 8561SOL     OW37318   4.713   3.763   0.988 -0.0961 -0.4573  0.1186
 8561SOL    HW137319   4.636   3.790   0.939 -1.2050 -0.7403  1.7009
 8561SOL    HW237320   0.041   3.731   0.923  0.4124  0.6900  0.0516
 8562SOL     OW37321   4.518   0.479   1.751  0.5732  0.0586  0.1439
 8562SOL    HW137322   4.496   0.404   1.696  1.7034 -0.4271  0.3697
 8562SOL    HW237323   4.441   0.534   1.734  0.3376  0.1291  1.4243
 8563SOL     OW37324   3.965   2.946   5.193  0.8319  0.0672  0.6436
 8563SOL    HW137325   4.042   3.000   5.176 -0.4747  0.8775 -2.6320
 8563SOL    HW237326   3.950   2.970   5.285  0.9710  1.3765  0.3298
 8564SOL     OW37327   1.375   2.942   6.189 -0.3744 -0.0866 -0.2428
 8564SOL    HW137328   1.401   2.928   6.280  3.2211  1.6956 -1.0183
 8564SOL    HW237329   1.395   3.035   6.178  3.1046 -1.2281 -3.4202
 8565SOL     OW37330   4.195   4.550   8.744  0.0794 -0.0004 -0.1579
 8565SOL    HW137331   4.186   4.484   8.675  1.3351  0.7737 -1.0630
 8565SOL    HW237332   4.256   4.500   8.798 -4.0832 -3.5761  1.2078
 8566SOL     OW37333   3.989   1.606   3.720  0.3000  0.2658 -0.3454
 8566SOL    HW137334   4.008   1.516   3.747  0.3408  0.8054  1.4026
 8566SOL    HW237335   3.997   1.598   3.625  0.2244  2.5955 -0.5565
 8567SOL     OW37336   4.252   3.328   8.946  0.5029  0.3432 -0.1482
 8567SOL    HW137337   4.225   3.418   8.966 -0.7659  0.3620 -1.9953
 8567SOL    HW237338   4.329   3.317   9.002  1.8983  0.3124 -2.1062
 8568SOL     OW37339   1.988   1.601  12.119 -0.2976  0.6174 -0.4001
 8568SOL    HW137340   1.980   1.540  12.193 -0.3690  2.5581  1.2015
 8568SOL    HW237341   2.028   1.675  12.164 -0.6990  1.5611 -1.5817
 8569SOL     OW37342   4.455   2.575   2.560  0.0139 -0.4145  0.4586
 8569SOL    HW137343   4.393   2.504   2.543 -2.2286  1.1298  2.1363
 8569SOL    HW237344   4.426   2.638   2.494  3.4945  0.5201 -0.1351
 8570SOL     OW37345   2.141   4.505   4.562  0.0737 -0.4757 -0.0321
 8570SOL    HW137346   2.151   4.583   4.506 -0.7766 -0.2217  0.1638
 8570SOL    HW237347   2.051   4.510   4.594 -0.1188  1.5745 -0.8243
 8571SOL     OW37348   3.695   3.045   8.331  0.4776 -0.1874 -0.2476
 8571SOL    HW137349   3.704   3.112   8.263 -0.2926 -0.9137 -1.0631
 8571SOL    HW237350   3.776   2.996   8.318  1.5448  1.5761 -0.3270
 8572SOL     OW37351   3.488   4.516  17.256  0.8453 -0.4444  1.0785
 8572SOL    HW137352   3.425   4.480  17.195 -0.8069  0.7907  2.0461
 8572SOL    HW237353   3.508   4.438  17.308  0.1211 -0.7081  0.9495
 8573SOL     OW37354   2.514   2.121   9.109 -0.0667 -1.1197  0.2670
 8573SOL    HW137355   2.608   2.140   9.111 -0.4637  0.9097 -0.8414
 8573SOL    HW237356   2.519   2.056   9.179 -2.4447  0.7337  2.1767
 8574SOL     OW37357   2.057   0.800  12.451 -0.0628  0.1606 -0.0652
 8574SOL    HW137358   2.059   0.816  12.356  1.0715  1.1529  0.1092
 8574SOL    HW237359   1.997   0.871  12.475  1.1634  1.1763  0.0155
 8575SOL     OW37360   2.661   3.873   3.488  0.1273  0.5077 -0.0107
 8575SOL    HW137361   2.725   3.822   3.439  1.2660  0.6915  1.2634
 8575SOL    HW237362   2.655   3.817   3.565 -1.9825  1.0227  0.2216
 8576SOL     OW37363   1.624   0.342  17.731  0.1027  0.0541  0.3829
 8576SOL    HW137364   1.710   0.384  17.727  0.1470 -0.3061 -2.4465
 8576SOL    HW237365   1.633   0.263  17.679 -0.7325  0.8960 -1.0578
 8577SOL     OW37366   2.535   3.902   2.528 -0.2410  0.1259 -0.0064
 8577SOL    HW137367   2.619   3.859   2.515 -0.0766  0.6864 -0.8466
 8577SOL    HW237368   2.552   3.995   2.543  0.0049  0.2430 -0.9932
 8578SOL     OW37369   0.808   3.422   2.689  0.6127  0.5279  0.3958
 8578SOL    HW137370   0.845   3.411   2.601 -1.6932  1.7958 -0.7450
 8578SOL    HW237371   0.769   3.336   2.704  0.9349  0.0307 -1.5036
 8579SOL     OW37372   0.391   2.198   6.954  0.0798 -0.7557  0.5384
 8579SOL    HW137373   0.468   2.254   6.960  0.3067 -1.1396  1.1768
 8579SOL    HW237374   0.423   2.128   6.897 -0.8829  0.2370 -1.2341
 8580SOL     OW37375   3.009   4.583   9.311 -0.0360  0.0131  0.3319
 8580SOL    HW137376   2.952   4.660   9.317  2.0269  1.5245  0.3965
 8580SOL    HW237377   2.982   4.537   9.231  1.7377 -1.0685  0.3723
 8581SOL     OW37378   1.559   1.998   5.262  0.2055  0.1617 -0.2377
 8581SOL    HW137379   1.642   2.046   5.258 -0.6531  1.6682  0.0033
 8581SOL    HW237380   1.547   1.976   5.354 -0.2734  0.4690 -0.2258
 8582SOL     OW37381   3.017   3.841  13.428 -0.5991  0.0297  0.2263
 8582SOL    HW137382   3.057   3.918  13.468  2.1061 -0.8073 -0.8593
 8582SOL    HW237383   2.966   3.895  13.368 -1.5611  1.6515  2.5044
 8583SOL     OW37384   0.771   0.107  14.565 -0.1346 -0.3003 -0.2845
 8583SOL    HW137385   0.764   0.015  14.591 -2.5087  0.4457  1.7372
 8583SOL    HW237386   0.852   0.125  14.518  0.4846  1.6908  1.5754
 8584SOL     OW37387   0.250   0.942   4.165 -0.2011  0.0833  0.2747
 8584SOL    HW137388   0.178   0.998   4.194 -0.4975 -0.4048  0.4852
 8584SOL    HW237389   0.265   0.981   4.079  1.7695 -0.5665  0.3334
 8585SOL     OW37390   3.392   3.824  12.059 -0.7127  0.0119  0.1689
 8585SOL    HW137391   3.308   3.836  12.103  0.8149  0.6813  2.8758
 8585SOL    HW237392   3.429   3.746  12.100 -0.4625  0.4579  0.7906
 8586SOL     OW37393   1.580   3.316  11.066  0.2193 -0.4857  0.7723
 8586SOL    HW137394   1.648   3.371  11.027 -2.5116  3.0475  1.0721
 8586SOL    HW237395   1.598   3.313  11.160 -1.4877  1.9011  1.1735
 8587SOL     OW37396   1.273   1.877  16.197  0.1350 -0.0714 -0.0262
 8587SOL    HW137397   1.233   1.796  16.228  0.4060  0.8188  2.6730
 8587SOL    HW237398   1.196   1.933  16.202 -0.4381 -0.7258 -1.5144
 8588SOL     OW37399   3.819   1.353  16.085 -0.1867  0.0861  0.0522
 8588SOL    HW137400   3.871   1.334  16.007 -0.4585 -0.4883  0.0105
 8588SOL    HW237401   3.825   1.448  16.080 -1.1501  0.3925  4.7128
 8589SOL     OW37402   2.072   2.932   7.748  1.1519  0.4678 -0.3098
 8589SOL    HW137403   2.071   2.917   7.653  1.6255 -0.0271 -0.2426
 8589SOL    HW237404   2.089   2.845   7.785 -0.1840 -0.9347 -2.9443
 8590SOL     OW37405   4.396   2.136   2.605  0.2240 -0.3796 -0.4268
 8590SOL    HW137406   4.459   2.064   2.606  1.3224  0.6216  0.4936
 8590SOL    HW237407   4.339   2.102   2.674 -2.0084  0.5633 -1.7828
 8591SOL     OW37408   3.509   3.685   6.329  0.4294  0.0271  0.4175
 8591SOL    HW137409   3.565   3.666   6.404  0.1926  1.5367  0.9688
 8591SOL    HW237410   3.576   3.711   6.265  0.8826 -1.1695  0.3945
 8592SOL     OW37411   2.503   0.465   9.006 -0.0113 -0.1020  0.1658
 8592SOL    HW137412   2.546   0.429   8.928  0.7465  0.3204  0.3860
 8592SOL    HW237413   2.451   0.386   9.021 -0.7439  0.3696  0.1371
 8593SOL     OW37414   0.461   1.005   2.285  0.3836  0.4090  0.2279
 8593SOL    HW137415   0.479   0.982   2.194 -1.1428  0.0576  0.0244
 8593SOL    HW237416   0.500   0.940   2.343  1.6615 -0.4745 -1.5983
 8594SOL     OW37417   2.168   0.971  11.319  0.9050 -0.0116 -0.1673
 8594SOL    HW137418   2.144   1.013  11.236  1.1618 -1.0265 -0.7558
 8594SOL    HW237419   2.216   1.040  11.364 -0.6423  0.5972  0.5252
 8595SOL     OW37420   1.154   3.197   1.916  0.6048 -0.3723 -0.2924
 8595SOL    HW137421   1.171   3.195   2.010 -3.3101  1.2390  0.4615
 8595SOL    HW237422   1.231   3.146   1.892  2.2109  1.2050  1.5459
 8596SOL     OW37423   1.699   2.960   8.137  0.1403 -0.2028 -0.1098
 8596SOL    HW137424   1.735   2.909   8.064 -0.8270 -1.0703  0.0249
 8596SOL    HW237425   1.699   3.052   8.111 -0.3242 -0.5680 -1.4131
 8597SOL     OW37426   3.052   2.247   2.978 -0.3156 -0.0899  0.1515
 8597SOL    HW137427   2.986   2.198   3.029  0.0698  1.5338  2.2220
 8597SOL    HW237428   3.096   2.177   2.930 -0.4171 -1.6053  2.2394
 8598SOL     OW37429   4.311   2.446   2.357 -0.0417  0.1792  0.4460
 8598SOL    HW137430   4.353   2.486   2.280  1.2405  0.7245  1.4426
 8598SOL    HW237431   4.355   2.362   2.346  0.2784  0.2626  1.1229
 8599SOL     OW37432   0.233   3.953   0.860  0.1178  0.1490 -0.5173
 8599SOL    HW137433   0.246   4.042   0.892 -0.4181 -0.0115  0.1465
 8599SOL    HW237434   0.150   3.933   0.903  0.3211 -1.7873 -1.0428
 8600SOL     OW37435   4.094   2.592   2.278 -0.3688 -0.5859 -0.1673
 8600SOL    HW137436   4.159   2.539   2.323 -1.7709 -0.3976  2.0980
 8600SOL    HW237437   4.084   2.674   2.328  1.4661 -1.8190  2.2160
 8601SOL     OW37438   1.962   2.708  14.734  0.4050  0.0077 -0.1952
 8601SOL    HW137439   2.049   2.672  14.754  0.7378  1.1069  0.3613
 8601SOL    HW237440   1.953   2.671  14.647  0.6072  0.7009 -0.5109
 8602SOL     OW37441   0.483   3.815   3.973 -0.0084  0.0122  0.5942
 8602SOL    HW137442   0.538   3.817   3.895  0.3558  0.3304  0.8625
 8602SOL    HW237443   0.525   3.861   4.046  1.8355  0.2221 -0.6119
 8603SOL     OW37444   2.778   2.662  13.435  0.1916 -0.2219 -0.1709
 8603SOL    HW137445   2.846   2.662  13.368 -0.2158 -0.6187 -0.5924
 8603SOL    HW237446   2.777   2.757  13.447 -0.5831  0.0598 -2.3445
 8604SOL     OW37447   3.304   0.722   9.178 -0.1122 -0.8034  0.0524
 8604SOL    HW137448   3.283   0.672   9.257  0.3237 -2.8309 -1.1042
 8604SOL    HW237449   3.394   0.689   9.176  0.6996  1.4210 -0.4350
 8605SOL     OW37450   2.437   3.872  12.439  0.5787 -0.1118 -0.5615
 8605SOL    HW137451   2.398   3.956  12.418 -0.6008 -0.5998 -0.3149
 8605SOL    HW237452   2.374   3.814  12.396  0.6414 -1.9806  1.8900
 8606SOL     OW37453   2.816   3.839  11.296  0.1984 -0.2379  0.2393
 8606SOL    HW137454   2.872   3.821  11.372 -0.6096 -0.3500  0.8037
 8606SOL    HW237455   2.806   3.752  11.256 -0.3189  0.8106 -1.9327
 8607SOL     OW37456   2.959   3.205   6.486 -0.3295 -0.2041 -0.2300
 8607SOL    HW137457   2.902   3.131   6.507 -0.3168  0.1984  1.1608
 8607SOL    HW237458   2.964   3.178   6.394 -2.6074 -1.1266 -0.0981
 8608SOL     OW37459   2.091   3.267   4.730  0.6986 -0.2208 -0.1723
 8608SOL    HW137460   2.185   3.249   4.727  0.5065 -1.0012 -1.8285
 8608SOL    HW237461   2.065   3.175   4.726 -0.3326  0.0005  1.2942
 8609SOL     OW37462   1.525   0.547   8.723 -0.2890 -0.0465 -0.2609
 8609SOL    HW137463   1.455   0.530   8.785  1.1524 -1.3434  1.0054
 8609SOL    HW237464   1.534   0.456   8.697  0.7378  0.2991 -1.1498
 8610SOL     OW37465   0.292   0.896   9.036  0.2939  0.5469 -0.1884
 8610SOL    HW137466   0.209   0.921   8.996 -0.1693 -0.0003  0.4367
 8610SOL    HW237467   0.325   0.851   8.958  1.8461  1.3247  0.0009
 8611SOL     OW37468   1.586   3.794   5.668 -0.0429 -0.2905 -0.6769
 8611SOL    HW137469   1.568   3.787   5.762  0.6575  2.9955 -0.2982
 8611SOL    HW237470   1.672   3.831   5.688 -1.4062  1.8460  1.1552
 8612SOL     OW37471   2.295   0.635  11.178 -0.0752 -0.0336 -0.0532
 8612SOL    HW137472   2.250   0.669  11.255  2.9270  0.9049  1.2963
 8612SOL    HW237473   2.241   0.667  11.106 -2.3030 -1.3393  1.0469
 8613SOL     OW37474   2.874   2.230   1.079  0.6481 -0.5947 -0.6850
 8613SOL    HW137475   2.861   2.160   1.015 -1.2228  1.3252 -2.4313
 8613SOL    HW237476   2.930   2.295   1.036  2.6031 -1.7444  0.1260
 8614SOL     OW37477   3.364   1.714   9.752  0.2112  0.3075 -0.3869
 8614SOL    HW137478   3.431   1.666   9.703 -1.2510  0.3563 -2.4712
 8614SOL    HW237479   3.415   1.746   9.826  2.6663 -3.6005 -0.3336
 8615SOL     OW37480   1.798   2.735  16.617 -0.1971 -0.5028 -0.2359
 8615SOL    HW137481   1.759   2.669  16.674  0.3099 -1.6751 -1.2416
 8615SOL    HW237482   1.717   2.784  16.603  0.1748  0.5060  1.1345
 8616SOL     OW37483   3.077   2.203   3.972 -0.2883  0.2056 -0.2239
 8616SOL    HW137484   3.003   2.170   3.922  0.2462 -1.5359  0.1321
 8616SOL    HW237485   3.061   2.154   4.053  1.9184 -0.9358 -0.4683
 8617SOL     OW37486   3.396   1.968  16.401 -0.4807  0.2454  0.4870
 8617SOL    HW137487   3.324   1.926  16.447 -1.6464 -0.7400 -2.2526
 8617SOL    HW237488   3.462   1.901  16.384 -0.1634  0.2487  1.6888
 8618SOL     OW37489   0.631   0.360  17.468  0.3899  0.3751  0.5579
 8618SOL    HW137490   0.662   0.351  17.377  1.6450  0.6713  0.9594
 8618SOL    HW237491   0.572   0.435  17.460 -0.3854 -0.1973  0.9052
 8619SOL     OW37492   4.572   0.642   5.537  0.1781  0.5658  0.3260
 8619SOL    HW137493   4.496   0.695   5.510  0.1738 -0.0754 -0.9494
 8619SOL    HW237494   4.526   0.596   5.607 -0.4252  0.3760 -0.1853
 8620SOL     OW37495   0.411   1.450   8.682 -0.0059 -0.0724  0.1233
 8620SOL    HW137496   0.392   1.540   8.657  2.5503  1.0980  2.4586
 8620SOL    HW237497   0.503   1.439   8.658  0.3216 -0.2962  1.4792
 8621SOL     OW37498   3.423   3.229   8.283 -0.4388  0.2931  0.1848
 8621SOL    HW137499   3.456   3.196   8.199  1.0169 -1.5250  1.4779
 8621SOL    HW237500   3.412   3.322   8.261  0.9444  0.1548 -1.0899
 8622SOL     OW37501   0.754   0.180   3.381  0.1741 -0.2862 -0.1150
 8622SOL    HW137502   0.748   0.271   3.411 -0.8094 -0.8084  1.2453
 8622SOL    HW237503   0.692   0.187   3.308  0.1925  1.3275  0.0226
 8623SOL     OW37504   4.082   3.482  10.443 -0.0790 -0.2839  0.0763
 8623SOL    HW137505   4.075   3.573  10.416  1.8358 -0.0263  0.5029
 8623SOL    HW237506   4.168   3.470  10.482  0.7281  0.5370 -1.4732
 8624SOL     OW37507   1.442   2.230   1.902 -0.4191 -0.3035  0.7257
 8624SOL    HW137508   1.421   2.304   1.959 -2.1863 -0.4997  0.3231
 8624SOL    HW237509   1.536   2.221   1.913 -0.2935  0.3132  0.1806
 8625SOL     OW37510   2.739   3.953   6.339  0.4352  0.4705 -0.2992
 8625SOL    HW137511   2.718   4.036   6.296 -0.9225 -0.3794 -1.2649
 8625SOL    HW237512   2.762   3.903   6.261  0.5175  2.7103 -1.7234
 8626SOL     OW37513   4.672   2.784   8.508  0.6007  0.2166  0.1340
 8626SOL    HW137514   4.600   2.808   8.566  0.2159  0.3686 -0.4064
 8626SOL    HW237515   4.648   2.819   8.422  1.9507 -3.8227 -1.9478
 8627SOL     OW37516   4.470   0.601   8.423 -0.5744  0.2198  0.2620
 8627SOL    HW137517   4.558   0.596   8.386 -0.4678 -0.9730  0.6995
 8627SOL    HW237518   4.458   0.507   8.415  0.2349  0.1002  0.5174
 8628SOL     OW37519   1.828   0.878   9.016  0.1437 -0.6160  0.1121
 8628SOL    HW137520   1.769   0.954   9.011 -0.9112 -1.3748  0.8834
 8628SOL    HW237521   1.759   0.815   8.996 -0.5199 -0.0114  0.4823
 8629SOL     OW37522   3.379   1.170   6.671 -0.2156  1.2419 -0.0749
 8629SOL    HW137523   3.419   1.136   6.591 -1.5142  0.3261 -0.3305
 8629SOL    HW237524   3.402   1.263   6.671  2.3409  0.6112  0.7919
 8630SOL     OW37525   3.925   1.739  14.939  0.1158 -0.4978  0.1379
 8630SOL    HW137526   3.849   1.698  14.980 -3.7418  3.7291 -2.7867
 8630SOL    HW237527   3.908   1.732  14.845 -0.6723 -0.0163  0.2500
 8631SOL     OW37528   3.040   1.403   7.524 -0.0872  0.5147 -0.2691
 8631SOL    HW137529   3.056   1.402   7.619 -1.2484 -0.3457 -0.0670
 8631SOL    HW237530   3.027   1.308   7.513  2.6666 -0.0158  0.9546
 8632SOL     OW37531   3.295   4.294   1.809  0.3284 -0.6868 -0.1278
 8632SOL    HW137532   3.319   4.307   1.717 -0.3035 -0.9692 -0.3334
 8632SOL    HW237533   3.216   4.244   1.790 -0.7522  1.3868 -1.1552
 8633SOL     OW37534   3.516   0.892   3.037  0.1342  0.0596  0.3114
 8633SOL    HW137535   3.550   0.960   2.979 -0.7256  0.4933  0.3080
 8633SOL    HW237536   3.476   0.948   3.104 -0.7195  0.3702 -0.4612
 8634SOL     OW37537   0.848   2.853   6.566  1.0138 -0.2352 -0.5059
 8634SOL    HW137538   0.892   2.904   6.498  1.9520  0.7887  0.8624
 8634SOL    HW237539   0.759   2.862   6.532  0.9249 -1.1289 -0.5082
 8635SOL     OW37540   1.037   3.658   7.121  0.5243 -0.3464  0.4185
 8635SOL    HW137541   1.029   3.745   7.160  0.8817 -1.2661  2.5757
 8635SOL    HW237542   0.985   3.676   7.043 -0.4601  2.3047  1.6935
 8636SOL     OW37543   1.357   1.059   0.831 -0.0775  0.0024 -0.2912
 8636SOL    HW137544   1.449   1.042   0.849 -0.4759 -1.9402 -0.0752
 8636SOL    HW237545   1.356   1.151   0.805  1.3796 -0.5726 -2.3594
 8637SOL     OW37546   3.389   4.095   5.590  0.4236  0.3121 -0.0091
 8637SOL    HW137547   3.458   4.132   5.536 -0.9454  0.4135 -1.6757
 8637SOL    HW237548   3.334   4.052   5.524  1.0669 -2.6051  1.3608
 8638SOL     OW37549   3.776   0.117   1.810 -0.8272  0.1603  0.7016
 8638SOL    HW137550   3.711   0.140   1.877 -1.8701  3.1919 -1.3413
 8638SOL    HW237551   3.796   0.027   1.836 -1.7655  0.4455  2.4359
 8639SOL     OW37552   1.902   4.460   8.032  0.1761  0.0307 -0.4419
 8639SOL    HW137553   1.967   4.484   7.966  1.9854 -1.4343  0.8296
 8639SOL    HW237554   1.932   4.374   8.061  0.7315  0.8866  1.5225
 8640SOL     OW37555   2.806   3.841   7.414 -0.2624  0.1269  0.7813
 8640SOL    HW137556   2.744   3.845   7.341  0.0147 -1.8451  0.4313
 8640SOL    HW237557   2.882   3.870   7.364 -1.4681 -0.0919 -1.1734
 8641SOL     OW37558   4.269   3.917  16.748 -0.7754 -0.0866 -0.2042
 8641SOL    HW137559   4.175   3.904  16.763 -0.6372 -0.3432  0.4658
 8641SOL    HW237560   4.265   3.918  16.653  0.2710 -1.1588 -0.2595
 8642SOL     OW37561   3.074   1.710  16.118 -0.3279  0.4527  0.5596
 8642SOL    HW137562   3.047   1.702  16.027  0.2479 -0.0616  0.4335
 8642SOL    HW237563   2.992   1.684  16.160  0.8067 -1.7637  1.4065
 8643SOL     OW37564   2.659   0.731   9.015  0.2429  0.0329  0.1720
 8643SOL    HW137565   2.592   0.664   9.019  0.8538 -0.4614  2.4677
 8643SOL    HW237566   2.605   0.803   8.981 -1.2194 -1.1389  0.0438
 8644SOL     OW37567   2.896   0.439  10.481  0.5112 -0.1227 -0.6197
 8644SOL    HW137568   2.960   0.370  10.464  0.6923 -0.1731  0.2486
 8644SOL    HW237569   2.864   0.404  10.564  0.9359  2.4818  0.6503
 8645SOL     OW37570   1.369   0.354   4.257 -0.1608 -0.0579  0.6770
 8645SOL    HW137571   1.289   0.366   4.207 -1.1616  1.9252  2.7080
 8645SOL    HW237572   1.403   0.271   4.226  1.2495  0.6395  0.3638
 8646SOL     OW37573   1.703   0.124   4.393 -0.3063 -0.0877  0.4361
 8646SOL    HW137574   1.765   0.104   4.322  2.2508 -1.9023  3.2076
 8646SOL    HW237575   1.712   0.218   4.408 -0.8113  0.0108  0.1180
 8647SOL     OW37576   4.468   3.547  13.253 -0.2608 -0.3112  0.0591
 8647SOL    HW137577   4.537   3.530  13.316  2.1782 -1.1402 -2.8660
 8647SOL    HW237578   4.502   3.514  13.170  0.5984 -0.3636  0.4390
 8648SOL     OW37579   4.238   4.195   6.386  0.4709 -0.1057  0.7203
 8648SOL    HW137580   4.298   4.121   6.390 -0.0371 -0.4748  1.4975
 8648SOL    HW237581   4.154   4.150   6.393 -0.7496  1.9431 -0.7279
 8649SOL     OW37582   1.410   0.857   6.144 -0.1686 -0.2311 -0.0795
 8649SOL    HW137583   1.450   0.771   6.158 -1.1856 -0.5399  0.8771
 8649SOL    HW237584   1.320   0.828   6.162 -0.9864  0.7496 -2.5837
 8650SOL     OW37585   3.953   4.604   6.638 -0.0726 -0.7805 -0.1365
 8650SOL    HW137586   3.866   4.641   6.651 -0.0789 -1.1954  0.9309
 8650SOL    HW237587   3.956   4.608   6.542 -0.3395  1.5192 -0.0552
 8651SOL     OW37588   1.345   2.862  14.271 -0.1146 -0.3115 -0.2168
 8651SOL    HW137589   1.408   2.881  14.202  0.2909  0.0251  0.2499
 8651SOL    HW237590   1.287   2.799  14.228 -0.1406  0.3111 -1.1045
 8652SOL     OW37591   4.200   2.465   2.749 -0.2704  0.1208  0.2102
 8652SOL    HW137592   4.151   2.413   2.685 -1.5228  0.8294  0.6007
 8652SOL    HW237593   4.209   2.547   2.701  0.9681 -0.5612 -0.7306
 8653SOL     OW37594   3.112   0.325   7.678  0.3431  0.6798 -0.3640
 8653SOL    HW137595   3.153   0.306   7.593 -0.2260 -1.1181 -0.2276
 8653SOL    HW237596   3.167   0.399   7.705  3.1306 -1.7832  0.6590
 8654SOL     OW37597   3.310   3.593   3.395  0.3552  0.5976 -0.1254
 8654SOL    HW137598   3.310   3.499   3.413  1.5362  1.1541  2.7952
 8654SOL    HW237599   3.231   3.603   3.342 -1.0654 -0.2383  1.8480
 8655SOL     OW37600   1.251   0.185  10.571 -0.2100 -0.6330 -0.3622
 8655SOL    HW137601   1.346   0.191  10.563 -0.4581  2.5774 -0.9299
 8655SOL    HW237602   1.223   0.128  10.499  1.3457 -1.2696 -0.4519
 8656SOL     OW37603   2.157   1.888  15.959  0.5679  0.0826 -0.0977
 8656SOL    HW137604   2.205   1.893  15.875 -0.6172  0.2307 -0.7597
 8656SOL    HW237605   2.216   1.834  16.011  0.8849  0.9578  0.4673
 8657SOL     OW37606   3.001   1.586  12.851 -0.8732  0.4001  0.1581
 8657SOL    HW137607   3.010   1.660  12.791  1.4552 -1.1787 -1.4026
 8657SOL    HW237608   3.088   1.584  12.892  0.0376  0.7690 -1.7735
 8658SOL     OW37609   0.182   3.668   4.082  0.3072 -0.0231 -0.6478
 8658SOL    HW137610   0.110   3.619   4.121 -0.4884  3.3702  2.0509
 8658SOL    HW237611   0.151   3.757   4.070 -0.2479 -0.1814 -0.3603
 8659SOL     OW37612   2.200   0.481  10.237 -0.2326  0.3516 -0.3859
 8659SOL    HW137613   2.247   0.404  10.270 -0.9532  0.1084  0.0957
 8659SOL    HW237614   2.112   0.444  10.246  0.1650  0.3424  3.4601
 8660SOL     OW37615   4.605   4.459   3.467  0.4660 -0.0375  0.5264
 8660SOL    HW137616   4.563   4.483   3.549 -1.3031 -1.5474  0.0798
 8660SOL    HW237617   4.532   4.464   3.406  3.0382 -2.0997 -2.7639
 8661SOL     OW37618   2.868   1.371   6.608  0.0969  0.1169 -0.6950
 8661SOL    HW137619   2.935   1.350   6.543  0.8101 -0.4790  0.2378
 8661SOL    HW237620   2.828   1.284   6.618 -3.4678  1.6209 -1.7199
 8662SOL     OW37621   2.486   2.834   2.721 -0.4400 -0.0255 -0.4296
 8662SOL    HW137622   2.580   2.824   2.705  0.0375  0.3412  2.1426
 8662SOL    HW237623   2.462   2.890   2.647  1.3315 -0.0436 -1.0136
 8663SOL     OW37624   2.931   0.456  12.644 -0.5392 -0.1689 -0.0766
 8663SOL    HW137625   2.853   0.424  12.598  0.5740 -2.0630 -0.6679
 8663SOL    HW237626   2.997   0.409  12.594  1.4459  0.7757  1.6743
 8664SOL     OW37627   1.891   0.125  10.251  0.6194  0.6582  0.3190
 8664SOL    HW137628   1.959   0.126  10.184  1.2979  2.1263  1.0279
 8664SOL    HW237629   1.933   0.093  10.331 -1.9741 -1.2698  0.8969
 8665SOL     OW37630   4.236   4.496  16.109 -0.4443 -0.3134  0.5097
 8665SOL    HW137631   4.151   4.519  16.147 -1.0838 -1.2631 -0.3381
 8665SOL    HW237632   4.285   4.456  16.181 -0.1043  2.2025  1.6720
 8666SOL     OW37633   4.283   2.866   1.688 -0.3553  0.1775  0.2231
 8666SOL    HW137634   4.262   2.774   1.704  0.0805 -0.2007 -1.4228
 8666SOL    HW237635   4.209   2.886   1.630 -0.2787  0.1677  0.1224
 8667SOL     OW37636   0.632   1.180   0.426 -0.0926 -0.7360  0.2929
 8667SOL    HW137637   0.696   1.251   0.431  1.4780 -2.0086 -1.7132
 8667SOL    HW237638   0.565   1.215   0.485  0.7777 -0.5330  1.1564
 8668SOL     OW37639   2.760   0.146   4.746  0.3156 -0.2505  0.3242
 8668SOL    HW137640   2.679   0.146   4.695  0.8737 -1.5344 -0.5477
 8668SOL    HW237641   2.823   0.202   4.700  0.1681 -0.7017 -0.4339
 8669SOL     OW37642   0.332   0.995   3.883  0.6267  0.8266  0.4726
 8669SOL    HW137643   0.409   1.037   3.846  0.5253  1.3629  0.8781
 8669SOL    HW237644   0.343   0.911   3.838 -0.5045  0.0212  1.6564
 8670SOL     OW37645   0.569   0.429   0.258  0.5654  0.1504  0.1495
 8670SOL    HW137646   0.602   0.385   0.180 -0.5865 -1.7432  0.7227
 8670SOL    HW237647   0.603   0.518   0.249  1.6354  0.0595  3.3473
 8671SOL     OW37648   1.744   0.502  10.472  0.3221  0.1559 -0.3966
 8671SOL    HW137649   1.673   0.482  10.533 -0.0575  3.0990  0.1211
 8671SOL    HW237650   1.823   0.475  10.520 -0.2390 -0.4883  0.1741
 8672SOL     OW37651   3.868   2.069   2.095  0.2510  0.2858 -0.2727
 8672SOL    HW137652   3.896   2.149   2.138  1.1996 -0.7253  1.0002
 8672SOL    HW237653   3.953   2.050   2.056  1.1068 -0.3728  1.8998
 8673SOL     OW37654   1.233   1.511   1.773  1.2113  0.6215  0.3146
 8673SOL    HW137655   1.212   1.598   1.738 -0.3181 -0.1214 -0.6291
 8673SOL    HW237656   1.170   1.518   1.844  0.6664 -2.2405  0.1171
 8674SOL     OW37657   1.089   2.625   6.544 -0.3167  0.4839  0.0706
 8674SOL    HW137658   1.115   2.554   6.486 -1.7422  0.8403 -1.0188
 8674SOL    HW237659   1.002   2.645   6.510  0.2502  1.7181 -0.6709
 8675SOL     OW37660   4.556   4.578  12.367  0.0577  0.0852 -0.1021
 8675SOL    HW137661   4.550   4.483  12.380 -1.2447 -0.0733 -1.7803
 8675SOL    HW237662   4.650   4.589  12.357  0.2809  0.6073  2.6843
 8676SOL     OW37663   1.649   4.033   2.511 -0.3389  0.4253  0.5196
 8676SOL    HW137664   1.645   3.942   2.481 -1.3228  0.3174  0.9840
 8676SOL    HW237665   1.555   4.039   2.528  0.0453  1.0787  2.3691
 8677SOL     OW37666   2.434   4.263   9.380  0.7757  0.6777 -0.0024
 8677SOL    HW137667   2.360   4.286   9.437 -0.1372 -0.0669 -0.8771
 8677SOL    HW237668   2.509   4.305   9.422 -1.0810  1.0418  2.9318
 8678SOL     OW37669   2.893   3.338   6.871 -0.1755  0.0161  0.1529
 8678SOL    HW137670   2.800   3.350   6.893 -0.8225 -1.5054 -1.6987
 8678SOL    HW237671   2.927   3.391   6.943  0.1069 -0.4653  0.3717
 8679SOL     OW37672   2.033   2.060  17.644  0.1535 -0.2631  0.4602
 8679SOL    HW137673   2.016   2.016  17.728 -1.3595 -1.2650 -0.3742
 8679SOL    HW237674   2.100   2.001  17.611  0.3487  0.6376 -0.7633
 8680SOL     OW37675   4.145   1.071  10.827  0.4910 -0.0133 -0.1096
 8680SOL    HW137676   4.113   1.108  10.745 -1.8403 -1.0886  0.3355
 8680SOL    HW237677   4.176   0.982  10.813  0.5405 -0.2076  1.2263
 8681SOL     OW37678   2.325   1.783   4.830 -0.4757  0.1021  0.4182
 8681SOL    HW137679   2.250   1.745   4.876  0.8805 -1.1826  1.5470
 8681SOL    HW237680   2.317   1.730   4.751 -0.9346  1.9964 -0.8058
 8682SOL     OW37681   3.506   1.444  17.149  0.4775  0.5749 -0.1718
 8682SOL    HW137682   3.579   1.409  17.098 -2.6706 -1.1989 -3.5060
 8682SOL    HW237683   3.506   1.539  17.140  0.7742  0.6923  1.1038
 8683SOL     OW37684   4.593   4.172   7.502  0.4189 -0.0821 -0.2008
 8683SOL    HW137685   4.505   4.189   7.467  1.1185  0.1687 -1.8405
 8683SOL    HW237686   4.641   4.186   7.421  0.3031 -1.5200 -0.5237
 8684SOL     OW37687   0.990   0.257   4.485  0.0391 -0.7548 -0.2915
 8684SOL    HW137688   0.988   0.170   4.523  2.2013 -1.0435 -0.8753
 8684SOL    HW237689   0.968   0.322   4.552 -0.3997 -1.2976  0.0901
 8685SOL     OW37690   1.396   2.132  12.465 -0.7190  0.0181 -0.9743
 8685SOL    HW137691   1.409   2.226  12.478  1.1221 -0.4874  0.7895
 8685SOL    HW237692   1.314   2.127  12.515 -0.4841 -1.4121 -0.7395
 8686SOL     OW37693   0.793   1.483  14.565  0.2587 -0.4525 -0.4798
 8686SOL    HW137694   0.715   1.444  14.605  0.9976 -2.0568 -0.6165
 8686SOL    HW237695   0.867   1.428  14.588  0.9454  1.5091  1.9619
 8687SOL     OW37696   2.670   1.342  12.076 -0.4055 -0.0053  0.6476
 8687SOL    HW137697   2.714   1.363  11.994 -1.8466 -1.1731 -0.4147
 8687SOL    HW237698   2.717   1.392  12.143 -0.3881 -1.9788  2.1204
 8688SOL     OW37699   0.763   1.960  12.861  1.0178  0.0338 -0.2964
 8688SOL    HW137700   0.758   1.908  12.781 -2.4197 -0.9193  0.5336
 8688SOL    HW237701   0.777   1.894  12.929 -0.6325 -0.5600 -0.5403
 8689SOL     OW37702   1.787   2.052   2.566 -0.4673  0.1339  0.0825
 8689SOL    HW137703   1.699   2.090   2.567 -0.0830  1.0189 -0.5357
 8689SOL    HW237704   1.843   2.121   2.602  0.2961  0.4672 -1.7592
 8690SOL     OW37705   4.678   2.931   8.224 -0.2298  0.3634  0.7283
 8690SOL    HW137706   4.684   2.978   8.141 -0.9654 -0.7488  0.0460
 8690SOL    HW237707   4.584   2.915   8.214  0.1665 -0.7525 -1.1140
 8691SOL     OW37708   3.635   3.879   5.712 -0.3780 -0.6996  0.2936
 8691SOL    HW137709   3.552   3.926   5.713  0.6676  1.1576  0.0296
 8691SOL    HW237710   3.660   3.872   5.804 -2.1536  0.3448  0.8490
 8692SOL     OW37711   1.077   1.824   8.052 -0.0523  0.3953  0.0109
 8692SOL    HW137712   1.060   1.914   8.080 -1.1659  0.5701 -1.2705
 8692SOL    HW237713   1.153   1.843   7.997  0.1233  0.4649  0.2795
 8693SOL     OW37714   1.781   0.734   3.682  0.8619  0.3203  0.1550
 8693SOL    HW137715   1.727   0.812   3.692  2.4069  1.4436 -0.1451
 8693SOL    HW237716   1.763   0.701   3.594 -0.8670 -2.4231  1.5170
 8694SOL     OW37717   1.490   3.620   4.808  0.3295 -0.0640 -0.0894
 8694SOL    HW137718   1.405   3.662   4.791  1.2318  2.8513  2.6067
 8694SOL    HW237719   1.467   3.528   4.802  0.0194 -0.0735  1.2291
 8695SOL     OW37720   0.377   4.241   7.293 -0.1494 -0.3646  0.0642
 8695SOL    HW137721   0.327   4.169   7.255 -0.0079 -1.0531  1.1613
 8695SOL    HW237722   0.390   4.214   7.384  2.0222  1.2932  0.2463
 8696SOL     OW37723   4.469   3.352   1.012 -0.4695  0.0963  0.3481
 8696SOL    HW137724   4.378   3.347   1.041 -1.0945  2.2682 -1.2450
 8696SOL    HW237725   4.448   3.320   0.924  0.3798  1.0280 -0.1923
 8697SOL     OW37726   1.178   3.938   2.192  0.0065 -0.2222  0.1170
 8697SOL    HW137727   1.238   3.986   2.250 -1.2441  1.0764  0.3205
 8697SOL    HW237728   1.183   3.983   2.108  1.5567  0.5954  0.6586
 8698SOL     OW37729   4.390   0.946   3.277 -0.1606 -0.3305  0.0147
 8698SOL    HW137730   4.355   1.006   3.343 -0.9071  0.0908 -0.7696
 8698SOL    HW237731   4.401   0.867   3.330  0.4280  0.5563  1.2288
 8699SOL     OW37732   1.891   2.669   8.862  0.1299 -0.3526 -0.4968
 8699SOL    HW137733   1.841   2.749   8.846  0.7676  0.1094 -0.1694
 8699SOL    HW237734   1.837   2.594   8.836  0.9315 -1.2790  0.4984
 8700SOL     OW37735   1.913   3.916   9.513 -1.0605 -0.4486 -0.1441
 8700SOL    HW137736   1.931   3.824   9.497  1.7854  0.0186  0.4588
 8700SOL    HW237737   1.945   3.924   9.603  2.3837 -4.3522 -1.0418
 8701SOL     OW37738   4.344   4.109   2.491  0.8450  0.2117  0.0548
 8701SOL    HW137739   4.330   4.198   2.522  0.0448 -0.6330  2.1346
 8701SOL    HW237740   4.370   4.068   2.574 -3.2423  0.4792  1.4911
 8702SOL     OW37741   4.264   2.716   2.905  0.2608 -0.0531 -0.3770
 8702SOL    HW137742   4.313   2.649   2.952 -1.0315  0.2817  1.4352
 8702SOL    HW237743   4.303   2.711   2.818  0.1052 -1.3811 -0.3700
 8703SOL     OW37744   0.279   2.020   5.579  0.0580 -0.1076 -0.1435
 8703SOL    HW137745   0.267   2.066   5.663  1.0394  1.3443 -0.7924
 8703SOL    HW237746   0.333   1.952   5.619 -0.3601  1.6275  3.4052
 8704SOL     OW37747   1.411   1.849   5.793  0.1977  0.2041 -0.6923
 8704SOL    HW137748   1.477   1.915   5.813  0.5145  0.4545 -2.6628
 8704SOL    HW237749   1.353   1.858   5.868 -1.3974  0.9470 -2.0371
 8705SOL     OW37750   2.216   3.404   2.747 -0.3327  0.1149 -0.1642
 8705SOL    HW137751   2.177   3.344   2.810  0.5753 -1.1745 -0.8354
 8705SOL    HW237752   2.229   3.485   2.797 -1.3322  0.0084  0.2676
 8706SOL     OW37753   4.608   1.203  17.286  0.3879 -0.4374  0.6447
 8706SOL    HW137754   4.614   1.112  17.255  0.2758  0.5809 -2.3383
 8706SOL    HW237755   4.678   1.238  17.231 -0.6187 -0.0842 -0.4198
 8707SOL     OW37756   4.511   0.574   4.309 -0.0709 -0.6621  0.1367
 8707SOL    HW137757   4.549   0.599   4.224 -0.4806 -0.3231  0.0570
 8707SOL    HW237758   4.438   0.517   4.286  0.2354 -0.9613 -0.1092
 8708SOL     OW37759   2.082   1.391   1.655  0.1840 -0.0869  0.0563
 8708SOL    HW137760   2.059   1.298   1.646 -0.3009  0.1177 -0.8057
 8708SOL    HW237761   2.002   1.426   1.616 -0.3441  1.6509  2.6760
 8709SOL     OW37762   0.277   2.546  15.430  0.7021  0.0308 -0.1557
 8709SOL    HW137763   0.278   2.482  15.359  1.3323  0.4955 -0.5637
 8709SOL    HW237764   0.213   2.612  15.405  1.6665  1.5282  1.3494
 8710SOL     OW37765   1.385   2.016   6.571 -0.5373 -0.3931 -0.6374
 8710SOL    HW137766   1.325   1.999   6.498 -0.6719 -0.0789 -0.5996
 8710SOL    HW237767   1.467   2.024   6.523  0.0491 -0.8304  0.2973
 8711SOL     OW37768   1.950   4.481   3.266 -0.2751 -0.3836 -0.1031
 8711SOL    HW137769   1.905   4.474   3.350  0.7828 -0.1257  0.4802
 8711SOL    HW237770   1.924   4.569   3.236 -1.6939  0.3245  3.2656
 8712SOL     OW37771   4.238   2.297   1.868  0.3863  0.4226 -0.1137
 8712SOL    HW137772   4.330   2.324   1.873  0.8331 -1.1500  0.2384
 8712SOL    HW237773   4.231   2.302   1.772 -1.3137  0.7187  0.0218
 8713SOL     OW37774   0.243   3.765  14.166 -0.6200  0.1573 -0.0726
 8713SOL    HW137775   0.266   3.812  14.246  3.4761 -1.8487 -0.0636
 8713SOL    HW237776   0.149   3.782  14.169 -0.5603  0.3248  0.9093
 8714SOL     OW37777   3.397   1.883   3.759 -0.0917  0.0424 -0.1833
 8714SOL    HW137778   3.374   1.813   3.698 -1.8023  0.2464  0.2231
 8714SOL    HW237779   3.355   1.861   3.842  1.5032  0.1159  0.6430
 8715SOL     OW37780   1.654   0.258   9.889 -0.2607 -0.0469  0.1013
 8715SOL    HW137781   1.676   0.188   9.827  0.9728 -0.2017  0.7004
 8715SOL    HW237782   1.578   0.228   9.939  0.9465 -1.0540  1.3458
 8716SOL     OW37783   3.940   2.681   2.738 -0.2730  0.2927  0.2141
 8716SOL    HW137784   3.935   2.586   2.750  1.4488  0.4046  1.9979
 8716SOL    HW237785   4.030   2.678   2.704  0.5332 -0.5137  2.3858
 8717SOL     OW37786   2.653   3.028   7.506 -0.2270  0.1728 -0.1682
 8717SOL    HW137787   2.661   2.934   7.518 -0.1501  0.4182  1.7945
 8717SOL    HW237788   2.747   3.047   7.501  0.0352 -0.8856  0.8023
 8718SOL     OW37789   1.483   0.746   7.818  0.0083  0.1991 -0.3231
 8718SOL    HW137790   1.453   0.666   7.862 -0.6661 -0.0499 -1.2432
 8718SOL    HW237791   1.409   0.770   7.761  0.6042 -1.5661 -1.8255
 8719SOL     OW37792   3.835   3.108  11.094  0.4859  0.0691  0.5806
 8719SOL    HW137793   3.768   3.150  11.149  1.5337  1.5079  0.7681
 8719SOL    HW237794   3.835   3.162  11.015  0.0406 -3.5320 -1.8929
 8720SOL     OW37795   4.477   1.951   9.969  0.1202 -0.0986  0.7325
 8720SOL    HW137796   4.469   1.881   9.905  0.7406  1.5766 -1.1716
 8720SOL    HW237797   4.432   2.024   9.926 -0.9356 -1.8070 -1.0217
 8721SOL     OW37798   2.198   1.565   3.182  0.0364  0.6618  0.0495
 8721SOL    HW137799   2.271   1.543   3.240 -0.5708 -0.6840  0.3188
 8721SOL    HW237800   2.203   1.514   3.101 -1.1714  0.1137  0.3127
 8722SOL     OW37801   1.586   3.775   0.364  0.3364 -0.4718 -0.2733
 8722SOL    HW137802   1.606   3.753   0.273  3.2001  2.1106 -0.2920
 8722SOL    HW237803   1.621   3.864   0.369  1.0962 -0.8107  0.3935
 8723SOL     OW37804   3.054   4.156   3.352 -0.2440  0.5562  0.1491
 8723SOL    HW137805   2.999   4.221   3.396 -0.2419  1.1787 -0.7613
 8723SOL    HW237806   3.006   4.146   3.270  1.2288  2.5753 -0.9641
 8724SOL     OW37807   4.558   2.630   3.638  0.4990  0.0336  0.4107
 8724SOL    HW137808   4.518   2.561   3.691  2.4259 -0.2048  1.5392
 8724SOL    HW237809   4.583   2.695   3.703 -0.6175 -2.2631  3.0913
 8725SOL     OW37810   3.132   2.664   5.864  0.4584 -0.0319 -0.0960
 8725SOL    HW137811   3.168   2.601   5.927  0.5837 -2.0960 -2.2708
 8725SOL    HW237812   3.187   2.739   5.889 -0.4595  0.4849  0.3980
 8726SOL     OW37813   3.921   3.252   7.185  0.0840 -0.6853 -0.2469
 8726SOL    HW137814   3.918   3.207   7.101  1.1434 -2.1918  0.5019
 8726SOL    HW237815   3.964   3.332   7.155 -0.9782  0.0648  0.2663
 8727SOL     OW37816   3.623   3.088   2.809  0.0509  0.3788  0.3576
 8727SOL    HW137817   3.712   3.077   2.841 -0.2229 -0.3010  0.9030
 8727SOL    HW237818   3.601   3.181   2.813 -2.5377 -0.1281 -1.8316
 8728SOL     OW37819   4.292   2.854   7.496  0.1685  0.0547 -0.0426
 8728SOL    HW137820   4.245   2.811   7.568  0.8006  2.3285  1.7344
 8728SOL    HW237821   4.288   2.943   7.532 -0.6933  0.9214 -2.2536
 8729SOL     OW37822   2.726   0.293   9.136  0.1366  0.3837 -0.7619
 8729SOL    HW137823   2.689   0.276   9.049  0.4829 -0.3737 -0.7698
 8729SOL    HW237824   2.812   0.262   9.107 -0.5181  0.1121 -2.4257
 8730SOL     OW37825   0.765   1.622  16.975 -0.0025 -0.4383  0.1677
 8730SOL    HW137826   0.676   1.644  17.004 -0.4332 -1.0427 -0.7147
 8730SOL    HW237827   0.780   1.695  16.915  0.6422 -1.2412 -0.6421
 8731SOL     OW37828   4.505   0.104   8.752  0.3241 -0.4873  0.7968
 8731SOL    HW137829   4.515   0.049   8.673  1.1036  0.8330 -0.0175
 8731SOL    HW237830   4.578   0.165   8.754 -0.4901  0.5738 -1.5977
 8732SOL     OW37831   1.793   1.291   4.907  0.1601 -0.1637  0.4535
 8732SOL    HW137832   1.767   1.341   4.829  1.1261  0.2901  0.4179
 8732SOL    HW237833   1.880   1.258   4.884 -0.4605 -0.0657 -2.1140
 8733SOL     OW37834   2.293   3.878   0.593  0.7608  0.0614  0.3619
 8733SOL    HW137835   2.351   3.951   0.613  1.3347 -0.5946  1.1099
 8733SOL    HW237836   2.323   3.817   0.661 -0.3343 -1.2379 -0.3111
 8734SOL     OW37837   2.715   2.896   0.826 -0.1587  0.7887 -0.2991
 8734SOL    HW137838   2.641   2.940   0.784  0.9537  1.7943 -1.2085
 8734SOL    HW237839   2.718   2.922   0.918 -0.0839  0.6717 -0.2683
 8735SOL     OW37840   2.511   0.302   4.818 -0.6141 -0.1326 -0.3224
 8735SOL    HW137841   2.533   0.248   4.894  0.0919  0.8332  0.1523
 8735SOL    HW237842   2.479   0.238   4.755 -0.2395  1.4363 -2.1359
 8736SOL     OW37843   1.226   1.898   2.903 -0.3360 -0.3294  0.1345
 8736SOL    HW137844   1.199   1.986   2.928 -0.7815 -0.6503  0.7895
 8736SOL    HW237845   1.304   1.919   2.851  0.1021 -1.7300  0.2214
 8737SOL     OW37846   3.996   0.758   8.551 -0.1339 -0.1685  0.0365
 8737SOL    HW137847   4.000   0.671   8.512  2.0076 -0.6131  1.2299
 8737SOL    HW237848   4.091   0.772   8.552  0.1507 -2.2440  3.1925
 8738SOL     OW37849   4.421   1.329   8.984  0.0823 -0.4034  0.2350
 8738SOL    HW137850   4.368   1.400   8.949  0.6612 -0.1500 -0.1285
 8738SOL    HW237851   4.405   1.331   9.078  2.1786  1.8961  0.5400
 8739SOL     OW37852   4.368   0.385  10.280 -0.0707 -0.6324 -0.1579
 8739SOL    HW137853   4.390   0.466  10.233  0.2957 -0.4268  0.3679
 8739SOL    HW237854   4.274   0.381  10.263 -0.1030 -2.8849  0.5211
 8740SOL     OW37855   1.482   3.917   2.823  0.3736  0.0360 -0.1326
 8740SOL    HW137856   1.424   3.866   2.767 -0.7008  0.3418  0.7030
 8740SOL    HW237857   1.475   4.006   2.786 -0.9252  0.9199  2.2511
 8741SOL     OW37858   4.424   3.325   7.582  0.5532 -0.0031 -0.1784
 8741SOL    HW137859   4.422   3.404   7.637 -0.2430 -0.7223  0.8097
 8741SOL    HW237860   4.495   3.346   7.521 -0.0175 -0.1373 -0.8829
 8742SOL     OW37861   1.478   2.862   3.580  0.2983  0.2717  0.6798
 8742SOL    HW137862   1.503   2.896   3.494 -1.5095 -1.6740 -0.6123
 8742SOL    HW237863   1.398   2.910   3.598 -0.6042 -0.5175 -1.2286
 8743SOL     OW37864   1.241   3.208   1.402 -0.6155  0.1687  0.1892
 8743SOL    HW137865   1.146   3.196   1.414 -0.4358 -1.5959 -0.1957
 8743SOL    HW237866   1.267   3.122   1.371 -1.4742 -0.2162  0.5142
 8744SOL     OW37867   3.554   3.238   4.243  0.7180 -0.0009  0.0915
 8744SOL    HW137868   3.462   3.243   4.272  0.6033 -0.8515 -0.1185
 8744SOL    HW237869   3.552   3.203   4.154  3.8689  1.0818 -0.3813
 8745SOL     OW37870   2.481   1.578   6.236 -0.0114  0.1402 -0.7207
 8745SOL    HW137871   2.560   1.602   6.186 -0.2457  0.3116 -1.0086
 8745SOL    HW237872   2.501   1.628   6.315 -0.4038 -2.6141  1.1146
 8746SOL     OW37873   3.182   0.070   3.521  0.7421  0.0216  0.3902
 8746SOL    HW137874   3.152   0.147   3.474  0.4033  0.7849  1.8672
 8746SOL    HW237875   3.126   0.082   3.598 -1.0037 -4.2713 -0.1943
 8747SOL     OW37876   3.871   4.202  12.620  0.0729 -0.2704 -0.2761
 8747SOL    HW137877   3.944   4.213  12.559  2.3255 -0.2585  2.4057
 8747SOL    HW237878   3.815   4.277  12.599  2.0916  1.1467 -0.6232
 8748SOL     OW37879   4.578   4.564   6.664 -0.1154  0.0739  0.6031
 8748SOL    HW137880   4.637   4.612   6.723  0.6477  1.3790 -1.2182
 8748SOL    HW237881   4.499   4.552   6.717 -1.6071  1.9077 -1.2108
 8749SOL     OW37882   0.585   0.094   7.573 -1.0196 -0.1174  0.4880
 8749SOL    HW137883   0.679   0.099   7.588 -0.7003  0.4546 -1.8572
 8749SOL    HW237884   0.541   0.029   7.628  0.7890 -0.7472  1.1860
 8750SOL     OW37885   1.671   4.487   2.981  0.1481  0.3696 -0.1240
 8750SOL    HW137886   1.595   4.515   2.930  1.3516  2.7638 -0.5715
 8750SOL    HW237887   1.739   4.549   2.955  1.2979 -0.1596  1.5764
 8751SOL     OW37888   1.062   1.463   7.111 -0.3226  0.3402 -0.0515
 8751SOL    HW137889   1.041   1.418   7.029  1.5626  0.3294 -0.5415
 8751SOL    HW237890   1.025   1.398   7.171  2.5414 -3.0342 -1.9292
 8752SOL     OW37891   0.360   0.055   5.253  0.0409  0.1291 -0.8067
 8752SOL    HW137892   0.417   0.117   5.207  1.5933 -0.5916  0.1666
 8752SOL    HW237893   0.346   0.105   5.333  1.3826 -0.8880  0.0551
 8753SOL     OW37894   3.074   1.760   5.673  0.1529 -0.3363  0.6140
 8753SOL    HW137895   3.105   1.812   5.600 -2.8891 -0.1703 -0.5905
 8753SOL    HW237896   3.154   1.752   5.724  0.6367 -0.4822 -0.1693
 8754SOL     OW37897   0.671   1.862   8.968  0.3640 -0.6958 -0.6011
 8754SOL    HW137898   0.730   1.934   8.945 -2.4990  1.6890 -0.3495
 8754SOL    HW237899   0.722   1.782   8.956  0.2393 -0.5714 -2.0316
 8755SOL     OW37900   1.847   1.326  10.677 -0.1337 -0.4643 -0.5870
 8755SOL    HW137901   1.767   1.311  10.626 -1.0046  0.5416  0.4939
 8755SOL    HW237902   1.812   1.273  10.748  2.1578 -0.2113  0.7152
 8756SOL     OW37903   0.071   3.734   6.898 -0.1053 -0.0924  0.4067
 8756SOL    HW137904   0.064   3.666   6.832  0.0524  0.4005 -0.1121
 8756SOL    HW237905   0.048   3.687   6.979  0.6069  1.1374  1.3277
 8757SOL     OW37906   4.008   3.255   9.135 -0.4985  0.5670 -0.6593
 8757SOL    HW137907   4.005   3.336   9.186 -0.2050  0.6542 -0.7810
 8757SOL    HW237908   4.074   3.276   9.069  0.7767  1.3634  0.8534
 8758SOL     OW37909   1.013   2.747   2.655  0.5642 -0.4345 -0.3210
 8758SOL    HW137910   1.060   2.829   2.641  1.7952 -1.5220 -2.4926
 8758SOL    HW237911   1.011   2.717   2.564 -2.6735 -0.6359 -0.1756
 8759SOL     OW37912   4.083   0.431   6.350  0.8447  0.0491 -0.3117
 8759SOL    HW137913   4.125   0.452   6.433  0.6103  0.9972 -0.4371
 8759SOL    HW237914   4.007   0.384   6.384 -1.1803  1.9784 -2.1565
 8760SOL     OW37915   1.553   1.336   5.312 -0.5127  0.0289  0.1158
 8760SOL    HW137916   1.516   1.305   5.394 -0.7304 -1.3306 -0.4960
 8760SOL    HW237917   1.630   1.381   5.347  1.5626 -1.9170 -1.9309
 8761SOL     OW37918   1.070   1.434   9.320  0.2143 -0.1837 -0.8266
 8761SOL    HW137919   1.033   1.390   9.397  1.2399  2.8939  1.3943
 8761SOL    HW237920   0.998   1.432   9.256 -1.3777 -0.9502  0.9848
 8762SOL     OW37921   4.374   1.317   5.552  0.2234 -0.3402 -0.1227
 8762SOL    HW137922   4.412   1.352   5.471  0.5368  0.3051  0.3087
 8762SOL    HW237923   4.441   1.264   5.595  0.3083 -1.0060 -1.0726
 8763SOL     OW37924   2.184   1.469   6.592  0.1893  0.5752 -0.8285
 8763SOL    HW137925   2.100   1.467   6.638  0.0822  1.0436 -1.0041
 8763SOL    HW237926   2.154   1.435   6.508 -1.5355 -0.5101  0.2144
 8764SOL     OW37927   0.611   1.550   5.009 -0.1668  0.9219 -0.2031
 8764SOL    HW137928   0.622   1.608   5.084  0.1969 -0.0957  0.5299
 8764SOL    HW237929   0.701   1.539   4.978  0.3073  0.2917  1.3780
 8765SOL     OW37930   1.164   4.494   3.884  0.1184 -1.1176  0.0385
 8765SOL    HW137931   1.226   4.557   3.919 -0.8906  0.5432 -1.1543
 8765SOL    HW237932   1.074   4.527   3.886  0.3799 -0.4952  0.9639
 8766SOL     OW37933   2.899   1.585   2.903  0.5431  0.4485 -0.0089
 8766SOL    HW137934   2.907   1.533   2.824 -1.9789  1.7827 -1.1342
 8766SOL    HW237935   2.889   1.679   2.889  1.1315  0.3388 -1.0876
 8767SOL     OW37936   3.510   3.300   9.174 -0.2393  0.7203  0.4848
 8767SOL    HW137937   3.596   3.264   9.150 -0.1545 -0.2716  2.2778
 8767SOL    HW237938   3.511   3.321   9.267 -0.1140  1.1652  0.3829
 8768SOL     OW37939   3.069   4.451   8.397  0.5153 -0.5500  0.8718
 8768SOL    HW137940   3.022   4.459   8.314  1.9250  0.4253  0.1570
 8768SOL    HW237941   3.138   4.516   8.378 -1.9508  1.3280 -1.7248
 8769SOL     OW37942   1.328   0.762   0.706  0.4746  0.0325 -0.4682
 8769SOL    HW137943   1.415   0.802   0.704  0.4996  0.0185  0.9714
 8769SOL    HW237944   1.293   0.800   0.625  0.5483 -0.7607 -0.8703
 8770SOL     OW37945   0.509   3.272   2.903 -0.1704 -0.3638  0.0698
 8770SOL    HW137946   0.490   3.191   2.950 -2.0556 -0.6832 -1.2097
 8770SOL    HW237947   0.482   3.344   2.961  0.7432  0.0842 -0.0619
 8771SOL     OW37948   3.920   2.589   4.568 -0.0927 -0.4036  0.4728
 8771SOL    HW137949   3.995   2.579   4.510 -1.2109 -0.7047 -0.9101
 8771SOL    HW237950   3.951   2.643   4.641 -3.3262  2.3917 -0.2326
 8772SOL     OW37951   1.903   3.629  10.228  0.3467  0.8267  0.2840
 8772SOL    HW137952   1.966   3.678  10.176  0.1090 -1.2015 -1.9095
 8772SOL    HW237953   1.822   3.619  10.178  1.0190 -1.5260 -0.3417
 8773SOL     OW37954   0.821   1.492   9.190  0.1657 -0.0762  0.3031
 8773SOL    HW137955   0.811   1.566   9.250  1.9414  0.7842 -0.4491
 8773SOL    HW237956   0.748   1.437   9.218 -0.6196  0.4346 -0.7554
 8774SOL     OW37957   2.175   4.519  13.925 -0.3155 -0.7195 -0.1301
 8774SOL    HW137958   2.127   4.438  13.940 -1.7833  0.2709  0.4860
 8774SOL    HW237959   2.209   4.520  13.836  3.8517  0.2290  1.4414
 8775SOL     OW37960   1.895   4.317   6.967  0.2943 -0.0172 -0.9702
 8775SOL    HW137961   1.929   4.259   6.899 -1.6930 -0.1191 -1.8835
 8775SOL    HW237962   1.924   4.401   6.931  2.1939 -0.7860 -1.2525
 8776SOL     OW37963   2.949   3.395  15.172 -0.0180  1.0012  0.4821
 8776SOL    HW137964   2.965   3.367  15.262 -3.0300 -1.0722  0.3584
 8776SOL    HW237965   3.005   3.334  15.125 -2.9527 -2.4600  1.4555
 8777SOL     OW37966   1.500   1.298  12.614 -0.0766 -0.1776  0.5584
 8777SOL    HW137967   1.420   1.347  12.594  1.7531  1.4051 -2.8260
 8777SOL    HW237968   1.450   1.225  12.651 -0.1073 -0.9807 -1.0866
 8778SOL     OW37969   3.609   3.182   6.386  0.8176 -0.2784 -0.4524
 8778SOL    HW137970   3.615   3.253   6.450  0.6095 -0.8732  0.2281
 8778SOL    HW237971   3.538   3.209   6.328 -1.0436 -1.3670  1.3421
 8779SOL     OW37972   4.074   1.174   0.858  0.4281 -0.1729 -0.4698
 8779SOL    HW137973   4.107   1.087   0.881 -1.6908 -0.5654  1.1344
 8779SOL    HW237974   4.115   1.225   0.927  0.1385  0.1892 -0.5638
 8780SOL     OW37975   1.778   2.085   5.592 -0.1169  0.0811 -0.0021
 8780SOL    HW137976   1.832   2.035   5.654 -1.8916 -1.5736  0.2181
 8780SOL    HW237977   1.807   2.165   5.635 -2.4157  1.0452 -0.2373
 8781SOL     OW37978   3.028   3.268   3.086  0.2980 -0.1448 -0.3730
 8781SOL    HW137979   2.967   3.197   3.103  0.0857 -0.4044 -2.2206
 8781SOL    HW237980   3.111   3.226   3.109 -0.2087 -0.4265  0.9257
 8782SOL     OW37981   4.553   3.140   1.904 -0.0778  0.0812  0.6800
 8782SOL    HW137982   4.557   3.097   1.989 -0.3855 -1.4796 -0.0908
 8782SOL    HW237983   4.501   3.219   1.921 -0.5743 -0.5828  2.2694
 8783SOL     OW37984   0.931   4.127  10.084  0.3973  0.5753 -0.5858
 8783SOL    HW137985   0.918   4.213  10.043 -0.5603 -0.3210 -2.1970
 8783SOL    HW237986   0.849   4.086  10.055  1.1087  0.9834 -3.1560
 8784SOL     OW37987   0.695   3.136  10.631 -0.7061 -0.1625  0.0436
 8784SOL    HW137988   0.786   3.161  10.649 -1.0371  0.6282  0.6395
 8784SOL    HW237989   0.674   3.228  10.646 -0.3034 -0.0336 -0.1622
 8785SOL     OW37990   2.540   1.916   7.456 -0.1356 -0.3852  0.1461
 8785SOL    HW137991   2.512   1.928   7.547  1.1728  0.0004  0.5013
 8785SOL    HW237992   2.633   1.939   7.452 -0.0199 -0.4944  2.6882
 8786SOL     OW37993   0.609   1.307   3.468 -0.1099  0.0019  0.2222
 8786SOL    HW137994   0.623   1.215   3.493 -0.0764  0.0051  0.2153
 8786SOL    HW237995   0.668   1.305   3.393  1.2662  1.1505  1.2790
 8787SOL     OW37996   4.021   3.957   2.398  0.0239 -0.2176  0.6368
 8787SOL    HW137997   4.079   3.893   2.438  1.6436 -0.6773 -2.4669
 8787SOL    HW237998   4.064   4.041   2.415 -0.1129  0.5167 -2.7541
 8788SOL     OW37999   0.178   0.565   4.368  0.5606  0.2345  0.0764
 8788SOL    HW138000   0.178   0.585   4.274 -1.4233  0.0219  0.0521
 8788SOL    HW238001   0.245   0.625   4.402 -0.3916  0.7404  1.0467
 8789SOL     OW38002   0.373   2.957   8.847 -0.2318  0.3666 -0.0058
 8789SOL    HW138003   0.456   3.004   8.855 -0.7858  1.2226  0.8052
 8789SOL    HW238004   0.319   3.034   8.829  1.6608  0.7483 -3.9334
 8790SOL     OW38005   1.760   1.728   7.538  0.2737 -0.1024 -0.0516
 8790SOL    HW138006   1.776   1.723   7.444  2.2091 -1.4010  0.3522
 8790SOL    HW238007   1.737   1.821   7.539 -1.2235 -0.4631 -3.3849
 8791SOL     OW38008   4.023   0.197   5.932 -0.2175  0.2557 -0.1728
 8791SOL    HW138009   3.977   0.199   5.848  0.8901  0.6928 -0.7627
 8791SOL    HW238010   4.111   0.209   5.896 -0.5753  0.0486 -1.1247
 8792SOL     OW38011   1.691   4.089   0.667  0.5680 -0.1302  0.2934
 8792SOL    HW138012   1.725   4.129   0.747  3.6527  0.2478 -1.2189
 8792SOL    HW238013   1.613   4.140   0.648  0.8873 -0.6688 -2.5016
 8793SOL     OW38014   0.660   2.589   1.957  0.1742  0.2029 -0.4509
 8793SOL    HW138015   0.662   2.613   1.864 -0.3042 -1.7339 -0.9538
 8793SOL    HW238016   0.578   2.634   1.976  0.8873  0.8804  1.0183
 8794SOL     OW38017   1.060   3.342   2.171 -0.3975  0.4324  0.0892
 8794SOL    HW138018   1.142   3.388   2.154 -1.0286  1.6886  0.4586
 8794SOL    HW238019   1.007   3.377   2.099  0.2721  0.0719 -0.5728
 8795SOL     OW38020   2.643   0.999   1.118 -0.6483 -0.1839  0.5359
 8795SOL    HW138021   2.730   1.003   1.079 -1.4378  0.5173 -1.1467
 8795SOL    HW238022   2.642   1.080   1.169  1.6078 -1.1325  2.1231
 8796SOL     OW38023   0.693   1.689   5.212 -0.1800  0.1865  0.1422
 8796SOL    HW138024   0.766   1.656   5.264 -0.7275  1.7038  1.8875
 8796SOL    HW238025   0.617   1.671   5.268 -1.3354  0.6860 -1.2497
 8797SOL     OW38026   0.690   3.597   2.422 -0.2124 -0.7260 -0.0783
 8797SOL    HW138027   0.615   3.538   2.432 -3.2239  3.3960  1.3956
 8797SOL    HW238028   0.732   3.555   2.347 -0.1346  0.0432 -0.4615
 8798SOL     OW38029   1.954   0.325   2.063 -0.3911  0.6645  0.6047
 8798SOL    HW138030   1.870   0.352   2.099 -0.9848 -0.2996 -0.0774
 8798SOL    HW238031   1.948   0.374   1.980 -1.6734  1.1979  1.0177
 8799SOL     OW38032   0.078   2.917   0.350  0.1683 -0.5587  0.6868
 8799SOL    HW138033   0.117   2.927   0.263 -0.3370 -0.1158  0.5101
 8799SOL    HW238034   0.052   2.825   0.352  0.0645 -0.5706 -0.8539
 8800SOL     OW38035   1.188   3.237  14.218  0.0251 -0.0570 -0.3617
 8800SOL    HW138036   1.218   3.168  14.159  0.1351  1.3715 -2.0024
 8800SOL    HW238037   1.162   3.185  14.293  0.5792  1.1871  0.6926
 8801SOL     OW38038   0.907   1.911   4.437  0.2115  0.7214  0.3628
 8801SOL    HW138039   0.962   1.964   4.379  1.5304 -0.4708  0.5348
 8801SOL    HW238040   0.974   1.843   4.449 -0.1724  0.2621 -0.1215
 8802SOL     OW38041   1.383   3.825   8.843 -0.7492 -0.2449 -0.2397
 8802SOL    HW138042   1.381   3.896   8.779 -0.0164  1.4432  1.6371
 8802SOL    HW238043   1.380   3.874   8.925  0.4489 -1.0782  0.3010
 8803SOL     OW38044   4.336   0.176   3.316  0.4546 -0.1518 -0.1253
 8803SOL    HW138045   4.335   0.121   3.394 -0.4560  1.7231  1.1780
 8803SOL    HW238046   4.251   0.150   3.280  0.2647  1.7802 -1.0732
 8804SOL     OW38047   3.951   3.465   6.610 -0.8226 -0.0637  0.1141
 8804SOL    HW138048   3.911   3.516   6.680 -0.6727  1.6635 -1.0737
 8804SOL    HW238049   4.009   3.531   6.573 -0.6117 -1.5760 -2.2653
 8805SOL     OW38050   0.525   0.463   4.748  0.5618  0.1250  0.5722
 8805SOL    HW138051   0.502   0.397   4.814 -1.1907 -0.4039 -0.5767
 8805SOL    HW238052   0.560   0.536   4.799  0.3408  0.2365  0.5644
 8806SOL     OW38053   1.666   3.171   8.615 -0.3026 -0.6271 -0.3334
 8806SOL    HW138054   1.682   3.100   8.677  0.3745 -1.1608 -1.1175
 8806SOL    HW238055   1.699   3.130   8.535 -0.9815 -2.4310  0.3156
 8807SOL     OW38056   3.932   1.163   4.396 -0.1855 -0.4925  0.0319
 8807SOL    HW138057   3.938   1.232   4.462  0.3005  0.7003 -1.2478
 8807SOL    HW238058   3.869   1.192   4.330  0.1450  1.1712  0.4508
 8808SOL     OW38059   3.726   1.390   8.746  0.7845  0.4373 -0.0516
 8808SOL    HW138060   3.784   1.315   8.760  1.2401  0.9659  0.8451
 8808SOL    HW238061   3.657   1.372   8.810 -0.6938  1.3039 -1.3962
 8809SOL     OW38062   0.221   4.374   5.235  0.5756  0.3388  0.1762
 8809SOL    HW138063   0.215   4.281   5.257  0.4202 -0.1114 -1.8156
 8809SOL    HW238064   0.258   4.367   5.147  0.7775  0.5717  0.2423
 8810SOL     OW38065   3.017   3.722   8.096  0.1929 -0.7134  0.0823
 8810SOL    HW138066   3.021   3.741   8.002  2.6838  0.4703  0.4211
 8810SOL    HW238067   2.943   3.663   8.109  0.3452 -0.8934  0.1388
 8811SOL     OW38068   4.040   3.880   8.557 -0.3063 -0.0090  0.5408
 8811SOL    HW138069   3.949   3.851   8.547 -0.9007  1.8972  0.4460
 8811SOL    HW238070   4.083   3.826   8.491 -2.2664  0.2241 -0.9419
 8812SOL     OW38071   0.287   2.897  15.431 -0.8947 -0.6209  0.2503
 8812SOL    HW138072   0.202   2.860  15.409 -1.2668  0.9297 -0.9652
 8812SOL    HW238073   0.338   2.823  15.398 -0.8885  0.0582 -1.2764
 8813SOL     OW38074   2.079   0.858   5.751  0.3169  0.6179 -0.1701
 8813SOL    HW138075   2.018   0.785   5.767  0.2826  0.9574  1.2318
 8813SOL    HW238076   2.058   0.860   5.658 -1.7543 -0.6664  0.2714
 8814SOL     OW38077   2.363   3.684  17.107 -0.0657  0.1041  0.0855
 8814SOL    HW138078   2.388   3.604  17.061 -1.7775  0.1505 -0.9124
 8814SOL    HW238079   2.300   3.648  17.170 -0.6991 -0.2251 -0.7387
 8815SOL     OW38080   3.442   2.268  14.978 -0.4124 -0.5327  0.1593
 8815SOL    HW138081   3.440   2.360  15.004 -1.3836 -0.5039 -0.0336
 8815SOL    HW238082   3.361   2.239  15.019  0.1320 -0.0748  1.5557
 8816SOL     OW38083   2.560   3.553  14.595 -0.9175 -0.6600  0.2910
 8816SOL    HW138084   2.508   3.628  14.569 -1.5975 -0.5794  1.8601
 8816SOL    HW238085   2.534   3.535  14.686  3.5766 -1.7489  1.4104
 8817SOL     OW38086   1.034   2.348   6.357  0.0095 -0.1573 -0.2612
 8817SOL    HW138087   1.054   2.285   6.426 -0.2178 -0.3878 -0.4082
 8817SOL    HW238088   0.963   2.394   6.402  0.4979  2.4556 -2.1040
 8818SOL     OW38089   4.219   4.432   7.014 -0.2270 -0.2862 -0.6199
 8818SOL    HW138090   4.151   4.373   6.981 -0.1435 -0.6076 -0.2109
 8818SOL    HW238091   4.182   4.446   7.101  1.9955 -1.4270  0.5106
 8819SOL     OW38092   0.886   0.953  13.353  0.2371  0.1636 -0.6260
 8819SOL    HW138093   0.939   1.032  13.348 -0.3131  0.3332 -3.9472
 8819SOL    HW238094   0.865   0.935  13.261 -0.8852  1.0530 -0.5443
 8820SOL     OW38095   1.453   2.561   8.975  0.9585 -0.5065 -0.5400
 8820SOL    HW138096   1.385   2.613   8.932  1.6913 -0.4000 -1.5513
 8820SOL    HW238097   1.447   2.592   9.066 -0.2295 -0.4652 -0.6320
 8821SOL     OW38098   3.314   2.729  10.886  0.0183  0.2792 -0.6456
 8821SOL    HW138099   3.283   2.699  10.801 -3.7515 -0.6706  1.0479
 8821SOL    HW238100   3.316   2.824  10.872  1.1088  0.5123  1.0344
 8822SOL     OW38101   0.074   3.641   5.804  0.2505  0.2963 -0.2083
 8822SOL    HW138102   0.077   3.573   5.736 -1.4041 -1.1077  1.1070
 8822SOL    HW238103   0.099   3.598   5.886 -0.5356 -2.1181 -1.2305
 8823SOL     OW38104   0.456   4.329   6.921  0.3450 -0.4244 -0.6842
 8823SOL    HW138105   0.436   4.247   6.967 -1.5601 -0.0955 -0.9601
 8823SOL    HW238106   0.374   4.338   6.873  0.8105  0.7833 -1.2611
 8824SOL     OW38107   0.591   1.679   4.629  0.1624 -0.2137  1.1589
 8824SOL    HW138108   0.612   1.727   4.549  1.0088 -2.5225  0.0163
 8824SOL    HW238109   0.496   1.666   4.624 -0.0192  0.9001  1.5764
 8825SOL     OW38110   0.886   1.945   8.282  0.4552 -0.6333  0.2448
 8825SOL    HW138111   0.944   1.952   8.358 -0.4709  0.6737  0.8387
 8825SOL    HW238112   0.935   2.002   8.223  0.6311 -0.4287  0.5872
 8826SOL     OW38113   1.992   3.688  15.740  0.0843 -0.2427  0.0789
 8826SOL    HW138114   1.956   3.602  15.762 -1.1447  0.1546 -0.3954
 8826SOL    HW238115   2.078   3.686  15.782 -0.6980 -1.1277  1.6525
 8827SOL     OW38116   2.906   2.659   2.914 -0.2646  0.4120  0.3725
 8827SOL    HW138117   2.948   2.609   2.844  0.1988 -0.0088  0.9550
 8827SOL    HW238118   2.966   2.653   2.988  0.4914 -1.7991 -0.4143
 8828SOL     OW38119   3.191   3.324   7.504 -0.2048  0.2940  0.5058
 8828SOL    HW138120   3.104   3.339   7.469 -0.0357  0.4111  0.1380
 8828SOL    HW238121   3.176   3.259   7.573 -1.4818  1.7663  1.5999
 8829SOL     OW38122   1.047   0.496   6.464  0.2997 -0.0983  0.5577
 8829SOL    HW138123   0.990   0.525   6.394 -0.4942 -3.0114  0.0130
 8829SOL    HW238124   0.992   0.530   6.535  1.1246  3.4047 -0.4486
 8830SOL     OW38125   0.141   1.309   1.553 -0.1173  0.2759  0.2630
 8830SOL    HW138126   0.067   1.355   1.513  2.2824  1.5143 -2.7680
 8830SOL    HW238127   0.155   1.360   1.633  0.1535  1.8982 -0.8237
 8831SOL     OW38128   4.636   3.637   6.260 -0.0871  0.4766 -0.4248
 8831SOL    HW138129   4.552   3.682   6.267  0.3759  1.1893  0.4869
 8831SOL    HW238130   4.615   3.572   6.192 -0.1279  0.1669 -0.1165
 8832SOL     OW38131   3.759   3.995  16.213 -0.0449 -0.0121 -0.2655
 8832SOL    HW138132   3.845   3.983  16.253  0.1329 -0.0391 -0.6540
 8832SOL    HW238133   3.733   3.904  16.223  1.8752 -0.6742 -1.1693
 8833SOL     OW38134   0.422   0.362  12.746 -0.4444  0.8048 -0.6680
 8833SOL    HW138135   0.409   0.359  12.651  0.9832 -0.6608 -0.8058
 8833SOL    HW238136   0.431   0.270  12.771 -1.3328  1.5097  2.3367
 8834SOL     OW38137   3.668   3.794   7.499  0.5132  0.0119 -0.2849
 8834SOL    HW138138   3.669   3.883   7.464  2.8771 -0.0358 -0.3573
 8834SOL    HW238139   3.730   3.756   7.436 -0.9527  0.0950 -1.7815
 8835SOL     OW38140   3.311   3.118   5.567  0.2834  0.3898  0.1972
 8835SOL    HW138141   3.346   3.032   5.544 -0.6093 -0.2252  1.1117
 8835SOL    HW238142   3.225   3.119   5.525  0.0658 -0.8835  0.6154
 8836SOL     OW38143   1.864   4.724   3.809  0.4037 -0.5678 -0.3458
 8836SOL    HW138144   1.893   0.060   3.866 -1.8711  0.0971 -0.0388
 8836SOL    HW238145   1.922   4.652   3.834  1.0113 -0.2013 -0.6922
 8837SOL     OW38146   2.123   2.113  10.018  0.1442 -0.1363 -0.2329
 8837SOL    HW138147   2.064   2.189  10.019  0.9421  0.4525  0.8780
 8837SOL    HW238148   2.080   2.059  10.084  0.0310 -1.4161 -1.3434
 8838SOL     OW38149   2.612   0.050   6.624 -0.0492 -0.5543 -0.2776
 8838SOL    HW138150   2.659   0.086   6.549  0.2577  2.7335  1.4658
 8838SOL    HW238151   2.538   0.109   6.639 -0.0841 -0.7028  0.1354
 8839SOL     OW38152   2.126   0.842   5.476 -0.1969 -0.4000 -0.0868
 8839SOL    HW138153   2.065   0.916   5.481 -1.4152 -1.4591  0.7942
 8839SOL    HW238154   2.117   0.823   5.382  0.6517  1.5824 -0.5752
 8840SOL     OW38155   3.532   2.221   6.697 -0.2833  0.1329 -0.4362
 8840SOL    HW138156   3.598   2.242   6.763 -1.1201 -1.6669  0.9935
 8840SOL    HW238157   3.586   2.161   6.645 -1.5531 -0.1510 -1.4257
 8841SOL     OW38158   4.468   3.348  16.534 -0.9904 -0.0257  0.0321
 8841SOL    HW138159   4.429   3.330  16.620  1.6074  1.0119  1.4182
 8841SOL    HW238160   4.395   3.345  16.473 -0.7810  0.3873 -0.2365
 8842SOL     OW38161   2.829   4.516   9.080 -0.0962  0.3100  0.1352
 8842SOL    HW138162   2.795   4.428   9.099 -1.1826  0.6117 -0.4120
 8842SOL    HW238163   2.777   4.528   9.000 -0.2243 -0.8403  0.0469
 8843SOL     OW38164   0.788   2.538   5.922 -0.4399 -0.3236  0.4980
 8843SOL    HW138165   0.724   2.561   5.989  0.8728  0.0742  1.6272
 8843SOL    HW238166   0.732   2.528   5.845  0.6604 -0.2541 -0.3206
 8844SOL     OW38167   2.875   2.614   3.584 -0.2111  0.0995 -0.1495
 8844SOL    HW138168   2.955   2.563   3.595 -0.7838 -0.6092  0.7840
 8844SOL    HW238169   2.875   2.609   3.489  0.4331 -0.1039 -0.1398
 8845SOL     OW38170   4.590   2.009   6.262 -0.4534  0.6928 -0.2615
 8845SOL    HW138171   4.556   1.993   6.350  0.6967  1.6404  0.3526
 8845SOL    HW238172   4.518   2.059   6.225  0.6587  0.3628 -2.9069
 8846SOL     OW38173   0.466   0.841  12.917  0.2448  0.2241  0.5301
 8846SOL    HW138174   0.414   0.768  12.882 -1.7473  1.3864  1.0850
 8846SOL    HW238175   0.519   0.873  12.843 -0.0895 -0.2519  0.0814
 8847SOL     OW38176   2.022   2.750   1.742  0.1492 -0.1038 -0.1295
 8847SOL    HW138177   2.015   2.655   1.736 -3.0351  0.1375 -0.1562
 8847SOL    HW238178   2.015   2.760   1.837 -1.1664  0.5602 -0.3082
 8848SOL     OW38179   2.625   1.930   4.657  0.5872  0.2149 -0.3413
 8848SOL    HW138180   2.645   2.007   4.604 -1.7080  1.0720  0.0291
 8848SOL    HW238181   2.690   1.935   4.727 -1.0042  1.0267  1.0560
 8849SOL     OW38182   0.497   1.602   5.353  0.4208 -0.3358  0.6137
 8849SOL    HW138183   0.516   1.541   5.424 -0.8142 -1.2288  0.1675
 8849SOL    HW238184   0.417   1.560   5.321 -0.9142  1.5312  1.4563
 8850SOL     OW38185   1.570   0.229  12.648 -0.0916  0.2615  0.1238
 8850SOL    HW138186   1.566   0.290  12.721  0.5889 -1.6632  1.7883
 8850SOL    HW238187   1.541   0.150  12.694 -0.1512  1.4559  2.1217
 8851SOL     OW38188   1.866   1.385  11.296  0.1669 -0.2421  0.3877
 8851SOL    HW138189   1.816   1.417  11.371  2.5780  1.2260  1.3691
 8851SOL    HW238190   1.799   1.371  11.229  0.7949 -0.2178 -0.2462
 8852SOL     OW38191   4.419   1.462   5.019  0.2703  0.3216  0.0194
 8852SOL    HW138192   4.394   1.370   5.018 -1.7384  0.8383  1.8196
 8852SOL    HW238193   4.391   1.497   5.104  2.7337  0.1061  0.9211
 8853SOL     OW38194   0.275   1.698   2.502  0.8203  0.2143 -0.0693
 8853SOL    HW138195   0.293   1.617   2.551  0.7658  0.7240  0.8022
 8853SOL    HW238196   0.218   1.663   2.434 -0.2393  1.7949 -0.0007
 8854SOL     OW38197   2.860   3.347   7.444 -0.3654  0.5410 -0.3429
 8854SOL    HW138198   2.870   3.440   7.463 -1.2563  0.0623  2.5124
 8854SOL    HW238199   2.792   3.328   7.379 -0.1166 -1.8176  0.0573
 8855SOL     OW38200   2.986   0.769   3.373  0.1347 -0.2126 -0.4866
 8855SOL    HW138201   2.998   0.699   3.438 -1.1026 -0.8893 -0.9943
 8855SOL    HW238202   3.049   0.730   3.313  0.0684 -1.1918  0.0863
 8856SOL     OW38203   0.010   4.504  16.605 -0.1302  0.1606 -0.2892
 8856SOL    HW138204   0.013   4.438  16.675 -0.4463  0.6145  0.1505
 8856SOL    HW238205   4.651   4.517  16.601 -0.0391  1.2989  1.3128
 8857SOL     OW38206   1.990   0.137   7.917  0.0172 -0.3615 -0.0788
 8857SOL    HW138207   2.066   0.090   7.883  1.0938 -0.0013  1.8016
 8857SOL    HW238208   1.927   0.065   7.927  0.7258 -1.0604 -0.6829
 8858SOL     OW38209   0.132   0.116  10.536 -0.9255 -0.2899  0.0071
 8858SOL    HW138210   0.038   0.123  10.553 -1.0799 -2.0000 -0.1157
 8858SOL    HW238211   0.150   0.157  10.451  0.6882  3.9673  2.3779
 8859SOL     OW38212   0.467   1.129   2.649  0.6119 -0.8810 -0.0035
 8859SOL    HW138213   0.408   1.181   2.703  0.2410 -1.3472  0.0384
 8859SOL    HW238214   0.525   1.195   2.611  1.0308 -2.4135 -2.0218
 8860SOL     OW38215   1.902   0.680   4.939  0.0750  0.1239 -0.5928
 8860SOL    HW138216   1.867   0.599   4.976  1.1706 -1.6599 -3.5476
 8860SOL    HW238217   1.952   0.655   4.862 -0.3387 -0.9997 -0.4856
 8861SOL     OW38218   2.345   2.752   5.920 -0.2595 -0.1345 -0.5158
 8861SOL    HW138219   2.252   2.731   5.926 -0.4631  0.3262 -1.8672
 8861SOL    HW238220   2.345   2.829   5.977 -2.6669  0.0460 -0.7515
 8862SOL     OW38221   2.771   1.604   8.828 -0.3859 -0.5675  0.4184
 8862SOL    HW138222   2.795   1.548   8.754 -0.1758 -1.4855  1.1719
 8862SOL    HW238223   2.679   1.578   8.829  0.4499 -3.7251 -1.5229
 8863SOL     OW38224   1.888   3.272   0.822 -0.2071 -0.1085 -0.4635
 8863SOL    HW138225   1.815   3.276   0.883  1.6306 -0.1726  1.7228
 8863SOL    HW238226   1.865   3.188   0.782  2.3786  0.0242 -2.2663
 8864SOL     OW38227   3.714   1.464   9.379 -0.3045 -0.6956  0.0873
 8864SOL    HW138228   3.803   1.452   9.346 -0.6304  0.0533 -1.0561
 8864SOL    HW238229   3.676   1.391   9.332 -0.9208  0.3388 -1.0312
 8865SOL     OW38230   3.572   0.669   2.457 -0.0303 -0.0549  0.1089
 8865SOL    HW138231   3.566   0.659   2.362 -1.0333  2.3922 -0.0772
 8865SOL    HW238232   3.480   0.660   2.482 -0.0169  1.3145  0.6660
 8866SOL     OW38233   0.242   4.445   0.766  0.4984 -0.2209  0.2779
 8866SOL    HW138234   0.239   4.379   0.696 -1.2991  0.3278 -0.1696
 8866SOL    HW238235   0.149   4.445   0.789  1.2468 -0.7970  3.2463
 8867SOL     OW38236   1.529   0.818   2.666  0.4701  0.1471  0.5316
 8867SOL    HW138237   1.475   0.860   2.599  1.1190  2.4347  1.4276
 8867SOL    HW238238   1.491   0.859   2.744 -1.4175  2.7462 -1.7704
 8868SOL     OW38239   0.773   0.511   6.924 -0.7391 -0.7840  0.3474
 8868SOL    HW138240   0.748   0.603   6.928  1.1571 -0.3618  2.4167
 8868SOL    HW238241   0.818   0.492   7.006 -1.1239 -1.7143  0.3468
 8869SOL     OW38242   0.312   1.963   4.448 -0.0849 -0.1446  0.1503
 8869SOL    HW138243   0.401   1.996   4.459 -1.2364  2.5753  1.0483
 8869SOL    HW238244   0.300   1.966   4.353  3.2574  3.6091 -0.1381
 8870SOL     OW38245   2.916   4.727   7.076 -0.4284 -0.3537  0.3041
 8870SOL    HW138246   2.977   0.062   7.101  0.2266 -1.1757  1.0184
 8870SOL    HW238247   2.947   4.648   7.120  2.3120 -0.9441 -2.7136
 8871SOL     OW38248   4.724   1.802  15.380  0.4313 -0.0143  0.2837
 8871SOL    HW138249   0.075   1.798  15.424 -0.3212 -1.6322  1.6242
 8871SOL    HW238250   4.666   1.838  15.448 -2.3073  1.2095 -2.7352
 8872SOL     OW38251   0.451   3.765  12.426  0.3663  0.6121  0.6414
 8872SOL    HW138252   0.538   3.755  12.465  0.6668  1.1909  0.1216
 8872SOL    HW238253   0.476   3.805  12.343  0.6166 -1.3096 -0.1921
 8873SOL     OW38254   0.576   0.120  10.797 -0.0020 -0.8057 -0.6789
 8873SOL    HW138255   0.483   0.127  10.775  0.4188  1.3520 -1.7924
 8873SOL    HW238256   0.580   0.056  10.869 -0.5478  1.2291  1.1600
 8874SOL     OW38257   2.444   2.337   9.355 -0.2143  0.0305  0.2981
 8874SOL    HW138258   2.375   2.276   9.329 -0.8056  0.8626 -0.0768
 8874SOL    HW238259   2.502   2.284   9.410 -2.2250 -4.3373 -1.7642
 8875SOL     OW38260   1.779   3.130   2.728 -0.5213  0.3124 -0.2403
 8875SOL    HW138261   1.833   3.060   2.765  0.7817  1.1080 -0.6316
 8875SOL    HW238262   1.785   3.119   2.634 -1.1552  1.2210 -0.3811
 8876SOL     OW38263   4.049   3.690   3.583  0.0329 -0.1847 -0.3044
 8876SOL    HW138264   3.997   3.694   3.663  0.9382 -2.3667  0.3896
 8876SOL    HW238265   4.017   3.769   3.539  1.0351  0.7113  0.5964
 8877SOL     OW38266   2.636   3.355   6.976 -0.1283 -0.3582 -0.5917
 8877SOL    HW138267   2.567   3.396   7.028 -0.3969 -1.2517 -0.2418
 8877SOL    HW238268   2.656   3.287   7.041 -1.1746  0.4927  0.6153
 8878SOL     OW38269   3.316   1.031   9.211 -0.2650  0.3676 -0.3621
 8878SOL    HW138270   3.244   1.092   9.224 -1.6398 -0.7787 -2.6689
 8878SOL    HW238271   3.264   0.970   9.158 -2.0720  2.2351 -0.7497
 8879SOL     OW38272   1.707   1.032   7.177 -0.7044  0.1695 -0.2335
 8879SOL    HW138273   1.701   1.005   7.086 -0.6166 -1.5878  0.2845
 8879SOL    HW238274   1.720   1.127   7.182  0.7487  0.0376 -1.6379
 8880SOL     OW38275   2.473   4.052   0.784  0.8116  0.3901 -0.0623
 8880SOL    HW138276   2.409   4.117   0.813  2.5469  2.2764 -0.4557
 8880SOL    HW238277   2.524   4.032   0.862  0.1899  1.9601  0.7379
 8881SOL     OW38278   1.902   2.468   3.716 -0.1507  0.5372  0.1729
 8881SOL    HW138279   1.810   2.440   3.723  0.2158 -0.3248  1.6181
 8881SOL    HW238280   1.938   2.388   3.679  0.9976  0.1859  2.0617
 8882SOL     OW38281   1.177   1.626  11.511  0.0863 -0.1626  0.4259
 8882SOL    HW138282   1.182   1.535  11.484  0.9484 -0.1159  0.4142
 8882SOL    HW238283   1.111   1.652  11.447 -0.0243  0.9475  0.9825
 8883SOL     OW38284   1.291   3.280   9.470 -0.1796  0.0001  0.3861
 8883SOL    HW138285   1.329   3.207   9.518 -0.2149 -2.2678 -3.0171
 8883SOL    HW238286   1.201   3.246   9.469 -0.6834  1.3587 -0.1616
 8884SOL     OW38287   3.508   0.957   8.870  0.1956 -0.4260 -0.0039
 8884SOL    HW138288   3.435   0.898   8.889 -0.5781  0.6088  0.1875
 8884SOL    HW238289   3.454   1.034   8.857  2.3366  1.1001  0.1924
 8885SOL     OW38290   1.848   1.245   8.417  0.1905  0.1426  0.5544
 8885SOL    HW138291   1.854   1.320   8.357 -0.4875 -0.9065 -0.8355
 8885SOL    HW238292   1.927   1.197   8.390 -0.5893 -0.9903  0.3088
 8886SOL     OW38293   1.236   2.074   1.712  0.4471  0.3252 -0.4541
 8886SOL    HW138294   1.161   2.096   1.767  0.4546 -2.0660  0.4836
 8886SOL    HW238295   1.304   2.135   1.742 -0.2041 -0.6283  2.9112
 8887SOL     OW38296   3.949   4.188  14.019  0.1471 -0.1559 -0.1480
 8887SOL    HW138297   4.014   4.245  13.979  0.4716 -0.4648 -0.0616
 8887SOL    HW238298   3.952   4.119  13.952  4.3642 -0.4105  0.2845
 8888SOL     OW38299   4.595   0.536   3.812 -0.5841  1.0879 -0.2055
 8888SOL    HW138300   4.674   0.483   3.804  0.4816  2.7516 -0.4960
 8888SOL    HW238301   4.535   0.486   3.757 -1.5294  0.6883  1.1775
 8889SOL     OW38302   3.306   0.506   5.443  0.0586 -0.5457 -0.1465
 8889SOL    HW138303   3.293   0.599   5.461  0.2076 -0.1131 -2.3029
 8889SOL    HW238304   3.374   0.493   5.510 -1.5331 -1.4727  1.2647
 8890SOL     OW38305   2.000   1.617   3.380 -0.4994  0.2334 -0.3563
 8890SOL    HW138306   2.079   1.586   3.336 -0.8428  1.0741 -1.5710
 8890SOL    HW238307   2.025   1.690   3.436 -0.7093  2.2487 -2.9007
 8891SOL     OW38308   1.815   0.383  15.309 -0.0685  0.2362  0.0795
 8891SOL    HW138309   1.780   0.363  15.222  0.2701 -0.2562  0.0527
 8891SOL    HW238310   1.833   0.477  15.302  0.4319  0.1077 -0.4155
 8892SOL     OW38311   1.029   0.897   6.680  0.9838  0.2322 -0.0160
 8892SOL    HW138312   0.948   0.897   6.630 -0.6122 -0.7775  2.5229
 8892SOL    HW238313   1.072   0.814   6.658  2.1581  0.1337  2.5923
 8893SOL     OW38314   2.652   0.772   7.479  0.2206  0.3005 -0.1207
 8893SOL    HW138315   2.629   0.789   7.570 -3.3088  0.1285 -0.9586
 8893SOL    HW238316   2.725   0.711   7.491 -1.1841 -1.0120  1.7536
 8894SOL     OW38317   0.127   2.962   5.031  0.2016 -0.6501 -0.0122
 8894SOL    HW138318   0.180   3.018   5.089 -1.0759 -0.1017  0.6224
 8894SOL    HW238319   0.129   2.877   5.076 -1.6960 -1.1126 -0.8320
 8895SOL     OW38320   4.654   0.552   2.801 -0.0277  0.0492  0.2162
 8895SOL    HW138321   4.647   0.555   2.897 -1.3855  1.2922  0.0636
 8895SOL    HW238322   4.590   0.481   2.793  1.9238 -1.6376 -0.4825
 8896SOL     OW38323   2.199   3.362   1.758 -0.2063 -0.1131  0.4502
 8896SOL    HW138324   2.265   3.330   1.819  0.5298  0.4797 -0.0443
 8896SOL    HW238325   2.248   3.435   1.721 -1.5903  1.4050  1.6105
 8897SOL     OW38326   1.301   2.573   6.263 -0.0185  0.3820  0.5120
 8897SOL    HW138327   1.392   2.603   6.253 -0.4640  1.1323 -1.2743
 8897SOL    HW238328   1.260   2.631   6.199  2.9348  1.4701 -0.4298
 8898SOL     OW38329   3.195   0.021   7.594  0.0924 -0.3761 -0.6067
 8898SOL    HW138330   3.187   0.112   7.624 -0.3210 -0.4509 -0.4854
 8898SOL    HW238331   3.182   4.703   7.673  0.7698  0.3473 -0.0147
 8899SOL     OW38332   4.342   1.682   0.802  0.2286 -0.1921  0.1915
 8899SOL    HW138333   4.393   1.708   0.725 -1.1132  1.3624 -0.1695
 8899SOL    HW238334   4.258   1.653   0.766  0.1362 -0.4297  0.5996
 8900SOL     OW38335   2.934   4.010  14.036 -0.3218 -0.4760 -0.1777
 8900SOL    HW138336   2.925   4.072  14.108 -0.0665 -0.6715  0.0189
 8900SOL    HW238337   2.965   4.069  13.968 -0.1091  0.5300  0.8023
 8901SOL     OW38338   3.663   4.674  11.201 -0.0768  0.0283 -0.8893
 8901SOL    HW138339   3.616   0.023  11.204  0.3355  0.1740  1.6867
 8901SOL    HW238340   3.731   4.681  11.269 -1.4446  0.4455  0.4247
 8902SOL     OW38341   4.661   2.364   2.512  0.4125  0.3973  0.5366
 8902SOL    HW138342   0.008   2.412   2.526  1.7897 -0.8866 -3.1587
 8902SOL    HW238343   4.592   2.412   2.558 -2.1510  0.8839 -3.7799
 8903SOL     OW38344   1.447   2.235  13.059 -0.6324  0.1549 -0.6324
 8903SOL    HW138345   1.465   2.192  12.975 -0.0347 -0.8251  0.0089
 8903SOL    HW238346   1.535   2.253  13.092 -1.1592  0.8192  0.4257
 8904SOL     OW38347   4.216   1.053   3.101 -0.2444  0.0698 -0.1377
 8904SOL    HW138348   4.289   1.081   3.046 -1.8517 -0.6046 -2.5994
 8904SOL    HW238349   4.265   0.993   3.157 -0.2492  0.7120  0.5603
 8905SOL     OW38350   4.345   1.745   8.147 -0.4077 -0.7191 -0.2352
 8905SOL    HW138351   4.312   1.832   8.123  1.3978 -0.3085 -1.2195
 8905SOL    HW238352   4.430   1.770   8.183  0.7102 -0.2908 -3.1518
 8906SOL     OW38353   0.551   2.763  15.307  0.8130  0.2589 -0.1722
 8906SOL    HW138354   0.517   2.746  15.219  1.4191 -0.5399 -0.2512
 8906SOL    HW238355   0.571   2.679  15.348  0.1257  0.5010  0.6738
 8907SOL     OW38356   0.481   2.129   5.828 -0.4826  0.5003 -0.0531
 8907SOL    HW138357   0.390   2.119   5.856 -0.7966  0.1299 -1.2119
 8907SOL    HW238358   0.498   2.057   5.768 -1.7487  1.1066 -1.1262
 8908SOL     OW38359   2.609   1.634  11.033  0.2982  0.0336 -0.4720
 8908SOL    HW138360   2.601   1.708  11.093 -1.2390 -0.3923 -0.1273
 8908SOL    HW238361   2.518   1.605  11.046  0.9350 -1.1869  1.2538
 8909SOL     OW38362   4.471   3.178  10.570 -0.0406  0.3777  0.1781
 8909SOL    HW138363   4.555   3.223  10.568  0.2398 -0.1191  0.8193
 8909SOL    HW238364   4.414   3.251  10.596 -0.7231  0.3509 -1.2614
 8910SOL     OW38365   3.501   4.145   6.879  0.1326  0.7938  0.3115
 8910SOL    HW138366   3.432   4.088   6.845  1.4909 -1.1363  0.7965
 8910SOL    HW238367   3.457   4.199   6.944 -0.1193 -1.5375  2.0825
 8911SOL     OW38368   0.912   3.820   2.243  0.7208  0.2117 -0.0324
 8911SOL    HW138369   0.994   3.867   2.227 -0.1192  1.5360 -0.5204
 8911SOL    HW238370   0.876   3.891   2.295  1.3096  1.1638 -0.9190
 8912SOL     OW38371   2.648   2.068  13.048  0.1830  0.3724 -0.2518
 8912SOL    HW138372   2.676   2.148  13.092 -1.5217  1.7747 -1.7065
 8912SOL    HW238373   2.613   2.108  12.968  0.2428 -0.6516 -0.7916
 8913SOL     OW38374   4.317   0.145   6.760 -0.3277  0.1105  0.0011
 8913SOL    HW138375   4.334   0.061   6.804  2.7146  0.0199 -1.4072
 8913SOL    HW238376   4.407   0.175   6.752 -0.6819  0.5710 -2.3991
 8914SOL     OW38377   2.236   1.301   7.675 -0.6112  0.2984 -0.1461
 8914SOL    HW138378   2.327   1.332   7.674 -0.0864 -1.2903 -0.1747
 8914SOL    HW238379   2.232   1.215   7.717  3.2957 -0.5308 -1.4309
 8915SOL     OW38380   2.606   3.896   7.232  0.0371 -0.4902 -0.4024
 8915SOL    HW138381   2.515   3.893   7.204  0.4403 -2.0369 -1.5711
 8915SOL    HW238382   2.621   3.989   7.221  0.6124 -0.9942 -3.6759
 8916SOL     OW38383   4.154   3.711   4.357 -0.2368 -0.7184 -0.9224
 8916SOL    HW138384   4.115   3.663   4.284 -0.2755 -0.5316 -1.0247
 8916SOL    HW238385   4.071   3.753   4.381  0.1432  0.8726 -2.4020
 8917SOL     OW38386   0.556   0.438   7.787 -0.0698  0.3650 -0.1692
 8917SOL    HW138387   0.597   0.473   7.866  0.0016 -0.9614  0.3923
 8917SOL    HW238388   0.581   0.345   7.793  1.3032  0.6026 -2.1532
 8918SOL     OW38389   4.634   2.317  13.070 -0.9937 -0.0974  0.6394
 8918SOL    HW138390   4.616   2.368  13.149  0.0594 -0.5527  1.1647
 8918SOL    HW238391   4.703   2.370  13.030 -1.1043 -0.9273 -0.6436
 8919SOL     OW38392   2.499   1.890   9.701  0.2220  0.3398 -0.0848
 8919SOL    HW138393   2.459   1.916   9.784  1.5623  0.3266  0.5763
 8919SOL    HW238394   2.473   1.963   9.645 -0.5201 -0.1328 -0.3459
 8920SOL     OW38395   2.022   3.327   7.785  0.1342 -0.1600 -0.1748
 8920SOL    HW138396   1.971   3.256   7.823  3.3967 -1.9527  0.8824
 8920SOL    HW238397   2.109   3.313   7.824  0.7331  0.6176 -1.2167
 8921SOL     OW38398   0.840   2.585   3.340 -0.3100  0.5018 -0.0240
 8921SOL    HW138399   0.810   2.548   3.258 -1.3919 -0.7751  0.9493
 8921SOL    HW238400   0.887   2.508   3.373 -2.6160 -0.2125  1.5513
 8922SOL     OW38401   0.368   2.868   6.778 -0.0638  0.0104 -0.7348
 8922SOL    HW138402   0.295   2.879   6.839  0.6626  0.5791  0.0326
 8922SOL    HW238403   0.433   2.809   6.818 -0.8611 -2.1092 -2.5517
 8923SOL     OW38404   3.303   3.613   2.177 -0.4468 -0.4210  0.4223
 8923SOL    HW138405   3.226   3.619   2.120 -0.3129  1.6773  0.4789
 8923SOL    HW238406   3.351   3.545   2.129 -0.4196 -0.7520  0.9134
 8924SOL     OW38407   1.354   0.892   6.618  0.1282  0.6790 -0.1904
 8924SOL    HW138408   1.301   0.816   6.591 -0.2817 -0.6186  4.2296
 8924SOL    HW238409   1.354   0.873   6.712 -1.4757  1.1996 -0.0704
 8925SOL     OW38410   2.717   3.408   0.586  0.3971 -0.3747  0.3101
 8925SOL    HW138411   2.652   3.473   0.557  2.0971  2.6932  3.2910
 8925SOL    HW238412   2.795   3.432   0.537  1.8439  0.2733  2.9061
 8926SOL     OW38413   0.536   0.786   1.275  0.0667  0.2159 -0.4391
 8926SOL    HW138414   0.460   0.743   1.234  0.6737 -0.7800 -0.5198
 8926SOL    HW238415   0.572   0.839   1.204 -2.0676  3.0709  0.6043
 8927SOL     OW38416   2.742   3.220   3.162 -0.8019  0.6816 -0.6338
 8927SOL    HW138417   2.724   3.182   3.076 -2.2020  1.0405 -0.5043
 8927SOL    HW238418   2.738   3.139   3.213 -1.7632  1.4566  0.5167
 8928SOL     OW38419   1.176   4.689  12.497 -0.1264 -0.4195  0.6998
 8928SOL    HW138420   1.233   4.634  12.443  0.4556  0.1386  0.7472
 8928SOL    HW238421   1.090   4.648  12.487  1.8412 -3.7026 -2.6968
 8929SOL     OW38422   4.655   2.135   7.379 -0.1610 -0.1756 -0.1705
 8929SOL    HW138423   4.584   2.171   7.434  0.9012  0.7298  0.6314
 8929SOL    HW238424   4.679   2.209   7.323  1.1355  1.0643  1.9854
 8930SOL     OW38425   1.753   4.209   2.719  0.3443  0.0338  0.2262
 8930SOL    HW138426   1.685   4.265   2.683  0.2567 -1.3433 -1.7573
 8930SOL    HW238427   1.735   4.124   2.678  0.3083 -0.8454  2.0767
 8931SOL     OW38428   4.200   1.271   3.255 -0.4271  0.0294  0.3001
 8931SOL    HW138429   4.190   1.203   3.189  1.6174  0.8469 -0.8383
 8931SOL    HW238430   4.187   1.212   3.330 -2.3168  1.1757  0.8737
 8932SOL     OW38431   2.153   1.479   9.608  0.2082  0.1027 -0.5679
 8932SOL    HW138432   2.221   1.538   9.642  1.2567 -0.7070 -1.2661
 8932SOL    HW238433   2.144   1.507   9.517  1.1702  2.4497  0.0471
 8933SOL     OW38434   4.007   2.204   9.377  0.6730  0.1537 -0.1718
 8933SOL    HW138435   4.086   2.185   9.429  0.0725 -0.4902  0.5087
 8933SOL    HW238436   3.963   2.119   9.376  0.3119  0.3589 -1.3438
 8934SOL     OW38437   2.815   3.673   3.327  0.2419 -0.0202 -0.2241
 8934SOL    HW138438   2.730   3.642   3.294  0.4115  1.3967 -1.9722
 8934SOL    HW238439   2.841   3.597   3.380  1.9889  0.4717 -0.3994
 8935SOL     OW38440   0.903   2.461   6.954  0.0975  0.7269  0.6616
 8935SOL    HW138441   0.895   2.470   6.859  1.2449  0.2523  0.5219
 8935SOL    HW238442   0.958   2.382   6.953 -1.0896 -0.0771 -1.1525
 8936SOL     OW38443   1.544   4.069   5.383  0.3231 -0.7536 -0.1767
 8936SOL    HW138444   1.504   4.073   5.296  1.2369  0.4719 -0.5464
 8936SOL    HW238445   1.595   4.150   5.382 -2.6928  1.1424 -0.7831
 8937SOL     OW38446   2.147   1.088  16.380 -0.0638 -0.0660  0.6100
 8937SOL    HW138447   2.192   1.153  16.327  0.0795 -0.1090  0.6788
 8937SOL    HW238448   2.175   1.108  16.470  1.1483  1.0018 -0.0191
 8938SOL     OW38449   1.326   1.231   3.395  0.3279  1.0352  0.3401
 8938SOL    HW138450   1.375   1.213   3.476  1.2884 -0.9510 -0.6726
 8938SOL    HW238451   1.266   1.300   3.424 -0.2336  0.7508 -0.1580
 8939SOL     OW38452   2.998   2.831   8.610  0.1294 -0.0581 -0.6243
 8939SOL    HW138453   3.036   2.918   8.617 -3.0371  1.2095  0.7522
 8939SOL    HW238454   3.034   2.782   8.684 -0.4034  1.5447  0.6811
 8940SOL     OW38455   3.996   1.206  13.001 -0.4919 -0.1833 -0.3092
 8940SOL    HW138456   3.908   1.211  12.963 -0.0220 -1.1149 -1.5002
 8940SOL    HW238457   4.007   1.294  13.038  1.6438 -0.8042  0.4912
 8941SOL     OW38458   1.030   2.713   2.369 -0.4003  0.1022 -0.3050
 8941SOL    HW138459   0.994   2.669   2.292  1.2809 -0.6923 -0.6505
 8941SOL    HW238460   1.124   2.693   2.363 -0.2489 -0.4585  3.8287
 8942SOL     OW38461   0.044   2.791  10.039 -0.2226 -0.8468  0.1264
 8942SOL    HW138462   4.692   2.762  10.011 -0.0538 -1.8887  0.6519
 8942SOL    HW238463   0.101   2.747   9.975  0.5993 -0.9416  0.9346
 8943SOL     OW38464   3.030   3.400   2.079 -0.5551 -0.6227 -0.2943
 8943SOL    HW138465   3.005   3.396   2.171  0.2524 -1.4982 -0.1092
 8943SOL    HW238466   3.097   3.331   2.072  0.7485  0.4158  2.1503
 8944SOL     OW38467   3.297   3.087  17.468  0.0859 -0.3783 -0.2660
 8944SOL    HW138468   3.291   3.146  17.542  0.1973  1.2352 -1.5366
 8944SOL    HW238469   3.358   3.122  17.402 -1.2134  1.5561 -0.4097
 8945SOL     OW38470   1.974   3.698  17.098 -0.2744  0.3362  0.1297
 8945SOL    HW138471   1.915   3.728  17.167  0.7105  1.2359  0.5965
 8945SOL    HW238472   2.044   3.660  17.151  0.9542  0.1498 -1.6247
 8946SOL     OW38473   3.113   2.962   9.377 -0.2076 -0.4039  0.4556
 8946SOL    HW138474   3.132   3.046   9.419 -0.0542 -0.9449  1.4732
 8946SOL    HW238475   3.164   2.899   9.429  0.8530  1.5139  1.7414
 8947SOL     OW38476   4.675   0.883   5.743 -0.2745 -0.0503 -0.6339
 8947SOL    HW138477   4.689   0.800   5.699  3.1567  0.7027 -0.9320
 8947SOL    HW238478   0.030   0.903   5.767 -0.3729  0.3159 -0.5565
 8948SOL     OW38479   1.629   4.315   1.467 -0.4720  0.1745  0.3112
 8948SOL    HW138480   1.613   4.254   1.539 -0.5904  0.5451  0.6021
 8948SOL    HW238481   1.616   4.400   1.509  2.1284  1.0387 -0.6166
 8949SOL     OW38482   2.527   4.418   7.142 -0.2202  0.3932 -0.0112
 8949SOL    HW138483   2.585   4.494   7.152  0.3554  0.0228 -0.6032
 8949SOL    HW238484   2.464   4.453   7.079  0.6673  1.9550 -0.0168
 8950SOL     OW38485   0.996   2.754  16.479 -0.7817  0.1815  0.3090
 8950SOL    HW138486   1.088   2.780  16.467 -1.0921  1.1842  0.0838
 8950SOL    HW238487   1.000   2.671  16.527  0.3175  1.5780  2.6501
 8951SOL     OW38488   3.902   3.030   4.566  0.2216  0.4864  0.1629
 8951SOL    HW138489   3.871   3.070   4.484 -0.2585 -0.7012 -0.2384
 8951SOL    HW238490   3.828   2.972   4.583  0.7292 -0.1979  0.0762
 8952SOL     OW38491   1.706   2.291   2.771 -0.1155  0.3953  0.3893
 8952SOL    HW138492   1.750   2.261   2.851 -1.2926  1.6844  1.5081
 8952SOL    HW238493   1.628   2.331   2.809  2.1523  5.5559 -0.4428
 8953SOL     OW38494   4.114   4.718   1.071 -0.2536  0.4375 -0.1022
 8953SOL    HW138495   4.139   4.695   0.982 -0.7055  1.3038 -0.4481
 8953SOL    HW238496   4.059   0.062   1.071 -0.4638  0.2787 -1.1298
 8954SOL     OW38497   1.007   2.026   3.977 -0.5413  0.2347  0.1102
 8954SOL    HW138498   1.026   1.995   3.889  0.1657  1.0251 -0.0159
 8954SOL    HW238499   0.946   1.957   4.004  0.2205 -0.2094  0.7463
 8955SOL     OW38500   0.277   0.858  17.729 -0.5760 -0.1456  0.2414
 8955SOL    HW138501   0.281   0.860  17.634  4.6055  3.0919  0.5444
 8955SOL    HW238502   0.288   0.764   0.006 -1.8419 -0.4779 -0.9562
 8956SOL     OW38503   3.704   0.310   6.757  0.4729 -0.0083  0.4684
 8956SOL    HW138504   3.742   0.398   6.752  0.9960 -0.1993  0.9838
 8956SOL    HW238505   3.782   0.254   6.751 -0.5138 -1.4979  1.7484
 8957SOL     OW38506   2.048   0.456   6.874  0.3805 -0.2163  0.7578
 8957SOL    HW138507   2.065   0.465   6.968 -0.8781  2.1399  0.7475
 8957SOL    HW238508   2.135   0.487   6.848 -0.3404  1.0707 -0.1214
 8958SOL     OW38509   0.981   0.853   5.642  0.1289  0.5857 -0.2242
 8958SOL    HW138510   0.942   0.913   5.706 -2.3366 -0.7359 -0.4808
 8958SOL    HW238511   0.942   0.773   5.678 -1.7841  0.4415 -2.6444
 8959SOL     OW38512   3.284   1.894  14.665 -0.5867 -0.0256 -0.2467
 8959SOL    HW138513   3.303   1.987  14.673 -0.5570  0.1749 -2.7185
 8959SOL    HW238514   3.304   1.858  14.751  2.7288  1.7924 -0.2657
 8960SOL     OW38515   3.800   3.546   8.071 -0.6689 -0.4123  0.1413
 8960SOL    HW138516   3.834   3.532   7.983 -0.0732 -0.0749  0.3140
 8960SOL    HW238517   3.864   3.610   8.102 -1.2263 -0.1648  0.7874
 8961SOL     OW38518   1.498   3.892   1.876 -0.2769 -0.2865  0.1923
 8961SOL    HW138519   1.447   3.939   1.942  1.7478  1.3942  0.5653
 8961SOL    HW238520   1.431   3.872   1.810 -1.2158 -1.8172  1.6285
 8962SOL     OW38521   1.266   2.675   3.303  0.1322  0.2592 -0.4185
 8962SOL    HW138522   1.293   2.677   3.395 -1.1351 -0.5404 -0.0236
 8962SOL    HW238523   1.190   2.733   3.295  0.5366  0.6445 -1.4975
 8963SOL     OW38524   2.620   0.528   6.872 -0.1987 -0.3937  0.1635
 8963SOL    HW138525   2.619   0.541   6.967 -0.3404 -1.8886  0.3655
 8963SOL    HW238526   2.654   0.439   6.869 -0.0557 -0.3309 -0.1322
 8964SOL     OW38527   3.907   3.504   2.819  0.1793 -0.3809  0.0325
 8964SOL    HW138528   3.993   3.529   2.787  0.1155  1.2855  1.2138
 8964SOL    HW238529   3.887   3.435   2.755 -1.2051 -0.6142  0.7064
 8965SOL     OW38530   4.173   1.662   6.806  0.6047 -0.1520  0.3284
 8965SOL    HW138531   4.178   1.756   6.820  1.5920 -0.1033 -0.3896
 8965SOL    HW238532   4.160   1.637   6.898 -2.0816  1.3346  0.3508
 8966SOL     OW38533   1.181   1.358  11.448 -0.1223  0.9782  0.2971
 8966SOL    HW138534   1.271   1.368  11.478  0.5884  0.0719 -1.5306
 8966SOL    HW238535   1.151   1.297  11.515 -0.9715 -2.0555 -2.8513
 8967SOL     OW38536   4.626   3.231   2.704 -0.1345  0.1530 -0.2986
 8967SOL    HW138537   4.611   3.267   2.791  0.2084 -0.1276 -0.1226
 8967SOL    HW238538   4.533   3.236   2.683 -0.1853  0.4322 -0.0060
 8968SOL     OW38539   2.366   0.059   6.356 -0.2176  0.0171 -0.5430
 8968SOL    HW138540   2.362   4.699   6.342 -0.8209  0.3141 -2.4030
 8968SOL    HW238541   2.348   0.070   6.449  0.7612 -1.9354 -0.1248
 8969SOL     OW38542   4.621   1.674   9.060 -0.4249 -0.0989  0.1286
 8969SOL    HW138543   4.570   1.728   8.999 -2.0709 -2.6241 -0.7207
 8969SOL    HW238544   4.649   1.594   9.015  0.1368  0.5761 -0.7180
 8970SOL     OW38545   0.353   4.553   2.840  0.2802  0.6172 -0.0090
 8970SOL    HW138546   0.273   4.571   2.889 -0.5029 -0.2757 -0.9648
 8970SOL    HW238547   0.418   4.599   2.893  0.1825 -1.0019  1.5128
 8971SOL     OW38548   4.091   1.594   6.528  0.5827  0.7483 -0.3061
 8971SOL    HW138549   4.149   1.583   6.603 -1.1965  0.4812  1.0399
 8971SOL    HW238550   4.133   1.565   6.447 -2.2846 -3.3127 -0.3602
 8972SOL     OW38551   4.155   4.238   4.857 -0.1932  0.4957 -0.6536
 8972SOL    HW138552   4.104   4.184   4.796  0.1051  1.1834 -1.5241
 8972SOL    HW238553   4.244   4.207   4.840 -0.2801  0.0364 -0.2576
 8973SOL     OW38554   3.871   4.559   7.702 -0.0332 -0.0104 -0.1663
 8973SOL    HW138555   3.946   4.530   7.650 -0.8255 -2.9711  0.3586
 8973SOL    HW238556   3.846   4.639   7.655  0.9617  0.1453 -0.4200
 8974SOL     OW38557   1.442   2.396   7.080 -0.0637 -0.5390  0.4488
 8974SOL    HW138558   1.456   2.472   7.024  0.2337 -1.7968 -1.1707
 8974SOL    HW238559   1.529   2.357   7.083 -0.2648 -0.8248  3.1196
 8975SOL     OW38560   2.002   4.706   8.559 -0.6743  0.1929 -0.1390
 8975SOL    HW138561   2.071   4.679   8.499 -1.2757 -1.6031 -0.0281
 8975SOL    HW238562   1.996   0.064   8.536 -0.7207 -0.2512 -1.8793
 8976SOL     OW38563   3.751   3.205   5.460 -0.4430 -0.0749 -0.6062
 8976SOL    HW138564   3.843   3.214   5.481 -1.2956 -0.1487  3.1118
 8976SOL    HW238565   3.713   3.212   5.548  0.4329  1.3824 -0.3600
 8977SOL     OW38566   0.905   2.490  11.286 -0.6499  0.1028  0.7252
 8977SOL    HW138567   0.915   2.417  11.224  0.3146 -0.5179  1.6197
 8977SOL    HW238568   0.989   2.535  11.273 -0.6746  0.3868  1.5602
 8978SOL     OW38569   2.221   3.538   6.845  0.4520  0.0158 -0.0601
 8978SOL    HW138570   2.218   3.536   6.941  0.4701 -0.5012 -0.0708
 8978SOL    HW238571   2.317   3.532   6.840  0.4896  1.0451 -0.7165
 8979SOL     OW38572   1.909   2.220  12.997  0.0422  0.5354  0.2574
 8979SOL    HW138573   1.935   2.162  13.068  1.3573 -0.4579 -1.0450
 8979SOL    HW238574   1.992   2.252  12.960 -0.1281  1.6241  0.8115
 8980SOL     OW38575   1.596   1.643   2.983 -0.2860  0.7366 -0.1573
 8980SOL    HW138576   1.570   1.603   3.066  0.1126 -0.1225 -0.4445
 8980SOL    HW238577   1.683   1.603   2.978 -1.0981 -0.7606 -2.0974
 8981SOL     OW38578   0.357   1.495   5.792 -0.1347 -0.0750  0.1859
 8981SOL    HW138579   0.291   1.507   5.860 -0.2658 -1.7074  0.3594
 8981SOL    HW238580   0.391   1.406   5.805  1.6513  0.1549 -3.0613
 8982SOL     OW38581   3.360   0.046   6.244  0.2760 -0.0760 -0.0361
 8982SOL    HW138582   3.376   0.009   6.158 -1.3210  1.1226 -0.8653
 8982SOL    HW238583   3.440   0.097   6.257 -0.5836  1.5992 -1.1774
 8983SOL     OW38584   3.793   4.189   8.510  0.0529  0.3403  0.1838
 8983SOL    HW138585   3.828   4.176   8.598  0.4619 -2.3693 -0.3755
 8983SOL    HW238586   3.751   4.105   8.487  1.9136 -0.5143 -0.0457
 8984SOL     OW38587   1.994   2.677   6.171  0.0855 -0.2291 -0.2707
 8984SOL    HW138588   1.910   2.672   6.217 -0.5533 -0.2642 -1.4273
 8984SOL    HW238589   2.027   2.593   6.203  0.6235 -0.2433 -0.8649
 8985SOL     OW38590   0.696   0.078   3.761 -0.5351 -0.0476  0.2582
 8985SOL    HW138591   0.692   0.015   3.832  3.2298 -2.0770 -1.3206
 8985SOL    HW238592   0.750   0.030   3.698 -1.4759  0.2863 -0.8251
 8986SOL     OW38593   0.707   1.891   4.116  0.4852  0.0849 -0.5415
 8986SOL    HW138594   0.691   1.848   4.032  1.6941  1.4525 -1.4511
 8986SOL    HW238595   0.667   1.977   4.110 -1.6766 -0.9239 -0.6830
 8987SOL     OW38596   3.288   0.814  11.033 -0.2504 -0.1143  0.3292
 8987SOL    HW138597   3.323   0.746  11.090 -3.3631  0.2664  2.6796
 8987SOL    HW238598   3.195   0.806  11.054 -0.8549  0.8831 -1.9488
 8988SOL     OW38599   4.279   4.133   5.761 -0.8880 -0.4853  0.2141
 8988SOL    HW138600   4.277   4.039   5.741 -2.2053 -0.8332  1.9588
 8988SOL    HW238601   4.360   4.165   5.723 -2.1590  2.8068  0.2995
 8989SOL     OW38602   3.283   0.259  17.502  0.4632  0.5344 -0.1175
 8989SOL    HW138603   3.315   0.335  17.455  0.0127  1.4532  1.0658
 8989SOL    HW238604   3.267   0.188  17.439 -1.6295 -0.5537  1.6022
 8990SOL     OW38605   3.455   4.706   7.928 -0.7753 -0.1085 -0.1617
 8990SOL    HW138606   3.536   4.693   7.977 -0.6991 -1.2384 -0.5855
 8990SOL    HW238607   3.455   0.065   7.907  1.2292  0.1195  0.8709
 8991SOL     OW38608   0.211   3.794   1.524  0.3517 -0.1570 -0.1221
 8991SOL    HW138609   0.132   3.745   1.504  0.6789  0.2421 -2.3668
 8991SOL    HW238610   0.263   3.805   1.444 -1.0617  1.1487 -0.8505
 8992SOL     OW38611   3.271   2.306   6.996 -0.5425 -0.9355  0.2447
 8992SOL    HW138612   3.193   2.275   7.042 -0.4060 -1.2355  0.2772
 8992SOL    HW238613   3.318   2.341   7.071 -0.9509  0.4099 -0.1305
 8993SOL     OW38614   2.579   1.800   7.072  0.2427  0.0094 -0.4424
 8993SOL    HW138615   2.634   1.786   7.149 -0.3063 -1.0385 -0.2395
 8993SOL    HW238616   2.490   1.793   7.104 -0.1428  1.6695 -1.1303
 8994SOL     OW38617   3.210   2.767  15.110  0.3577  0.3825  0.1205
 8994SOL    HW138618   3.125   2.803  15.137 -0.8742 -2.2214 -0.2639
 8994SOL    HW238619   3.196   2.676  15.083  0.8116  0.6879 -1.1095
 8995SOL     OW38620   4.653   1.925   2.316  1.0667 -0.5886  0.1600
 8995SOL    HW138621   4.651   1.829   2.316  0.5397 -0.5741  0.8848
 8995SOL    HW238622   4.601   1.945   2.238  0.0873 -1.8893  0.4745
 8996SOL     OW38623   4.226   4.276  11.038  0.2735 -0.1465 -0.3017
 8996SOL    HW138624   4.288   4.331  10.991  0.3948  0.4005  0.5022
 8996SOL    HW238625   4.237   4.307  11.128  1.1448  0.5640 -0.6528
 8997SOL     OW38626   1.961   1.779  16.911  0.2460 -0.4331  0.1875
 8997SOL    HW138627   1.981   1.847  16.846 -2.9077 -0.3888 -0.7675
 8997SOL    HW238628   2.039   1.726  16.923  0.2907 -0.3719  0.1689
 8998SOL     OW38629   3.410   3.886   7.739  0.8782  0.1726  0.9343
 8998SOL    HW138630   3.392   3.864   7.647  0.2605 -0.8107  1.2946
 8998SOL    HW238631   3.443   3.973   7.714 -1.1227  1.3757  2.5649
 8999SOL     OW38632   1.893   0.466   7.763 -0.4948 -0.3331  0.2018
 8999SOL    HW138633   1.933   0.481   7.677  1.2848  0.7761  1.2394
 8999SOL    HW238634   1.863   0.376   7.757  1.4615 -0.8117 -2.5800
 9000SOL     OW38635   0.528   0.274   7.370  0.5823  0.2484  0.1255
 9000SOL    HW138636   0.542   0.235   7.456 -0.5007  0.4517  0.3952
 9000SOL    HW238637   0.441   0.313   7.382  0.8073  1.2777 -1.7245
 9001SOL     OW38638   1.460   3.462   4.285 -0.4532  0.4897  0.5220
 9001SOL    HW138639   1.531   3.449   4.347  1.0228  2.7556 -0.7211
 9001SOL    HW238640   1.398   3.503   4.345 -1.9410 -1.2018  0.1580
 9002SOL     OW38641   4.401   1.164   0.977 -0.1887 -0.4869  0.2341
 9002SOL    HW138642   4.450   1.115   1.042  1.7330 -0.8125 -1.4536
 9002SOL    HW238643   4.331   1.215   1.017 -2.2902 -0.5029 -3.3659
 9003SOL     OW38644   1.665   0.171   4.028 -0.0239  0.4418  0.1761
 9003SOL    HW138645   1.746   0.211   3.996  1.3883 -2.4868  0.1128
 9003SOL    HW238646   1.633   0.120   3.954 -0.7372 -0.5727  1.1856
 9004SOL     OW38647   2.838   4.638   2.218 -0.3464  0.2074  0.0759
 9004SOL    HW138648   2.888   4.600   2.291 -0.5459  2.0952  1.1932
 9004SOL    HW238649   2.892   4.712   2.189 -0.3832 -0.4380 -1.6053
 9005SOL     OW38650   1.007   1.869   2.498  0.0803  0.2371  0.1537
 9005SOL    HW138651   1.033   1.875   2.406  1.1519 -2.2706  0.3080
 9005SOL    HW238652   1.057   1.936   2.545  0.0634  0.4001 -0.0624
 9006SOL     OW38653   2.435   2.995   5.639 -0.3158  0.3118 -0.0801
 9006SOL    HW138654   2.400   2.913   5.675 -0.7683  0.2705 -0.6051
 9006SOL    HW238655   2.467   2.960   5.556 -0.5211 -1.5313  0.6253
 9007SOL     OW38656   1.112   4.714   6.635  0.6374 -0.5748 -0.1802
 9007SOL    HW138657   1.151   0.009   6.553  0.2250  1.5943  0.3883
 9007SOL    HW238658   1.183   4.656   6.662  0.6023 -0.9767 -0.9642
 9008SOL     OW38659   2.312   2.416   8.132 -0.2620 -0.2881  0.0198
 9008SOL    HW138660   2.358   2.385   8.210  0.9492  0.1278 -0.5385
 9008SOL    HW238661   2.269   2.337   8.099  0.5746 -0.0610 -1.6306
 9009SOL     OW38662   4.143   0.929   5.334  0.3164  0.1948 -0.5250
 9009SOL    HW138663   4.162   0.987   5.408  1.4282 -0.9003  0.0458
 9009SOL    HW238664   4.210   0.963   5.275 -2.5346  2.8322 -2.2643
 9010SOL     OW38665   1.448   2.113   3.958 -0.0365  0.5400  0.2174
 9010SOL    HW138666   1.399   2.129   3.877  0.1681 -0.7126 -0.1520
 9010SOL    HW238667   1.459   2.200   3.995 -1.8036  0.3950  1.0971
 9011SOL     OW38668   1.669   3.514  10.140 -0.1275  0.2020  0.1080
 9011SOL    HW138669   1.639   3.551  10.056 -0.3983 -0.1974  0.0275
 9011SOL    HW238670   1.727   3.441  10.116  3.0229  2.8484 -0.2896
 9012SOL     OW38671   0.484   3.703   8.041 -0.2270 -0.0004  0.4083
 9012SOL    HW138672   0.463   3.758   8.116 -1.0015  0.4422 -0.1391
 9012SOL    HW238673   0.481   3.773   7.976  0.4205 -1.5472 -1.2856
 9013SOL     OW38674   1.487   4.005   6.552  0.4912 -0.0610 -0.5101
 9013SOL    HW138675   1.529   4.010   6.638 -1.2338 -0.3780  0.3730
 9013SOL    HW238676   1.474   3.910   6.547 -0.5557  0.1689 -2.2548
 9014SOL     OW38677   0.391   0.743   2.848 -0.1668 -0.3750 -0.6302
 9014SOL    HW138678   0.400   0.735   2.943 -1.8821  0.8547 -0.3640
 9014SOL    HW238679   0.438   0.665   2.818  1.2971  0.3877 -0.3140
 9015SOL     OW38680   3.711   3.931   3.513 -0.2550 -0.7241 -0.3469
 9015SOL    HW138681   3.670   3.851   3.546 -0.2210 -1.7182 -2.7733
 9015SOL    HW238682   3.797   3.910   3.475  0.8862 -0.8870  2.2946
 9016SOL     OW38683   1.961   1.186   1.920 -0.0902  0.2912  0.0800
 9016SOL    HW138684   1.894   1.254   1.917  1.3984  1.6835 -1.8076
 9016SOL    HW238685   1.973   1.160   1.829  0.1105  0.6829 -0.0076
 9017SOL     OW38686   4.340   0.060   5.271  0.2580 -0.1922 -0.1797
 9017SOL    HW138687   4.284   0.130   5.305  0.6826  1.1274 -2.1705
 9017SOL    HW238688   4.366   0.010   5.348  1.0106  0.2932 -0.1208
 9018SOL     OW38689   4.482   2.448   0.710 -0.0414  0.0348  0.2689
 9018SOL    HW138690   4.520   2.529   0.743 -0.0814  1.1932 -2.5659
 9018SOL    HW238691   4.503   2.395   0.787  0.3792  0.3808  0.3912
 9019SOL     OW38692   3.418   1.706   6.384 -0.0184 -0.0532 -0.5780
 9019SOL    HW138693   3.361   1.737   6.454  0.3536  0.6357 -0.5842
 9019SOL    HW238694   3.386   1.751   6.305  0.0076  1.4439  0.2681
 9020SOL     OW38695   1.822   0.377   4.374  0.2903  0.4094 -0.4358
 9020SOL    HW138696   1.892   0.421   4.326  1.8792 -2.5479 -0.8117
 9020SOL    HW238697   1.750   0.431   4.341 -0.7990 -1.1649 -0.6567
 9021SOL     OW38698   3.775   1.303   5.009 -0.4508  0.0312  0.3343
 9021SOL    HW138699   3.813   1.335   4.928  1.2582 -1.6720  0.4711
 9021SOL    HW238700   3.683   1.283   4.991 -0.2150  0.1543 -0.9972
 9022SOL     OW38701   0.366   3.264   5.290  0.8632  0.0630  0.1962
 9022SOL    HW138702   0.406   3.179   5.272 -1.3636 -0.8127 -0.6045
 9022SOL    HW238703   0.321   3.231   5.368  0.8487  3.5311  1.6418
 9023SOL     OW38704   2.978   3.096  13.521  0.0048 -0.3904 -0.1484
 9023SOL    HW138705   3.072   3.083  13.514  0.3657  1.9062  0.2446
 9023SOL    HW238706   2.965   3.180  13.477  1.7426  0.7647  1.5427
 9024SOL     OW38707   2.988   1.783   5.103 -0.4298 -0.1852  0.1760
 9024SOL    HW138708   3.047   1.731   5.048 -1.5965 -0.9793 -0.3055
 9024SOL    HW238709   2.959   1.852   5.044 -2.8983 -1.0183  0.4357
 9025SOL     OW38710   1.093   3.803   4.152  0.0850 -0.2944 -0.3045
 9025SOL    HW138711   1.051   3.739   4.095  1.0854 -1.8697  0.7498
 9025SOL    HW238712   1.073   3.747   4.227  1.0298  0.9134  0.8568
 9026SOL     OW38713   1.908   2.055  14.986  0.1576  0.3601 -0.6525
 9026SOL    HW138714   1.958   2.103  14.920 -0.3601 -2.0368 -2.7432
 9026SOL    HW238715   1.908   1.965  14.955 -2.2786  0.7249 -1.7147
 9027SOL     OW38716   2.575   3.171   6.679  0.1029  0.6216  0.6144
 9027SOL    HW138717   2.596   3.081   6.705 -0.0975 -0.0064 -1.4069
 9027SOL    HW238718   2.480   3.175   6.689 -0.2597  0.5997 -3.1285
 9028SOL     OW38719   3.035   2.471   5.324  0.4041 -0.2286 -0.2589
 9028SOL    HW138720   3.030   2.411   5.398 -0.5882 -0.7099 -0.7105
 9028SOL    HW238721   3.028   2.550   5.377  0.4736  1.4859 -2.8094
 9029SOL     OW38722   1.685   1.816   3.228 -0.4454  0.3089  0.6201
 9029SOL    HW138723   1.689   1.729   3.190  0.3648  0.4976  0.2770
 9029SOL    HW238724   1.670   1.791   3.319 -0.1403  0.7286  0.7841
 9030SOL     OW38725   4.291   1.104   5.820  0.1175  0.2183 -0.2457
 9030SOL    HW138726   4.317   1.032   5.877 -0.6696 -1.4482 -1.9848
 9030SOL    HW238727   4.322   1.073   5.735  0.8227 -0.6479  0.3327
 9031SOL     OW38728   1.316   2.886   4.536  0.2942 -0.0250  0.0095
 9031SOL    HW138729   1.284   2.929   4.457 -0.7255 -0.0048  0.4302
 9031SOL    HW238730   1.269   2.803   4.532 -0.4885  0.4035  0.2912
 9032SOL     OW38731   1.785   2.903   1.748  0.4560  0.0036  0.1586
 9032SOL    HW138732   1.872   2.868   1.727  0.7903  0.6331  0.4748
 9032SOL    HW238733   1.767   2.869   1.836  0.6951  0.5030  0.4018
 9033SOL     OW38734   4.614   2.236   9.180 -0.7911 -0.8320 -0.4525
 9033SOL    HW138735   4.627   2.187   9.261  0.8323  0.2748 -0.0398
 9033SOL    HW238736   4.696   2.213   9.137  0.2554 -2.7716  2.5648
 9034SOL     OW38737   3.989   1.965  13.048 -0.0105 -0.2603 -0.0211
 9034SOL    HW138738   4.046   1.887  13.050 -1.2813 -1.1726  0.4445
 9034SOL    HW238739   3.905   1.925  13.028 -1.2367  0.7961  3.0447
 9035SOL     OW38740   2.402   0.886   7.021  0.0815 -0.1139 -0.4583
 9035SOL    HW138741   2.323   0.847   6.986  0.8911 -0.6112 -1.7591
 9035SOL    HW238742   2.426   0.827   7.092 -0.0745  0.3370 -0.0306
 9036SOL     OW38743   2.416   2.990   3.475 -0.0155  0.3492 -0.1604
 9036SOL    HW138744   2.497   3.022   3.515  0.7813  0.7940 -2.1322
 9036SOL    HW238745   2.401   3.064   3.415  1.5012  0.9339  0.1704
 9037SOL     OW38746   0.349   1.577  13.940 -0.1948  0.3155  0.0229
 9037SOL    HW138747   0.336   1.597  14.033  0.1951  0.7891 -0.0279
 9037SOL    HW238748   0.277   1.513  13.937  0.1750 -0.1922  1.6937
 9038SOL     OW38749   0.598   3.832   2.938 -0.0593  0.2726 -0.0900
 9038SOL    HW138750   0.638   3.887   2.871 -0.9339  1.4528  0.3704
 9038SOL    HW238751   0.648   3.750   2.935 -0.0150  0.2326  1.7366
 9039SOL     OW38752   1.766   0.933  16.316  0.3686 -0.0826 -0.4797
 9039SOL    HW138753   1.736   0.842  16.320 -0.9993  0.3276 -1.7791
 9039SOL    HW238754   1.861   0.932  16.327  0.4291 -2.3589 -1.2226
 9040SOL     OW38755   1.709   4.470   1.918  0.0624 -0.6230 -0.1782
 9040SOL    HW138756   1.770   4.488   1.846 -0.9755 -1.3088 -1.2290
 9040SOL    HW238757   1.635   4.530   1.918  1.6750  1.3741  0.0896
 9041SOL     OW38758   0.945   4.215  10.416 -0.6645 -0.0803 -0.0620
 9041SOL    HW138759   0.887   4.227  10.341 -0.1361  2.3730 -0.0662
 9041SOL    HW238760   0.976   4.125  10.401  1.3045  0.4133  1.0948
 9042SOL     OW38761   4.073   3.948  12.560 -0.0039  0.5747 -0.0051
 9042SOL    HW138762   3.988   3.904  12.560 -0.1317  0.7935  2.9732
 9042SOL    HW238763   4.057   4.011  12.631  0.1042 -0.1430  0.6499
 9043SOL     OW38764   2.014   2.178   3.308 -0.2894  0.0140  0.0212
 9043SOL    HW138765   2.073   2.233   3.257 -0.8166  0.0750 -0.5264
 9043SOL    HW238766   2.060   2.095   3.295 -0.6778 -0.0823 -0.7454
 9044SOL     OW38767   3.532   3.124   4.733  0.2386 -0.0889 -0.1780
 9044SOL    HW138768   3.530   3.155   4.823 -0.4602  0.7164 -0.4676
 9044SOL    HW238769   3.463   3.058   4.735  0.4319 -0.4119 -3.7822
 9045SOL     OW38770   3.525   3.610   1.622  0.0863 -0.3644 -0.3216
 9045SOL    HW138771   3.453   3.610   1.686  1.3696 -0.3468  1.1287
 9045SOL    HW238772   3.600   3.600   1.680  0.8259  2.1920 -0.8335
 9046SOL     OW38773   1.828   2.449  14.627 -0.2605 -0.4311  0.1125
 9046SOL    HW138774   1.887   2.477  14.557 -1.0920  0.1546 -0.3581
 9046SOL    HW238775   1.750   2.500  14.603 -1.6913 -2.8581 -0.3518
 9047SOL     OW38776   0.776   2.796   3.681  0.3681 -0.1782  0.0855
 9047SOL    HW138777   0.868   2.806   3.658 -0.1678  0.9036 -1.5948
 9047SOL    HW238778   0.742   2.885   3.685 -0.2597 -0.5724  3.8649
 9048SOL     OW38779   2.512   4.607   5.690  0.1862  0.0586  0.1298
 9048SOL    HW138780   2.565   4.628   5.613  0.0426 -0.5322 -0.1286
 9048SOL    HW238781   2.474   4.695   5.700 -0.0668  0.0347 -0.6188
 9049SOL     OW38782   1.745   2.447   6.693  0.3493 -0.1016 -0.2127
 9049SOL    HW138783   1.735   2.352   6.698  0.7523 -0.0020  2.3338
 9049SOL    HW238784   1.656   2.483   6.685 -0.2705 -1.5355  0.3329
 9050SOL     OW38785   0.287   3.153   0.871 -0.1138  0.2638 -0.3669
 9050SOL    HW138786   0.313   3.068   0.836 -1.6754  0.0918 -1.1503
 9050SOL    HW238787   0.218   3.171   0.806 -0.7369 -1.3670 -0.1575
 9051SOL     OW38788   3.413   3.408  17.297  0.4473  0.1837 -0.6041
 9051SOL    HW138789   3.318   3.419  17.296  0.6482  1.9612 -0.0983
 9051SOL    HW238790   3.413   3.316  17.271  0.5212 -0.1955  0.7360
 9052SOL     OW38791   0.314   1.742   5.669  0.0015 -0.3754  0.0310
 9052SOL    HW138792   0.252   1.703   5.608  1.5095 -1.1617 -0.9906
 9052SOL    HW238793   0.342   1.660   5.709 -3.1717 -0.8850  1.1660
 9053SOL     OW38794   2.993   0.102   8.578 -0.2162  0.2686 -0.2795
 9053SOL    HW138795   3.042   0.164   8.633  0.1646 -1.5732  1.4816
 9053SOL    HW238796   3.065   0.064   8.527  0.5549  0.7747  0.4338
 9054SOL     OW38797   3.091   2.444   2.786 -0.0406 -0.0657 -0.3025
 9054SOL    HW138798   3.035   2.372   2.757  0.3277  0.4588 -2.3652
 9054SOL    HW238799   3.146   2.395   2.848  0.3430 -1.1361 -1.4784
 9055SOL     OW38800   0.957   0.884   4.801  0.0546 -0.1519 -0.0286
 9055SOL    HW138801   1.019   0.904   4.731  0.8849  1.3330  1.1024
 9055SOL    HW238802   0.997   0.932   4.874  1.1629  0.0589 -0.7765
 9056SOL     OW38803   2.215   3.797  13.197  0.0875 -0.4982 -0.1022
 9056SOL    HW138804   2.184   3.881  13.161 -0.5075 -1.4924 -1.9293
 9056SOL    HW238805   2.177   3.729  13.142 -0.3763  0.7549 -1.3369
 9057SOL     OW38806   1.659   0.800   5.045  0.3551  0.0064 -0.6671
 9057SOL    HW138807   1.736   0.769   4.998  0.5585 -0.0649 -0.2796
 9057SOL    HW238808   1.660   0.895   5.040  1.5130 -0.0048 -0.5697
 9058SOL     OW38809   1.953   0.556  14.884 -0.1635  0.5837 -0.0013
 9058SOL    HW138810   1.953   0.584  14.976 -1.9550 -0.4744  0.3329
 9058SOL    HW238811   1.861   0.561  14.859 -0.2668 -0.5260  0.1194
 9059SOL     OW38812   2.284   1.762  14.233 -0.4808  0.4958  0.5356
 9059SOL    HW138813   2.221   1.818  14.187 -2.3978 -0.9297  1.4678
 9059SOL    HW238814   2.364   1.798  14.194 -0.0635 -0.4250  0.5368
 9060SOL     OW38815   3.614   2.577   3.588 -0.2698  0.5491  0.1009
 9060SOL    HW138816   3.600   2.486   3.613  1.7182  0.4186  0.8117
 9060SOL    HW238817   3.671   2.577   3.511  1.7022  1.0186  1.5442
 9061SOL     OW38818   3.038   1.599   6.485 -0.3482 -0.1466 -0.3626
 9061SOL    HW138819   3.043   1.504   6.477  1.4927  0.0892 -2.0269
 9061SOL    HW238820   3.038   1.619   6.391 -1.4782  0.4503 -0.2324
 9062SOL     OW38821   3.717   4.117   3.134 -0.6049 -0.0810  0.1425
 9062SOL    HW138822   3.746   4.050   3.072 -0.7405 -0.8900  0.9392
 9062SOL    HW238823   3.640   4.080   3.179 -2.1382  1.3722 -1.2952
 9063SOL     OW38824   0.656   3.187   2.390  0.1153  0.3278  0.4171
 9063SOL    HW138825   0.736   3.227   2.424  0.2576 -0.1031  0.5831
 9063SOL    HW238826   0.695   3.143   2.314  1.3355  1.1372  0.5691
 9064SOL     OW38827   4.519   3.306   4.551  0.1290 -0.0038  0.1218
 9064SOL    HW138828   4.523   3.292   4.645 -0.0422 -0.7954  0.0130
 9064SOL    HW238829   4.446   3.369   4.542  0.6896  0.6871  0.4002
 9065SOL     OW38830   3.800   4.718   1.257  0.0487  0.9409  0.3057
 9065SOL    HW138831   3.849   0.062   1.235 -0.0264  1.0809  0.6344
 9065SOL    HW238832   3.750   4.715   1.176  0.3638  1.8640  0.0775
 9066SOL     OW38833   4.152   4.220  16.741  0.2048  0.3065  0.0423
 9066SOL    HW138834   4.096   4.226  16.819  1.6201 -1.3475  1.2053
 9066SOL    HW238835   4.091   4.172  16.685  1.0793  0.0080 -0.6493
 9067SOL     OW38836   4.694   0.468   8.297 -0.3491  0.0713  0.1622
 9067SOL    HW138837   0.004   0.451   8.214 -1.4527  0.2917 -0.4746
 9067SOL    HW238838   0.012   0.542   8.326  2.7205 -2.8008  1.8623
 9068SOL     OW38839   1.251   4.660   4.463  0.6857  0.0014  0.9246
 9068SOL    HW138840   1.267   4.728   4.397  1.4211 -0.9583  0.1284
 9068SOL    HW238841   1.339   4.624   4.472  0.4622 -0.2101  2.2540
 9069SOL     OW38842   1.044   3.970   0.924  0.4384  0.0161 -0.1360
 9069SOL    HW138843   0.951   3.973   0.901 -0.1765  1.0512  2.4351
 9069SOL    HW238844   1.082   3.927   0.848 -0.8592  0.3932 -0.9984
 9070SOL     OW38845   1.633   0.051  13.277 -0.3075  0.2787 -0.3202
 9070SOL    HW138846   1.605   0.109  13.348  1.8046 -0.0953  0.8342
 9070SOL    HW238847   1.617   0.108  13.202 -1.5786  0.8246  0.3644
 9071SOL     OW38848   1.719   3.132   6.540  0.5259 -0.1302 -0.1990
 9071SOL    HW138849   1.694   3.043   6.515  1.6779 -1.0207  1.8267
 9071SOL    HW238850   1.632   3.171   6.528  1.8111  1.8765 -3.2445
 9072SOL     OW38851   4.004   2.905   3.897  0.3268 -0.1889  0.1014
 9072SOL    HW138852   4.058   2.982   3.919 -0.4858  0.5695 -0.5757
 9072SOL    HW238853   4.066   2.858   3.841 -0.5806 -0.6524 -0.5014
 9073SOL     OW38854   3.080   1.200  12.814 -0.1083  0.0389 -0.8588
 9073SOL    HW138855   3.173   1.178  12.818 -0.0123  0.5070 -0.5132
 9073SOL    HW238856   3.083   1.273  12.752 -2.0669  3.1344  2.6514
 9074SOL     OW38857   2.378   2.505   7.705 -0.5772  0.1698 -0.4969
 9074SOL    HW138858   2.427   2.528   7.626  1.0470  0.7440  0.6837
 9074SOL    HW238859   2.367   2.590   7.748 -1.0912 -0.2804  0.2675
 9075SOL     OW38860   3.190   0.513  17.204 -0.2461 -0.5403 -0.1835
 9075SOL    HW138861   3.272   0.538  17.246 -0.1784  2.8169 -2.3206
 9075SOL    HW238862   3.188   0.583  17.139 -0.3517  0.9492  1.4305
 9076SOL     OW38863   0.357   1.152   1.575 -0.2187 -0.1498 -0.5690
 9076SOL    HW138864   0.431   1.182   1.522 -2.1805  0.6321 -2.8794
 9076SOL    HW238865   0.288   1.213   1.551 -0.8641 -0.0105  1.6332
 9077SOL     OW38866   3.503   2.938  11.133  0.0581 -0.3582  0.7634
 9077SOL    HW138867   3.516   3.033  11.138  0.2936 -0.3695  0.3840
 9077SOL    HW238868   3.414   2.905  11.129  0.8786 -2.0319 -3.8552
 9078SOL     OW38869   1.996   4.057   8.825  0.5205 -0.3950  0.1063
 9078SOL    HW138870   1.976   4.084   8.735 -0.8362  0.8463  0.7942
 9078SOL    HW238871   1.922   4.102   8.865 -1.3109  0.5740 -4.3991
 9079SOL     OW38872   0.906   1.242   2.619 -0.1312  0.2669 -0.3745
 9079SOL    HW138873   0.868   1.189   2.549  0.3345 -1.7098  0.8647
 9079SOL    HW238874   0.913   1.322   2.567 -0.6455 -0.3887 -1.4386
 9080SOL     OW38875   2.699   0.908   5.296 -0.3928  0.7909  0.0657
 9080SOL    HW138876   2.629   0.899   5.361  1.5278  1.5198  2.2305
 9080SOL    HW238877   2.723   1.001   5.298  1.3656  0.3161  2.3338
 9081SOL     OW38878   1.874   0.360   7.350 -0.1800 -0.1102  0.2802
 9081SOL    HW138879   1.949   0.369   7.409 -1.8538 -0.3815  2.4520
 9081SOL    HW238880   1.850   0.269   7.365 -0.3988 -0.4054 -1.7807
 9082SOL     OW38881   0.198   4.138   3.327  0.3530  0.3840  0.2231
 9082SOL    HW138882   0.135   4.160   3.395 -0.4953 -0.0039 -0.4440
 9082SOL    HW238883   0.254   4.215   3.337 -0.1691  1.4278 -4.8295
 9083SOL     OW38884   0.925   3.057   3.768  0.0416 -0.3688  0.2541
 9083SOL    HW138885   0.995   3.115   3.737 -0.1963 -1.5021 -2.4098
 9083SOL    HW238886   0.856   3.078   3.705 -1.1129 -1.1323  1.2809
 9084SOL     OW38887   2.990   0.936   6.045  0.6047 -0.8526 -0.3318
 9084SOL    HW138888   2.961   0.860   6.095 -0.0990 -0.3481  0.0187
 9084SOL    HW238889   3.076   0.904   6.020  1.6415  1.3358  0.4513
 9085SOL     OW38890   3.114   0.560   3.912 -0.2395  0.6397  0.7856
 9085SOL    HW138891   3.050   0.506   3.865  0.2816  1.1509 -0.5387
 9085SOL    HW238892   3.169   0.591   3.840  0.9440  0.0563  1.4448
 9086SOL     OW38893   1.228   1.620  17.235 -0.0007 -0.1342 -0.3468
 9086SOL    HW138894   1.212   1.701  17.187  3.6460 -0.0747 -1.4122
 9086SOL    HW238895   1.230   1.647  17.327  0.4468  1.3702 -0.8079
 9087SOL     OW38896   3.976   3.266   4.126 -0.3372  0.2266  0.5362
 9087SOL    HW138897   4.037   3.202   4.088 -0.5056  1.4083 -1.7631
 9087SOL    HW238898   3.952   3.324   4.054  3.0537  1.8422  0.7006
 9088SOL     OW38899   3.076   2.017   4.649 -0.6476 -0.6185  0.1932
 9088SOL    HW138900   2.994   1.991   4.606 -0.4152  1.2104 -1.3766
 9088SOL    HW238901   3.052   1.996   4.739  0.7479 -0.1570  0.6702
 9089SOL     OW38902   4.447   3.213   3.134  0.2271  0.0691 -0.0886
 9089SOL    HW138903   4.391   3.210   3.211  0.6905 -0.4568  0.2261
 9089SOL    HW238904   4.527   3.184   3.176 -0.4300  1.0713  1.8417
 9090SOL     OW38905   2.051   1.358   9.255  0.3396 -0.0685  0.1427
 9090SOL    HW138906   1.981   1.386   9.197  0.8093  0.5940 -0.0914
 9090SOL    HW238907   2.002   1.303   9.317 -1.7316  0.4854 -0.9909
 9091SOL     OW38908   1.891   4.708   4.242  0.1410 -0.8147 -0.6777
 9091SOL    HW138909   1.926   0.001   4.157  0.1032 -0.8190 -0.6946
 9091SOL    HW238910   1.972   4.684   4.288  0.7339 -0.7737 -1.6922
 9092SOL     OW38911   4.535   0.563  16.751 -0.0043 -0.1133  0.1562
 9092SOL    HW138912   4.478   0.641  16.752  2.5025  1.7564 -2.2141
 9092SOL    HW238913   4.567   0.559  16.841 -0.2026 -1.6402  0.1564
 9093SOL     OW38914   4.065   3.318   8.731 -0.0745  0.7690  0.2924
 9093SOL    HW138915   4.119   3.336   8.655  2.1753 -3.4165  0.9118
 9093SOL    HW238916   4.136   3.312   8.795  0.9103  0.8900 -0.8061
 9094SOL     OW38917   2.693   3.967   9.091  0.0272  0.2021  0.1028
 9094SOL    HW138918   2.782   3.944   9.118  0.9115  2.8329 -0.5047
 9094SOL    HW238919   2.643   3.900   9.137  1.8073 -1.5755 -0.5372
 9095SOL     OW38920   0.958   1.723   8.726  0.3916 -0.0446  0.1778
 9095SOL    HW138921   0.929   1.674   8.803  0.9367 -0.8668 -0.1451
 9095SOL    HW238922   1.035   1.678   8.693 -1.4931 -2.7602 -0.5902
 9096SOL     OW38923   4.083   2.763  14.644  0.4284 -0.2167 -0.2665
 9096SOL    HW138924   4.032   2.684  14.665 -0.1612  0.3881  0.5803
 9096SOL    HW238925   4.166   2.725  14.616  0.1374 -1.0495  0.0008
 9097SOL     OW38926   3.995   4.674   3.865 -0.3120  0.0785 -0.1350
 9097SOL    HW138927   3.915   4.724   3.883 -1.0516 -1.0848 -0.2268
 9097SOL    HW238928   3.977   4.638   3.778  3.1057  1.2956 -1.3474
 9098SOL     OW38929   1.339   2.349   4.472 -0.7310 -0.2180  0.0711
 9098SOL    HW138930   1.249   2.353   4.441 -0.9134 -2.6370  0.3072
 9098SOL    HW238931   1.375   2.288   4.408 -0.4539 -0.3976  0.3968
 9099SOL     OW38932   2.813   4.255  12.343  0.7062  0.0786  0.0133
 9099SOL    HW138933   2.889   4.273  12.398 -1.0392  0.6498  2.2795
 9099SOL    HW238934   2.828   4.297  12.258  0.5960  1.2029  0.5442
 9100SOL     OW38935   3.199   2.764  11.446  0.3912  0.1943 -0.6762
 9100SOL    HW138936   3.125   2.822  11.428 -0.2951 -1.2191 -2.3317
 9100SOL    HW238937   3.222   2.740  11.356  2.0522  2.8081 -0.9747
 9101SOL     OW38938   0.246   3.973   3.742 -0.2192 -0.5923  0.5195
 9101SOL    HW138939   0.306   3.912   3.699 -0.2054 -0.2974  0.1262
 9101SOL    HW238940   0.173   3.913   3.756 -0.6162  0.0006  0.9678
 9102SOL     OW38941   1.382   4.045   5.662  0.2455  0.0790  0.1304
 9102SOL    HW138942   1.474   4.060   5.682  0.2802  0.5504 -0.3861
 9102SOL    HW238943   1.393   3.956   5.629 -1.8988  0.3401 -1.2451
 9103SOL     OW38944   2.189   3.355   5.010 -0.1812 -0.6256 -0.4082
 9103SOL    HW138945   2.185   3.287   4.943 -2.3526 -0.3576 -0.5622
 9103SOL    HW238946   2.273   3.348   5.055 -1.0672 -0.1337  1.3423
 9104SOL     OW38947   2.200   4.692   6.086  0.0716 -0.0813 -0.3783
 9104SOL    HW138948   2.241   4.611   6.057  0.4397 -0.1708  0.3902
 9104SOL    HW238949   2.120   4.689   6.034 -0.9195 -0.5203  1.1586
 9105SOL     OW38950   2.211   1.079   7.891 -0.1105 -0.6580 -0.6240
 9105SOL    HW138951   2.127   1.032   7.888  0.3506 -1.4305 -1.3000
 9105SOL    HW238952   2.277   1.011   7.879 -1.0860 -1.7739  0.3810
 9106SOL     OW38953   2.755   3.929   2.771  0.4046  0.0346 -0.0913
 9106SOL    HW138954   2.847   3.954   2.784  0.6940 -0.3337 -1.4272
 9106SOL    HW238955   2.734   3.939   2.864  0.8174  2.0083 -0.2070
 9107SOL     OW38956   3.135   2.809   5.426  0.4961 -0.1041 -0.2261
 9107SOL    HW138957   3.227   2.832   5.442  0.9359 -1.8152 -0.2786
 9107SOL    HW238958   3.117   2.871   5.355 -1.3437 -1.4053 -0.8657
 9108SOL     OW38959   1.009   0.906   8.689  0.4727  0.1523 -1.0035
 9108SOL    HW138960   1.045   0.984   8.733  0.0368 -1.2851  1.9220
 9108SOL    HW238961   1.026   0.934   8.600 -2.6866  1.6236 -1.1603
 9109SOL     OW38962   4.417   3.502  11.404  0.0630 -0.4915  0.0085
 9109SOL    HW138963   4.498   3.510  11.354  1.2454 -1.4238  1.7411
 9109SOL    HW238964   4.436   3.421  11.452  0.8271  0.4283  1.2411
 9110SOL     OW38965   2.541   4.230   3.719 -0.0220  0.2592  0.5519
 9110SOL    HW138966   2.594   4.157   3.750 -1.6907 -0.7780  0.9629
 9110SOL    HW238967   2.455   4.210   3.757 -0.1573  0.8163  0.5338
 9111SOL     OW38968   0.129   0.298   3.499 -0.4902 -0.0754 -0.8769
 9111SOL    HW138969   0.063   0.255   3.554 -0.5803 -0.4332 -1.2653
 9111SOL    HW238970   0.077   0.307   3.419 -0.2947 -1.4701 -1.1482
 9112SOL     OW38971   1.697   0.450  13.361  0.3194 -0.1057  0.1528
 9112SOL    HW138972   1.667   0.379  13.419  1.0027 -0.0805  0.5314
 9112SOL    HW238973   1.645   0.414  13.288  2.1841 -1.6351 -0.4067
 9113SOL     OW38974   4.411   1.053   1.464  0.4069  0.1681  0.5243
 9113SOL    HW138975   4.393   0.990   1.534  0.7887 -0.1351  0.3502
 9113SOL    HW238976   4.434   1.128   1.518  2.3048 -0.6381  0.8354
 9114SOL     OW38977   3.640   2.101   2.450  0.5463  0.0024  0.0845
 9114SOL    HW138978   3.657   2.157   2.374  0.9258  1.5585  1.3322
 9114SOL    HW238979   3.545   2.102   2.436  0.3813 -1.9867  1.1479
 9115SOL     OW38980   4.152   3.470   2.098  0.1468  0.5277 -0.3676
 9115SOL    HW138981   4.073   3.417   2.110 -0.9903  2.4581  0.7227
 9115SOL    HW238982   4.116   3.558   2.084 -1.5421 -0.2334 -0.8850
 9116SOL     OW38983   4.128   2.838  17.259  0.2967 -0.3329 -0.1278
 9116SOL    HW138984   4.078   2.813  17.337  0.9993  0.6268  0.6295
 9116SOL    HW238985   4.194   2.895  17.299 -0.1264 -0.3422  0.6020
 9117SOL     OW38986   2.728   2.692   6.878 -0.4634  0.2421  0.2941
 9117SOL    HW138987   2.640   2.713   6.849 -0.9429 -1.5422  0.4328
 9117SOL    HW238988   2.766   2.778   6.892 -0.9272  0.3651  0.7921
 9118SOL     OW38989   4.370   1.641   2.392 -0.6511  0.0986 -0.1913
 9118SOL    HW138990   4.342   1.729   2.367 -0.1943 -0.0982 -1.4235
 9118SOL    HW238991   4.293   1.596   2.427 -1.9227  2.1524 -0.3290
 9119SOL     OW38992   0.094   1.852  13.345 -0.1135 -0.3472  0.1710
 9119SOL    HW138993   0.103   1.852  13.440  1.2505 -3.2058  0.0250
 9119SOL    HW238994   0.071   1.945  13.332  0.6887 -0.0385  0.9717
 9120SOL     OW38995   3.606   1.927   4.880 -0.5064  0.1852 -0.0113
 9120SOL    HW138996   3.520   1.950   4.845  0.0913  1.1943 -0.8374
 9120SOL    HW238997   3.596   1.936   4.975 -1.7788 -1.2850 -0.0171
 9121SOL     OW38998   0.879   4.175   6.810 -0.4613  0.0247  0.4020
 9121SOL    HW138999   0.925   4.199   6.730 -2.1733 -1.2256 -0.9766
 9121SOL    HW239000   0.819   4.249   6.819 -1.5264 -0.6978 -0.7077
 9122SOL     OW39001   1.309   3.604   8.938 -0.3081  0.5670 -0.0301
 9122SOL    HW139002   1.307   3.696   8.912  1.4751  0.2731 -1.2410
 9122SOL    HW239003   1.395   3.576   8.905 -0.6237 -0.9865  0.4833
 9123SOL     OW39004   1.692   2.694   9.244  0.2107  0.3728  0.1753
 9123SOL    HW139005   1.709   2.704   9.338  2.6091 -1.7222 -0.0264
 9123SOL    HW239006   1.597   2.688   9.237  0.0548  1.0668  1.6066
 9124SOL     OW39007   2.761   2.768  12.469 -0.5939  0.0934 -0.4568
 9124SOL    HW139008   2.677   2.791  12.430 -1.0636 -1.1083 -0.1646
 9124SOL    HW239009   2.799   2.839  12.520  3.3801 -0.5754 -2.4701
 9125SOL     OW39010   1.201   1.822  10.043  0.0530  0.0988  0.3519
 9125SOL    HW139011   1.241   1.845   9.958  0.8234 -0.4842  0.5547
 9125SOL    HW239012   1.123   1.778  10.010  0.0640  1.1036 -1.0038
 9126SOL     OW39013   2.360   2.090  16.095 -0.3512  0.4203 -0.1140
 9126SOL    HW139014   2.453   2.111  16.086 -0.1721  0.4693  1.7057
 9126SOL    HW239015   2.342   2.056  16.008 -0.8737 -1.7824  0.8439
 9127SOL     OW39016   2.942   4.135   3.112 -0.0477  0.4066  0.2746
 9127SOL    HW139017   2.876   4.097   3.054 -0.1147  1.0430 -0.0604
 9127SOL    HW239018   2.947   4.221   3.072 -1.5816 -0.1264 -1.0487
 9128SOL     OW39019   2.431   2.575   9.489 -0.2849  0.0538 -0.1431
 9128SOL    HW139020   2.475   2.567   9.574  1.0189 -0.2815 -0.8403
 9128SOL    HW239021   2.447   2.490   9.449 -1.5382  0.5748 -1.7605
 9129SOL     OW39022   1.583   0.871   0.648  1.1932  0.9615  0.0814
 9129SOL    HW139023   1.597   0.902   0.738 -0.3134 -2.8641  1.6441
 9129SOL    HW239024   1.660   0.815   0.642  0.1663 -0.4531  0.1778
 9130SOL     OW39025   0.146   0.806  12.708 -0.1596  0.5451  0.2149
 9130SOL    HW139026   0.224   0.753  12.720 -1.5910 -1.8270 -0.9549
 9130SOL    HW239027   0.138   0.853  12.791 -0.6536 -1.1346  1.1169
 9131SOL     OW39028   4.040   4.042  17.048  0.3718  0.1259 -0.7475
 9131SOL    HW139029   3.991   3.989  16.984 -1.1787 -0.2427  0.7272
 9131SOL    HW239030   4.051   3.977  17.118  1.3127  1.3185  0.1939
 9132SOL     OW39031   4.382   3.268   0.769  0.1043  0.2812 -0.8999
 9132SOL    HW139032   4.328   3.215   0.709 -0.8397 -0.3157  0.4729
 9132SOL    HW239033   4.429   3.325   0.708 -1.1981 -0.1887 -2.3458
 9133SOL     OW39034   2.467   2.352   8.386  0.5477  0.7272 -0.1487
 9133SOL    HW139035   2.378   2.342   8.420  0.7786  1.2818  0.6177
 9133SOL    HW239036   2.516   2.310   8.457  0.0399  0.0994 -0.1666
 9134SOL     OW39037   4.634   4.202   6.057  0.0415 -0.2507 -0.1210
 9134SOL    HW139038   4.641   4.107   6.047 -0.0676 -0.3941  1.1312
 9134SOL    HW239039   4.545   4.218   6.090  0.7980  3.9538 -0.1085
 9135SOL     OW39040   3.146   3.190   4.338  0.1519 -0.4132  0.0109
 9135SOL    HW139041   3.156   3.241   4.257 -0.7549  0.2747  0.3316
 9135SOL    HW239042   3.215   3.240   4.382  0.2626 -0.6865  0.1489
 9136SOL     OW39043   0.757   3.670   1.610 -0.5157 -0.6772 -0.3103
 9136SOL    HW139044   0.763   3.758   1.647  0.7341 -1.1726  0.6480
 9136SOL    HW239045   0.687   3.627   1.659 -0.7611  0.6441  0.4881
 9137SOL     OW39046   1.593   3.537   7.081  0.0928  0.6277 -0.1882
 9137SOL    HW139047   1.658   3.601   7.050 -0.3738  0.2042 -2.0884
 9137SOL    HW239048   1.535   3.590   7.135  2.0028  3.8225 -1.2908
 9138SOL     OW39049   0.250   1.610  15.037  0.1813 -0.2173 -0.3138
 9138SOL    HW139050   0.296   1.691  15.059 -0.9413  0.9996 -2.4442
 9138SOL    HW239051   0.164   1.647  15.017  0.4140 -0.0564 -1.0145
 9139SOL     OW39052   1.688   1.789  11.263  0.7462 -0.4111 -0.3352
 9139SOL    HW139053   1.743   1.866  11.245 -1.3275  0.8313 -1.3061
 9139SOL    HW239054   1.697   1.784  11.358 -1.1308 -0.3960 -0.1549
 9140SOL     OW39055   1.248   1.604   7.266 -0.0513  0.2791  0.8217
 9140SOL    HW139056   1.202   1.688   7.253 -1.2825 -0.5139  0.0229
 9140SOL    HW239057   1.189   1.563   7.202 -0.3949 -1.9813  2.6125
 9141SOL     OW39058   1.740   0.389   2.474  0.2342  0.3608  0.5573
 9141SOL    HW139059   1.770   0.412   2.386  0.1542 -4.5975 -0.7901
 9141SOL    HW239060   1.788   0.442   2.537  0.0250 -0.5972  1.5260
 9142SOL     OW39061   0.654   0.492   7.248  0.3208  0.0878 -0.2171
 9142SOL    HW139062   0.624   0.419   7.302  1.3819 -0.5907 -0.5527
 9142SOL    HW239063   0.571   0.514   7.205  0.3139 -0.1138 -0.3073
 9143SOL     OW39064   0.009   3.832   5.444  0.1102 -0.2457 -0.4972
 9143SOL    HW139065   0.078   3.895   5.462 -0.9210  0.3166  1.4762
 9143SOL    HW239066   4.701   3.815   5.528 -0.6044  0.8712 -0.6352
 9144SOL     OW39067   3.601   3.566   7.116 -0.5443  0.1477  0.2308
 9144SOL    HW139068   3.675   3.594   7.170  0.6325 -1.1805 -0.7140
 9144SOL    HW239069   3.598   3.475   7.145 -0.1452  0.2081  0.4706
 9145SOL     OW39070   3.438   0.942   3.860 -0.1462 -0.0149 -0.1700
 9145SOL    HW139071   3.516   0.990   3.889 -0.4281  0.9814 -1.0858
 9145SOL    HW239072   3.468   0.854   3.886 -0.1025 -0.6540 -2.3535
 9146SOL     OW39073   2.505   2.595   6.128 -0.1171  0.4713  0.3508
 9146SOL    HW139074   2.424   2.645   6.122  0.2959  1.1667  0.5844
 9146SOL    HW239075   2.549   2.653   6.190  0.1891  0.5717  0.0451
 9147SOL     OW39076   2.331   3.108   0.119  0.1010  0.2215  0.4884
 9147SOL    HW139077   2.303   3.195   0.089  1.1857  0.1538 -0.7037
 9147SOL    HW239078   2.404   3.131   0.176  0.3569 -1.3621  0.7987
 9148SOL     OW39079   0.860   4.476  17.717  0.2822 -0.0024  0.1215
 9148SOL    HW139080   0.903   4.404  17.672  2.3088  0.0817  1.9404
 9148SOL    HW239081   0.844   4.537  17.645 -1.6259  1.2614  1.6066
 9149SOL     OW39082   3.598   3.754   3.752  0.1537 -0.5845  0.4635
 9149SOL    HW139083   3.587   3.713   3.838  2.0962 -0.6688  0.6725
 9149SOL    HW239084   3.519   3.736   3.701 -0.3430 -2.9525  2.0365
 9150SOL     OW39085   2.343   2.116   4.889 -0.1256  0.2322 -0.1919
 9150SOL    HW139086   2.248   2.128   4.889 -0.0193  1.1074  0.1923
 9150SOL    HW239087   2.353   2.026   4.919  0.9435  0.4609  0.1480
 9151SOL     OW39088   0.185   4.677   8.318  0.2749  0.5566  0.4719
 9151SOL    HW139089   0.098   4.638   8.322  0.5223  0.2274  2.4806
 9151SOL    HW239090   0.166   0.016   8.260 -0.3425 -3.1641 -4.0171
 9152SOL     OW39091   1.419   2.696   9.213  0.2699  0.3119 -0.4571
 9152SOL    HW139092   1.447   2.785   9.235 -2.5068  1.2451 -0.6041
 9152SOL    HW239093   1.332   2.692   9.254  1.0472  3.2127  1.4985
 9153SOL     OW39094   1.667   0.159   3.404 -0.0000  0.5047 -0.3886
 9153SOL    HW139095   1.690   0.104   3.479  1.8710  0.2713 -1.1572
 9153SOL    HW239096   1.573   0.141   3.406  0.5237 -1.9056  2.7232
 9154SOL     OW39097   1.446   4.426  16.758 -0.2273 -0.3995  0.1153
 9154SOL    HW139098   1.464   4.511  16.719 -0.5746 -0.0306  0.7579
 9154SOL    HW239099   1.430   4.378  16.677 -3.1521  2.3017 -0.9124
 9155SOL     OW39100   4.338   2.107   8.708 -0.7650 -0.5213  0.5460
 9155SOL    HW139101   4.377   2.086   8.623 -2.9963 -1.2977 -0.2653
 9155SOL    HW239102   4.404   2.088   8.775 -0.8735 -2.1911  0.1761
 9156SOL     OW39103   1.051   2.780   4.957 -0.5903 -0.5203 -0.2962
 9156SOL    HW139104   1.029   2.696   4.997  1.8405 -0.6068  0.8362
 9156SOL    HW239105   1.119   2.737   4.905  0.1793  1.5912 -1.0396
 9157SOL     OW39106   1.570   2.192  11.936  0.3303 -0.2186  0.2899
 9157SOL    HW139107   1.540   2.278  11.963 -2.9782 -1.1244 -0.5734
 9157SOL    HW239108   1.538   2.136  12.007  3.3445 -3.5637 -0.9478
 9158SOL     OW39109   3.031   4.119   7.412 -0.0728  0.0442 -0.4307
 9158SOL    HW139110   3.016   4.065   7.334  3.9620  1.8125 -2.4093
 9158SOL    HW239111   2.941   4.149   7.424  0.0347 -0.2472  1.0747
 9159SOL     OW39112   2.359   3.683  12.225 -0.1446  0.3158  0.1249
 9159SOL    HW139113   2.347   3.709  12.133  0.4396 -2.9197 -0.8571
 9159SOL    HW239114   2.442   3.635  12.222  0.5307  1.4199  1.2824
 9160SOL     OW39115   0.526   2.369   1.691 -0.8898  0.1210 -0.4234
 9160SOL    HW139116   0.503   2.447   1.741  3.1841 -0.3954  2.2706
 9160SOL    HW239117   0.452   2.310   1.709 -2.5624  2.4073  0.1628
 9161SOL     OW39118   0.151   1.923   8.986 -0.1334  0.0640  0.0742
 9161SOL    HW139119   0.174   1.900   9.076  0.9557  1.1869  0.0798
 9161SOL    HW239120   0.207   1.869   8.931 -1.9738 -0.5152 -1.2320
 9162SOL     OW39121   2.955   1.450   3.142  0.1144  0.7630  0.3948
 9162SOL    HW139122   2.934   1.505   3.066 -0.8287 -3.7982 -2.6292
 9162SOL    HW239123   2.871   1.405   3.152 -0.4943  1.6090 -0.8327
 9163SOL     OW39124   2.923   0.817   6.708 -0.1109  0.0247 -0.4264
 9163SOL    HW139125   2.829   0.800   6.714 -0.3844  0.8668 -2.3112
 9163SOL    HW239126   2.963   0.731   6.720 -1.2226 -0.6435 -1.5606
 9164SOL     OW39127   1.976   1.214   9.658  0.1330 -0.1095 -0.0248
 9164SOL    HW139128   1.962   1.188   9.567  1.4375  0.0250 -0.2718
 9164SOL    HW239129   1.930   1.150   9.712 -1.6192 -1.0536 -2.6686
 9165SOL     OW39130   0.606   2.931   3.995  0.2234 -0.0856  0.3855
 9165SOL    HW139131   0.606   2.909   3.902  0.4842 -0.5916  0.5049
 9165SOL    HW239132   0.514   2.950   4.012  1.1040  1.7497  3.0374
 9166SOL     OW39133   3.754   1.316   3.065 -0.1999  0.4811  0.4166
 9166SOL    HW139134   3.764   1.396   3.013  1.3149 -1.8037 -2.8413
 9166SOL    HW239135   3.791   1.264   2.993 -3.4793 -1.2697 -0.0277
 9167SOL     OW39136   0.446   2.895   1.038 -0.2940 -0.6716 -0.1616
 9167SOL    HW139137   0.399   2.819   1.073  0.7091  0.4490  3.6285
 9167SOL    HW239138   0.439   2.954   1.113  1.2893 -1.0071  0.2599
 9168SOL     OW39139   2.771   3.643  15.971 -0.0380 -0.4827  0.1751
 9168SOL    HW139140   2.826   3.606  15.902 -1.1192 -1.7836  0.0139
 9168SOL    HW239141   2.817   3.724  15.990 -1.4638  0.4579 -0.4095
 9169SOL     OW39142   0.563   0.993   0.256  0.2301 -0.1322  0.6637
 9169SOL    HW139143   0.502   1.049   0.209 -0.2780 -0.7962  0.5218
 9169SOL    HW239144   0.594   1.055   0.321 -2.3270  2.8705 -1.0338
 9170SOL     OW39145   0.066   0.998   6.393 -0.1673 -0.6555  0.2613
 9170SOL    HW139146   0.080   1.091   6.378  0.7976 -1.0146 -1.0107
 9170SOL    HW239147   4.712   0.999   6.430 -0.9119  0.0404 -1.5415
 9171SOL     OW39148   2.928   3.284  17.173  0.0833  0.4203 -0.6041
 9171SOL    HW139149   2.861   3.348  17.194 -0.1940  0.4684 -1.6546
 9171SOL    HW239150   2.999   3.302  17.235  0.1435  0.3628 -0.6559
 9172SOL     OW39151   1.185   2.968   8.059 -0.3381 -0.1373 -0.5377
 9172SOL    HW139152   1.272   2.927   8.062 -0.3080  0.0325  0.6605
 9172SOL    HW239153   1.150   2.926   7.980  0.8395 -3.0739  0.4752
 9173SOL     OW39154   4.427   1.164   2.939  0.1191 -0.4766  0.2396
 9173SOL    HW139155   4.488   1.201   2.874  1.8292 -0.2031  1.9901
 9173SOL    HW239156   4.438   1.071   2.920 -0.6322 -0.4561 -0.3058
 9174SOL     OW39157   2.060   1.546   8.789  0.0163 -0.1431 -0.2705
 9174SOL    HW139158   2.117   1.583   8.857  0.8264  0.0404 -1.0563
 9174SOL    HW239159   1.978   1.526   8.835 -1.2048  1.1661 -1.8591
 9175SOL     OW39160   0.754   0.299   5.415 -0.2383  0.0791  0.0748
 9175SOL    HW139161   0.720   0.383   5.385 -1.8772 -0.3017  0.8729
 9175SOL    HW239162   0.847   0.317   5.431 -0.1388 -1.7865  1.6259
 9176SOL     OW39163   4.086   2.102   6.163  0.1197 -0.7726 -0.3197
 9176SOL    HW139164   4.088   2.169   6.094 -2.7897 -1.5838 -1.1822
 9176SOL    HW239165   4.133   2.146   6.234 -0.1142 -2.5893  0.9641
 9177SOL     OW39166   1.502   0.718  13.680 -0.1716 -0.3396  0.2246
 9177SOL    HW139167   1.484   0.808  13.706  1.0445  1.0014 -3.6195
 9177SOL    HW239168   1.539   0.740  13.595 -0.0431  1.5043  0.7610
 9178SOL     OW39169   2.600   2.358  17.568 -0.6774  0.4261 -0.0374
 9178SOL    HW139170   2.540   2.324  17.502  1.7662 -4.2632  0.1677
 9178SOL    HW239171   2.675   2.301  17.555 -0.6211  0.2135  1.1962
 9179SOL     OW39172   2.010   2.098   1.003 -0.2894  0.2415 -0.3158
 9179SOL    HW139173   2.018   2.084   1.098  0.6315 -1.4802 -0.6467
 9179SOL    HW239174   1.963   2.018   0.978  0.2281 -0.2885  0.3900
 9180SOL     OW39175   3.740   1.659   1.308 -0.1142 -0.0840 -0.4802
 9180SOL    HW139176   3.758   1.670   1.401  1.0130 -0.1954 -0.6815
 9180SOL    HW239177   3.713   1.568   1.317 -0.1495  0.1984  2.2439
 9181SOL     OW39178   2.224   3.875   9.670  0.1865  0.2836  0.4410
 9181SOL    HW139179   2.239   3.914   9.584  0.7220 -1.0565 -0.0889
 9181SOL    HW239180   2.254   3.948   9.724  0.7353  0.7656 -0.5030
 9182SOL     OW39181   3.409   1.275   5.881 -0.8597 -0.9127  0.0601
 9182SOL    HW139182   3.425   1.261   5.787  0.4975  1.8853 -0.1169
 9182SOL    HW239183   3.320   1.308   5.891  0.0485  2.3148 -2.5253
 9183SOL     OW39184   1.021   1.474   3.836  0.1385  0.2928 -0.2521
 9183SOL    HW139185   0.940   1.515   3.865 -0.9074 -1.2169 -1.0465
 9183SOL    HW239186   1.074   1.550   3.812  0.2743  0.6090  1.0628
 9184SOL     OW39187   3.926   1.436   4.473  0.0630 -0.1065  0.6285
 9184SOL    HW139188   3.997   1.468   4.417 -0.2124  1.2688  1.0529
 9184SOL    HW239189   3.860   1.490   4.430  0.1783  1.0962  1.9683
 9185SOL     OW39190   4.724   2.824   6.614 -0.2965 -0.3142 -0.3164
 9185SOL    HW139191   4.631   2.807   6.601 -0.1091 -0.6460 -1.1632
 9185SOL    HW239192   4.721   2.868   6.699 -0.2763 -2.6760  0.9096
 9186SOL     OW39193   3.679   4.418   9.350 -0.0476 -0.0353 -0.3292
 9186SOL    HW139194   3.750   4.408   9.286 -2.4263  0.4320 -3.0717
 9186SOL    HW239195   3.678   4.513   9.366  2.6021  0.1198 -1.0534
 9187SOL     OW39196   0.524   1.949   8.760  0.2877 -0.0421  0.0970
 9187SOL    HW139197   0.534   1.885   8.830  0.6955 -1.1809 -0.9988
 9187SOL    HW239198   0.598   1.933   8.702 -0.7832  0.7455 -1.5095
 9188SOL     OW39199   4.410   1.271   2.092  0.7759 -0.5002  0.1829
 9188SOL    HW139200   4.371   1.196   2.135 -0.9553 -0.7183 -1.7365
 9188SOL    HW239201   4.337   1.302   2.038  0.0972  0.2536  1.5394
 9189SOL     OW39202   1.824   2.315   2.306  0.1202  0.3659  0.0109
 9189SOL    HW139203   1.905   2.276   2.271 -0.0378  0.4125 -0.4074
 9189SOL    HW239204   1.841   2.302   2.399 -1.4259 -0.4295  0.1712
 9190SOL     OW39205   2.947   3.366   5.254  0.5438  0.9749  0.7188
 9190SOL    HW139206   2.981   3.361   5.165 -1.3460 -0.8182  0.1026
 9190SOL    HW239207   2.860   3.402   5.243  0.6613  0.6055 -1.3326
 9191SOL     OW39208   1.890   0.528   8.244 -0.0070 -0.6018  0.0472
 9191SOL    HW139209   1.886   0.483   8.159 -1.8971 -0.0210 -0.1763
 9191SOL    HW239210   1.811   0.493   8.285  0.1240 -1.8074 -0.7181
 9192SOL     OW39211   0.831   2.501   6.687  0.2025  0.6298  0.1326
 9192SOL    HW139212   0.854   2.459   6.604  0.0175  0.7960 -0.0049
 9192SOL    HW239213   0.804   2.587   6.655 -1.3992 -0.0204 -0.2739
 9193SOL     OW39214   3.995   3.333   4.452  0.1181  0.0127  0.2571
 9193SOL    HW139215   3.973   3.413   4.405  0.1543  0.2067  0.5768
 9193SOL    HW239216   3.907   3.295   4.447 -0.1743  0.6874  0.3804
 9194SOL     OW39217   3.990   0.740   1.808  0.2425  0.1795 -0.3713
 9194SOL    HW139218   3.897   0.715   1.802 -0.1275  1.8785 -1.5521
 9194SOL    HW239219   4.000   0.701   1.895 -0.3037  1.1299  0.1218
 9195SOL     OW39220   0.925   0.487   7.145 -0.1679 -1.0907 -0.6735
 9195SOL    HW139221   0.995   0.448   7.198  0.0916 -1.1553 -1.0650
 9195SOL    HW239222   0.855   0.502   7.208 -1.0028  0.9701 -2.0796
 9196SOL     OW39223   1.240   3.537  12.153 -0.0634 -0.1022 -0.1210
 9196SOL    HW139224   1.263   3.629  12.164  1.3758 -0.4451 -0.2197
 9196SOL    HW239225   1.152   3.538  12.191  0.8724 -3.4197  2.1204
 9197SOL     OW39226   2.471   1.246   1.553 -0.0493  0.2577 -0.3413
 9197SOL    HW139227   2.431   1.181   1.611 -0.6737  0.1233 -0.9231
 9197SOL    HW239228   2.564   1.241   1.575 -0.7098 -0.6462  2.3115
 9198SOL     OW39229   2.416   4.716   2.957 -0.2830 -0.6516  0.1459
 9198SOL    HW139230   2.321   4.713   2.967 -0.3406 -1.5161 -0.7164
 9198SOL    HW239231   2.438   0.068   2.991 -1.4310  0.4320 -1.8770
 9199SOL     OW39232   1.747   0.961   3.272  0.1191  0.3054  0.1259
 9199SOL    HW139233   1.783   0.992   3.355 -0.0364  0.3890  0.1610
 9199SOL    HW239234   1.654   0.950   3.292 -0.1972 -1.0653 -2.1610
 9200SOL     OW39235   4.504   2.700  10.051 -0.3827  0.3131 -0.0046
 9200SOL    HW139236   4.417   2.716  10.014 -0.4715 -2.1779 -0.8555
 9200SOL    HW239237   4.517   2.611  10.018  0.0464  0.9802 -1.6462
 9201SOL     OW39238   2.520   1.693   2.529 -0.1576 -0.4033  0.8276
 9201SOL    HW139239   2.470   1.611   2.536 -0.2014 -0.4363  0.0827
 9201SOL    HW239240   2.459   1.751   2.574 -0.2577 -0.0964  0.2863
 9202SOL     OW39241   4.403   0.718  12.979 -0.0172 -0.3645 -0.6997
 9202SOL    HW139242   4.357   0.692  12.898 -1.2312  0.7562 -0.3607
 9202SOL    HW239243   4.483   0.760  12.946  0.5246  0.1169  1.2725
 9203SOL     OW39244   1.801   4.432   8.423 -0.2482 -0.6287  0.2643
 9203SOL    HW139245   1.759   4.395   8.501 -2.2242  0.0539 -0.4744
 9203SOL    HW239246   1.892   4.444   8.449 -0.1765  0.5948 -0.5734
 9204SOL     OW39247   4.504   3.807   1.986 -0.4856 -0.3816  0.0508
 9204SOL    HW139248   4.451   3.879   1.950 -0.4224 -0.9246 -1.1445
 9204SOL    HW239249   4.532   3.861   2.060  3.3654 -1.0961 -0.9283
 9205SOL     OW39250   1.000   0.817   2.617 -0.0809  0.1355 -0.4566
 9205SOL    HW139251   1.016   0.881   2.548  0.6180 -1.7896 -2.0995
 9205SOL    HW239252   0.905   0.817   2.619 -0.0849  1.4226 -1.2586
 9206SOL     OW39253   3.584   0.539   3.680 -0.1213 -0.1822  0.0845
 9206SOL    HW139254   3.629   0.616   3.645 -1.1087  0.2607 -0.1977
 9206SOL    HW239255   3.589   0.490   3.598  0.9344  2.1951 -1.2752
 9207SOL     OW39256   1.421   3.982  17.576  0.1872  0.1779 -0.8009
 9207SOL    HW139257   1.331   3.980  17.609  0.9208  2.2742  1.3065
 9207SOL    HW239258   1.416   4.050  17.509 -2.7771  0.5008 -0.2467
 9208SOL     OW39259   4.613   3.764   8.102  0.2110  0.5653  0.3573
 9208SOL    HW139260   4.679   3.765   8.032  1.2719  1.3600  1.3769
 9208SOL    HW239261   4.541   3.799   8.050  0.4921  1.0974  0.3257
 9209SOL     OW39262   0.253   0.735  10.897  0.0144  0.4139  0.3396
 9209SOL    HW139263   0.266   0.661  10.837 -0.0282 -0.7348  1.7380
 9209SOL    HW239264   0.245   0.807  10.834 -0.8804  1.3682  1.5448
 9210SOL     OW39265   3.573   4.253   9.988  0.1557  0.8445  0.3218
 9210SOL    HW139266   3.508   4.222  10.052  2.2916 -0.7649  1.7059
 9210SOL    HW239267   3.550   4.205   9.909 -1.7339  0.4765  1.0896
 9211SOL     OW39268   1.467   2.692  17.199 -0.8881  0.6206  0.2263
 9211SOL    HW139269   1.400   2.684  17.131 -0.8635  0.0908  0.2643
 9211SOL    HW239270   1.550   2.681  17.153 -1.1054 -1.6889  0.3981
 9212SOL     OW39271   1.677   0.320   6.696 -0.5281 -0.2038 -0.4761
 9212SOL    HW139272   1.608   0.369   6.741 -0.6813 -0.6779 -0.1958
 9212SOL    HW239273   1.629   0.292   6.618 -2.9233  2.0515  0.2034
 9213SOL     OW39274   4.640   4.226   2.306 -0.1014 -0.6911  0.0299
 9213SOL    HW139275   4.651   4.148   2.361  1.2388 -1.7012 -1.6978
 9213SOL    HW239276   4.690   4.290   2.356 -1.0272  0.3045 -0.3333
 9214SOL     OW39277   2.923   4.505   8.149  0.2103  0.4123  0.4704
 9214SOL    HW139278   2.899   4.592   8.116 -1.0902 -0.1829 -0.1825
 9214SOL    HW239279   3.009   4.492   8.108 -0.6412 -1.1705 -0.8667
 9215SOL     OW39280   0.902   4.090  11.935  0.0760 -0.4187  0.1112
 9215SOL    HW139281   0.935   4.088  11.845 -3.3812 -1.2725 -1.1621
 9215SOL    HW239282   0.830   4.027  11.931  0.5313 -1.0482  2.1135
 9216SOL     OW39283   0.435   1.560   8.014 -0.3645 -0.0326 -0.2303
 9216SOL    HW139284   0.471   1.561   7.926  3.7355  1.6134  1.4642
 9216SOL    HW239285   0.378   1.483   8.011 -0.7226  0.1723  1.2874
 9217SOL     OW39286   3.746   3.941   5.050  0.5892  0.0256 -0.0293
 9217SOL    HW139287   3.817   3.991   5.090  2.0090 -2.0816  0.1034
 9217SOL    HW239288   3.666   3.966   5.096  0.2990 -0.5281 -0.2412
 9218SOL     OW39289   2.106   4.022   3.496  0.0089  0.5123  0.4370
 9218SOL    HW139290   2.200   4.013   3.476 -0.2765  0.5250 -0.8977
 9218SOL    HW239291   2.081   4.085   3.429 -0.0404 -1.1304 -1.0846
 9219SOL     OW39292   1.217   1.750   8.485  0.6476  0.3542  0.2714
 9219SOL    HW139293   1.258   1.743   8.399  0.1154  1.5787 -0.0780
 9219SOL    HW239294   1.272   1.794   8.550  1.0066 -0.2652  0.3873
 9220SOL     OW39295   2.559   1.463  12.721  0.1573  0.3478  0.4416
 9220SOL    HW139296   2.545   1.385  12.775  1.6064 -0.0351  0.2834
 9220SOL    HW239297   2.609   1.522  12.777  0.9577  1.0995 -1.0643
 9221SOL     OW39298   1.044   2.699   6.854  0.4557 -0.5869 -0.2707
 9221SOL    HW139299   0.996   2.626   6.894  2.5233 -0.8314  1.7722
 9221SOL    HW239300   1.038   2.678   6.761 -0.2485 -0.4213 -0.2586
 9222SOL     OW39301   1.008   4.318   6.601  0.2130  0.1339  0.7096
 9222SOL    HW139302   0.983   4.307   6.510 -0.8270 -0.6704  1.0994
 9222SOL    HW239303   1.100   4.289   6.605  0.7313  1.6923 -0.0779
 9223SOL     OW39304   3.271   2.956   7.107  0.6723 -0.5515  0.1858
 9223SOL    HW139305   3.243   3.026   7.166  2.2720  0.9468 -0.8219
 9223SOL    HW239306   3.240   2.876   7.150  0.5163 -0.4307  0.2958
 9224SOL     OW39307   3.003   0.014   8.869 -0.1676 -0.4707 -0.2176
 9224SOL    HW139308   2.981   0.039   8.779  1.6178  0.4375 -0.3937
 9224SOL    HW239309   3.093   4.718   8.863  0.2863  0.3007  2.6752
 9225SOL     OW39310   0.831   1.665   9.420 -0.0659 -0.5084  0.4850
 9225SOL    HW139311   0.916   1.696   9.390 -1.1853  0.5494 -1.5102
 9225SOL    HW239312   0.832   1.683   9.514 -1.0478  1.4600  0.0922
 9226SOL     OW39313   0.201   0.141   2.183 -0.0490 -0.6079  0.6761
 9226SOL    HW139314   0.167   0.078   2.246 -1.0986 -0.0195  0.7053
 9226SOL    HW239315   0.252   0.085   2.125 -0.7734 -0.5674 -0.0025
 9227SOL     OW39316   0.494   0.989  10.129  0.1087 -0.2785 -0.7601
 9227SOL    HW139317   0.584   1.011  10.157 -0.1927  1.2566 -0.9989
 9227SOL    HW239318   0.511   0.905  10.087  0.9691 -0.7686  0.5807
 9228SOL     OW39319   1.564   3.850   3.531  0.0860  0.1093 -0.0750
 9228SOL    HW139320   1.637   3.788   3.542  0.3568  0.2071 -1.2989
 9228SOL    HW239321   1.540   3.879   3.619 -1.3273  1.3372 -0.8751
 9229SOL     OW39322   3.886   4.350   4.045  0.5323  0.2957 -0.1185
 9229SOL    HW139323   3.841   4.433   4.028  0.8731  0.5865  0.3885
 9229SOL    HW239324   3.923   4.372   4.130  0.3725 -3.0413  0.7915
 9230SOL     OW39325   4.631   4.132   3.234  0.1189 -0.1596 -0.2988
 9230SOL    HW139326   4.552   4.187   3.226 -0.9682 -1.6253  0.3640
 9230SOL    HW239327   4.702   4.193   3.253  2.7945 -3.6913  0.9827
 9231SOL     OW39328   1.303   1.989   8.300  0.2044  0.0372  0.0588
 9231SOL    HW139329   1.251   1.954   8.227 -1.8264 -1.8990  2.4341
 9231SOL    HW239330   1.232   2.004   8.363 -0.1189 -0.3445 -0.2111
 9232SOL     OW39331   0.958   4.518  12.510 -0.5880 -0.0714  0.1433
 9232SOL    HW139332   1.011   4.442  12.487 -2.7582 -1.4251 -0.3938
 9232SOL    HW239333   0.919   4.483  12.590  1.9854  0.2320  1.5118
 9233SOL     OW39334   3.201   2.722   4.712 -0.5700  0.7150 -0.0405
 9233SOL    HW139335   3.151   2.652   4.754 -1.2123  1.1299 -0.1097
 9233SOL    HW239336   3.139   2.759   4.649  0.2475 -1.0161 -1.8438
 9234SOL     OW39337   1.811   2.249  16.123  0.2271  0.4001 -0.4752
 9234SOL    HW139338   1.889   2.285  16.166  0.1249 -0.2187  0.2233
 9234SOL    HW239339   1.862   2.199  16.060  0.6161  1.1045 -0.7127
 9235SOL     OW39340   4.616   3.502  11.210 -0.2171 -0.2262 -0.0228
 9235SOL    HW139341   4.688   3.449  11.178  0.8152  1.4716 -0.5394
 9235SOL    HW239342   4.572   3.530  11.129  0.1347  1.0619  0.2190
 9236SOL     OW39343   3.519   4.299   6.084 -0.2457 -0.5153  0.0456
 9236SOL    HW139344   3.499   4.375   6.029 -0.8617 -1.1172 -0.5634
 9236SOL    HW239345   3.563   4.246   6.018 -0.1938 -0.6570  0.1941
 9237SOL     OW39346   1.480   0.081   4.222  0.4494 -0.3123 -0.0771
 9237SOL    HW139347   1.547   0.107   4.159  1.1514 -0.5494  0.5670
 9237SOL    HW239348   1.537   0.093   4.298  2.5279 -1.5640 -1.4207
 9238SOL     OW39349   2.736   4.104   3.398 -0.2539  0.0274 -0.3561
 9238SOL    HW139350   2.699   4.027   3.440 -2.7714  0.8862 -0.9751
 9238SOL    HW239351   2.779   4.148   3.471 -0.4900  0.0904 -0.2550
 9239SOL     OW39352   3.027   1.179  14.169  0.1062  0.3833 -0.3033
 9239SOL    HW139353   3.049   1.209  14.257  2.2484 -2.6586  0.1846
 9239SOL    HW239354   3.069   1.244  14.113  0.2148  1.3291  0.8785
 9240SOL     OW39355   0.211   2.640   6.566 -0.3690 -0.4499 -0.4348
 9240SOL    HW139356   0.300   2.667   6.540 -0.0587 -2.6621 -1.6245
 9240SOL    HW239357   0.177   2.718   6.610  1.0714  0.5765 -1.1316
 9241SOL     OW39358   0.158   1.069   5.551  0.9943  0.2705  0.0355
 9241SOL    HW139359   0.141   1.155   5.588  1.4857 -0.1068  1.1271
 9241SOL    HW239360   0.090   1.062   5.484  0.7989 -1.3955  0.4230
 9242SOL     OW39361   0.369   0.127  15.501 -0.2306 -0.1896 -0.5828
 9242SOL    HW139362   0.401   0.201  15.552  0.5097  0.3654 -1.8550
 9242SOL    HW239363   0.429   0.120  15.427  1.3522  0.4027  0.6549
 9243SOL     OW39364   1.673   3.657   2.861 -0.0282 -1.1417 -0.1952
 9243SOL    HW139365   1.690   3.576   2.812  1.8815  0.4017 -2.0296
 9243SOL    HW239366   1.671   3.630   2.953 -3.5927  2.2086  0.7167
 9244SOL     OW39367   2.352   4.688   8.990 -0.3433  0.0551 -0.0975
 9244SOL    HW139368   2.392   4.607   9.020  0.0268  0.1911 -0.2327
 9244SOL    HW239369   2.361   4.685   8.895  0.0138  0.9312 -0.0927
 9245SOL     OW39370   2.229   3.298   8.026 -0.1139  0.2262 -0.2334
 9245SOL    HW139371   2.196   3.214   7.992 -0.4898  0.1782  0.2484
 9245SOL    HW239372   2.229   3.281   8.120  0.5390 -2.6534 -0.7468
 9246SOL     OW39373   2.072   1.518  11.170 -0.8710 -0.7641  0.2730
 9246SOL    HW139374   2.091   1.560  11.254 -1.6793  1.6565 -0.7597
 9246SOL    HW239375   1.998   1.462  11.197 -2.4756  1.7073  0.9908
 9247SOL     OW39376   2.641   1.695   0.757  0.7849  0.1373  0.7118
 9247SOL    HW139377   2.716   1.646   0.723 -0.3335 -0.6090 -0.6739
 9247SOL    HW239378   2.652   1.687   0.852  0.8651 -1.1678  0.6008
 9248SOL     OW39379   3.410   3.277   2.406  0.1138  0.3205  0.5415
 9248SOL    HW139380   3.329   3.230   2.427  0.1688 -0.2311 -0.5121
 9248SOL    HW239381   3.393   3.310   2.318  0.8419 -1.6232 -0.3194
 9249SOL     OW39382   3.650   4.097   0.912  0.3478  0.3130  0.5138
 9249SOL    HW139383   3.631   4.009   0.878  1.3538 -0.4553  1.9394
 9249SOL    HW239384   3.590   4.155   0.866  1.7746  0.7711 -0.7503
 9250SOL     OW39385   2.261   3.595  15.801 -0.1790  0.0225  0.4670
 9250SOL    HW139386   2.297   3.597  15.712  1.1779  0.3397  1.0300
 9250SOL    HW239387   2.341   3.585  15.852  0.4067  0.4855 -0.3485
 9251SOL     OW39388   2.250   3.094  12.751  0.6590 -0.2209 -0.0217
 9251SOL    HW139389   2.173   3.100  12.808  0.0175 -1.9891 -0.6898
 9251SOL    HW239390   2.324   3.138  12.792  1.7702 -1.1559 -1.0263
 9252SOL     OW39391   0.419   1.739   7.477  0.7358 -0.3135 -0.0753
 9252SOL    HW139392   0.480   1.716   7.546  0.0556 -0.6327  0.4203
 9252SOL    HW239393   0.433   1.672   7.409  2.0865  1.1145 -1.2066
 9253SOL     OW39394   2.550   3.543   9.078  0.2693 -0.3401  0.1753
 9253SOL    HW139395   2.497   3.503   9.010  0.5677 -0.1316 -0.1791
 9253SOL    HW239396   2.631   3.543   9.027 -0.5364 -1.6248 -1.1056
 9254SOL     OW39397   2.851   0.037   5.800 -0.1329  0.4378  0.7151
 9254SOL    HW139398   2.786   0.096   5.761 -0.3727 -1.4132 -1.6854
 9254SOL    HW239399   2.930   0.054   5.748 -1.1702  0.4148 -0.8691
 9255SOL     OW39400   2.625   0.327   9.691  0.1706  0.6504  0.2654
 9255SOL    HW139401   2.585   0.288   9.769 -0.6621  0.4318 -0.2698
 9255SOL    HW239402   2.680   0.400   9.720  1.4218 -0.1409 -0.1594
 9256SOL     OW39403   3.730   3.808   4.015 -0.0833 -0.7171  0.2251
 9256SOL    HW139404   3.687   3.876   3.962 -0.5403  1.0154  2.8341
 9256SOL    HW239405   3.800   3.859   4.057  0.4345  0.9565 -2.6253
 9257SOL     OW39406   0.169   2.556   2.488 -0.4777 -0.3895 -0.3540
 9257SOL    HW139407   0.246   2.513   2.453 -0.7838 -1.9044  0.8141
 9257SOL    HW239408   0.126   2.565   2.402 -1.6746 -1.6346  0.1020
 9258SOL     OW39409   1.311   1.791   9.441  0.3097  0.9260  0.4471
 9258SOL    HW139410   1.366   1.729   9.489  0.8392  0.8541 -0.2557
 9258SOL    HW239411   1.374   1.835   9.384 -0.8951  0.7281 -1.0587
 9259SOL     OW39412   2.682   4.287   2.423 -0.1220  0.5189  0.1961
 9259SOL    HW139413   2.706   4.362   2.476  1.3230 -0.2206  0.5988
 9259SOL    HW239414   2.681   4.214   2.485 -0.0708  1.2506  1.0518
 9260SOL     OW39415   0.292   3.852   7.008 -0.4430  0.5220  0.0999
 9260SOL    HW139416   0.373   3.811   6.978  1.1210  1.2255  3.3860
 9260SOL    HW239417   0.227   3.805   6.957  1.1668 -1.7274  0.1485
 9261SOL     OW39418   0.150   1.276  12.009 -0.5367 -0.5376 -0.3523
 9261SOL    HW139419   0.198   1.355  12.031  0.2619 -1.3684  0.8860
 9261SOL    HW239420   0.095   1.309  11.938  0.8559  0.4969 -0.9322
 9262SOL     OW39421   2.435   0.845   6.183 -0.5320  0.3695 -0.1374
 9262SOL    HW139422   2.384   0.924   6.165  0.2907  0.5237 -1.8101
 9262SOL    HW239423   2.497   0.867   6.252 -0.8786 -2.7501  1.1851
 9263SOL     OW39424   1.227   2.758   1.969 -0.1340 -0.3633  0.6193
 9263SOL    HW139425   1.215   2.668   1.937  0.6052  0.0980 -0.9971
 9263SOL    HW239426   1.303   2.743   2.025 -0.2463 -0.8842  0.6280
 9264SOL     OW39427   2.758   0.239   7.662 -0.4761 -0.0505  0.1914
 9264SOL    HW139428   2.825   0.193   7.712 -0.4782  1.0367  1.1969
 9264SOL    HW239429   2.686   0.176   7.667  0.7960 -1.4367  0.9092
 9265SOL     OW39430   0.724   0.658   1.432 -0.1244  0.0105 -0.6549
 9265SOL    HW139431   0.651   0.699   1.385  0.0077 -2.5146 -3.0892
 9265SOL    HW239432   0.759   0.598   1.366  2.0351  1.5331 -0.8951
 9266SOL     OW39433   4.228   4.005   7.589 -0.3547 -0.2210  0.1171
 9266SOL    HW139434   4.253   4.093   7.561  0.8891 -0.6082  0.0088
 9266SOL    HW239435   4.148   4.036   7.633  0.2478 -0.9371  1.7388
 9267SOL     OW39436   1.489   0.917   4.352 -0.2141  0.1541  0.8006
 9267SOL    HW139437   1.413   0.874   4.312  0.4530  0.3519 -0.6718
 9267SOL    HW239438   1.534   0.843   4.393 -1.1450 -0.5136  0.6192
 9268SOL     OW39439   2.802   2.420  15.464  0.2005 -0.7742  0.3115
 9268SOL    HW139440   2.712   2.396  15.443 -0.2201  1.1945 -0.0754
 9268SOL    HW239441   2.819   2.470  15.384  0.9231  0.2635  1.1162
 9269SOL     OW39442   3.171   1.089  13.756  0.0551 -0.5972  0.2202
 9269SOL    HW139443   3.229   1.039  13.698 -0.3725  0.4972 -1.1386
 9269SOL    HW239444   3.104   1.109  13.691 -0.3575  0.2835  0.9222
 9270SOL     OW39445   1.861   3.160   0.123 -0.5023 -0.0963 -0.3440
 9270SOL    HW139446   1.904   3.081   0.156  0.4895 -0.9629 -3.7309
 9270SOL    HW239447   1.791   3.123   0.070  0.3046 -1.1306 -0.7008
 9271SOL     OW39448   4.378   3.329   2.618  0.1092 -0.5719  0.1039
 9271SOL    HW139449   4.344   3.418   2.622 -2.7103 -1.5785 -1.7427
 9271SOL    HW239450   4.354   3.305   2.529 -0.5800  2.4590 -0.5249
 9272SOL     OW39451   1.020   1.506   3.239  0.3899 -0.3483 -0.3960
 9272SOL    HW139452   0.981   1.476   3.157 -1.7466  1.4449 -0.0445
 9272SOL    HW239453   1.011   1.601   3.239 -0.2412 -0.4190 -1.7530
 9273SOL     OW39454   4.633   1.887   4.356  0.3300  0.2724 -0.2880
 9273SOL    HW139455   4.664   1.833   4.283  0.6595  0.3773 -0.2253
 9273SOL    HW239456   4.685   1.846   4.424 -1.7541  0.5345  1.4546
 9274SOL     OW39457   3.825   4.108   5.269  0.3951 -0.3016 -0.5331
 9274SOL    HW139458   3.868   4.037   5.316 -0.5905 -0.8552 -0.4678
 9274SOL    HW239459   3.745   4.116   5.321 -0.4503  1.9684 -2.1577
 9275SOL     OW39460   1.042   2.902   1.426  0.2801  0.1670  0.4001
 9275SOL    HW139461   1.031   2.812   1.457 -1.4617  0.0430 -0.5340
 9275SOL    HW239462   1.096   2.931   1.500  0.2815 -1.4880  1.0423
 9276SOL     OW39463   3.991   4.400   4.366 -0.0835 -0.4411 -0.0860
 9276SOL    HW139464   3.992   4.481   4.314  2.0635 -0.8049 -0.5763
 9276SOL    HW239465   4.007   4.447   4.448  1.2855 -0.9770 -0.0608
 9277SOL     OW39466   0.266   1.726  16.806  0.2385  0.5012  0.2723
 9277SOL    HW139467   0.309   1.710  16.722 -2.4021  0.9875 -1.1670
 9277SOL    HW239468   0.262   1.821  16.796  2.8708  0.3613 -2.1032
 9278SOL     OW39469   0.389   3.573   3.707 -0.5553 -0.3415 -0.3283
 9278SOL    HW139470   0.416   3.631   3.635 -1.6525 -0.2577 -0.6788
 9278SOL    HW239471   0.338   3.504   3.665  1.1392 -1.1653 -1.0291
 9279SOL     OW39472   2.981   4.186   0.498 -0.2405 -0.8352  0.3043
 9279SOL    HW139473   2.968   4.276   0.528 -1.6449 -0.8524 -0.2502
 9279SOL    HW239474   3.075   4.177   0.486 -0.2869 -0.2498 -0.5110
 9280SOL     OW39475   4.493   2.471   3.860  0.1543  0.7535 -0.0077
 9280SOL    HW139476   4.541   2.474   3.943  0.4047  0.4926 -0.1431
 9280SOL    HW239477   4.410   2.437   3.892  0.6384 -1.2945 -0.8844
 9281SOL     OW39478   2.015   2.140   2.207 -0.1260 -0.2427 -0.3114
 9281SOL    HW139479   2.077   2.091   2.260 -0.9376 -0.8246  0.0944
 9281SOL    HW239480   2.028   2.100   2.121  2.2706 -3.9147  1.7736
 9282SOL     OW39481   2.365   3.917  11.207  0.1446 -0.2706  1.0381
 9282SOL    HW139482   2.455   3.926  11.237  0.4472 -1.3649  0.4259
 9282SOL    HW239483   2.346   3.826  11.229 -0.8225 -0.2558  0.2564
 9283SOL     OW39484   4.512   1.630   7.671 -0.1750 -0.1695  0.3606
 9283SOL    HW139485   4.454   1.599   7.740 -2.8558  0.3961 -1.6623
 9283SOL    HW239486   4.515   1.726   7.667 -0.4532 -0.2453 -1.8108
 9284SOL     OW39487   0.435   1.201   2.003  0.4782 -0.0191 -0.3047
 9284SOL    HW139488   0.489   1.165   2.074  1.2687  1.8864  0.0566
 9284SOL    HW239489   0.457   1.135   1.937  2.1696 -0.1832  0.4159
 9285SOL     OW39490   4.673   1.985   8.812 -0.1580  0.4959 -0.0901
 9285SOL    HW139491   0.013   1.960   8.867  0.7927 -1.5853 -2.3300
 9285SOL    HW239492   4.685   2.080   8.807 -1.2192  0.5874 -0.7358
 9286SOL     OW39493   4.608   3.383  14.813 -0.5199 -0.0242  0.2825
 9286SOL    HW139494   4.514   3.366  14.803 -0.5024  0.6493 -1.0683
 9286SOL    HW239495   4.646   3.318  14.754 -0.2139 -0.1173  0.5800
 9287SOL     OW39496   1.686   4.519   5.526 -0.7147 -0.7083  0.3958
 9287SOL    HW139497   1.680   4.521   5.621 -1.9918 -0.8458  0.3195
 9287SOL    HW239498   1.615   4.578   5.499  0.7730  0.2859 -1.3045
 9288SOL     OW39499   2.012   1.109   5.420 -0.3096  0.0985  0.3956
 9288SOL    HW139500   2.003   1.124   5.326  0.0222 -0.6905  0.2409
 9288SOL    HW239501   1.955   1.174   5.460 -0.4823  0.9289 -1.2089
 9289SOL     OW39502   2.993   1.694   1.157  0.0483  0.0452  0.2172
 9289SOL    HW139503   3.079   1.705   1.116 -1.0741 -0.8288 -2.3626
 9289SOL    HW239504   2.989   1.776   1.206  1.9465 -0.0909  0.6141
 9290SOL     OW39505   4.474   4.263  16.037 -0.7074 -0.0161  0.0933
 9290SOL    HW139506   4.499   4.348  16.001 -0.0613  0.6303  2.0436
 9290SOL    HW239507   4.532   4.203  15.990  0.8032  0.2065  1.6797
 9291SOL     OW39508   4.586   1.351   7.352 -0.3931 -0.2169 -0.1254
 9291SOL    HW139509   4.619   1.410   7.420  0.8880 -1.2646  0.1596
 9291SOL    HW239510   4.496   1.380   7.339  0.3755  2.0568 -0.4060
 9292SOL     OW39511   2.290   0.594   1.960  0.0395  0.0111  0.6459
 9292SOL    HW139512   2.218   0.605   1.897  1.1157  1.6024 -0.3211
 9292SOL    HW239513   2.239   0.559   2.033 -0.6399  0.2653  0.2985
 9293SOL     OW39514   4.203   4.199   6.027  0.5646 -0.0230 -0.2919
 9293SOL    HW139515   4.227   4.159   5.943 -1.3168 -1.8326  0.0348
 9293SOL    HW239516   4.114   4.231   6.013  1.1379  1.3949 -0.6647
 9294SOL     OW39517   2.260   1.165   5.617  0.6150 -0.5315  0.6063
 9294SOL    HW139518   2.203   1.130   5.549 -0.3717  1.5712  0.3570
 9294SOL    HW239519   2.268   1.254   5.583 -0.0395 -0.1989  1.3215
 9295SOL     OW39520   2.308   2.958   1.929 -0.0675 -0.3999 -0.1041
 9295SOL    HW139521   2.345   2.951   2.017 -0.5435 -3.6245 -0.1544
 9295SOL    HW239522   2.299   3.053   1.930 -1.0997 -0.4887 -1.1364
 9296SOL     OW39523   0.210   2.938   3.621 -0.3447 -0.1476 -0.1654
 9296SOL    HW139524   0.275   2.867   3.615 -1.3619 -0.8383 -3.0881
 9296SOL    HW239525   0.247   2.989   3.692 -2.0984  2.3321 -1.0526
 9297SOL     OW39526   3.247   3.627   8.359 -0.0655  0.3444 -0.5034
 9297SOL    HW139527   3.196   3.547   8.373 -1.1450  0.4801 -3.6700
 9297SOL    HW239528   3.180   3.693   8.376 -0.3666 -0.4150  1.2869
 9298SOL     OW39529   2.802   4.265   4.117 -0.1641 -0.3173  0.5703
 9298SOL    HW139530   2.752   4.193   4.079  0.5666  1.2867 -3.3946
 9298SOL    HW239531   2.838   4.220   4.194  0.2123  1.3476  1.3637
 9299SOL     OW39532   0.359   0.566   7.223 -0.5657  0.1705  0.2272
 9299SOL    HW139533   0.324   0.526   7.303 -0.3365 -0.4114  0.0334
 9299SOL    HW239534   0.275   0.565   7.176 -0.2354  0.9496 -0.3844
 9300SOL     OW39535   0.754   1.817   6.892 -0.0837  0.2847 -0.3583
 9300SOL    HW139536   0.670   1.813   6.937 -0.6918  1.8944 -1.3266
 9300SOL    HW239537   0.813   1.762   6.944 -1.4796 -0.9919 -0.1447
 9301SOL     OW39538   3.453   1.984  11.527  0.5094  0.5545  0.1398
 9301SOL    HW139539   3.513   2.053  11.552  1.4496 -0.4778  0.7453
 9301SOL    HW239540   3.403   2.035  11.463 -0.8913 -1.0158 -0.0501
 9302SOL     OW39541   3.630   2.084  13.054 -0.0489 -0.3120  0.0936
 9302SOL    HW139542   3.669   2.000  13.033 -0.5522 -0.4617 -0.2501
 9302SOL    HW239543   3.642   2.135  12.973 -0.1973 -0.9223 -0.3119
 9303SOL     OW39544   0.526   4.117   2.236 -0.2639 -0.6036 -0.4143
 9303SOL    HW139545   0.495   4.189   2.182  1.1998  1.1757  1.1276
 9303SOL    HW239546   0.484   4.135   2.320  2.2252  2.4488  0.1869
 9304SOL     OW39547   2.142   0.179  15.148  0.9104 -0.2079 -0.4853
 9304SOL    HW139548   2.096   0.112  15.098 -1.0355  0.9420 -0.2674
 9304SOL    HW239549   2.070   0.206  15.205  2.2839  0.1656  1.0729
 9305SOL     OW39550   1.644   4.143   7.585 -0.3691 -0.0132 -0.3533
 9305SOL    HW139551   1.583   4.215   7.572 -0.3334  0.2596  1.0544
 9305SOL    HW239552   1.714   4.156   7.521  0.5255 -1.5248  0.3056
 9306SOL     OW39553   0.015   0.782   9.518 -0.4668  0.0937  0.2582
 9306SOL    HW139554   0.032   0.853   9.456  0.6182  0.6521  1.2027
 9306SOL    HW239555   4.684   0.735   9.466  0.4776 -0.6165 -0.2963
 9307SOL     OW39556   2.516   0.948  13.017  0.4800  0.0584  0.2526
 9307SOL    HW139557   2.588   1.009  13.031  0.8282 -0.3770  0.3282
 9307SOL    HW239558   2.500   0.917  13.106 -0.0535 -0.8257 -0.1440
 9308SOL     OW39559   4.491   2.682   5.826  0.3841 -0.4530  0.2706
 9308SOL    HW139560   4.534   2.604   5.792 -2.5399 -2.0693  0.2817
 9308SOL    HW239561   4.431   2.706   5.755  1.2658 -1.2500 -0.7206
 9309SOL     OW39562   0.893   1.401   3.013 -0.9050 -0.3060 -0.1285
 9309SOL    HW139563   0.823   1.335   3.013  0.4233 -1.7051  0.0502
 9309SOL    HW239564   0.899   1.438   2.925 -1.8694  2.0259  0.7950
 9310SOL     OW39565   2.742   0.808   2.664  0.8577  0.4085 -0.4915
 9310SOL    HW139566   2.678   0.776   2.600  1.3944 -0.1458 -0.7470
 9310SOL    HW239567   2.703   0.881   2.712  0.0409  0.4080 -1.1514
 9311SOL     OW39568   2.351   0.187  13.106 -0.3641  0.2759  0.3738
 9311SOL    HW139569   2.375   0.108  13.154 -1.7145 -1.5723 -1.9756
 9311SOL    HW239570   2.398   0.238  13.171 -0.2852  0.1300  0.4319
 9312SOL     OW39571   0.509   2.813   7.104  0.0922  0.3352 -0.9891
 9312SOL    HW139572   0.584   2.865   7.077 -0.5644  1.5529 -0.5008
 9312SOL    HW239573   0.439   2.875   7.083 -2.5961 -1.6507  2.0951
 9313SOL     OW39574   2.506   1.049   1.910 -0.4763 -0.5178 -0.2088
 9313SOL    HW139575   2.444   1.049   1.838 -1.2808 -0.6819  0.4838
 9313SOL    HW239576   2.487   0.958   1.933 -1.5885 -0.1835  0.1956
 9314SOL     OW39577   3.703   3.982   5.973  0.9969 -0.0831  0.2341
 9314SOL    HW139578   3.655   4.048   5.923 -1.7011 -2.2403 -0.0359
 9314SOL    HW239579   3.655   3.979   6.055 -0.5318 -2.3340 -0.7382
 9315SOL     OW39580   0.574   4.142   3.069 -0.0412  0.1481  0.1515
 9315SOL    HW139581   0.591   4.192   2.989  0.6328  1.5438  1.1535
 9315SOL    HW239582   0.666   4.127   3.090 -0.1281  2.7438  2.4208
 9316SOL     OW39583   1.521   1.687   7.268 -0.3995 -0.0128 -0.3940
 9316SOL    HW139584   1.495   1.760   7.323 -1.8448 -0.6936 -0.1796
 9316SOL    HW239585   1.450   1.624   7.280  1.5012 -1.8403  1.2307
 9317SOL     OW39586   2.512   3.398   8.090 -0.0641  0.2019 -0.1195
 9317SOL    HW139587   2.492   3.402   8.183  2.0789 -0.1495  0.3547
 9317SOL    HW239588   2.577   3.328   8.077 -0.7170 -1.0958  3.5907
 9318SOL     OW39589   1.649   2.712   5.493 -0.2447 -0.6353  0.5257
 9318SOL    HW139590   1.657   2.740   5.402 -0.8377 -2.0153  0.0552
 9318SOL    HW239591   1.556   2.705   5.517 -0.7307  0.6174 -0.9970
 9319SOL     OW39592   1.244   3.497   7.840  0.1496 -0.0193 -0.1806
 9319SOL    HW139593   1.250   3.406   7.869  0.7553 -0.9789 -3.2981
 9319SOL    HW239594   1.298   3.546   7.903  0.3939 -1.1007  0.4482
 9320SOL     OW39595   0.722   3.501   7.732 -0.5906 -0.1992 -0.6002
 9320SOL    HW139596   0.687   3.488   7.820 -1.4124  1.4571 -0.6889
 9320SOL    HW239597   0.814   3.498   7.757 -0.6691 -0.1646 -0.3082
 9321SOL     OW39598   0.050   4.449   2.449  0.0977  0.0600 -0.5461
 9321SOL    HW139599   0.061   4.543   2.438  3.5625 -0.1458  1.1255
 9321SOL    HW239600   0.092   4.425   2.531  0.1112 -1.8104 -1.0873
 9322SOL     OW39601   1.720   2.334   7.759 -0.1991 -0.3716  0.0047
 9322SOL    HW139602   1.646   2.307   7.704 -1.0499 -0.7154  1.3195
 9322SOL    HW239603   1.789   2.288   7.711 -0.0188  1.7066 -1.7104
 9323SOL     OW39604   0.669   0.659  13.091  0.4242  0.4461 -0.3137
 9323SOL    HW139605   0.580   0.669  13.126  0.5113  0.5862 -0.1317
 9323SOL    HW239606   0.639   0.606  13.018 -0.5924  1.0126 -0.3051
 9324SOL     OW39607   4.316   3.097   8.112 -0.0033 -0.2084 -0.4801
 9324SOL    HW139608   4.337   3.042   8.187  0.0076  0.7869  0.2535
 9324SOL    HW239609   4.291   3.181   8.151 -1.9781 -0.5588 -1.0328
 9325SOL     OW39610   0.770   2.145  13.330  0.0690  0.0294 -0.4455
 9325SOL    HW139611   0.842   2.172  13.273 -0.4517  0.2136 -1.0013
 9325SOL    HW239612   0.793   2.052  13.338  1.8858  0.2603 -3.0902
 9326SOL     OW39613   2.788   4.075  12.840 -0.8547  0.5205 -0.2853
 9326SOL    HW139614   2.805   4.000  12.897 -0.7972  2.2941  2.0099
 9326SOL    HW239615   2.839   4.144  12.882  0.4430 -0.7039  0.1543
 9327SOL     OW39616   2.613   4.640   4.103  0.0091 -0.1656  0.2030
 9327SOL    HW139617   2.606   4.717   4.159  2.3227  1.2988 -1.5252
 9327SOL    HW239618   2.529   4.649   4.057  0.0315 -0.5135  0.0916
 9328SOL     OW39619   3.467   0.195   5.882  0.2145 -0.4664 -0.1081
 9328SOL    HW139620   3.440   0.176   5.792 -0.5262 -0.1072  0.0391
 9328SOL    HW239621   3.528   0.267   5.866  0.0099 -0.6081 -1.4870
 9329SOL     OW39622   0.329   0.901   0.526  0.0610  0.7838 -0.1064
 9329SOL    HW139623   0.286   0.851   0.456  1.3001  1.9063 -1.6832
 9329SOL    HW239624   0.378   0.826   0.560 -1.4363  1.1794  2.9135
 9330SOL     OW39625   1.235   0.081   5.366 -0.1198  0.0276  0.3962
 9330SOL    HW139626   1.267   0.163   5.403  1.2006 -0.4048  0.2149
 9330SOL    HW239627   1.161   0.051   5.421 -1.2923  0.0331 -1.1702
 9331SOL     OW39628   3.581   3.501   7.621  0.5077 -0.2326  0.2920
 9331SOL    HW139629   3.582   3.466   7.710 -1.6345 -4.2391 -1.2723
 9331SOL    HW239630   3.579   3.596   7.634  3.4495 -0.0797 -0.2377
 9332SOL     OW39631   3.734   4.694   6.022 -0.0561 -0.3190 -0.2747
 9332SOL    HW139632   3.729   0.047   5.985  3.7212 -0.2622 -0.6722
 9332SOL    HW239633   3.817   4.702   6.069 -1.0100  0.1657  1.3145
 9333SOL     OW39634   0.246   2.571  15.710  0.1683 -0.5468 -0.0928
 9333SOL    HW139635   0.246   2.521  15.628 -0.6700 -0.5197 -0.1093
 9333SOL    HW239636   0.329   2.618  15.706 -0.2215 -0.0358 -2.1735
 9334SOL     OW39637   2.363   1.520  11.060 -0.5621  0.3557  0.1214
 9334SOL    HW139638   2.299   1.500  10.992  0.7665  2.5366 -1.7911
 9334SOL    HW239639   2.332   1.470  11.135 -1.7489 -0.9504 -1.2324
 9335SOL     OW39640   2.755   1.332  13.418 -0.2454  0.4221 -0.3547
 9335SOL    HW139641   2.825   1.286  13.371  0.5266 -0.8427  2.0140
 9335SOL    HW239642   2.750   1.421  13.385  1.2445  0.7756  0.3425
 9336SOL     OW39643   0.159   0.419  16.663 -0.1200  0.2331  0.2570
 9336SOL    HW139644   0.252   0.420  16.638  0.0517 -0.7901  0.8610
 9336SOL    HW239645   0.104   0.449  16.590  0.4541 -0.6131 -0.5274
 9337SOL     OW39646   1.083   3.230   6.689  0.7003  0.1980 -0.0257
 9337SOL    HW139647   1.173   3.206   6.711  0.2523 -1.0284  0.4453
 9337SOL    HW239648   1.042   3.147   6.716  0.2047  0.3060 -0.4380
 9338SOL     OW39649   1.023   3.939   3.386  0.0323  0.8079 -0.9849
 9338SOL    HW139650   1.003   3.849   3.409  1.0780  0.4374 -1.5045
 9338SOL    HW239651   1.089   3.935   3.316 -1.4390  2.3193 -2.4778
 9339SOL     OW39652   3.627   4.593   4.390  0.0656  0.1125 -0.4255
 9339SOL    HW139653   3.549   4.585   4.445  1.6933 -1.0135  1.7151
 9339SOL    HW239654   3.698   4.560   4.446  0.3140 -0.1502 -0.8957
 9340SOL     OW39655   0.623   3.527   4.556  0.5734 -0.5756  0.0207
 9340SOL    HW139656   0.580   3.537   4.641 -0.8526  0.5635 -0.8420
 9340SOL    HW239657   0.570   3.580   4.497 -1.8014 -3.9396 -0.8732
 9341SOL     OW39658   4.042   1.159  10.603  0.1883 -0.5711 -0.6360
 9341SOL    HW139659   4.023   1.205  10.522  1.2168 -0.0363 -0.5733
 9341SOL    HW239660   3.957   1.152  10.647  1.0928  1.1849  1.4369
 9342SOL     OW39661   1.968   0.180   0.477  0.0036 -0.1332 -0.2033
 9342SOL    HW139662   2.047   0.128   0.462  0.7288  0.5263  1.3011
 9342SOL    HW239663   1.952   0.158   0.568 -1.2475 -0.5975 -0.5445
 9343SOL     OW39664   4.391   1.541   3.758 -0.1550  0.2686  0.0973
 9343SOL    HW139665   4.453   1.471   3.775  1.2680  1.6995  0.8135
 9343SOL    HW239666   4.380   1.578   3.846 -0.8547 -0.1790  0.2016
 9344SOL     OW39667   0.923   0.719   4.308  0.5556  0.1368  0.1165
 9344SOL    HW139668   0.842   0.692   4.266 -0.2446  1.9447  0.4831
 9344SOL    HW239669   0.900   0.800   4.355 -0.0494 -0.3230  0.6139
 9345SOL     OW39670   0.403   3.961   4.421 -0.2470 -0.4660  0.1919
 9345SOL    HW139671   0.343   4.031   4.395 -0.2089  0.0198  1.3886
 9345SOL    HW239672   0.374   3.956   4.513 -1.0578  0.5891 -0.0089
 9346SOL     OW39673   4.014   2.011   8.965  0.0375  0.0090 -0.2097
 9346SOL    HW139674   3.971   2.095   8.957  0.4358  0.0601 -1.7438
 9346SOL    HW239675   3.949   1.964   9.017  0.2143  0.5497  0.4994
 9347SOL     OW39676   1.110   3.176   8.384 -0.0017  0.0915  0.4629
 9347SOL    HW139677   1.100   3.197   8.476 -0.1315  0.3690  0.3869
 9347SOL    HW239678   1.164   3.243   8.342 -2.9327  1.1012 -1.7117
 9348SOL     OW39679   3.405   3.163   4.483 -0.4954 -0.1312  0.2084
 9348SOL    HW139680   3.464   3.151   4.557  1.5933 -0.5920 -1.5248
 9348SOL    HW239681   3.421   3.093   4.420  0.2291 -1.3015  1.6931
 9349SOL     OW39682   3.191   4.669   0.288 -0.2982  0.3233  0.6219
 9349SOL    HW139683   3.286   4.659   0.299 -0.5015 -0.5536  1.6092
 9349SOL    HW239684   3.180   0.028   0.272  4.2902  1.0103  1.2913
 9350SOL     OW39685   4.179   4.668   2.711  0.0474 -0.4349  0.0938
 9350SOL    HW139686   4.085   4.650   2.706  0.0593 -0.5108  0.1354
 9350SOL    HW239687   4.185   4.699   2.801  2.3950 -0.5938 -0.0240
 9351SOL     OW39688   2.680   0.690   6.656  0.2663 -0.0626 -0.7308
 9351SOL    HW139689   2.735   0.639   6.597 -0.7416  0.4433 -2.1144
 9351SOL    HW239690   2.671   0.635   6.734  0.6309  1.7387  0.5674
 9352SOL     OW39691   4.044   4.556  11.422  0.4037 -0.0356 -0.0124
 9352SOL    HW139692   4.092   4.535  11.342 -1.7691 -1.1119 -1.0415
 9352SOL    HW239693   3.969   4.609  11.392  0.5849  0.4201  0.3337
 9353SOL     OW39694   3.856   2.114  13.368 -0.2231 -0.1343 -0.3106
 9353SOL    HW139695   3.762   2.102  13.354  0.2245 -1.2027 -2.4593
 9353SOL    HW239696   3.849   2.173  13.443  0.4897  0.9327 -1.0738
 9354SOL     OW39697   3.664   3.222   1.363  0.8238 -0.0375 -0.2207
 9354SOL    HW139698   3.661   3.239   1.457 -3.1072  0.6335 -0.4575
 9354SOL    HW239699   3.619   3.295   1.320  0.9762  0.9577  1.3345
 9355SOL     OW39700   4.232   0.818  10.760 -0.6833  0.0769 -0.2337
 9355SOL    HW139701   4.184   0.825  10.677 -0.0015 -2.1718 -0.8221
 9355SOL    HW239702   4.312   0.783  10.721 -1.1054  0.6112 -1.5891
 9356SOL     OW39703   3.745   3.169   9.075 -0.5926 -0.1828 -0.5233
 9356SOL    HW139704   3.829   3.193   9.114  0.1461 -0.0803 -2.1792
 9356SOL    HW239705   3.772   3.127   8.993  1.9899  1.6154 -0.5974
 9357SOL     OW39706   3.536   3.097   8.031  0.6186 -0.3023  0.0307
 9357SOL    HW139707   3.628   3.106   8.008  0.3955 -0.0295 -0.7883
 9357SOL    HW239708   3.515   3.015   7.985  2.3933 -0.9765  0.4270
 9358SOL     OW39709   4.471   2.715   4.383 -0.5674  0.5124  0.8361
 9358SOL    HW139710   4.533   2.645   4.364  0.8522  1.7858  0.7064
 9358SOL    HW239711   4.390   2.676   4.351  0.8326 -0.3814 -1.6451
 9359SOL     OW39712   1.274   1.029   2.519 -0.0225 -0.3426  0.4630
 9359SOL    HW139713   1.196   1.010   2.467 -0.6513 -1.1689  1.6815
 9359SOL    HW239714   1.231   1.021   2.605 -2.8296  3.1728 -0.5880
 9360SOL     OW39715   2.600   0.458   7.148 -0.2163 -0.0927 -0.3066
 9360SOL    HW139716   2.611   0.530   7.211  0.8085 -1.5140  1.1648
 9360SOL    HW239717   2.508   0.433   7.150 -0.1497 -0.4272 -1.6949
 9361SOL     OW39718   1.038   1.113   5.931 -0.6288  0.1414  0.1290
 9361SOL    HW139719   1.059   1.176   5.862  0.5369  0.8207  1.1064
 9361SOL    HW239720   1.101   1.135   5.999  0.7012 -1.2908 -0.6518
 9362SOL     OW39721   1.898   0.724   6.137 -0.2624  0.1464 -0.4716
 9362SOL    HW139722   1.923   0.722   6.230  0.1934 -2.2755 -0.6432
 9362SOL    HW239723   1.980   0.742   6.092 -0.6487  1.0527 -0.8064
 9363SOL     OW39724   0.590   1.028   9.067 -0.4722 -0.1562 -0.1468
 9363SOL    HW139725   0.583   1.016   9.162  0.3778 -2.4034 -0.3786
 9363SOL    HW239726   0.508   0.998   9.028  0.6496 -1.5150 -1.4345
 9364SOL     OW39727   1.960   3.481   0.584 -0.4259  0.2789  0.2987
 9364SOL    HW139728   2.016   3.405   0.599 -1.1938 -0.0484  1.4801
 9364SOL    HW239729   1.873   3.440   0.575 -0.1579  0.1784 -1.8234
 9365SOL     OW39730   2.839   1.183   7.448 -0.4398  0.5659  0.1763
 9365SOL    HW139731   2.924   1.139   7.440 -1.5625 -1.7767  1.0544
 9365SOL    HW239732   2.838   1.169   7.543 -0.6710  0.5311  0.1674
 9366SOL     OW39733   2.564   1.427  15.113 -0.3874  0.1517  0.1793
 9366SOL    HW139734   2.604   1.509  15.143  0.4180  0.4297 -1.6313
 9366SOL    HW239735   2.634   1.388  15.061  0.0109  0.2884  0.6126
 9367SOL     OW39736   2.440   0.783   4.105 -0.0826  0.2433 -0.1978
 9367SOL    HW139737   2.504   0.852   4.120  0.3316 -0.5639  1.8521
 9367SOL    HW239738   2.431   0.797   4.011 -2.8221  0.1954  0.0599
 9368SOL     OW39739   0.359   3.762   0.713  0.1994  0.0642  0.0965
 9368SOL    HW139740   0.307   3.828   0.759  0.0133  0.9730 -1.3988
 9368SOL    HW239741   0.312   3.685   0.743 -0.9546 -0.0115 -1.9165
 9369SOL     OW39742   1.251   2.591   5.363  0.5926  0.1236 -0.2182
 9369SOL    HW139743   1.278   2.499   5.362 -0.2744 -0.1225 -1.9619
 9369SOL    HW239744   1.286   2.607   5.450 -3.8268  1.5820  1.2375
 9370SOL     OW39745   2.996   0.951   2.747  0.0062  0.0379 -0.2880
 9370SOL    HW139746   2.998   0.978   2.655  0.8667 -0.9321 -0.5509
 9370SOL    HW239747   2.926   0.888   2.736 -0.1873  0.0437  0.8739
 9371SOL     OW39748   0.398   1.957  15.937 -0.1515  0.0255  0.0151
 9371SOL    HW139749   0.368   1.990  16.022 -1.8432 -2.7981  0.5260
 9371SOL    HW239750   0.316   1.951  15.889  0.8341  0.6094 -1.7214
 9372SOL     OW39751   0.135   3.170   1.894  0.1259  0.2175  0.6470
 9372SOL    HW139752   0.069   3.238   1.906  0.2658  0.1444  1.8023
 9372SOL    HW239753   0.102   3.106   1.831  0.6493 -0.9945  1.6108
 9373SOL     OW39754   2.216   4.382  15.146 -0.0296  0.5761 -0.3617
 9373SOL    HW139755   2.296   4.431  15.126  1.7599 -1.2773  2.3855
 9373SOL    HW239756   2.184   4.416  15.229 -0.4758  0.6111 -0.5440
 9374SOL     OW39757   2.530   0.587   2.227  0.6760 -0.7203  0.1817
 9374SOL    HW139758   2.451   0.585   2.173 -0.2146 -1.3285  1.4970
 9374SOL    HW239759   2.553   0.680   2.235 -3.5384  0.2463  1.2493
 9375SOL     OW39760   2.166   1.893  15.631  0.4652 -0.5193  0.4117
 9375SOL    HW139761   2.242   1.868  15.683 -1.2193 -1.0306  2.6072
 9375SOL    HW239762   2.128   1.815  15.591 -2.2183  0.2357  1.5135
 9376SOL     OW39763   3.883   3.922   2.758 -0.7380 -0.3098 -0.7674
 9376SOL    HW139764   3.842   3.842   2.724 -5.1540  2.2562 -1.5163
 9376SOL    HW239765   3.813   3.956   2.813 -1.7909 -0.4192 -2.0289
 9377SOL     OW39766   2.425   3.039  13.873  0.0704 -0.2127 -0.0559
 9377SOL    HW139767   2.456   3.016  13.785 -1.4440  0.0371 -0.6553
 9377SOL    HW239768   2.348   2.987  13.895 -1.5855  3.1259  2.2091
 9378SOL     OW39769   0.615   1.148   4.448 -0.5836 -0.3651 -0.1189
 9378SOL    HW139770   0.541   1.209   4.446  0.7493  1.3081  1.1546
 9378SOL    HW239771   0.687   1.198   4.410  0.9152 -1.9634  0.6314
 9379SOL     OW39772   1.853   1.599   4.833 -0.1938  0.6016  0.0642
 9379SOL    HW139773   1.776   1.542   4.834 -0.0137  0.3347 -1.3863
 9379SOL    HW239774   1.854   1.616   4.927  0.6934  0.8340  0.0113
 9380SOL     OW39775   3.141   2.170   3.405 -0.5081 -0.0689 -0.1661
 9380SOL    HW139776   3.095   2.092   3.436 -3.1184  2.4459  2.3254
 9380SOL    HW239777   3.174   2.141   3.320 -1.4863 -1.3776 -0.1051
 9381SOL     OW39778   1.497   4.496   8.981  0.1482  0.1360  0.0583
 9381SOL    HW139779   1.474   4.439   8.908 -0.1250 -0.5030  0.6461
 9381SOL    HW239780   1.544   4.560   8.927  0.4436  0.4825  0.7283
 9382SOL     OW39781   1.447   1.000  16.095  0.4866  0.0255 -0.0562
 9382SOL    HW139782   1.376   1.055  16.130  1.0005  1.3618 -1.0977
 9382SOL    HW239783   1.467   1.053  16.018 -1.2560  0.0729 -0.4917
 9383SOL     OW39784   0.398   2.486   3.724  0.1146  0.4324 -0.6117
 9383SOL    HW139785   0.416   2.401   3.765  0.5918  0.5634 -0.5500
 9383SOL    HW239786   0.309   2.501   3.756  0.5629  0.0434  0.7930
 9384SOL     OW39787   1.306   4.088   1.961  0.7044  0.4437  0.0444
 9384SOL    HW139788   1.228   4.140   1.938 -0.9538 -1.5741  1.1021
 9384SOL    HW239789   1.374   4.152   1.981  1.0678  0.2224 -0.4926
 9385SOL     OW39790   3.862   4.642   6.371 -0.2789 -0.0163 -0.3513
 9385SOL    HW139791   3.874   4.563   6.319 -1.6981  0.7880 -1.8978
 9385SOL    HW239792   3.886   4.712   6.309 -3.6678 -0.1804 -1.8664
 9386SOL     OW39793   1.243   0.577   2.161 -0.3542  0.2130  0.1394
 9386SOL    HW139794   1.269   0.490   2.190  1.2192 -0.5314 -3.5054
 9386SOL    HW239795   1.221   0.562   2.069 -0.1066  2.3963 -0.2653
 9387SOL     OW39796   0.002   3.065   6.493  0.2701 -0.0776 -0.1805
 9387SOL    HW139797   0.026   3.026   6.409 -0.5910 -0.5274 -0.2145
 9387SOL    HW239798   0.003   2.982   6.540  0.0382  0.7810  1.3110
 9388SOL     OW39799   2.996   2.224  14.974 -0.2947  0.4224 -0.5303
 9388SOL    HW139800   2.911   2.251  14.939 -1.5927 -2.3140  0.4743
 9388SOL    HW239801   2.999   2.152  14.910 -2.9363 -1.4733  1.4853
 9389SOL     OW39802   1.005   4.568   1.925 -1.2550  0.0535  0.1816
 9389SOL    HW139803   1.062   4.641   1.901 -0.8799  0.3184  1.8730
 9389SOL    HW239804   1.076   4.505   1.936 -1.4895 -0.6731 -2.3895
 9390SOL     OW39805   1.045   1.905   5.613  0.0724 -0.3057 -0.3458
 9390SOL    HW139806   1.036   1.949   5.528  1.8336  0.9816  0.1324
 9390SOL    HW239807   1.107   1.835   5.591  3.1286  3.3175 -3.4019
 9391SOL     OW39808   2.751   1.764   7.284 -0.3759 -0.6947  0.3656
 9391SOL    HW139809   2.804   1.688   7.307  0.5535  0.6331  2.5988
 9391SOL    HW239810   2.793   1.833   7.336 -1.9108  0.4777  0.0587
 9392SOL     OW39811   2.403   0.829   6.561 -0.0175  0.5141 -0.4287
 9392SOL    HW139812   2.463   0.888   6.517 -0.2116  0.8730 -0.2078
 9392SOL    HW239813   2.468   0.759   6.572  0.6477  1.0109 -1.2315
 9393SOL     OW39814   0.626   4.712   8.040  0.1990 -0.0064  0.1829
 9393SOL    HW139815   0.699   0.033   8.067  1.9020 -2.3684  0.5189
 9393SOL    HW239816   0.676   4.644   7.995 -0.0648 -0.9374  1.3049
 9394SOL     OW39817   1.267   4.236  10.837 -0.2063  0.1381  0.4774
 9394SOL    HW139818   1.342   4.289  10.810 -1.5524  1.4947 -0.5543
 9394SOL    HW239819   1.304   4.147  10.842  1.4162  0.7219 -1.4932
 9395SOL     OW39820   1.892   1.591   5.794  0.3034  0.0576  0.4442
 9395SOL    HW139821   1.820   1.568   5.735 -1.9271  3.9458  1.6434
 9395SOL    HW239822   1.952   1.519   5.772 -1.8764 -2.2364  1.9624
 9396SOL     OW39823   4.734   0.236   6.512  0.4410 -0.1038 -0.2820
 9396SOL    HW139824   4.701   0.151   6.482 -0.1217  0.0843 -0.1968
 9396SOL    HW239825   0.062   0.208   6.578  0.5240  0.0259 -0.3068
 9397SOL     OW39826   3.568   0.247   6.450 -0.0294 -0.7581 -0.6208
 9397SOL    HW139827   3.557   0.243   6.545 -1.0224 -2.5489 -0.8060
 9397SOL    HW239828   3.593   0.157   6.430  0.0578 -0.6459 -1.0113
 9398SOL     OW39829   3.029   2.437   7.448  0.4742 -0.4705  0.4353
 9398SOL    HW139830   3.005   2.528   7.462  3.3917  0.4183 -0.3315
 9398SOL    HW239831   2.956   2.404   7.396 -0.0235  0.5387  0.5175
 9399SOL     OW39832   2.649   2.775   6.281 -0.0834 -0.1237 -0.0619
 9399SOL    HW139833   2.688   2.812   6.202 -2.6952  4.9073  1.0305
 9399SOL    HW239834   2.724   2.739   6.326 -1.0568 -2.6280 -0.4256
 9400SOL     OW39835   4.462   2.244   8.036  0.0320  0.5267  0.6495
 9400SOL    HW139836   4.549   2.266   8.070  1.0377  0.1206 -1.6218
 9400SOL    HW239837   4.410   2.287   8.104  1.3843  1.6448  0.9769
 9401SOL     OW39838   4.700   0.194   8.362  0.0255  0.6211 -0.1309
 9401SOL    HW139839   4.697   0.181   8.456  2.1472  2.4353  0.1896
 9401SOL    HW239840   4.675   0.286   8.371 -2.9298  0.0251 -2.1066
 9402SOL     OW39841   1.602   0.255   7.536 -0.3786  0.3130  0.1187
 9402SOL    HW139842   1.642   0.209   7.610 -3.4755 -0.5757  1.2607
 9402SOL    HW239843   1.590   0.184   7.473 -1.0595  0.3678  0.1856
 9403SOL     OW39844   3.714   0.174   1.444 -0.4708 -0.3217 -0.7553
 9403SOL    HW139845   3.722   0.095   1.391  2.4572 -2.4154  2.8428
 9403SOL    HW239846   3.686   0.239   1.379 -1.6025 -0.3326 -0.2739
 9404SOL     OW39847   4.342   2.213   9.080  0.0661  1.1700 -0.7061
 9404SOL    HW139848   4.410   2.275   9.106 -0.3430  0.5164  1.9191
 9404SOL    HW239849   4.268   2.260   9.118  1.6482  1.9332  1.4005
 9405SOL     OW39850   2.764   4.017  15.457 -0.0883 -0.1322 -0.2511
 9405SOL    HW139851   2.693   4.010  15.520  1.3445 -0.1239  1.3595
 9405SOL    HW239852   2.820   3.950  15.496 -2.4464 -1.5626  0.7054
 9406SOL     OW39853   0.223   2.459   7.846 -0.6748  0.1934  0.2730
 9406SOL    HW139854   0.280   2.448   7.770  0.4016 -0.5396  1.1834
 9406SOL    HW239855   0.233   2.554   7.845  0.0310  0.1195  0.7587
 9407SOL     OW39856   3.622   1.706   7.300  0.3494 -0.8795  0.3277
 9407SOL    HW139857   3.659   1.664   7.222  1.0258  1.4751 -0.5956
 9407SOL    HW239858   3.637   1.798   7.278  1.3499 -0.8125  1.3233
 9408SOL     OW39859   0.335   2.629   7.183 -0.2407  0.1470 -0.5079
 9408SOL    HW139860   0.404   2.694   7.169 -1.0227  0.7940 -1.4365
 9408SOL    HW239861   0.360   2.565   7.116 -2.9031 -1.4843  0.0538
 9409SOL     OW39862   2.413   0.790  12.807  0.0732 -0.1848 -0.3268
 9409SOL    HW139863   2.433   0.825  12.893 -0.6077 -1.6808  0.4284
 9409SOL    HW239864   2.355   0.716  12.823 -0.4245  0.1686 -0.4881
 9410SOL     OW39865   1.458   0.674   9.074 -0.1111 -0.3548  0.3474
 9410SOL    HW139866   1.380   0.707   9.028 -0.5337 -1.7194  0.0721
 9410SOL    HW239867   1.456   0.735   9.147 -0.2609 -0.8328  0.7489
 9411SOL     OW39868   1.373   4.675   3.891 -0.2605 -0.5183 -0.0326
 9411SOL    HW139869   1.384   4.655   3.798  2.5819 -1.7335  0.5553
 9411SOL    HW239870   1.364   0.034   3.875 -1.2911 -0.2235  2.2888
 9412SOL     OW39871   3.024   2.772  16.653  0.3106  0.5983  0.3647
 9412SOL    HW139872   3.012   2.678  16.668 -1.8819  0.9941  1.0400
 9412SOL    HW239873   3.018   2.792  16.746  0.5091 -1.6155  0.8656
 9413SOL     OW39874   0.269   4.211  10.503  0.0515  0.1256  0.2345
 9413SOL    HW139875   0.270   4.277  10.573 -1.7652  0.4591 -0.0377
 9413SOL    HW239876   0.275   4.139  10.566 -0.1042 -0.2195 -0.1470
 9414SOL     OW39877   3.589   4.470   4.150 -0.5814  0.1196 -0.2399
 9414SOL    HW139878   3.603   4.533   4.221 -0.2658  1.4726 -1.5213
 9414SOL    HW239879   3.597   4.517   4.068  0.7079  1.5311  0.6877
 9415SOL     OW39880   2.116   4.319  16.321 -0.2806  0.3034 -0.6099
 9415SOL    HW139881   2.064   4.290  16.246 -1.9070  0.2191  0.5706
 9415SOL    HW239882   2.102   4.413  16.309 -3.2177  0.0838  1.1408
 9416SOL     OW39883   0.910   4.603   2.892 -0.6504  0.1054  0.4934
 9416SOL    HW139884   0.963   4.593   2.970  1.7752  0.4120 -1.1133
 9416SOL    HW239885   0.965   4.562   2.826 -1.2260  0.4234 -0.1924
 9417SOL     OW39886   1.378   2.678   5.588  0.1169 -0.3428  0.3623
 9417SOL    HW139887   1.356   2.764   5.552  1.7494  0.0152  0.2119
 9417SOL    HW239888   1.342   2.701   5.674 -0.6443 -0.5228  0.0896
 9418SOL     OW39889   3.899   3.243   4.736 -0.4987 -0.0435  0.1691
 9418SOL    HW139890   3.990   3.267   4.717 -2.2522  4.5580 -2.3719
 9418SOL    HW239891   3.891   3.175   4.669  1.4572 -2.2571  2.1294
 9419SOL     OW39892   2.875   2.844   4.642  0.5640 -0.8720  0.1325
 9419SOL    HW139893   2.940   2.862   4.573 -0.9697  0.6102 -0.9158
 9419SOL    HW239894   2.883   2.916   4.704 -1.5679 -1.4068  1.0279
 9420SOL     OW39895   3.091   1.509   9.539  0.1131 -0.5855  0.1773
 9420SOL    HW139896   3.088   1.553   9.624 -2.9108  1.2041 -0.8713
 9420SOL    HW239897   3.157   1.446   9.568 -0.7364 -1.0817  1.0545
 9421SOL     OW39898   4.227   1.429  16.290 -0.3208 -0.1889 -0.0166
 9421SOL    HW139899   4.195   1.494  16.353  1.4544  0.2551  0.4334
 9421SOL    HW239900   4.255   1.485  16.218 -1.2571 -1.3598 -1.2988
 9422SOL     OW39901   3.608   0.096   5.185  0.4727  0.2645  0.1673
 9422SOL    HW139902   3.601   0.188   5.210  3.1285  0.0179  1.8325
 9422SOL    HW239903   3.702   0.093   5.167  0.7440 -0.0719  1.6606
 9423SOL     OW39904   2.939   4.651  14.254 -0.1517 -0.5646  0.2047
 9423SOL    HW139905   2.985   4.705  14.319 -1.6693  0.1199  0.7078
 9423SOL    HW239906   3.015   4.616  14.207 -1.0514  1.0937 -2.5222
 9424SOL     OW39907   3.072   0.452   9.006 -0.0536  0.4371 -0.4998
 9424SOL    HW139908   3.033   0.470   8.921 -0.9268  0.5743 -0.0734
 9424SOL    HW239909   3.045   0.531   9.052 -1.9154  0.6229 -1.9009
 9425SOL     OW39910   2.822   2.501   4.317 -0.5394 -0.1324  0.0201
 9425SOL    HW139911   2.741   2.452   4.332  0.5873 -2.0535 -0.3190
 9425SOL    HW239912   2.777   2.586   4.315  1.2960  0.8796  1.3706
 9426SOL     OW39913   1.831   3.038   3.328 -0.2916  0.2397  0.4138
 9426SOL    HW139914   1.803   2.953   3.360  0.3052  0.4850  1.6146
 9426SOL    HW239915   1.842   3.020   3.235  0.1922 -1.2402  0.7630
 9427SOL     OW39916   4.692   0.841   7.425  0.8849 -0.6172  0.0764
 9427SOL    HW139917   4.639   0.904   7.473  1.9593 -0.4572  1.0411
 9427SOL    HW239918   0.016   0.801   7.489 -0.3726 -1.3528  0.7628
 9428SOL     OW39919   3.200   0.816   5.113 -0.1605  0.4081 -0.4797
 9428SOL    HW139920   3.256   0.874   5.062 -0.5678 -0.7392 -2.2279
 9428SOL    HW239921   3.259   0.746   5.142 -0.5102 -0.1872 -1.1900
 9429SOL     OW39922   4.478   0.116   5.047 -0.4789  0.2584  0.6325
 9429SOL    HW139923   4.431   0.074   5.120 -1.3028  1.6104  0.8729
 9429SOL    HW239924   4.495   0.205   5.078  0.0155  0.3501  0.1016
 9430SOL     OW39925   0.747   2.495   3.090  0.1491 -0.9114  0.3438
 9430SOL    HW139926   0.796   2.463   3.015  1.6282 -1.4244  1.5214
 9430SOL    HW239927   0.656   2.478   3.067  0.5328 -0.6060 -1.3742
 9431SOL     OW39928   3.737   3.407   3.093 -0.8497  0.1337 -0.0019
 9431SOL    HW139929   3.752   3.369   3.007 -2.1067  0.9161 -0.5706
 9431SOL    HW239930   3.757   3.333   3.149 -0.2367 -0.6857 -1.3185
 9432SOL     OW39931   0.640   2.732   1.707 -0.2310 -0.1795 -0.2461
 9432SOL    HW139932   0.592   2.774   1.778 -1.1926 -1.2666 -0.2654
 9432SOL    HW239933   0.639   2.804   1.643  0.7979  0.7667  0.7966
 9433SOL     OW39934   2.315   4.593  10.779  0.5278  0.4974  0.1719
 9433SOL    HW139935   2.220   4.594  10.789  0.6278  0.9274  1.0784
 9433SOL    HW239936   2.352   4.522  10.831  0.3044  0.0287 -0.3108
 9434SOL     OW39937   0.663   3.239   2.081 -0.9562 -0.0145 -0.1675
 9434SOL    HW139938   0.683   3.217   1.989  0.0814  2.1105 -0.4624
 9434SOL    HW239939   0.568   3.228   2.085 -0.5781 -3.0100  0.6334
 9435SOL     OW39940   4.563   0.295   5.478 -0.2271  0.3120 -0.1352
 9435SOL    HW139941   4.587   0.218   5.427 -0.8869 -0.9739  1.4838
 9435SOL    HW239942   4.647   0.315   5.520  0.0383  1.0149 -1.0220
 9436SOL     OW39943   2.945   2.055   5.826 -0.3687  0.2276 -0.1997
 9436SOL    HW139944   3.012   2.047   5.758  0.1715 -0.3652  0.4003
 9436SOL    HW239945   2.863   2.084   5.786 -0.1758  3.0780  1.4928
 9437SOL     OW39946   2.578   1.132   2.606 -0.3009 -0.3354  0.0824
 9437SOL    HW139947   2.630   1.164   2.532  0.5867  0.1563  0.9214
 9437SOL    HW239948   2.531   1.062   2.561  2.7687 -1.6206 -1.1427
 9438SOL     OW39949   0.435   3.730   6.427  0.9745  0.1218  0.0331
 9438SOL    HW139950   0.351   3.776   6.429  1.4597  1.0214 -0.0955
 9438SOL    HW239951   0.394   3.647   6.401  0.0571  0.2517  1.0654
 9439SOL     OW39952   2.621   2.637   4.128  0.0524  0.5350  0.3951
 9439SOL    HW139953   2.660   2.694   4.061 -0.7228  0.6364  0.0311
 9439SOL    HW239954   2.633   2.694   4.204  1.9647  1.7767 -0.8130
 9440SOL     OW39955   3.058   1.398   4.506  0.1937  0.4028  0.0051
 9440SOL    HW139956   3.071   1.304   4.496 -0.6880  0.3279 -0.4524
 9440SOL    HW239957   3.122   1.425   4.572 -0.5443  2.3317 -0.0575
 9441SOL     OW39958   1.548   1.481  17.282 -0.3917 -0.1468  0.2814
 9441SOL    HW139959   1.475   1.448  17.335  0.8077  0.2912  2.2204
 9441SOL    HW239960   1.503   1.523  17.209 -0.7926 -1.6575 -0.3445
 9442SOL     OW39961   0.981   2.158   9.193 -0.0220  0.6058 -0.2684
 9442SOL    HW139962   1.031   2.076   9.201 -0.1906  0.7539  2.3136
 9442SOL    HW239963   1.043   2.224   9.223  0.5261 -0.2849  0.5685
 9443SOL     OW39964   4.119   4.378  13.904  0.5048 -0.6206  0.0952
 9443SOL    HW139965   4.039   4.422  13.876  0.3491 -0.2273  1.1486
 9443SOL    HW239966   4.197   4.433  13.902  1.2640 -1.6197  1.7829
 9444SOL     OW39967   0.220   1.772   5.285  0.0439  0.3135  0.3203
 9444SOL    HW139968   0.226   1.707   5.215 -0.1277  0.2153  0.3967
 9444SOL    HW239969   0.313   1.789   5.296  0.4171 -0.1724 -2.0582
 9445SOL     OW39970   4.420   1.158   9.429  0.6945 -0.3879  0.3460
 9445SOL    HW139971   4.459   1.228   9.377  0.7531 -0.7057 -0.0316
 9445SOL    HW239972   4.501   1.129   9.471  1.8876 -0.8125 -2.2721
 9446SOL     OW39973   1.665   0.011   3.620 -0.2624 -0.2864  0.2416
 9446SOL    HW139974   1.585   4.701   3.647 -0.5613 -0.4570 -0.9452
 9446SOL    HW239975   1.716   0.011   3.702  0.7138  0.3837 -0.3653
 9447SOL     OW39976   3.543   0.221   7.654  0.2501 -0.4319 -0.2456
 9447SOL    HW139977   3.538   0.257   7.742  0.7523 -1.4253  0.1913
 9447SOL    HW239978   3.638   0.218   7.662  0.2172  2.8610  1.3309
 9448SOL     OW39979   4.572   0.863  15.388  0.6269  0.3052 -0.5680
 9448SOL    HW139980   4.664   0.845  15.409 -0.2247 -0.9831  2.0288
 9448SOL    HW239981   4.535   0.779  15.412  1.9509 -0.1749 -0.1722
 9449SOL     OW39982   4.280   3.309   5.726 -0.6969  0.0873 -0.1770
 9449SOL    HW139983   4.192   3.345   5.714 -1.2516 -1.3001 -0.2405
 9449SOL    HW239984   4.251   3.279   5.812  2.3659 -1.0165  0.4722
 9450SOL     OW39985   0.702   3.395   3.955  0.0602  0.6232  0.4401
 9450SOL    HW139986   0.750   3.457   4.009  1.6325 -1.1671  1.1108
 9450SOL    HW239987   0.706   3.319   4.014 -1.2227 -1.2554 -1.8754
 9451SOL     OW39988   0.788   1.330  15.207 -0.0387 -0.3339 -0.0660
 9451SOL    HW139989   0.727   1.316  15.136  0.8518  2.2196 -1.3217
 9451SOL    HW239990   0.785   1.248  15.257 -0.9791  0.2311  0.7931
 9452SOL     OW39991   3.849   1.234  13.658  0.0350  0.2486 -0.0633
 9452SOL    HW139992   3.842   1.216  13.564 -1.9900  0.5393  0.0209
 9452SOL    HW239993   3.885   1.156  13.700 -0.8498 -0.4998 -0.6923
 9453SOL     OW39994   1.627   2.557   4.825  0.0124 -0.0175  0.4800
 9453SOL    HW139995   1.648   2.630   4.883  0.9410  1.3068 -1.5260
 9453SOL    HW239996   1.539   2.540   4.857 -0.7703 -0.3291 -1.8657
 9454SOL     OW39997   0.659   0.481   4.201  0.4639 -0.8033  0.2938
 9454SOL    HW139998   0.739   0.431   4.183  0.3446 -0.5553 -0.9100
 9454SOL    HW239999   0.640   0.461   4.293 -0.1984 -1.5262 -0.0089
 9455SOL     OW40000   0.800   1.524   5.532  0.3504  0.8809 -0.1436
 9455SOL    HW140001   0.793   1.605   5.583  2.1474  0.9163  0.0193
 9455SOL    HW240002   0.725   1.472   5.562  1.0222  0.4327  0.7277
 9456SOL     OW40003   3.007   0.643   4.772 -0.4411 -0.2803  0.5096
 9456SOL    HW140004   2.951   0.571   4.802  0.0272  0.4064  2.9864
 9456SOL    HW240005   2.966   0.710   4.826 -0.9845  0.9715 -1.4218
 9457SOL     OW40006   1.795   0.029  16.725  0.0199 -0.5321 -0.0157
 9457SOL    HW140007   1.751   0.111  16.746 -1.1350 -1.6173  1.8894
 9457SOL    HW240008   1.791   4.715  16.808 -3.9284 -0.3033 -0.0773
 9458SOL     OW40009   2.606   2.639   4.912 -0.0835  0.0461 -0.5718
 9458SOL    HW140010   2.598   2.685   4.829  0.2275 -0.4886 -0.9031
 9458SOL    HW240011   2.514   2.615   4.916  0.3711 -1.7047 -0.4653
 9459SOL     OW40012   1.992   4.518   9.838  0.4804  0.1676 -0.2748
 9459SOL    HW140013   2.077   4.475   9.838  0.2812 -0.2210 -0.6064
 9459SOL    HW240014   1.937   4.447   9.805 -1.2920  1.0251  0.7981
 9460SOL     OW40015   3.562   3.407   4.504  0.5337 -0.0942 -0.2429
 9460SOL    HW140016   3.588   3.385   4.594 -0.8381 -1.3208 -0.1483
 9460SOL    HW240017   3.543   3.319   4.470 -0.2522  0.3445 -0.9400
 9461SOL     OW40018   0.575   2.523  15.430  0.4729  0.3979 -0.7782
 9461SOL    HW140019   0.641   2.454  15.438 -0.4857 -0.5960 -1.4300
 9461SOL    HW240020   0.516   2.491  15.499 -0.1101  0.4780 -1.2336
 9462SOL     OW40021   2.275   2.357   3.438 -0.0187  0.0524  0.5575
 9462SOL    HW140022   2.245   2.396   3.520 -1.4433  0.2078 -0.0475
 9462SOL    HW240023   2.330   2.424   3.396 -0.4864  0.7288  1.0257
 9463SOL     OW40024   0.688   4.077  15.233  0.5430 -0.7379  0.0825
 9463SOL    HW140025   0.688   4.172  15.218 -1.0393 -1.0367 -1.6978
 9463SOL    HW240026   0.612   4.056  15.179 -0.8044  2.4730  0.7103
 9464SOL     OW40027   0.329   0.599   9.398 -0.4424  0.5162 -0.0514
 9464SOL    HW140028   0.288   0.682   9.375 -0.5651  0.3064 -0.6065
 9464SOL    HW240029   0.256   0.547   9.431  0.3640  0.3801  1.4988
 9465SOL     OW40030   0.760   0.492   2.673 -0.5408  0.3285  0.7369
 9465SOL    HW140031   0.762   0.446   2.589 -1.2579  2.1556 -0.2984
 9465SOL    HW240032   0.817   0.434   2.723 -1.0719  0.9333  2.0369
 9466SOL     OW40033   2.418   3.434   0.098  0.2538 -0.2591 -0.4477
 9466SOL    HW140034   2.504   3.436   0.139 -0.0536 -1.2432  0.2570
 9466SOL    HW240035   2.377   3.521   0.095  1.2643  0.2715  0.8712
 9467SOL     OW40036   1.789   0.738  17.405 -0.2372 -0.2334  0.3154
 9467SOL    HW140037   1.850   0.666  17.421  0.7273  0.0959 -1.8863
 9467SOL    HW240038   1.801   0.756  17.312  2.2619 -0.3155  0.6052
 9468SOL     OW40039   2.317   3.481  10.801 -0.1329  0.3359  0.3193
 9468SOL    HW140040   2.260   3.431  10.860 -0.4467  0.1582 -0.1317
 9468SOL    HW240041   2.323   3.568  10.840 -1.9885  0.5188  0.1875
 9469SOL     OW40042   3.551   2.015  14.993 -0.0819 -0.0337 -0.4537
 9469SOL    HW140043   3.536   2.109  15.001  0.6963 -0.4550  5.2954
 9469SOL    HW240044   3.577   1.994  15.082  0.0717  0.0611 -0.4760
 9470SOL     OW40045   4.084   2.940   1.518 -0.7058 -0.4073 -0.3185
 9470SOL    HW140046   4.010   2.949   1.579 -0.3764  0.6751 -0.0906
 9470SOL    HW240047   4.078   3.021   1.468  1.5415 -0.6717 -0.9966
 9471SOL     OW40048   4.209   1.433  15.424  0.0080  0.0359 -0.5692
 9471SOL    HW140049   4.127   1.388  15.403 -0.1539  0.4590 -0.8505
 9471SOL    HW240050   4.256   1.369  15.477  0.0631  0.3151 -0.2834
 9472SOL     OW40051   2.856   0.927   7.989  0.1965 -0.1008  0.4073
 9472SOL    HW140052   2.911   0.855   7.959  1.1343  0.3749  1.0128
 9472SOL    HW240053   2.842   0.984   7.913 -0.2602  1.5024  1.6933
 9473SOL     OW40054   1.756   3.934  12.596 -0.4583 -0.3364 -0.2415
 9473SOL    HW140055   1.743   3.843  12.621  3.1044 -1.1546 -1.3192
 9473SOL    HW240056   1.699   3.937  12.519  0.1648 -1.4323 -0.7391
 9474SOL     OW40057   0.075   2.217  10.852  0.1323 -0.5293  0.0305
 9474SOL    HW140058   0.136   2.142  10.856  1.3386  0.4573  0.2657
 9474SOL    HW240059   0.121   2.264  10.783 -1.5301 -1.0147 -1.4067
 9475SOL     OW40060   0.671   2.618   7.312  0.5335  0.0851  0.2230
 9475SOL    HW140061   0.733   2.638   7.242  2.3447  1.2554  2.1423
 9475SOL    HW240062   0.599   2.664   7.269 -0.6870 -1.8676  0.1923
 9476SOL     OW40063   2.070   2.185   4.494  0.4918 -0.6052  0.0239
 9476SOL    HW140064   2.025   2.239   4.428 -0.9429 -1.0932  0.6076
 9476SOL    HW240065   2.038   2.098   4.469  1.1919 -1.3801  1.8316
 9477SOL     OW40066   4.389   0.246   6.391 -0.3082 -0.3260 -0.3624
 9477SOL    HW140067   4.320   0.218   6.452  1.1799 -1.6908  0.7125
 9477SOL    HW240068   4.437   0.303   6.452 -0.3070  1.7058 -2.2839
 9478SOL     OW40069   2.034   2.476   4.713  0.5407 -0.4184  0.5229
 9478SOL    HW140070   1.958   2.454   4.660 -0.1735  0.6544  1.1261
 9478SOL    HW240071   2.032   2.570   4.697  0.1575 -0.1852  1.9132
 9479SOL     OW40072   3.702   0.212  10.371 -0.1409 -0.1522  0.3453
 9479SOL    HW140073   3.726   0.303  10.350  2.8830 -0.3294  2.9839
 9479SOL    HW240074   3.781   0.163  10.349 -1.2543 -0.8730 -2.0470
 9480SOL     OW40075   1.387   2.177   5.627 -0.5275  0.2809  0.3323
 9480SOL    HW140076   1.411   2.270   5.625 -0.7276  0.3534  1.1712
 9480SOL    HW240077   1.323   2.168   5.698 -0.2536  0.7366  0.6410
 9481SOL     OW40078   4.658   0.111   4.835 -0.0835  0.2372 -0.2428
 9481SOL    HW140079   4.623   0.079   4.917  2.9017 -0.0733  0.9302
 9481SOL    HW240080   4.699   0.190   4.871  0.7896 -0.0870 -0.5166
 9482SOL     OW40081   4.712   1.377   4.721  0.3878 -0.0097  0.3708
 9482SOL    HW140082   4.694   1.430   4.799  1.7696  1.4527 -0.3003
 9482SOL    HW240083   4.645   1.309   4.724 -0.8256  1.1089 -1.3011
 9483SOL     OW40084   1.542   0.152  17.035 -0.6252  0.0257 -0.9085
 9483SOL    HW140085   1.455   0.144  16.995 -0.1361 -1.0702 -1.7499
 9483SOL    HW240086   1.590   0.202  16.970 -1.3699  1.6247 -0.2294
 9484SOL     OW40087   3.910   1.320   3.525  0.1158  0.3845  0.0579
 9484SOL    HW140088   3.950   1.247   3.573  0.0409  1.7968  2.2517
 9484SOL    HW240089   3.978   1.387   3.531  2.0556 -1.4950 -1.4316
 9485SOL     OW40090   3.139   1.088   4.868  0.1015 -0.1869  0.0884
 9485SOL    HW140091   3.199   1.056   4.801 -0.4612  0.2655 -0.6274
 9485SOL    HW240092   3.070   1.023   4.853 -0.5505 -0.1410  2.8214
 9486SOL     OW40093   1.945   1.800   8.753  0.0765 -0.4550  0.1209
 9486SOL    HW140094   1.924   1.781   8.662  0.8242 -2.9074  0.4520
 9486SOL    HW240095   1.982   1.716   8.780  1.3668  0.2064  0.4353
 9487SOL     OW40096   4.484   1.857  16.161  0.0578 -0.9284 -0.1733
 9487SOL    HW140097   4.428   1.827  16.090  0.4430 -4.3042  0.9473
 9487SOL    HW240098   4.427   1.920  16.205 -0.3407 -1.0613 -0.4992
 9488SOL     OW40099   2.080   4.596  16.331 -0.0165 -0.5850  0.3743
 9488SOL    HW140100   2.168   4.633  16.321  0.3672 -1.2569  1.2640
 9488SOL    HW240101   2.051   4.631  16.415  0.9745 -2.3897  1.4738
 9489SOL     OW40102   3.669   1.830  16.612  0.4561 -0.7310 -0.1402
 9489SOL    HW140103   3.601   1.888  16.646 -0.4062 -1.4460 -0.6328
 9489SOL    HW240104   3.667   1.843  16.518 -0.7683  2.1669  0.2934
 9490SOL     OW40105   0.757   2.754   2.823  0.0297 -0.2677 -0.3159
 9490SOL    HW140106   0.747   2.659   2.814  0.9717 -0.0091 -4.1064
 9490SOL    HW240107   0.848   2.755   2.795 -0.1057 -1.6222 -0.8348
 9491SOL     OW40108   2.428   2.521   4.485 -0.2845 -0.0180  0.0158
 9491SOL    HW140109   2.434   2.470   4.404 -0.3701  0.9169 -0.5793
 9491SOL    HW240110   2.375   2.470   4.546  1.4920 -0.6930  0.9984
 9492SOL     OW40111   2.481   4.002  11.846 -0.2969  0.0907 -0.2817
 9492SOL    HW140112   2.430   3.987  11.766 -1.0096  1.2623 -0.0345
 9492SOL    HW240113   2.452   4.090  11.871 -1.5367 -0.8064  1.4286
 9493SOL     OW40114   2.479   0.411   3.554  0.6070  0.5165  0.1369
 9493SOL    HW140115   2.438   0.368   3.628  0.5206 -1.0698 -0.8312
 9493SOL    HW240116   2.401   0.411   3.498  2.0223  1.7496 -1.8466
 9494SOL     OW40117   0.961   3.258   4.640 -0.3704  0.0031  0.0818
 9494SOL    HW140118   1.023   3.195   4.604  0.1012  0.1365  0.6497
 9494SOL    HW240119   0.878   3.214   4.619 -0.6814  1.4251 -1.6046
 9495SOL     OW40120   3.427   1.706   3.279 -0.6449 -0.0402 -0.2014
 9495SOL    HW140121   3.415   1.612   3.265 -1.5315 -0.1005  1.0093
 9495SOL    HW240122   3.377   1.735   3.202  1.2589 -0.0477 -1.4430
 9496SOL     OW40123   1.971   3.599   7.728 -0.2579  0.3596 -0.2686
 9496SOL    HW140124   1.894   3.640   7.769 -0.1759  0.3403 -0.0971
 9496SOL    HW240125   1.974   3.511   7.765  0.3520  0.9751  1.1251
 9497SOL     OW40126   0.292   2.957   7.457  0.2627  0.2725 -0.4760
 9497SOL    HW140127   0.258   3.041   7.490 -1.4094 -1.0552  1.1874
 9497SOL    HW240128   0.378   2.974   7.419  3.0390 -1.7743  4.8384
 9498SOL     OW40129   0.881   4.434   4.658 -0.1102 -0.7327 -0.3544
 9498SOL    HW140130   0.821   4.442   4.584  0.6064  0.3849 -0.8185
 9498SOL    HW240131   0.960   4.481   4.631 -1.1308  0.1823 -1.7581
 9499SOL     OW40132   2.972   3.724  14.018  0.8241 -0.2629 -0.1325
 9499SOL    HW140133   2.943   3.813  13.995  2.7219  0.8835  1.8691
 9499SOL    HW240134   3.018   3.744  14.100  1.2113 -2.0198  0.0863
 9500SOL     OW40135   4.533   4.032  16.599  0.2250  0.2057  0.1763
 9500SOL    HW140136   4.501   4.122  16.603  0.5714  0.3426 -0.0919
 9500SOL    HW240137   4.531   4.008  16.692 -0.8090  1.5791  0.4956
 9501SOL     OW40138   4.441   4.622  10.243  0.1394 -0.0823  0.5559
 9501SOL    HW140139   4.351   4.621  10.210  0.5682  1.8281 -0.6916
 9501SOL    HW240140   4.461   4.708  10.279  0.1564  0.2210 -0.1708
 9502SOL     OW40141   4.555   4.158  15.279 -0.0232  0.4003  0.3648
 9502SOL    HW140142   4.631   4.133  15.331 -1.2397 -2.4908  0.7683
 9502SOL    HW240143   4.511   4.217  15.340 -0.1438 -0.3707  1.0143
 9503SOL     OW40144   2.468   1.264   7.072 -0.0289  0.2762 -0.3721
 9503SOL    HW140145   2.479   1.184   7.020 -0.5389 -0.3191  0.4542
 9503SOL    HW240146   2.470   1.328   7.000 -0.7997 -0.7166 -1.2912
 9504SOL     OW40147   4.179   1.070   3.453 -0.3870  0.1797 -0.7080
 9504SOL    HW140148   4.123   1.008   3.406  0.5975 -0.3907 -1.1375
 9504SOL    HW240149   4.147   1.068   3.543 -1.0514 -1.3745 -0.9785
 9505SOL     OW40150   1.266   3.226   7.943  0.3322 -0.1095  0.1279
 9505SOL    HW140151   1.229   3.147   7.982  0.9494 -1.6808 -2.4671
 9505SOL    HW240152   1.333   3.182   7.890  0.2048  0.2670 -0.3425
 9506SOL     OW40153   2.064   3.556   7.134  0.3821  0.1935 -0.3631
 9506SOL    HW140154   2.082   3.502   7.212  0.5080  0.2143 -0.3770
 9506SOL    HW240155   2.112   3.634   7.161 -1.5702  0.4547  2.3359
 9507SOL     OW40156   4.711   1.673   5.802  0.1269 -0.4728 -0.0827
 9507SOL    HW140157   4.724   1.594   5.749 -1.7095  0.6153 -2.1787
 9507SOL    HW240158   0.033   1.732   5.751  1.2157 -0.8397  0.7115
 9508SOL     OW40159   3.089   1.762   4.222 -0.1850  0.2534  0.1600
 9508SOL    HW140160   3.097   1.669   4.200 -0.5446  0.5707 -1.2960
 9508SOL    HW240161   3.040   1.771   4.304 -0.1835 -0.9632  0.2919
 9509SOL     OW40162   0.745   4.407   6.828  0.3422  0.2615  0.2258
 9509SOL    HW140163   0.657   4.423   6.861 -0.1323 -2.8112  0.4979
 9509SOL    HW240164   0.762   4.463   6.752  0.2769  0.4933  0.3848
 9510SOL     OW40165   3.646   3.600   2.845 -0.4652  0.1666 -0.1366
 9510SOL    HW140166   3.714   3.621   2.910  0.0429  0.4701 -0.7713
 9510SOL    HW240167   3.701   3.624   2.770 -0.9853 -0.1837 -0.6213
 9511SOL     OW40168   1.549   4.480   4.023  0.3080 -0.0372 -0.0441
 9511SOL    HW140169   1.527   4.391   3.996  2.3286 -0.2342 -1.0621
 9511SOL    HW240170   1.493   4.530   3.963 -1.4131  0.3805  1.9366
 9512SOL     OW40171   0.432   3.438   1.178 -0.3822 -0.3167  0.2435
 9512SOL    HW140172   0.357   3.426   1.120 -2.0293  1.1443  2.1283
 9512SOL    HW240173   0.402   3.392   1.256 -1.3869  1.2289  0.7571
 9513SOL     OW40174   4.198   1.970   1.437  0.2082  0.7424 -0.1045
 9513SOL    HW140175   4.176   1.940   1.349  1.3328  0.3152 -0.2456
 9513SOL    HW240176   4.230   2.059   1.420  2.4765  0.3759  2.3036
 9514SOL     OW40177   3.499   0.074   9.109  0.0336 -0.6572 -0.1852
 9514SOL    HW140178   3.428   0.098   9.049 -0.0450  0.4777  0.3558
 9514SOL    HW240179   3.502   4.727   9.060  0.1989 -1.1294  0.6208
 9515SOL     OW40180   4.116   2.438   5.334  0.1901  0.0936 -0.1342
 9515SOL    HW140181   4.057   2.468   5.265  1.6770  2.8540 -0.2159
 9515SOL    HW240182   4.167   2.518   5.352 -2.8427  1.3921  2.5800
 9516SOL     OW40183   1.728   4.048  10.885 -0.0184  0.0486 -0.9675
 9516SOL    HW140184   1.672   4.019  10.813 -0.9282  1.3342 -0.7743
 9516SOL    HW240185   1.808   4.076  10.842 -0.1779 -0.9602 -1.9320
 9517SOL     OW40186   2.433   3.267  11.566 -0.1309  0.2733  0.5930
 9517SOL    HW140187   2.491   3.198  11.534 -3.7486 -1.2478 -2.6726
 9517SOL    HW240188   2.437   3.261  11.662 -0.9119  0.2973  0.6284
 9518SOL     OW40189   0.756   2.730  12.040  0.5846  0.6150  0.4053
 9518SOL    HW140190   0.751   2.648  12.089  3.0164  0.1617 -0.1040
 9518SOL    HW240191   0.680   2.777  12.073 -0.0368  1.4013 -2.1584
 9519SOL     OW40192   2.404   3.350  10.572 -0.3030  0.2612  0.0736
 9519SOL    HW140193   2.314   3.374  10.550  0.1431 -0.4332 -2.4278
 9519SOL    HW240194   2.407   3.399  10.655  2.0278  1.1452 -0.5357
 9520SOL     OW40195   4.654   3.279   7.425  0.1845  0.5579  0.0916
 9520SOL    HW140196   4.604   3.197   7.414  0.7099 -0.0271  2.0506
 9520SOL    HW240197   4.723   3.240   7.478 -0.8998  0.4163  1.4090
 9521SOL     OW40198   2.998   4.031   2.862  0.9101  0.5803 -0.1485
 9521SOL    HW140199   3.050   3.996   2.789 -0.6408 -3.3374  0.6492
 9521SOL    HW240200   3.005   4.125   2.844  0.3770  0.9143  1.4712
 9522SOL     OW40201   3.199   3.906   8.389 -0.2938  0.3028 -0.0387
 9522SOL    HW140202   3.119   3.923   8.339 -1.2814 -0.5132  1.2794
 9522SOL    HW240203   3.258   3.960   8.335  0.7074 -0.9250 -0.1623
 9523SOL     OW40204   3.582   1.713   4.720  0.3890  0.6171 -0.4011
 9523SOL    HW140205   3.576   1.777   4.650 -0.2644  0.8698 -0.1129
 9523SOL    HW240206   3.613   1.764   4.794  2.8007  0.7242 -1.4792
 9524SOL     OW40207   1.268   2.054  15.567  0.2245 -0.3979  0.6499
 9524SOL    HW140208   1.295   1.965  15.593  1.7810  0.8240  3.2298
 9524SOL    HW240209   1.250   2.093  15.652  1.9372  2.1773 -0.1831
 9525SOL     OW40210   2.412   1.306   9.708  0.1605  0.3644 -0.5600
 9525SOL    HW140211   2.340   1.310   9.770  1.0463  0.3026  0.4818
 9525SOL    HW240212   2.368   1.257   9.639  1.1819  0.9414 -1.6301
 9526SOL     OW40213   2.174   0.928   4.114 -0.1797  0.6935 -0.1618
 9526SOL    HW140214   2.231   0.857   4.145 -1.4033  0.1642  0.8457
 9526SOL    HW240215   2.180   0.999   4.178  0.8550 -0.2000  0.7275
 9527SOL     OW40216   3.945   2.563   8.716  0.4991 -0.1639 -0.3989
 9527SOL    HW140217   3.980   2.642   8.675  0.7293 -0.5359 -0.9119
 9527SOL    HW240218   3.988   2.561   8.802  1.2460 -1.5076 -0.7990
 9528SOL     OW40219   0.631   4.721   8.670 -0.1672  0.5230  0.0718
 9528SOL    HW140220   0.692   0.056   8.696  0.3883  0.1972 -0.3530
 9528SOL    HW240221   0.554   0.031   8.636 -0.3151 -0.4671 -0.8929
 9529SOL     OW40222   0.883   1.040  10.122  0.0924  0.5587 -0.4831
 9529SOL    HW140223   0.864   0.949  10.146 -0.7131  0.6456 -0.7998
 9529SOL    HW240224   0.831   1.088  10.187 -1.0749 -0.2585 -0.8131
 9530SOL     OW40225   4.625   4.504  11.291  0.3438  0.2769 -0.1167
 9530SOL    HW140226   4.652   4.563  11.361 -2.3552  1.0180  0.3001
 9530SOL    HW240227   4.646   4.415  11.319 -1.7723 -0.0903  0.3636
 9531SOL     OW40228   4.662   0.145   3.654  0.0383  0.3595  0.1311
 9531SOL    HW140229   4.697   0.087   3.721 -0.6142  1.4235  1.3879
 9531SOL    HW240230   4.595   0.188   3.707 -0.8250  1.1931 -1.6322
 9532SOL     OW40231   3.991   0.706   1.517 -0.1616  0.2764  0.0118
 9532SOL    HW140232   3.950   0.620   1.526  0.8672 -0.1286  0.7527
 9532SOL    HW240233   3.942   0.757   1.582  1.8641  1.3729  0.6914
 9533SOL     OW40234   1.860   3.414   3.680  0.2745 -0.1433 -0.4947
 9533SOL    HW140235   1.842   3.354   3.753 -0.0137  1.8872  1.1043
 9533SOL    HW240236   1.829   3.372   3.600  0.8434  1.3029 -1.4766
 9534SOL     OW40237   2.315   3.028   9.464 -0.4778  0.2790  0.2099
 9534SOL    HW140238   2.405   3.034   9.432 -0.6482  1.1507 -0.1260
 9534SOL    HW240239   2.279   2.984   9.387  1.6869 -0.4207 -0.3972
 9535SOL     OW40240   3.458   2.970   0.360  0.2180  0.3780 -0.0958
 9535SOL    HW140241   3.523   2.901   0.349 -1.2034 -0.7389 -1.4527
 9535SOL    HW240242   3.500   3.038   0.308 -0.4882  0.0495 -1.0903
 9536SOL     OW40243   3.099   4.187  13.517 -0.3969 -0.0637 -0.2793
 9536SOL    HW140244   3.158   4.262  13.526  0.6960 -0.8674 -0.7159
 9536SOL    HW240245   3.118   4.148  13.602  0.9605  0.6729 -0.2347
 9537SOL     OW40246   4.503   2.176   9.637  0.2507 -0.4650  0.5292
 9537SOL    HW140247   4.432   2.162   9.699  0.0879  3.1635  1.1957
 9537SOL    HW240248   4.572   2.139   9.692  1.4797  1.6763  0.4505
 9538SOL     OW40249   1.253   3.646   1.427  0.1506  0.0107 -0.2178
 9538SOL    HW140250   1.205   3.702   1.365 -1.3080 -0.1443  0.7841
 9538SOL    HW240251   1.186   3.587   1.461  2.3722 -2.4354 -0.0852
 9539SOL     OW40252   2.554   0.453   2.455 -0.2053 -0.5184 -0.2449
 9539SOL    HW140253   2.547   0.368   2.411  0.4852 -0.0844 -1.1782
 9539SOL    HW240254   2.560   0.508   2.377  1.1780 -0.0872  0.1711
 9540SOL     OW40255   0.733   4.618   7.240  0.2142  0.1903  0.4506
 9540SOL    HW140256   0.788   4.622   7.161  0.5569  2.3728  0.8231
 9540SOL    HW240257   0.677   4.544   7.215  2.0379 -1.2873  0.7187
 9541SOL     OW40258   3.900   2.516  14.586 -0.1597 -1.0045  0.1668
 9541SOL    HW140259   3.948   2.436  14.611 -0.1045 -0.7539  0.8707
 9541SOL    HW240260   3.830   2.470  14.540  0.2657 -0.8013 -0.6695
 9542SOL     OW40261   4.175   1.053   9.314 -0.0068 -0.0457 -0.2325
 9542SOL    HW140262   4.254   1.081   9.360 -0.7744 -0.1149  1.1391
 9542SOL    HW240263   4.222   0.986   9.264  0.3689 -0.0923  0.1842
 9543SOL     OW40264   1.136   0.998   4.029  0.1470 -0.6149  0.0052
 9543SOL    HW140265   1.105   1.089   4.029  0.9361 -0.3361  2.3026
 9543SOL    HW240266   1.147   0.985   3.935  1.2395 -0.4847  0.1100
 9544SOL     OW40267   4.720   0.870  16.869 -0.3221  0.0789  0.3755
 9544SOL    HW140268   4.704   0.924  16.947  0.1975 -0.3971  0.8162
 9544SOL    HW240269   0.081   0.871  16.863 -0.4760 -0.5946 -1.9739
 9545SOL     OW40270   4.271   2.293   2.940 -0.6503 -0.3071  0.4941
 9545SOL    HW140271   4.292   2.212   2.895  1.8889  0.5186  0.1705
 9545SOL    HW240272   4.250   2.351   2.866 -0.6404 -0.1249  0.6338
 9546SOL     OW40273   0.618   2.697   3.468 -0.3776  0.2140 -0.2747
 9546SOL    HW140274   0.675   2.668   3.397  0.1588 -1.5279  0.8631
 9546SOL    HW240275   0.686   2.712   3.534 -2.2113 -1.3594  1.9867
 9547SOL     OW40276   2.873   1.421   0.602  0.0263 -0.1669 -0.1581
 9547SOL    HW140277   2.962   1.447   0.623 -0.4543  0.8575  0.6147
 9547SOL    HW240278   2.895   1.335   0.565  0.3653 -0.7977  1.5046
 9548SOL     OW40279   1.558   0.252  14.309  0.3035 -0.4396  0.2750
 9548SOL    HW140280   1.586   0.211  14.228  0.8723  1.5018 -0.5041
 9548SOL    HW240281   1.505   0.322  14.270 -1.3775 -2.4832 -1.0615
 9549SOL     OW40282   3.693   0.287   9.745 -0.5241  0.3360 -0.2245
 9549SOL    HW140283   3.601   0.306   9.726  0.3605  0.9326 -3.9501
 9549SOL    HW240284   3.678   0.195   9.768 -0.6178 -0.2975 -2.7925
 9550SOL     OW40285   4.417   4.013   3.850  0.1322 -0.6473  0.2331
 9550SOL    HW140286   4.337   3.959   3.851 -2.4195  3.1621  1.2533
 9550SOL    HW240287   4.468   3.985   3.774  0.2616  0.4988 -0.0933
 9551SOL     OW40288   4.214   0.797  14.087 -0.0908 -0.1735  0.3578
 9551SOL    HW140289   4.173   0.883  14.078 -2.9713 -1.7522 -1.3872
 9551SOL    HW240290   4.304   0.817  14.113 -0.1228  0.0763  0.2778
 9552SOL     OW40291   4.418   0.400   3.651  0.0619 -0.6069 -0.4604
 9552SOL    HW140292   4.334   0.397   3.606 -1.1037  1.5320  1.5785
 9552SOL    HW240293   4.417   0.316   3.697  0.3049 -0.4237 -0.1216
 9553SOL     OW40294   0.615   3.953   7.344  0.1000 -0.1058 -0.1925
 9553SOL    HW140295   0.593   3.984   7.255  1.4304  1.1811 -0.0788
 9553SOL    HW240296   0.642   3.864   7.321 -1.2894 -0.3381 -0.9725
 9554SOL     OW40297   0.414   0.731  16.527  0.0712  0.1810  0.2946
 9554SOL    HW140298   0.465   0.780  16.462  0.8817 -1.2847 -0.1841
 9554SOL    HW240299   0.456   0.747  16.611 -1.8356 -2.7317  1.7920
 9555SOL     OW40300   1.368   0.345   0.743 -0.1201  0.7033 -0.2424
 9555SOL    HW140301   1.393   0.329   0.652 -0.7761  2.0835 -0.6552
 9555SOL    HW240302   1.450   0.353   0.793 -0.1186 -1.2551  0.1010
 9556SOL     OW40303   3.707   2.890   7.908 -0.3333  0.4339 -0.1148
 9556SOL    HW140304   3.750   2.943   7.976 -0.3503 -0.4070  0.5540
 9556SOL    HW240305   3.782   2.858   7.858  0.1939  0.4742  0.6507
 9557SOL     OW40306   3.297   2.364   6.444 -0.8364  0.9266 -0.4256
 9557SOL    HW140307   3.208   2.382   6.416 -1.3411 -1.2034 -0.1879
 9557SOL    HW240308   3.309   2.269   6.439 -1.1244  0.9107 -0.8562
 9558SOL     OW40309   1.290   1.568   5.199  0.1137 -0.9179 -0.2514
 9558SOL    HW140310   1.258   1.565   5.290 -1.1253  0.8755 -0.6426
 9558SOL    HW240311   1.287   1.663   5.199 -0.6586 -0.9359  1.5036
 9559SOL     OW40312   1.731   2.645   8.179 -0.6024  0.5470 -0.5038
 9559SOL    HW140313   1.760   2.736   8.189  2.6700 -0.5566 -0.0084
 9559SOL    HW240314   1.808   2.604   8.140  1.5718  3.6295  0.4967
 9560SOL     OW40315   3.221   4.318   7.411 -0.1769 -0.3614  0.5759
 9560SOL    HW140316   3.166   4.241   7.396 -1.4894  0.8447 -0.7369
 9560SOL    HW240317   3.174   4.366   7.478 -0.6617  2.2080 -1.6056
 9561SOL     OW40318   0.434   2.470   5.263 -0.3120 -0.1021 -0.2684
 9561SOL    HW140319   0.501   2.431   5.206 -1.6992 -1.5407 -0.9159
 9561SOL    HW240320   0.449   2.556   5.223 -1.2052  0.4287  0.5583
 9562SOL     OW40321   2.132   2.873   7.480  0.7547 -0.0145 -0.2963
 9562SOL    HW140322   2.159   2.957   7.442  1.2610  0.4388  1.0604
 9562SOL    HW240323   2.204   2.819   7.448  1.0873 -0.9882  2.0688
 9563SOL     OW40324   4.630   2.634   3.025  0.5809 -0.1223 -0.6160
 9563SOL    HW140325   4.559   2.571   3.012  0.5845 -0.5713  1.6083
 9563SOL    HW240326   4.621   2.680   2.942  1.1152 -0.8859 -1.1018
 9564SOL     OW40327   0.121   1.091   6.012 -0.6265  0.2605  0.2491
 9564SOL    HW140328   0.037   1.127   5.982 -0.5824 -1.5020 -1.9466
 9564SOL    HW240329   0.169   1.173   6.018 -1.9779  0.9437  1.7568
 9565SOL     OW40330   0.504   0.798   4.674  0.3492 -0.7049 -0.0986
 9565SOL    HW140331   0.591   0.761   4.665  0.1933 -1.3426  1.0248
 9565SOL    HW240332   0.523   0.888   4.647 -2.3975  0.3372  1.3567
 9566SOL     OW40333   0.885   3.690   5.672 -0.1107  0.1912 -0.5242
 9566SOL    HW140334   0.874   3.642   5.590 -0.1278  0.6101 -0.7673
 9566SOL    HW240335   0.849   3.771   5.637  0.0293 -0.0717 -1.2843
 9567SOL     OW40336   0.746   1.128  15.406 -0.3895  0.4066  0.6352
 9567SOL    HW140337   0.691   1.182  15.463  1.3092  1.4628  1.2806
 9567SOL    HW240338   0.692   1.074  15.348  0.9792 -1.2573  0.9112
 9568SOL     OW40339   2.903   4.355  13.010  0.3174  0.0852 -0.1269
 9568SOL    HW140340   2.911   4.293  13.082 -0.1614 -1.4526 -1.3864
 9568SOL    HW240341   2.904   4.437  13.059 -4.7123  0.5553 -0.8499
 9569SOL     OW40342   3.719   1.611  11.991 -0.6306 -0.3722  0.0454
 9569SOL    HW140343   3.690   1.595  11.901 -1.3573  0.6686  0.0913
 9569SOL    HW240344   3.728   1.706  11.989 -0.7689 -0.3303  1.1766
   4.73477   4.73477  17.73801
