Membrane in water
40344
    1TMC1    C1    1   2.302   4.534  11.266 -0.9443  1.0012 -0.0569
    1TMC1    C2    2   2.275   4.480  11.137  0.3472  0.5568 -0.3019
    1TMC1    C3    3   2.305   4.562  11.032 -0.1443  0.2529  0.9357
    1TMC1    C4    4   2.362   4.652  11.279  0.4988  0.4768 -0.1944
    1TMC1    C5    5   2.390   4.727  11.171  0.6606 -0.2200  0.1628
    1TMC1    C6    6   2.353   4.684  11.050  0.2869 -0.3801  0.6996
    1TMC1     C    7   2.294   4.448  11.385 -0.0972 -0.6289  0.0278
    1TMC1     O    8   2.286   4.513  11.485  0.2144 -0.3760 -0.1581
    1TMC1     H    9   2.215   4.393  11.112 -0.7831  1.4749 -0.8188
    1TMC1    H1   10   2.375   4.700  11.376 -1.3417  0.2455  0.1577
    1TMC1    H2   11   2.370   0.013  10.967  2.5885  0.4661  1.8396
    1TMC1    C7   12   2.466   0.108  11.179 -0.0244  0.9157 -0.5428
    1TMC1    C8   13   2.301   4.507  10.900  0.1136 -0.4406 -0.9196
    1TMC1    O1   14   2.470   0.183  11.275  0.2608 -0.2400 -0.2092
    1TMC1    O2   15   2.222   4.420  10.870 -0.0381 -0.1168 -0.7049
    1TMC1    O3   16   2.553   0.110  11.076  0.7238 -0.3390 -0.3297
    1TMC1    H3   17   2.558   0.023  11.032  0.8830 -0.6492  0.3060
    1TMC1    O5   18   2.433   4.489  10.886 -0.4267 -1.0184 -0.5108
    1TMC1    H5   19   2.491   4.560  10.921 -1.6565 -0.4606  0.3944
    2MPD2     C   20   2.178   4.020  11.639  0.0798  0.2441  1.1246
    2MPD2    C1   21   2.181   4.149  11.680 -0.1277  0.3373  0.1564
    2MPD2    C2   22   2.209   4.252  11.597  0.0635 -0.4390  0.0105
    2MPD2    C3   23   2.238   4.223  11.461 -0.1947  0.9039  0.0889
    2MPD2    C4   24   2.237   4.088  11.420 -0.0911  0.7212  0.3448
    2MPD2    C5   25   2.190   3.991  11.505 -0.0332 -0.2339 -0.2966
    2MPD2     H   26   2.210   4.357  11.626 -1.2403 -0.7302  1.1453
    2MPD2    H1   27   2.261   4.054  11.320  0.9993  4.1386 -0.5608
    2MPD2    H2   28   2.156   3.944  11.713  0.6043  1.3165  2.3834
    2MPD2    H3   29   2.187   3.887  11.473 -1.9677 -0.6911  1.3466
    2MPD2     N   30   2.277   4.318  11.360 -0.2929  0.0553  0.2164
    2MPD2    H5   31   2.282   4.291  11.262  0.8901 -1.9551  0.8162
    2MPD2    N1   32   2.148   4.187  11.814  0.0759  0.1988 -0.3129
    2MPD2    H7   33   2.156   4.286  11.837 -0.1245 -0.0243  0.6957
    3TMC1    C1   34   1.323   2.684  11.270  0.2580  0.1082 -0.4484
    3TMC1    C2   35   1.197   2.656  11.320  0.1636  0.2705 -0.0270
    3TMC1    C3   36   1.095   2.734  11.272 -0.3959 -0.1725  0.8043
    3TMC1    C4   37   1.345   2.775  11.171 -0.0467  0.4911  0.3031
    3TMC1    C5   38   1.235   2.844  11.122  0.2705  1.2443  0.7468
    3TMC1    C6   39   1.109   2.819  11.166 -0.1878  0.8122  0.5659
    3TMC1     C   40   1.438   2.646  11.350  0.2116 -0.4276 -0.1209
    3TMC1     O   41   1.545   2.682  11.301 -0.1278 -0.3899 -0.4479
    3TMC1     H   42   1.189   2.587  11.403 -1.1487 -0.2563 -0.5948
    3TMC1    H1   43   1.447   2.796  11.140  0.1590  1.1278  1.4222
    3TMC1    H2   44   1.024   2.862  11.113 -0.0218 -0.3110 -0.5947
    3TMC1    C7   45   1.263   2.941  11.015 -0.3271 -0.0055  0.4104
    3TMC1    C8   46   0.956   2.691  11.289 -0.6031 -0.6405 -0.5110
    3TMC1    O1   47   1.327   2.922  10.918  0.5147 -0.6111  0.1272
    3TMC1    O2   48   0.869   2.672  11.204  0.4891  0.1745  0.2786
    3TMC1    O3   49   1.176   3.040  11.039  0.3749 -0.0239 -0.2857
    3TMC1    H3   50   1.128   3.035  11.124 -1.0995  0.3957 -1.0894
    3TMC1    O5   51   0.953   2.628  11.409 -0.0473 -0.3339  0.0304
    3TMC1    H5   52   1.013   2.673  11.472  0.5112 -0.4491 -0.4162
    4MPD2     C   53   1.677   2.361  11.699  0.0699  0.1379 -0.3190
    4MPD2    C1   54   1.542   2.332  11.697  0.0918  0.6067 -0.0637
    4MPD2    C2   55   1.462   2.394  11.606 -1.1058  0.4339  0.5480
    4MPD2    C3   56   1.514   2.493  11.521 -0.0504  0.2392 -0.6127
    4MPD2    C4   57   1.647   2.534  11.538 -0.0434  0.0330  0.7990
    4MPD2    C5   58   1.728   2.464  11.622  0.2589  0.8591 -0.0783
    4MPD2     H   59   1.357   2.374  11.585 -1.2589 -1.2384  2.9093
    4MPD2    H1   60   1.692   2.614  11.481  1.2578 -0.4241  1.1896
    4MPD2    H2   61   1.734   2.317  11.779 -1.0227 -0.8167 -0.0629
    4MPD2    H3   62   1.833   2.488  11.628 -0.0934  2.4098 -0.0725
    4MPD2     N   63   1.418   2.551  11.443  0.2500  0.0037 -0.1450
    4MPD2    H5   64   1.326   2.508  11.436 -0.4569  1.4608  0.1589
    4MPD2    N1   65   1.488   2.237  11.791  0.0595 -0.0368  0.7370
    4MPD2    H7   66   1.553   2.182  11.846  0.1855 -3.6289 -3.0419
    5TCq1    O1   67   2.399   2.677  12.139  0.2536 -0.4166 -0.4307
    5TCq1    C1   68   2.434   2.633  12.013  0.3098  0.0157 -0.2386
    5TCq1    O2   69   2.404   2.685  11.904 -0.1614  0.5681 -0.1422
    5TCq1    C2   70   2.450   2.491  12.020  0.4520  0.3093  0.5039
    5TCq1    C3   71   2.558   2.449  12.100 -0.2073 -0.3907  0.0552
    5TCq1    C4   72   2.607   2.328  12.081  0.2650 -0.3616 -0.1062
    5TCq1    C5   73   2.572   2.251  11.975  0.4772  0.4288  0.0274
    5TCq1    C6   74   2.482   2.302  11.882 -0.2458  0.2010  0.0810
    5TCq1    C7   75   2.413   2.423  11.908 -0.2066  0.5514 -0.4913
    5TCq1    C8   76   2.446   2.222  11.771 -0.3392 -0.1569  0.1669
    5TCq1    O4   77   2.534   2.158  11.719 -0.4654 -0.2466  0.0207
    5TCq1    C9   78   2.718   2.291  12.163  0.6922  0.7705  0.5163
    5TCq1    O5   79   2.780   2.189  12.125 -0.4134  0.4478 -0.1415
    5TCq1    O6   80   2.746   2.358  12.265  0.1848 -0.1844  0.6108
    5TCq1    H1   81   2.393   2.597  12.196 -2.7232 -0.3186 -0.5923
    5TCq1    H2   82   2.590   2.512  12.182  1.3861  0.3370 -1.1405
    5TCq1    H3   83   2.614   2.153  11.956 -1.0413  0.0155 -1.1874
    5TCq1    H4   84   2.339   2.464  11.841 -1.7616 -1.6815 -0.1286
    6MPD2     C   85   2.133   2.259  11.586  0.1173  0.2709  0.0903
    6MPD2    C1   86   2.257   2.212  11.612  0.0965  0.0360 -0.3656
    6MPD2    C2   87   2.321   2.142  11.507  0.2887 -0.4220  1.0885
    6MPD2    C3   88   2.251   2.112  11.390 -0.7807 -0.0255  0.6085
    6MPD2    C4   89   2.124   2.163  11.370  0.3130  0.1981  0.1255
    6MPD2    C5   90   2.068   2.235  11.474  0.1606 -0.2588  0.5436
    6MPD2     H   91   2.418   2.099  11.528  0.7095  0.6665  1.3710
    6MPD2    H1   92   2.067   2.143  11.280 -0.0503 -1.4155  0.7059
    6MPD2    H2   93   2.081   2.311  11.666  0.9419  0.6888  0.3549
    6MPD2    H3   94   1.972   2.279  11.447  0.6507 -0.1438 -0.9614
    6MPD2     N   95   2.320   2.056  11.281  0.0726 -0.3951  0.9911
    6MPD2    H5   96   2.412   2.014  11.290  0.3115  0.5883  3.0112
    6MPD2    N1   97   2.315   2.250  11.736  0.9251 -0.2847 -0.1041
    6MPD2    H7   98   2.260   2.301  11.804  1.0425 -0.4727  0.1312
    7TCq1    O1   99   4.024   1.496  13.123 -0.3985  0.9391  0.7285
    7TCq1    C1  100   4.043   1.600  13.203 -0.1780  0.3026 -0.2939
    7TCq1    O2  101   4.000   1.715  13.178 -0.2021  0.5753  0.0031
    7TCq1    C2  102   4.043   1.548  13.338  0.4916 -0.0208 -0.3526
    7TCq1    C3  103   3.961   1.612  13.428  0.1989  0.1018  0.0563
    7TCq1    C4  104   3.958   1.553  13.549 -0.2652 -0.9592  0.7579
    7TCq1    C5  105   4.028   1.441  13.583 -0.0061 -0.0345 -0.1412
    7TCq1    C6  106   4.108   1.385  13.484  0.1550 -0.0348 -0.5041
    7TCq1    C7  107   4.119   1.436  13.363 -0.1450 -0.0323  0.3179
    7TCq1    C8  108   4.209   1.294  13.529 -0.3045 -1.1245 -0.0607
    7TCq1    O4  109   4.278   1.238  13.444  0.0160 -0.6955  0.2583
    7TCq1    C9  110   3.876   1.613  13.646  0.3750 -0.5880 -0.6851
    7TCq1    O5  111   3.801   1.703  13.598  0.4478  0.4243  0.2078
    7TCq1    O6  112   3.866   1.559  13.761  0.2512 -0.4166 -0.5193
    7TCq1    H1  113   4.042   1.418  13.180  2.2388  0.6861 -0.4500
    7TCq1    H2  114   3.898   1.696  13.402 -2.6112 -1.9761  0.0524
    7TCq1    H3  115   4.013   1.404  13.684  0.9553 -0.7733 -0.2715
    7TCq1    H4  116   4.192   1.401  13.289 -1.2575  0.2001 -0.8871
    8MPD2     C  117   4.413   1.047  13.928 -0.4827 -0.4532 -0.0898
    8MPD2    C1  118   4.419   1.016  13.794  0.9741 -0.2277 -0.2614
    8MPD2    C2  119   4.365   1.110  13.703 -0.6602 -0.0358 -0.6446
    8MPD2    C3  120   4.294   1.219  13.750  1.1708  0.2780 -0.7061
    8MPD2    C4  121   4.295   1.244  13.887  0.3591  0.1949 -0.1158
    8MPD2    C5  122   4.353   1.155  13.972  0.4162 -0.5131  0.2234
    8MPD2     H  123   4.371   1.089  13.597  0.5697  0.2546 -0.6264
    8MPD2    H1  124   4.230   1.325  13.917 -1.1940 -1.1551  0.2265
    8MPD2    H2  125   4.468   0.995  14.006 -0.4206  1.0260  0.8650
    8MPD2    H3  126   4.344   1.166  14.079 -1.7356  0.5819 -0.0644
    8MPD2     N  127   4.223   1.307  13.664  0.2995 -0.0364 -0.4042
    8MPD2    H5  128   4.176   1.385  13.709  0.4093 -0.0945 -0.1898
    8MPD2    N1  129   4.486   0.899  13.761  0.4106  0.0687  0.5406
    8MPD2    H7  130   4.517   0.835  13.833  2.2037  1.1902  0.7602
    9TMC1    C1  131   2.363   0.477  11.013 -0.0957  0.1541  0.4353
    9TMC1    C2  132   2.454   0.533  11.090  0.1889 -0.2544  0.2976
    9TMC1    C3  133   2.539   0.624  11.020 -0.0484  0.4600  0.1344
    9TMC1    C4  134   2.345   0.500  10.876  0.6776 -0.0949 -0.0798
    9TMC1    C5  135   2.430   0.589  10.819  0.0650  0.5691 -0.3372
    9TMC1    C6  136   2.533   0.652  10.886 -0.8990  0.1175 -0.6996
    9TMC1     C  137   2.265   0.392  11.077 -0.3002  0.4399  0.1749
    9TMC1     O  138   2.199   0.316  11.007  0.8629 -0.7404 -1.0953
    9TMC1     H  139   2.466   0.509  11.195 -1.6929  1.1112  0.8224
    9TMC1    H1  140   2.258   0.455  10.829  1.2045  1.4478 -2.4897
    9TMC1    H2  141   2.600   0.720  10.835  0.4794 -0.1356  0.7930
    9TMC1    C7  142   2.389   0.646  10.691 -0.4141 -0.1237 -0.5606
    9TMC1    C8  143   2.649   0.662  11.105  0.5995  0.7696 -0.2214
    9TMC1    O1  144   2.413   0.762  10.673 -0.3292  0.5176  0.0366
    9TMC1    O2  145   2.695   0.573  11.179  0.3856 -0.7167 -0.3494
    9TMC1    O3  146   2.337   0.543  10.608  0.0746 -0.2477 -0.2447
    9TMC1    H3  147   2.341   0.454  10.649 -0.4824 -0.1943 -0.0866
    9TMC1    O5  148   2.709   0.770  11.056  0.9030  0.7603  0.1493
    9TMC1    H5  149   2.650   0.821  10.997  1.0576 -0.8968 -1.4093
   10MPD2     C  150   2.134   0.208  11.272  0.2291  0.1144  0.0020
   10MPD2    C1  151   2.167   0.342  11.298 -0.0246  0.8960 -0.1389
   10MPD2    C2  152   2.135   0.391  11.422  0.7125 -0.3059  0.0023
   10MPD2    C3  153   2.077   0.311  11.521  0.0867 -0.3285  0.3466
   10MPD2    C4  154   2.039   0.184  11.494 -0.0843 -0.3734 -0.5026
   10MPD2    C5  155   2.077   0.131  11.369 -0.7055 -0.8551  0.3222
   10MPD2     H  156   2.161   0.492  11.453 -0.8158  0.0337  0.1802
   10MPD2    H1  157   2.001   0.114  11.567 -3.6154  1.5200 -0.4819
   10MPD2    H2  158   2.145   0.160  11.175  0.5759 -3.4583  1.8584
   10MPD2    H3  159   2.065   0.025  11.352  1.2619 -0.8057 -1.3731
   10MPD2     N  160   2.046   0.356  11.649 -0.2881  0.9251 -0.1524
   10MPD2    H5  161   2.004   0.287  11.709 -1.9523  1.7984 -0.3040
   10MPD2    N1  162   2.244   0.424  11.210 -0.7348  0.1132  0.0038
   10MPD2    H7  163   2.292   0.505  11.245 -2.7452  0.7078  1.3407
   11TCq1    O1  164   2.539   0.296  13.724 -0.5618 -0.4641  0.4553
   11TCq1    C1  165   2.471   0.210  13.798 -0.5268  0.1757 -0.5708
   11TCq1    O2  166   2.351   0.211  13.832 -0.0969 -0.3300  0.2566
   11TCq1    C2  167   2.548   0.093  13.832 -0.0084  0.1499 -0.0059
   11TCq1    C3  168   2.653   0.054  13.756 -0.0821  0.3904 -0.2422
   11TCq1    C4  169   2.715   4.674  13.765 -0.1718  0.0568 -0.4185
   11TCq1    C5  170   2.668   4.591  13.864  0.1327  0.0934  0.2278
   11TCq1    C6  171   2.546   4.617  13.928  0.0316  0.1666 -0.8380
   11TCq1    C7  172   2.486   0.001  13.910 -0.9026 -0.0181  0.7465
   11TCq1    C8  173   2.451   4.509  13.965 -0.2013  0.1210  0.3502
   11TCq1    O4  174   2.335   4.537  13.998  0.6045  0.0621 -0.4040
   11TCq1    C9  175   2.823   4.633  13.670 -0.2846 -0.8581  0.3655
   11TCq1    O5  176   2.861   4.513  13.666  0.1761 -0.2334 -0.4284
   11TCq1    O6  177   2.861   4.720  13.585 -0.3955 -0.3694 -0.6598
   11TCq1    H1  178   2.636   0.282  13.736 -0.9804 -1.9713  2.1582
   11TCq1    H2  179   2.673   0.109  13.665  1.2699  0.2374 -0.0277
   11TCq1    H3  180   2.717   4.494  13.865 -0.1404 -0.0157  3.5009
   11TCq1    H4  181   2.389   0.024  13.952 -1.3780  1.9970 -1.4097
   12MPD2     C  182   2.323   4.250  14.032 -0.4526 -0.2406  0.6279
   12MPD2    C1  183   2.446   4.263  13.974  0.5726 -0.7006 -0.1797
   12MPD2    C2  184   2.506   4.141  13.939  0.1631 -0.0400 -0.5618
   12MPD2    C3  185   2.440   4.021  13.957  0.2572 -0.1083 -0.1356
   12MPD2    C4  186   2.313   4.019  14.008  0.2014 -0.1190  0.3847
   12MPD2    C5  187   2.262   4.130  14.060  0.9590  0.1381  0.3627
   12MPD2     H  188   2.605   4.134  13.896  0.6552  0.0299  0.5389
   12MPD2    H1  189   2.269   3.924  14.036  2.8101 -1.3871  0.2393
   12MPD2    H2  190   2.264   4.336  14.060 -1.3442 -0.3440 -0.9148
   12MPD2    H3  191   2.166   4.125  14.112  1.9872 -0.3111  2.2106
   12MPD2     N  192   2.497   3.893  13.910 -0.0897 -0.6746 -0.0271
   12MPD2    H5  193   2.441   3.811  13.929 -0.1007 -0.5667  0.4093
   12MPD2    N1  194   2.512   4.386  13.954 -0.4813  0.1646 -0.2064
   12MPD2    H7  195   2.607   4.394  13.920 -0.7966  1.5747 -0.7718
   13TCq1    O1  196   2.935   0.378  10.875 -0.2513 -0.1242 -0.1490
   13TCq1    C1  197   2.879   0.387  10.753  0.2199  0.0610 -0.8235
   13TCq1    O2  198   2.917   0.469  10.667 -0.4496 -0.5678  0.2053
   13TCq1    C2  199   2.795   0.269  10.732 -0.6336  0.3845 -0.1051
   13TCq1    C3  200   2.818   0.163  10.806  0.3737  0.5869  0.2034
   13TCq1    C4  201   2.735   0.055  10.789  0.6645  0.5123 -1.2044
   13TCq1    C5  202   2.632   0.061  10.693  0.1147 -0.2902  0.2118
   13TCq1    C6  203   2.607   0.178  10.626 -0.5296 -0.3789 -0.1959
   13TCq1    C7  204   2.694   0.285  10.645 -0.0155 -0.2497 -0.3400
   13TCq1    C8  205   2.469   0.207  10.629  0.0448  0.4622  0.1676
   13TCq1    O4  206   2.429   0.315  10.670 -0.3547  0.1856  0.5225
   13TCq1    C9  207   2.730   4.682  10.881  0.2919  0.5601 -0.6884
   13TCq1    O5  208   2.615   4.661  10.933  0.9564 -0.0961 -0.5899
   13TCq1    O6  209   2.835   4.645  10.938 -0.0436  0.1196  0.2728
   13TCq1    H1  210   2.884   0.328  10.942  0.4883  0.9668  1.2303
   13TCq1    H2  211   2.900   0.154  10.877 -1.5228 -2.5294  1.9687
   13TCq1    H3  212   2.568   4.712  10.687 -0.8351  0.3517  0.9905
   13TCq1    H4  213   2.679   0.382  10.599 -3.1348 -1.1310 -1.2139
   14MPD2     C  214   2.213   4.679  10.562  0.0195  0.2772  0.1224
   14MPD2    C1  215   2.268   0.056  10.625  0.3155  0.1413  0.1630
   14MPD2    C2  216   2.196   0.124  10.721  0.3280 -0.5743  0.3112
   14MPD2    C3  217   2.070   0.074  10.753 -0.2151 -0.6105 -0.8744
   14MPD2    C4  218   2.020   4.699  10.689 -0.0802  0.0067 -0.4585
   14MPD2    C5  219   2.084   4.635  10.584 -0.4983  0.7415 -0.1183
   14MPD2     H  220   2.231   0.219  10.758 -0.8620 -0.4839  1.2038
   14MPD2    H1  221   1.922   4.658  10.712  0.3844 -0.4924  0.6121
   14MPD2    H2  222   2.261   4.622  10.484 -0.3415  1.8565 -1.2501
   14MPD2    H3  223   2.038   4.545  10.543 -1.5025  1.4350 -0.5226
   14MPD2     N  224   2.009   0.135  10.863 -0.2733  0.5037 -0.0631
   14MPD2    H5  225   2.061   0.207  10.913 -0.7321 -0.1652  1.3714
   14MPD2    N1  226   2.400   0.085  10.595 -0.3161  0.0744 -0.7211
   14MPD2    H7  227   2.454   0.014  10.547  0.5740  0.3399 -0.1114
   15TCq1    O1  228   3.605   0.166   2.070 -0.2333 -0.4269  0.4332
   15TCq1    C1  229   3.648   0.056   2.008  0.9028  0.1576 -0.3008
   15TCq1    O2  230   3.759   0.055   1.964  0.6945 -0.4423 -0.5524
   15TCq1    C2  231   3.528   0.009   1.940 -0.0915  0.1025 -0.0455
   15TCq1    C3  232   3.397   0.031   1.973 -0.1191 -0.1467  0.1041
   15TCq1    C4  233   3.292   4.725   1.895 -0.2511 -0.0046  0.3198
   15TCq1    C5  234   3.320   4.662   1.781 -0.4236  0.1814 -0.1066
   15TCq1    C6  235   3.450   4.655   1.735 -0.2593  0.1935  0.1609
   15TCq1    C7  236   3.554   4.702   1.807  0.8100  0.2874  0.1498
   15TCq1    C8  237   3.481   4.574   1.624 -0.6756 -0.6479 -0.0996
   15TCq1    O4  238   3.591   4.527   1.617 -0.6960 -0.5090 -0.4283
   15TCq1    C9  239   3.156   0.003   1.942 -0.3826 -0.1070  0.1012
   15TCq1    O5  240   3.065   4.690   1.881  0.0940 -0.5277  0.0787
   15TCq1    O6  241   3.144   0.077   2.043 -0.4937 -0.2205  0.3953
   15TCq1    H1  242   3.511   0.160   2.098 -0.2583  1.7460  0.8272
   15TCq1    H2  243   3.381   0.065   2.075  0.2438  0.7997 -0.1505
   15TCq1    H3  244   3.247   4.610   1.721  0.5457 -1.6972  0.3623
   15TCq1    H4  245   3.657   4.689   1.773  1.1919  0.7864  1.1102
   16MPD2     C  246   3.343   4.565   1.284  0.3282  0.3039 -0.2268
   16MPD2    C1  247   3.403   4.519   1.398  0.5620  0.1080  0.2490
   16MPD2    C2  248   3.462   4.393   1.397 -0.2623  0.0432 -0.4959
   16MPD2    C3  249   3.457   4.314   1.286  0.1148 -0.9210  0.5664
   16MPD2    C4  250   3.405   4.367   1.174 -0.0802 -0.1079 -0.1862
   16MPD2    C5  251   3.352   4.489   1.170 -0.6725  0.1158  0.1816
   16MPD2     H  252   3.504   4.351   1.487 -0.1781 -3.2365 -2.0873
   16MPD2    H1  253   3.413   4.312   1.081  0.4529 -1.3812  0.6192
   16MPD2    H2  254   3.293   4.661   1.286 -0.3994 -0.1278  1.8903
   16MPD2    H3  255   3.300   4.521   1.080 -0.1186  1.3343  0.2917
   16MPD2     N  256   3.523   4.191   1.291  0.4091 -0.3672 -0.2930
   16MPD2    H5  257   3.572   4.168   1.377  0.8897 -2.0789 -1.0267
   16MPD2    N1  258   3.398   4.594   1.518  0.4752 -0.4118  0.1027
   16MPD2    H7  259   3.326   4.665   1.519  0.4683 -0.4078 -0.4357
   17TMC1    C1  260   1.440   4.359  10.240 -0.5074  0.3738 -0.0593
   17TMC1    C2  261   1.536   4.435  10.177  0.3311  0.2246 -0.4715
   17TMC1    C3  262   1.509   4.492  10.055  1.1960  0.0932 -0.6751
   17TMC1    C4  263   1.318   4.337  10.188  0.2027  0.6974  0.0779
   17TMC1    C5  264   1.293   4.389  10.064  0.5659 -0.0181  0.1451
   17TMC1    C6  265   1.390   4.467   9.993 -0.0699 -0.9990 -0.2560
   17TMC1     C  266   1.464   4.300  10.369 -0.4116  0.0945 -1.0284
   17TMC1     O  267   1.366   4.277  10.441 -0.3040  0.4549  0.2823
   17TMC1     H  268   1.619   4.464  10.241  0.2389  0.4828 -0.4694
   17TMC1    H1  269   1.246   4.274  10.238 -0.1702 -0.0395 -1.3959
   17TMC1    H2  270   1.372   4.513   9.897  0.1330 -0.4713 -0.0481
   17TMC1    C7  271   1.160   4.373   9.996  0.4077  0.3702  0.4096
   17TMC1    C8  272   1.606   4.593  10.022 -0.4089 -0.3710 -0.1813
   17TMC1    O1  273   1.112   4.461   9.927  0.1106  0.1960  0.0644
   17TMC1    O2  274   1.723   4.579  10.058  0.3408 -0.0011 -0.2841
   17TMC1    O3  275   1.096   4.263  10.030 -0.3832  0.0838  0.3895
   17TMC1    H3  276   1.141   4.201  10.092  2.6028  1.5629 -0.2804
   17TMC1    O5  277   1.545   4.709  10.006 -0.0479 -0.2378  0.2182
   17TMC1    H5  278   1.448   4.714   9.998  0.0486 -0.6898 -1.3421
   18MPD2     C  279   1.593   4.272  10.638  0.9497  0.3785 -0.5711
   18MPD2    C1  280   1.658   4.267  10.514  0.2158 -0.5742  1.0259
   18MPD2    C2  281   1.790   4.241  10.509 -0.2544  0.8926  0.4010
   18MPD2    C3  282   1.865   4.223  10.626  0.5919  0.1088 -0.3261
   18MPD2    C4  283   1.801   4.238  10.748  0.3598  0.1985 -0.7481
   18MPD2    C5  284   1.663   4.268  10.756  0.1389 -0.2537 -0.5333
   18MPD2     H  285   1.842   4.235  10.414 -0.9382 -0.7106  0.1391
   18MPD2    H1  286   1.851   4.227  10.844  1.6851  1.0415 -1.3450
   18MPD2    H2  287   1.487   4.293  10.638  0.8947  0.1089  2.0758
   18MPD2    H3  288   1.618   4.281  10.854  1.5228 -0.1924  0.0949
   18MPD2     N  289   2.004   4.199  10.630  0.0732  0.1498 -0.2439
   18MPD2    H5  290   2.042   4.169  10.719  0.4648  0.9141 -0.1454
   18MPD2    N1  291   1.596   4.281  10.392 -0.6459 -0.6116 -0.2566
   18MPD2    H7  292   1.652   4.279  10.308 -0.1839  0.9753  0.0105
   19TMC2    C1  293   3.929   4.419  14.263  0.6739  0.6995  0.5370
   19TMC2    C2  294   3.885   4.479  14.146 -0.2068  0.0673  0.4323
   19TMC2    C3  295   3.783   4.425  14.079  0.1600  0.2597  0.0485
   19TMC2    C4  296   3.871   4.304  14.315 -0.0201  0.0867 -0.1425
   19TMC2    C5  297   3.772   4.246  14.231 -0.8069 -0.2372 -0.3866
   19TMC2    C6  298   3.727   4.308  14.119  0.2242 -0.1363  0.7173
   19TMC2     C  299   4.012   4.500  14.346  0.5767  0.1651  0.1804
   19TMC2     O  300   4.089   4.576  14.285 -0.4467 -0.1013  0.0277
   19TMC2     H  301   3.926   4.576  14.120 -1.4817 -0.0163 -1.8369
   19TMC2    H1  302   3.920   4.263  14.403  1.9861  1.6078 -0.5363
   19TMC2    H2  303   3.637   4.280  14.064 -0.3238  0.4138  1.3416
   19TMC2    C7  304   3.719   4.117  14.259 -0.0563 -0.3791  0.0099
   19TMC2    C8  305   3.729   4.494  13.965 -0.1866  1.0670  0.0075
   19TMC2    O1  306   3.674   4.052  14.165 -0.2663  0.0654  0.1398
   19TMC2    O2  307   3.679   4.434  13.873  0.1472  0.3748  0.2593
   19TMC2    O5  308   3.707   4.621  13.998  0.6946  0.5096 -0.5349
   19TMC2    H5  309   3.750   4.669  14.072  0.1053  0.9547 -0.4792
   20MPD2     C  310   4.116   4.687  14.542 -0.4774  0.1417 -0.2035
   20MPD2    C1  311   4.011   4.598  14.567  0.4373 -0.2646 -0.2651
   20MPD2    C2  312   3.965   4.576  14.697  0.1214 -0.3495  0.1760
   20MPD2    C3  313   4.016   4.660  14.798 -0.2377 -0.2404  0.1672
   20MPD2    C4  314   4.110   0.017  14.772 -0.1373 -0.0945 -0.7362
   20MPD2    C5  315   4.161   0.021  14.647 -0.1741  1.2188  0.8792
   20MPD2     H  316   3.890   4.503  14.726 -1.9630  1.2298 -1.1716
   20MPD2    H1  317   4.140   0.082  14.855  2.2298 -0.0014 -1.6579
   20MPD2    H2  318   4.157   4.704  14.443 -1.7485 -2.9884 -1.2706
   20MPD2    H3  319   4.232   0.098  14.620 -0.8718  1.7519  0.5473
   20MPD2     N  320   3.980   4.640  14.929 -0.2430  0.2170 -0.1682
   20MPD2    H5  321   4.042   4.687  14.994 -0.4046 -2.3047  1.8078
   20MPD2    N1  322   3.957   4.513  14.471  0.6598  0.0656 -0.0439
   20MPD2    H7  323   3.881   4.451  14.498  0.1874  0.2081 -1.0437
   21TMC2    C1  324   1.353   4.658  14.519 -0.5019 -0.4991  0.2224
   21TMC2    C2  325   1.379   4.534  14.575 -0.1532 -0.3997 -0.1944
   21TMC2    C3  326   1.292   4.475  14.667  0.0494  0.4165 -0.1818
   21TMC2    C4  327   1.254   4.737  14.574 -0.0295 -0.0175 -0.2934
   21TMC2    C5  328   1.191   4.681  14.681 -1.1937  0.6429  0.2446
   21TMC2    C6  329   1.201   4.552  14.724 -0.4521 -0.0795  0.5098
   21TMC2     C  330   1.459   4.723  14.437 -0.4040 -0.4645  0.0279
   21TMC2     O  331   1.546   4.653  14.390 -0.0437 -0.2249  0.4189
   21TMC2     H  332   1.461   4.473  14.538 -0.0459 -1.4802  1.7939
   21TMC2    H1  333   1.242   0.103  14.547  1.6822  0.4322  0.7004
   21TMC2    H2  334   1.145   4.518  14.810  1.4463 -3.2110  0.5436
   21TMC2    C7  335   1.089   0.019  14.752  0.0569  0.3150  0.1324
   21TMC2    C8  336   1.307   4.341  14.703 -0.4058  0.3711 -0.1948
   21TMC2    O1  337   1.074   4.717  14.866 -0.2804 -0.0477  0.0353
   21TMC2    O2  338   1.414   4.280  14.680 -0.3462 -0.4318 -0.1620
   21TMC2    O5  339   1.190   4.281  14.734 -0.6796 -0.1491  0.0726
   21TMC2    H5  340   1.109   4.335  14.722 -1.5372 -1.2551  0.8092
   22MPD2     C  341   1.669   0.385  14.199 -0.4731  0.2951 -0.1464
   22MPD2    C1  342   1.722   0.253  14.215  0.8010 -0.1318  0.2366
   22MPD2    C2  343   1.642   0.164  14.281 -0.1336  0.0447 -0.4714
   22MPD2    C3  344   1.511   0.201  14.321  0.0025 -0.5965 -0.3581
   22MPD2    C4  345   1.458   0.327  14.295 -0.5210  0.0222  0.2192
   22MPD2    C5  346   1.538   0.420  14.232 -0.4535 -0.3968 -0.5940
   22MPD2     H  347   1.682   0.063  14.284 -2.1498 -0.7512 -0.3088
   22MPD2    H1  348   1.360   0.366  14.321  0.0612  0.3487  1.8951
   22MPD2    H2  349   1.724   0.463  14.147  1.1869  0.2417  1.5317
   22MPD2    H3  350   1.491   0.511  14.198  0.2224 -0.0569 -0.6282
   22MPD2     N  351   1.424   0.109  14.391  0.1188 -0.2919 -0.2545
   22MPD2    H5  352   1.330   0.137  14.416  1.2578  1.6300  1.8857
   22MPD2    N1  353   1.849   0.211  14.170  0.6399 -0.8551  0.3159
   22MPD2    H7  354   1.864   0.111  14.172 -1.7478 -1.2391 -0.6877
   23TMC2    C1  355   2.178   1.178  14.586  1.1033  0.4822 -0.3099
   23TMC2    C2  356   2.203   1.265  14.475 -0.1832 -0.2201 -1.0437
   23TMC2    C3  357   2.105   1.274  14.379 -0.1973 -0.7992 -0.4156
   23TMC2    C4  358   2.057   1.133  14.611 -0.3170 -0.0236 -0.3267
   23TMC2    C5  359   1.957   1.160  14.519  0.5360  0.1329 -0.9777
   23TMC2    C6  360   1.973   1.232  14.402 -0.5647 -0.2829 -0.2805
   23TMC2     C  361   2.285   1.131  14.674 -0.5898 -0.5673 -0.3400
   23TMC2     O  362   2.263   1.050  14.758  0.1466  0.5531 -0.1596
   23TMC2     H  363   2.299   1.313  14.460 -0.6962  0.7113 -1.3003
   23TMC2    H1  364   2.045   1.076  14.703 -0.0219  1.1609  0.4460
   23TMC2    H2  365   1.899   1.247  14.325 -0.6980  0.0241 -0.0956
   23TMC2    C7  366   1.828   1.095  14.550 -0.5005 -0.1777 -0.4357
   23TMC2    C8  367   2.128   1.360  14.264 -0.2565  0.1330  0.3618
   23TMC2    O1  368   1.839   0.979  14.596 -0.2007  0.5373  0.1014
   23TMC2    O2  369   2.057   1.451  14.233 -0.2424 -0.4646 -0.2788
   23TMC2    O5  370   2.256   1.349  14.221  0.0464  0.4881  0.1023
   23TMC2    H5  371   2.329   1.304  14.271  0.7136  0.7463 -0.6456
   24MPD2     C  372   2.772   1.176  14.826 -0.6160  0.4268 -0.4607
   24MPD2    C1  373   2.674   1.101  14.884  0.1616 -0.2618 -0.4070
   24MPD2    C2  374   2.550   1.100  14.821 -0.2877  0.6344  0.4867
   24MPD2    C3  375   2.526   1.169  14.703  0.9657  1.0038  0.5906
   24MPD2    C4  376   2.626   1.242  14.651 -0.2198  0.4022  0.0545
   24MPD2    C5  377   2.751   1.244  14.704 -0.5171  0.0763 -0.0254
   24MPD2     H  378   2.471   1.041  14.867 -1.8508  2.0059 -0.4120
   24MPD2    H1  379   2.600   1.303  14.565 -1.3285 -0.0071  0.0937
   24MPD2    H2  380   2.875   1.180  14.859  0.1369 -0.8599 -2.6052
   24MPD2    H3  381   2.820   1.314  14.659 -0.1722 -1.1391 -1.3742
   24MPD2     N  382   2.399   1.189  14.641  0.1266  0.6701  0.2601
   24MPD2    H5  383   2.398   1.238  14.553  0.6731  2.3276  1.1717
   24MPD2    N1  384   2.713   1.035  15.004 -0.4702  0.3087  0.0534
   24MPD2    H7  385   2.812   1.041  15.027 -0.5487 -2.8846  1.1259
   25TMC2    C1  386   2.041   3.604  11.934 -0.1765 -0.4227  0.1593
   25TMC2    C2  387   2.138   3.594  12.023 -0.5914  0.3455  0.6380
   25TMC2    C3  388   2.129   3.679  12.131 -0.0852 -0.0752 -0.3783
   25TMC2    C4  389   1.935   3.689  11.949  0.0686 -0.4614  1.0459
   25TMC2    C5  390   1.925   3.774  12.057 -0.3547  0.1936  0.7915
   25TMC2    C6  391   2.028   3.770  12.147  0.1153 -0.5447  0.4864
   25TMC2     C  392   2.050   3.510  11.819  0.2444  0.4159 -0.0545
   25TMC2     O  393   2.159   3.461  11.785 -0.5297  0.3704 -0.3077
   25TMC2     H  394   2.222   3.529  11.999 -0.6697  1.2637 -2.1741
   25TMC2    H1  395   1.848   3.689  11.884  0.2193  0.4798  0.8511
   25TMC2    H2  396   2.038   3.850  12.220 -0.6158  0.6813 -0.7646
   25TMC2    C7  397   1.802   3.841  12.081  0.2975 -0.0254  0.4367
   25TMC2    C8  398   2.253   3.721  12.207 -0.5633 -0.2064  0.2970
   25TMC2    O1  399   1.765   3.844  12.197  0.0419 -0.3711 -0.3262
   25TMC2    O2  400   2.264   3.826  12.265  0.4387 -0.1325  0.2632
   25TMC2    O5  401   2.326   3.608  12.218 -0.2771 -0.1776 -0.8553
   25TMC2    H5  402   2.282   3.522  12.200  0.4744 -0.6011 -0.6572
   26MPD2     C  403   1.852   3.271  11.415 -0.0107  0.4842  0.3437
   26MPD2    C1  404   1.748   3.318  11.494  0.8643 -0.2729  0.5670
   26MPD2    C2  405   1.778   3.379  11.616 -0.7123 -0.2974 -0.0730
   26MPD2    C3  406   1.909   3.415  11.648  0.8995  0.3699  0.5832
   26MPD2    C4  407   2.008   3.363  11.566  0.6291 -0.4467 -0.4365
   26MPD2    C5  408   1.980   3.294  11.452  0.2130  0.3929 -0.0577
   26MPD2     H  409   1.700   3.418  11.682  1.6969  2.0907  1.3701
   26MPD2    H1  410   2.115   3.367  11.583  0.7082 -0.8536 -0.8109
   26MPD2    H2  411   1.841   3.213  11.324  3.4811  2.7022 -1.4681
   26MPD2    H3  412   2.061   3.255  11.391  0.2989 -1.6414  1.3598
   26MPD2     N  413   1.927   3.492  11.762  0.3300  0.4110  0.2836
   26MPD2    H5  414   1.846   3.520  11.817 -1.8687 -2.3381 -1.5302
   26MPD2    N1  415   1.619   3.299  11.451  0.7353  0.1668  0.4525
   26MPD2    H7  416   1.610   3.251  11.362  2.1640  1.9696 -0.6612
   27TMC2    C1  417   0.762   1.109  11.976  0.5155 -0.0664  0.4053
   27TMC2    C2  418   0.841   1.137  11.868 -0.4026  0.1172  0.0995
   27TMC2    C3  419   0.963   1.198  11.889  0.1224 -0.0211 -0.0641
   27TMC2    C4  420   0.812   1.115  12.100 -0.4192  0.2363 -0.3042
   27TMC2    C5  421   0.939   1.155  12.119  0.1105 -0.2671 -0.2105
   27TMC2    C6  422   1.005   1.214  12.014  0.1244  0.3146  0.5147
   27TMC2     C  423   0.623   1.078  11.945  0.4240  0.0777  0.3991
   27TMC2     O  424   0.605   1.055  11.828  0.2380 -0.0117 -0.1670
   27TMC2     H  425   0.807   1.121  11.766 -2.0878  0.0532  0.6700
   27TMC2    H1  426   0.749   1.103  12.188  1.0039 -1.2935  0.5131
   27TMC2    H2  427   1.096   1.265  12.045 -0.1959 -0.5948  3.0028
   27TMC2    C7  428   0.984   1.185  12.255 -0.2488 -0.4794  0.4787
   27TMC2    C8  429   1.002   1.287  11.782 -0.0744 -0.5810 -0.4859
   27TMC2    O1  430   1.047   1.287  12.270  0.3282  0.0716  1.0129
   27TMC2    O2  431   0.936   1.310  11.678 -0.4099 -0.3392 -0.7189
   27TMC2    O5  432   1.112   1.360  11.828  0.8768  0.4855 -0.0370
   27TMC2    H5  433   1.168   1.301  11.883 -0.5385 -0.5212  0.3281
   28MPD2     C  434   0.181   0.857  12.082 -0.1426 -0.3769 -0.2274
   28MPD2    C1  435   0.225   0.933  12.190  0.0624  0.9161  0.4824
   28MPD2    C2  436   0.346   0.993  12.176  0.5272  0.0785  0.0004
   28MPD2    C3  437   0.415   1.001  12.056 -0.1459 -1.3353 -0.7973
   28MPD2    C4  438   0.364   0.937  11.948 -0.3320 -0.9801  0.2232
   28MPD2    C5  439   0.249   0.860  11.959  0.3381  0.2374 -0.2958
   28MPD2     H  440   0.387   1.037  12.267  1.7230  0.7958 -0.8771
   28MPD2    H1  441   0.405   0.934  11.848 -2.5623 -1.3263 -0.6985
   28MPD2    H2  442   0.103   0.785  12.103 -1.6658  0.7288 -2.0170
   28MPD2    H3  443   0.217   0.797  11.876 -1.4786 -2.1723  2.2322
   28MPD2     N  444   0.544   1.055  12.054 -0.1302  0.0442  0.6299
   28MPD2    H5  445   0.570   1.098  12.142 -0.1856 -1.4388  1.3569
   28MPD2    N1  446   0.141   0.924  12.305 -0.3428 -0.1848  0.1303
   28MPD2    H7  447   0.060   0.864  12.293 -0.5602  0.4632 -1.7168
   29TMC2    C1  448   4.710   3.302  14.902  0.4018  0.5351 -0.0687
   29TMC2    C2  449   4.622   3.263  14.999  0.1359 -0.2262 -0.4316
   29TMC2    C3  450   4.579   3.356  15.090  0.0009 -0.7795 -0.5227
   29TMC2    C4  451   0.021   3.432  14.904 -0.7171  0.1469  0.7524
   29TMC2    C5  452   4.713   3.522  14.998 -0.1982  0.6309 -0.2200
   29TMC2    C6  453   4.622   3.486  15.093  0.1723 -0.4865  0.1838
   29TMC2     C  454   0.038   3.195  14.823 -0.1351  0.4323 -0.3724
   29TMC2     O  455   4.734   3.083  14.838  0.0226 -0.3263  0.2410
   29TMC2     H  456   4.575   3.166  15.006 -2.0634  0.8523 -0.4831
   29TMC2    H1  457   0.094   3.466  14.831 -1.4687  0.3342  0.0794
   29TMC2    H2  458   4.573   3.559  15.156  0.6674  0.3014 -0.3476
   29TMC2    C7  459   4.697   3.659  14.961 -0.7208 -0.0014  0.2330
   29TMC2    C8  460   4.490   3.312  15.201  0.6177 -0.2948  1.0770
   29TMC2    O1  461   4.593   3.713  14.987 -0.2744 -0.5561  0.2187
   29TMC2    O2  462   4.416   3.216  15.180 -0.3654  0.2359  0.4051
   29TMC2    O5  463   4.504   3.379  15.320  0.0135  0.2184  0.3149
   29TMC2    H5  464   4.557   3.461  15.319  0.3630 -0.0080  0.3189
   30MPD2     C  465   0.313   3.032  14.418 -0.5286  0.1837 -0.2268
   30MPD2    C1  466   0.249   2.963  14.518 -0.2203 -0.1304 -1.0960
   30MPD2    C2  467   0.189   3.031  14.623  0.5425  0.5197 -0.2353
   30MPD2    C3  468   0.185   3.166  14.629 -0.7656 -0.1259 -0.5269
   30MPD2    C4  469   0.256   3.237  14.528 -0.4974  0.2703  0.4951
   30MPD2    C5  470   0.314   3.174  14.423 -0.6038  0.2660 -0.4789
   30MPD2     H  471   0.134   2.972  14.694  1.0339 -2.6958 -2.5187
   30MPD2    H1  472   0.259   3.345  14.531  1.7320  0.2586 -1.8029
   30MPD2    H2  473   0.354   2.984  14.330  1.9284  1.6947  0.0849
   30MPD2    H3  474   0.365   3.234  14.348  0.7332 -1.8623 -1.2682
   30MPD2     N  475   0.129   3.246  14.725  0.2942 -0.2861  0.6000
   30MPD2    H5  476   0.127   3.347  14.715  1.8386 -0.5122 -1.9303
   30MPD2    N1  477   0.244   2.821  14.519 -0.0334 -0.1679 -0.6360
   30MPD2    H7  478   0.196   2.780  14.599  0.5264 -1.1551 -0.8076
   31TMC2    C1  479   2.435   1.431  15.127  0.1758 -0.1428  0.0668
   31TMC2    C2  480   2.320   1.363  15.106 -0.3157  0.0698  0.5230
   31TMC2    C3  481   2.228   1.367  15.208 -0.1518  0.3958 -0.0190
   31TMC2    C4  482   2.462   1.507  15.236 -0.2640 -0.0128 -0.2998
   31TMC2    C5  483   2.365   1.511  15.329 -0.6769  0.1769  0.0740
   31TMC2    C6  484   2.240   1.448  15.318  0.2022  0.3645  0.4674
   31TMC2     C  485   2.512   1.452  15.005  0.0138 -0.5696  0.1849
   31TMC2     O  486   2.455   1.478  14.900 -0.4111  0.3186 -0.1866
   31TMC2     H  487   2.294   1.318  15.011  1.3801 -0.1632  0.1626
   31TMC2    H1  488   2.556   1.557  15.257  1.5929 -3.3397 -0.7078
   31TMC2    H2  489   2.163   1.442  15.394 -0.8262 -0.7764 -0.6690
   31TMC2    C7  490   2.413   1.563  15.451  0.3165 -0.2789 -0.1802
   31TMC2    C8  491   2.090   1.356  15.168  0.4722  0.3616 -0.7404
   31TMC2    O1  492   2.528   1.591  15.464 -0.9059 -0.3569  0.6015
   31TMC2    O2  493   2.004   1.444  15.194 -0.1467  0.3767 -0.4412
   31TMC2    O5  494   2.066   1.241  15.100 -0.2293 -0.2959 -0.0834
   31TMC2    H5  495   2.149   1.188  15.097  0.6579  1.1005 -0.4836
   32MPD2     C  496   2.967   1.652  14.859 -0.6080 -0.3337  1.0353
   32MPD2    C1  497   2.845   1.664  14.801  0.3171 -0.5443  0.3093
   32MPD2    C2  498   2.736   1.605  14.868  0.3784  0.5550 -0.6586
   32MPD2    C3  499   2.753   1.529  14.981 -0.1565 -0.3696  0.1715
   32MPD2    C4  500   2.883   1.524  15.036 -0.3570  0.7490  0.1148
   32MPD2    C5  501   2.988   1.578  14.972 -0.6276 -0.7412 -0.5870
   32MPD2     H  502   2.639   1.617  14.822 -1.1485 -0.0667  2.3832
   32MPD2    H1  503   2.903   1.477  15.132 -0.3090 -0.9184 -0.7101
   32MPD2    H2  504   3.051   1.707  14.820 -2.5186  1.7731 -0.1452
   32MPD2    H3  505   3.088   1.584  15.014 -0.9225  0.3534 -0.0548
   32MPD2     N  506   2.645   1.464  15.045 -0.0312 -0.2136 -0.2434
   32MPD2    H5  507   2.667   1.429  15.138 -0.3607 -0.8059 -0.3842
   32MPD2    N1  508   2.841   1.752  14.697  0.3871 -0.0255 -1.4297
   32MPD2    H7  509   2.932   1.788  14.674  0.2387  1.1159 -0.2446
   33TMC2    C1  510   2.998   0.179  10.405  0.3248  0.4854  0.1489
   33TMC2    C2  511   3.077   0.219  10.516 -0.3415 -0.2209  0.0013
   33TMC2    C3  512   3.175   0.306  10.491  0.3399  1.2723  0.0705
   33TMC2    C4  513   3.021   0.230  10.280  0.2322 -0.0488 -0.1133
   33TMC2    C5  514   3.121   0.327  10.266  0.9471 -0.2540 -0.0727
   33TMC2    C6  515   3.193   0.375  10.373 -0.1123  0.0087 -0.0091
   33TMC2     C  516   2.892   0.084  10.414  1.0463 -0.1754 -0.0619
   33TMC2     O  517   2.899   4.729  10.497  0.2334 -0.4981  0.5688
   33TMC2     H  518   3.070   0.162  10.608 -0.0852  1.0007  0.7742
   33TMC2    H1  519   2.971   0.199  10.188 -0.2076 -1.4697  0.6191
   33TMC2    H2  520   3.273   0.446  10.355 -2.0408  1.7651 -1.7576
   33TMC2    C7  521   3.114   0.398  10.131 -0.2796  0.1626 -0.9511
   33TMC2    C8  522   3.262   0.348  10.604  0.8348 -0.2653 -0.5131
   33TMC2    O1  523   3.082   0.331  10.036  0.2248 -0.1579 -0.5719
   33TMC2    O2  524   3.381   0.371  10.599  0.5038  0.2100 -0.3840
   33TMC2    O5  525   3.181   0.427  10.671 -0.7802  0.5655  0.0364
   33TMC2    H5  526   3.090   0.420  10.637  0.0018 -1.1003 -1.6529
   34MPD2     C  527   2.418   4.678  10.246 -0.6247  0.5100 -0.4482
   34MPD2    C1  528   2.503   4.614  10.337 -0.2942  0.5274 -0.0704
   34MPD2    C2  529   2.628   4.669  10.366  0.4180 -0.4091  0.4739
   34MPD2    C3  530   2.662   0.054  10.315 -0.1248  0.5937  0.2745
   34MPD2    C4  531   2.572   0.120  10.232  0.6663 -0.0196  0.2985
   34MPD2    C5  532   2.453   0.070  10.203 -0.0535 -0.8232  0.1656
   34MPD2     H  533   2.700   4.628  10.436  2.1666  1.0902 -0.4513
   34MPD2    H1  534   2.585   0.216  10.184  0.6908 -1.5081 -2.6843
   34MPD2    H2  535   2.319   4.637  10.231 -1.1404  0.5164  2.7840
   34MPD2    H3  536   2.385   0.128  10.141  0.9235  0.4670  0.3187
   34MPD2     N  537   2.785   0.121  10.329  0.1038 -0.4447  0.0429
   34MPD2    H5  538   2.791   0.217  10.296  2.8497 -0.5591  0.2074
   34MPD2    N1  539   2.452   4.497  10.406 -0.1661 -0.2002 -0.2757
   34MPD2    H7  540   2.367   4.454  10.372  0.1870  0.9382 -2.5891
   35TMC2    C1  541   3.538   1.348  11.551 -0.4323  0.3073  0.0437
   35TMC2    C2  542   3.419   1.411  11.548  0.4633  0.2299  0.4283
   35TMC2    C3  543   3.315   1.352  11.615  0.4228  0.2219  0.2043
   35TMC2    C4  544   3.551   1.226  11.605 -0.3524  0.0214  0.4888
   35TMC2    C5  545   3.436   1.163  11.641 -0.0768 -0.0832  0.4838
   35TMC2    C6  546   3.319   1.229  11.662  1.2512 -0.1009  0.7927
   35TMC2     C  547   3.657   1.426  11.500 -0.1449 -0.6602  0.7258
   35TMC2     O  548   3.633   1.535  11.444 -0.3748 -0.0723 -0.1063
   35TMC2     H  549   3.418   1.512  11.507 -1.8245  0.3352  0.7577
   35TMC2    H1  550   3.634   1.158  11.586 -0.1526  0.2415  0.5772
   35TMC2    H2  551   3.234   1.176  11.701  1.8444 -0.4530  1.5991
   35TMC2    C7  552   3.443   1.024  11.679 -0.6035 -0.4227  0.4114
   35TMC2    C8  553   3.198   1.424  11.632  0.6224  0.5301  0.2175
   35TMC2    O1  554   3.340   0.960  11.674 -0.1914 -0.1515 -0.8510
   35TMC2    O2  555   3.088   1.376  11.653  0.2379 -1.2794 -0.0984
   35TMC2    O5  556   3.222   1.558  11.646 -0.1989 -0.7898  0.0453
   35TMC2    H5  557   3.315   1.588  11.633 -0.8103  1.6639  1.3072
   36MPD2     C  558   4.151   1.560  11.466  0.8055  1.1157  0.0806
   36MPD2    C1  559   4.132   1.466  11.560 -0.5193 -0.1683  0.6409
   36MPD2    C2  560   4.005   1.413  11.592 -0.1539 -0.1321  0.0019
   36MPD2    C3  561   3.896   1.456  11.517  0.4936 -0.4416 -0.6408
   36MPD2    C4  562   3.919   1.554  11.418 -0.3632  0.0079  0.3673
   36MPD2    C5  563   4.042   1.611  11.405 -0.2150 -0.3443  0.0675
   36MPD2     H  564   3.983   1.351  11.677 -0.6442 -1.1414 -0.8619
   36MPD2    H1  565   3.835   1.581  11.356  1.0625  0.4447 -1.3859
   36MPD2    H2  566   4.250   1.593  11.437  0.5212  1.5016 -0.4468
   36MPD2    H3  567   4.052   1.688  11.329 -0.9859 -0.1904  0.1167
   36MPD2     N  568   3.775   1.391  11.552  0.5492 -0.4179  0.1755
   36MPD2    H5  569   3.787   1.312  11.615 -2.0835 -1.5131 -0.7058
   36MPD2    N1  570   4.250   1.417  11.632  0.2821 -0.2205  0.3545
   36MPD2    H7  571   4.341   1.452  11.607  1.8218 -2.6227  2.6144
   37TMC2    C1  572   2.078   1.298  12.486 -0.3528 -0.4638  0.2044
   37TMC2    C2  573   2.206   1.301  12.538 -0.4497 -0.1402  0.4130
   37TMC2    C3  574   2.306   1.317  12.445 -0.3303 -0.5517  0.8647
   37TMC2    C4  575   2.059   1.280  12.351 -0.5248 -0.2519  0.3366
   37TMC2    C5  576   2.170   1.293  12.268  0.6147 -0.5850 -0.4528
   37TMC2    C6  577   2.298   1.307  12.311 -0.8741  0.1265  0.0553
   37TMC2     C  578   1.958   1.287  12.568  0.5684  0.1669  0.2366
   37TMC2     O  579   1.852   1.309  12.511  0.2809  0.1869  0.6776
   37TMC2     H  580   2.228   1.299  12.644 -1.9322  1.3322  0.7513
   37TMC2    H1  581   1.962   1.275  12.303 -0.8272  0.4723  0.8778
   37TMC2    H2  582   2.378   1.324  12.240  1.3010  1.7274  2.9158
   37TMC2    C7  583   2.134   1.312  12.127 -0.1593 -0.9733 -0.3686
   37TMC2    C8  584   2.431   1.328  12.503 -0.5100  0.0757 -0.1976
   37TMC2    O1  585   2.020   1.350  12.111 -0.6296 -0.1038 -0.2341
   37TMC2    O2  586   2.464   1.409  12.587  0.3615  0.2547 -0.0536
   37TMC2    O5  587   2.458   1.192  12.510  0.3097 -0.0630  0.4813
   37TMC2    H5  588   2.389   1.136  12.470  1.7400 -0.6174 -1.2308
   38MPD2     C  589   1.746   1.197  13.026  0.4600  0.6512  0.4488
   38MPD2    C1  590   1.879   1.150  13.029  0.1491 -0.1793 -0.2575
   38MPD2    C2  591   1.953   1.173  12.921 -0.0040  0.4936  0.7577
   38MPD2    C3  592   1.910   1.229  12.803  0.3502  0.8176 -0.0078
   38MPD2    C4  593   1.777   1.263  12.793 -0.5637  0.1335  0.0250
   38MPD2    C5  594   1.697   1.249  12.905 -0.6964  0.4211  0.4389
   38MPD2     H  595   2.056   1.142  12.937  0.0259  0.9442  1.4379
   38MPD2    H1  596   1.738   1.310  12.703  1.8201 -0.0288 -1.0847
   38MPD2    H2  597   1.678   1.198  13.111 -0.1896 -0.4072 -0.0671
   38MPD2    H3  598   1.595   1.286  12.909 -0.6921  0.6055 -1.1056
   38MPD2     N  599   1.997   1.245  12.695 -0.6645  0.6314 -0.9762
   38MPD2    H5  600   2.094   1.223  12.714 -1.5710 -0.6020  2.2338
   38MPD2    N1  601   1.931   1.078  13.139 -0.6495  0.5227  0.3678
   38MPD2    H7  602   2.028   1.049  13.134 -0.9298 -0.3667  0.0868
   39TMC2    C1  603   3.825   3.675   1.749 -0.5724  0.7593  0.1664
   39TMC2    C2  604   3.919   3.629   1.840  0.4388  0.0570  0.5103
   39TMC2    C3  605   3.944   3.705   1.952  0.2254  0.2630  0.1105
   39TMC2    C4  606   3.782   3.806   1.754 -0.7536  0.1191 -0.2391
   39TMC2    C5  607   3.808   3.870   1.870  0.0065  0.1644  0.1732
   39TMC2    C6  608   3.877   3.820   1.979 -0.4993 -0.4908  0.0767
   39TMC2     C  609   3.805   3.601   1.621 -0.1142 -0.6596 -0.2106
   39TMC2     O  610   3.709   3.638   1.562 -1.1253 -0.2036 -0.4637
   39TMC2     H  611   3.960   3.529   1.836 -0.5440 -0.2587 -1.4277
   39TMC2    H1  612   3.722   3.853   1.677 -1.1511 -1.1838 -0.7338
   39TMC2    H2  613   3.890   3.882   2.067 -1.7133 -0.8412  0.5139
   39TMC2    C7  614   3.764   4.007   1.883  0.0512  0.3063  0.8412
   39TMC2    C8  615   3.973   3.617   2.062 -0.4788 -0.3060 -0.4501
   39TMC2    O1  616   3.735   4.041   1.998 -0.1834  0.5800 -0.2635
   39TMC2    O2  617   3.941   3.499   2.071  1.1054 -0.6063  0.3424
   39TMC2    O5  618   4.022   3.690   2.164 -0.0230 -0.1743 -0.8519
   39TMC2    H5  619   4.058   3.780   2.151 -0.1412 -0.1202 -0.8083
   40MPD2     C  620   4.053   3.429   1.403  0.7165 -1.0802  0.1068
   40MPD2    C1  621   3.929   3.474   1.450  0.1338  0.5055 -0.2529
   40MPD2    C2  622   3.813   3.445   1.382 -0.2166 -0.1186 -0.1116
   40MPD2    C3  623   3.819   3.367   1.260  0.2186  0.6190 -0.4529
   40MPD2    C4  624   3.946   3.329   1.215  0.1278  0.8382 -0.3590
   40MPD2    C5  625   4.062   3.363   1.282  0.1704 -0.2719  0.7042
   40MPD2     H  626   3.716   3.466   1.425 -0.1296 -0.2331  0.1398
   40MPD2    H1  627   3.956   3.279   1.120  0.9650 -1.1863  0.7913
   40MPD2    H2  628   4.142   3.438   1.464  0.0024  0.5227  0.9192
   40MPD2    H3  629   4.160   3.321   1.263 -0.6176 -1.7780  0.0049
   40MPD2     N  630   3.695   3.327   1.211 -0.5674 -0.1000  0.1393
   40MPD2    H5  631   3.615   3.387   1.232 -1.9164 -2.1825  0.9063
   40MPD2    N1  632   3.921   3.540   1.576 -0.2879 -0.1658  0.4152
   40MPD2    H7  633   4.007   3.557   1.627 -0.9791 -0.1954  1.5989
   41TMC2    C1  634   3.618   1.592  13.247 -0.2601 -0.9614 -0.1460
   41TMC2    C2  635   3.595   1.675  13.352 -0.5738 -0.5102  0.6683
   41TMC2    C3  636   3.612   1.813  13.336  0.3709 -0.0012 -0.2749
   41TMC2    C4  637   3.661   1.649  13.129  0.5843  0.0372  0.3741
   41TMC2    C5  638   3.684   1.785  13.117  0.2175 -0.3984 -0.8334
   41TMC2    C6  639   3.650   1.863  13.221 -0.2265 -0.0695  0.1437
   41TMC2     C  640   3.667   1.453  13.268  0.2902 -0.0513 -0.5414
   41TMC2     O  641   3.738   1.398  13.187 -0.5501 -0.1361  0.1893
   41TMC2     H  642   3.580   1.645  13.455 -1.0910  1.9096  1.3040
   41TMC2    H1  643   3.668   1.571  13.055 -1.2862  1.0322 -0.8456
   41TMC2    H2  644   3.664   1.971  13.222 -0.7065  0.0020 -1.9099
   41TMC2    C7  645   3.772   1.841  13.016  0.5382  0.4371  0.7779
   41TMC2    C8  646   3.574   1.899  13.444 -0.0951  0.2183 -0.0555
   41TMC2    O1  647   3.802   1.958  13.038  0.2431 -0.0437 -0.3944
   41TMC2    O2  648   3.494   1.989  13.427  0.1534 -0.2117  0.5017
   41TMC2    O5  649   3.680   1.903  13.525 -0.5795 -0.5514  0.1504
   41TMC2    H5  650   3.719   1.814  13.539 -0.5045 -0.9013 -2.2440
   42MPD2     C  651   3.798   1.245  13.438  0.2301 -0.7320 -0.1253
   42MPD2    C1  652   3.689   1.310  13.475 -0.6360  0.6475 -0.1503
   42MPD2    C2  653   3.634   1.290  13.604 -1.0851 -0.3849 -0.3616
   42MPD2    C3  654   3.688   1.195  13.695  0.0211  0.1257 -1.0183
   42MPD2    C4  655   3.793   1.122  13.648 -0.1587 -0.0716 -0.0424
   42MPD2    C5  656   3.848   1.146  13.524 -0.8330 -0.6015 -0.5434
   42MPD2     H  657   3.539   1.339  13.624  0.2107  1.8385  0.3659
   42MPD2    H1  658   3.843   1.045  13.705  0.8538  0.2578 -0.4804
   42MPD2    H2  659   3.839   1.261  13.339 -2.8116  0.1826 -1.2662
   42MPD2    H3  660   3.942   1.096  13.504 -0.7451 -0.5606 -0.2305
   42MPD2     N  661   3.638   1.157  13.819 -0.0356  0.2652 -0.2983
   42MPD2    H5  662   3.687   1.091  13.880  0.6021 -1.3496 -2.5647
   42MPD2    N1  663   3.630   1.411  13.399  0.0252 -0.0431  0.1706
   42MPD2    H7  664   3.559   1.459  13.454  1.5230  1.0167  1.1773
   43TMC2    C1  665   4.218   0.333   0.785 -0.5056 -0.2237 -0.8612
   43TMC2    C2  666   4.091   0.371   0.765 -0.5850 -0.8032  0.0314
   43TMC2    C3  667   4.053   0.492   0.828  0.4020 -0.2320 -0.2458
   43TMC2    C4  668   4.300   0.405   0.869 -0.0295  0.6024  0.4079
   43TMC2    C5  669   4.262   0.530   0.915 -0.3759  0.4889 -0.3822
   43TMC2    C6  670   4.137   0.579   0.896  0.0862  0.1662 -0.6860
   43TMC2     C  671   4.263   0.204   0.738  0.2598 -0.1021 -0.0218
   43TMC2     O  672   4.372   0.164   0.778  0.7712 -0.4267  0.2537
   43TMC2     H  673   4.019   0.317   0.705  0.1013  0.1125 -1.6015
   43TMC2    H1  674   4.396   0.359   0.889 -0.5843 -1.4234 -1.5928
   43TMC2    H2  675   4.103   0.674   0.935  0.7431 -0.2998  1.0201
   43TMC2    C7  676   4.362   0.630   0.958  0.4870  0.7660  0.0236
   43TMC2    C8  677   3.924   0.553   0.795  0.1278 -1.1601 -0.2494
   43TMC2    O1  678   4.479   0.620   0.910  0.6520 -0.2826  0.4862
   43TMC2    O2  679   3.855   0.622   0.866  0.9156  0.0160  0.3564
   43TMC2    O5  680   3.909   0.548   0.658  0.4155  0.2700 -0.1602
   43TMC2    H5  681   3.991   0.522   0.611  0.6846  0.1448  0.3775
   44MPD2     C  682   4.157   4.529   0.463 -1.0704  0.2557 -0.1551
   44MPD2    C1  683   4.278   4.561   0.523 -0.6081 -0.6183 -0.4085
   44MPD2    C2  684   4.291   4.677   0.595 -0.3982  0.3161  0.6365
   44MPD2    C3  685   4.190   0.028   0.581 -0.1120 -0.0365 -0.0150
   44MPD2    C4  686   4.068   4.731   0.521  0.0980  0.7439  0.3915
   44MPD2    C5  687   4.048   4.614   0.464  0.0017 -0.4706  0.1320
   44MPD2     H  688   4.386   4.696   0.643  0.1016  1.7563 -0.9274
   44MPD2    H1  689   3.988   0.066   0.519  0.0590  0.7144  0.8032
   44MPD2    H2  690   4.137   4.428   0.428  0.7648 -0.6300  1.3367
   44MPD2    H3  691   3.951   4.590   0.421  0.5737  2.9148 -3.1052
   44MPD2     N  692   4.193   0.158   0.627 -0.1374  0.2199 -0.2857
   44MPD2    H5  693   4.117   0.214   0.590 -1.1782 -0.3974  0.9157
   44MPD2    N1  694   4.391   4.478   0.522 -0.1984  0.3618  0.3738
   44MPD2    H7  695   4.473   4.515   0.569 -0.5912  0.6783  0.8082
   45TMC2    C1  696   1.040   1.776   9.707 -0.4166 -0.6003  0.0789
   45TMC2    C2  697   1.126   1.713   9.789  0.4935  0.1685  0.0664
   45TMC2    C3  698   1.227   1.786   9.844 -0.0484  0.5325  0.1836
   45TMC2    C4  699   1.048   1.910   9.681  0.9867 -0.4090  0.0876
   45TMC2    C5  700   1.151   1.979   9.735 -0.3751 -1.3554  0.3287
   45TMC2    C6  701   1.239   1.920   9.824 -0.0252 -0.3992 -0.4547
   45TMC2     C  702   0.913   1.719   9.660 -0.1035 -0.3514  0.4469
   45TMC2     O  703   0.829   1.794   9.609  0.5993 -0.0595  0.3175
   45TMC2     H  704   1.119   1.605   9.803 -0.2259  0.2393  0.2382
   45TMC2    H1  705   0.971   1.959   9.622 -0.5265  0.2485  2.5903
   45TMC2    H2  706   1.318   1.974   9.875 -0.1103 -0.0608 -0.6725
   45TMC2    C7  707   1.153   2.122   9.716 -0.1698  0.0882  0.2547
   45TMC2    C8  708   1.327   1.729   9.930  0.6399 -0.2656 -0.0822
   45TMC2    O1  709   1.089   2.168   9.622 -0.7361 -0.5873  0.5027
   45TMC2    O2  710   1.386   1.793  10.016  0.0759 -0.2546  0.3958
   45TMC2    O5  711   1.377   1.627   9.858 -0.1525 -0.6869  0.2085
   45TMC2    H5  712   1.387   1.632   9.761  0.6598  0.3941  0.3537
   46MPD2     C  713   0.802   1.369   9.738 -0.9905 -0.3989 -0.2972
   46MPD2    C1  714   0.786   1.502   9.706 -0.4360  0.2380 -1.0724
   46MPD2    C2  715   0.654   1.551   9.681  0.1946 -0.6207  0.1898
   46MPD2    C3  716   0.542   1.471   9.704  0.7724  0.6261 -0.3705
   46MPD2    C4  717   0.564   1.338   9.732  0.3920 -0.8055 -0.0437
   46MPD2    C5  718   0.690   1.282   9.744  0.0747  0.5178  0.2253
   46MPD2     H  719   0.637   1.654   9.652 -1.3720 -1.0292 -0.3630
   46MPD2    H1  720   0.486   1.264   9.750  0.3430 -0.5207  0.9357
   46MPD2    H2  721   0.902   1.331   9.757 -0.1405  1.2274 -1.5420
   46MPD2    H3  722   0.692   1.179   9.776 -0.8932  0.3936 -0.1038
   46MPD2     N  723   0.409   1.531   9.688 -0.5430 -0.4181  1.0216
   46MPD2    H5  724   0.408   1.632   9.690  3.2393 -0.3734  1.5119
   46MPD2    N1  725   0.902   1.582   9.702 -0.5981 -0.2963 -0.0034
   46MPD2    H7  726   0.991   1.535   9.713  0.0954  0.5117 -2.2564
   47TMC2    C1  727   2.934   3.277   9.583 -0.2208 -0.2627 -0.2529
   47TMC2    C2  728   2.950   3.409   9.570 -0.4300 -0.3104  0.4079
   47TMC2    C3  729   2.919   3.489   9.670 -0.0843  0.6497  0.4449
   47TMC2    C4  730   2.894   3.220   9.694  0.1844  0.8052 -0.1535
   47TMC2    C5  731   2.866   3.301   9.797 -0.4098 -0.0882 -0.3614
   47TMC2    C6  732   2.876   3.434   9.790 -0.2552  1.4435 -0.9939
   47TMC2     C  733   2.932   3.195   9.461 -0.0693  0.2139 -0.3412
   47TMC2     O  734   2.943   3.251   9.357 -0.1429  0.3442 -0.2106
   47TMC2     H  735   2.981   3.455   9.476 -3.0431 -0.2311 -0.3909
   47TMC2    H1  736   2.844   3.124   9.700 -0.6700  1.2958  0.6253
   47TMC2    H2  737   2.870   3.501   9.875  0.1871 -2.5763  2.2185
   47TMC2    C7  738   2.803   3.243   9.919  0.8020  0.1125  0.0093
   47TMC2    C8  739   2.968   3.624   9.665 -0.0722  0.3821 -0.1004
   47TMC2    O1  740   2.738   3.325   9.978  0.2690  0.0622 -0.3328
   47TMC2    O2  741   3.043   3.658   9.576  0.5419  0.3399  0.0345
   47TMC2    O5  742   2.877   3.709   9.722 -0.2598  0.1096  0.3225
   47TMC2    H5  743   2.807   3.657   9.766  2.0711 -3.2627  0.0565
   48MPD2     C  744   2.879   2.974   9.262 -0.0500 -0.5630  0.2996
   48MPD2    C1  745   2.926   2.952   9.392 -0.2889 -0.1921  0.4015
   48MPD2    C2  746   2.971   2.825   9.424  0.2636 -0.1531 -0.1233
   48MPD2    C3  747   2.973   2.721   9.335  0.1744  0.0426  0.0106
   48MPD2    C4  748   2.924   2.745   9.204 -0.1289 -0.1148  0.0956
   48MPD2    C5  749   2.871   2.869   9.172  0.0847  0.4002 -0.1746
   48MPD2     H  750   3.014   2.813   9.523 -1.5425  1.9849  0.9024
   48MPD2    H1  751   2.915   2.670   9.126  2.8846 -3.4764  2.9644
   48MPD2    H2  752   2.847   3.074   9.235 -0.2341 -0.6001  0.3809
   48MPD2    H3  753   2.819   2.885   9.078  0.6049 -1.6193 -0.8024
   48MPD2     N  754   3.023   2.597   9.379 -0.0842 -0.4483  0.8586
   48MPD2    H5  755   3.078   2.596   9.463 -0.7477  0.9398  1.3071
   48MPD2    N1  756   2.937   3.057   9.490  0.5976 -0.4518 -0.0770
   48MPD2    H7  757   2.966   3.036   9.584  0.0753 -1.3468 -0.1151
   49TMC2    C1  758   1.103   4.588  10.271 -0.4260 -0.2876  0.0801
   49TMC2    C2  759   1.018   4.666  10.197  0.3925  0.1148 -0.5534
   49TMC2    C3  760   0.886   4.645  10.210 -0.1646 -0.0360  0.8973
   49TMC2    C4  761   1.049   4.497  10.358  0.1360 -0.0968 -0.4184
   49TMC2    C5  762   0.918   4.472  10.362 -0.1310  0.0084 -0.3401
   49TMC2    C6  763   0.831   4.549  10.285 -0.3780 -0.5114  0.0196
   49TMC2     C  764   1.237   4.638  10.296 -0.4588  0.6342 -0.1092
   49TMC2     O  765   1.270   4.738  10.235 -0.3064  0.4084 -0.1385
   49TMC2     H  766   1.055   0.002  10.128 -1.0998  1.5665  0.2312
   49TMC2    H1  767   1.112   4.424  10.407  1.3267  0.9047 -0.4514
   49TMC2    H2  768   0.723   4.543  10.287 -0.4607  0.8444 -0.6776
   49TMC2    C7  769   0.864   4.354  10.426  1.3926 -0.4521 -0.4836
   49TMC2    C8  770   0.802   4.716  10.119  0.6829 -0.3177  0.1738
   49TMC2    O1  771   0.766   4.301  10.377  0.1456 -0.1956 -0.1311
   49TMC2    O2  772   0.827   0.097  10.093  0.1048 -0.6176  0.0435
   49TMC2    O5  773   0.762   4.620  10.024  0.2316  0.0323 -0.3698
   49TMC2    H5  774   0.778   4.525  10.041  2.6818 -0.4047 -5.0950
   50MPD2     C  775   1.502   4.719  10.412 -0.3730 -0.1914 -0.2538
   50MPD2    C1  776   1.417   4.628  10.473 -0.1950 -0.8909 -0.2496
   50MPD2    C2  777   1.442   4.591  10.598  0.9009 -0.2347  0.1090
   50MPD2    C3  778   1.556   4.635  10.669  0.4053 -0.5231  0.9958
   50MPD2    C4  779   1.647   4.712  10.597  0.6038  0.1375 -0.0016
   50MPD2    C5  780   1.625   0.007  10.468  0.4629  0.3275  0.0281
   50MPD2     H  781   1.363   4.545  10.655 -0.5179  1.1270 -0.7539
   50MPD2    H1  782   1.745   4.726  10.642  0.0483 -0.3668  1.3602
   50MPD2    H2  783   1.488   4.735  10.306 -1.2027 -0.4779 -0.1845
   50MPD2    H3  784   1.700   0.064  10.416  1.1567  1.8934  2.7291
   50MPD2     N  785   1.585   4.616  10.811 -0.2027 -0.5470  0.1130
   50MPD2    H5  786   1.661   4.673  10.846  0.7569 -2.0743  0.5074
   50MPD2    N1  787   1.289   4.588  10.415 -0.1703 -0.0500 -0.3262
   50MPD2    H7  788   1.220   4.529  10.460  0.4826 -0.3689  0.2577
   51TMC2    C1  789   3.505   2.525   1.702 -0.2544  0.1186 -0.3552
   51TMC2    C2  790   3.639   2.499   1.738  0.1797  0.2832 -0.4967
   51TMC2    C3  791   3.711   2.601   1.778  0.1276 -0.2525  0.1517
   51TMC2    C4  792   3.450   2.647   1.697  0.3356  0.0948 -0.0367
   51TMC2    C5  793   3.525   2.746   1.764 -0.3471 -0.4745 -0.2702
   51TMC2    C6  794   3.655   2.725   1.804 -0.8377 -0.0641 -0.2315
   51TMC2     C  795   3.423   2.424   1.648  0.7580 -0.5497 -0.8710
   51TMC2     O  796   3.306   2.448   1.622  0.1419  0.7338  0.2439
   51TMC2     H  797   3.675   2.402   1.769  3.1479  1.1829 -1.1347
   51TMC2    H1  798   3.349   2.670   1.667  1.0864  2.3802 -0.7664
   51TMC2    H2  799   3.713   2.799   1.858 -1.8079 -1.0504  2.1643
   51TMC2    C7  800   3.466   2.875   1.808 -0.1166  0.6661 -0.5041
   51TMC2    C8  801   3.825   2.573   1.858  0.0263  0.1692 -0.3140
   51TMC2    O1  802   3.537   2.948   1.876 -0.0209  0.7141 -0.1701
   51TMC2    O2  803   3.925   2.510   1.817  0.1621  0.7188  0.0964
   51TMC2    O5  804   3.781   2.560   1.982  0.1121  0.3664  0.7117
   51TMC2    H5  805   3.688   2.587   1.999 -0.2849 -1.4818  1.3740
   52MPD2     C  806   3.380   1.968   1.419  0.1673  0.7140  0.0471
   52MPD2    C1  807   3.280   2.057   1.432  0.2466  0.0075 -0.6631
   52MPD2    C2  808   3.311   2.170   1.508 -0.2201 -0.0368 -0.0177
   52MPD2    C3  809   3.442   2.195   1.548  0.2729  0.2632 -0.3716
   52MPD2    C4  810   3.541   2.104   1.526  0.1917  0.9692  0.2193
   52MPD2    C5  811   3.508   1.994   1.458  0.2912  0.0923  0.5474
   52MPD2     H  812   3.230   2.240   1.528  0.6037  1.2893 -1.2597
   52MPD2    H1  813   3.643   2.129   1.551 -0.5045  2.1667  1.8401
   52MPD2    H2  814   3.365   1.876   1.362 -0.2793  0.5075  0.4979
   52MPD2    H3  815   3.577   1.913   1.440 -0.7506 -0.4777 -0.9078
   52MPD2     N  816   3.490   2.310   1.611 -0.0656  0.1471  0.2907
   52MPD2    H5  817   3.590   2.307   1.632  0.7384  0.1969 -3.4897
   52MPD2    N1  818   3.152   2.044   1.376  0.2262 -0.1981  0.2196
   52MPD2    H7  819   3.095   2.126   1.361  1.1923  0.8320  2.1260
   53TMC2    C1  820   1.987   1.835  11.645  0.0846 -0.4815  0.4658
   53TMC2    C2  821   1.925   1.885  11.527 -0.2031  0.4001  0.3246
   53TMC2    C3  822   1.824   1.973  11.551 -0.1332 -0.0008 -0.2147
   53TMC2    C4  823   1.959   1.878  11.768  0.1034 -0.0545  0.0117
   53TMC2    C5  824   1.854   1.969  11.782 -0.1632  0.5350  0.8752
   53TMC2    C6  825   1.792   2.019  11.671 -0.2064  0.5363 -0.3583
   53TMC2     C  826   2.074   1.725  11.629 -0.2950 -0.9259 -0.9171
   53TMC2     O  827   2.114   1.704  11.511 -0.3715  0.2673 -0.3150
   53TMC2     H  828   1.961   1.860  11.428 -0.2838  1.2012  0.0975
   53TMC2    H1  829   2.014   1.832  11.849 -1.4403 -0.3590  0.8933
   53TMC2    H2  830   1.717   2.097  11.681 -0.0628  0.8813 -1.8872
   53TMC2    C7  831   1.824   2.014  11.912  0.4515 -0.5778 -0.0256
   53TMC2    C8  832   1.763   2.031  11.435 -0.5146  0.0088  0.3876
   53TMC2    O1  833   1.727   2.086  11.924  0.5027  0.7942  0.0138
   53TMC2    O2  834   1.816   2.036  11.320 -0.5762 -0.1035  0.1287
   53TMC2    O5  835   1.638   1.993  11.454 -0.1802 -0.1512  0.4090
   53TMC2    H5  836   1.628   1.975  11.549  1.4370  0.8179  0.7763
   54MPD2     C  837   2.267   1.505  11.667 -0.3049 -0.1728 -0.1876
   54MPD2    C1  838   2.161   1.526  11.753 -0.2934  0.1449  0.8175
   54MPD2    C2  839   2.147   1.462  11.875  0.5968 -0.6304 -0.4627
   54MPD2    C3  840   2.235   1.360  11.908  0.3062 -0.6499 -0.9489
   54MPD2    C4  841   2.328   1.329  11.814 -0.0516  0.9672 -1.4094
   54MPD2    C5  842   2.342   1.398  11.701 -0.3533 -0.4223 -0.5340
   54MPD2     H  843   2.064   1.492  11.938  1.4744  2.2333 -0.7108
   54MPD2    H1  844   2.414   1.266  11.832 -1.4174 -0.0791  1.4324
   54MPD2    H2  845   2.304   1.575  11.593 -0.1618 -0.5195 -0.4403
   54MPD2    H3  846   2.430   1.378  11.641  1.4853 -1.7965  2.6341
   54MPD2     N  847   2.237   1.296  12.036 -0.3985  0.3050  0.3321
   54MPD2    H5  848   2.322   1.251  12.066 -1.2427 -1.0866  0.6452
   54MPD2    N1  849   2.071   1.636  11.736 -0.1884  0.5880  0.0137
   54MPD2    H7  850   2.006   1.647  11.813 -0.4473 -3.1399  0.3275
   55TMC2    C1  851   2.729   0.435   0.056  0.0531 -0.4362 -0.9275
   55TMC2    C2  852   2.820   0.477  17.716 -0.0277 -0.1947 -0.0103
   55TMC2    C3  853   2.860   0.381  17.623 -0.1238 -0.4867 -0.0052
   55TMC2    C4  854   2.689   0.304   0.074 -0.4815  0.2494  0.2013
   55TMC2    C5  855   2.741   0.213  17.735  0.5942  0.2580  0.7109
   55TMC2    C6  856   2.837   0.244  17.635 -0.0833  0.1121 -0.0229
   55TMC2     C  857   2.642   0.531   0.119  0.3247  0.1068 -0.4577
   55TMC2     O  858   2.584   0.489   0.219  0.0471  0.7434  0.4482
   55TMC2     H  859   2.860   0.578  17.707 -0.4148 -0.1912 -1.8746
   55TMC2    H1  860   2.602   0.284   0.135  0.5385  1.1878  1.9816
   55TMC2    H2  861   2.846   0.173  17.553 -0.9133 -0.5173  0.4288
   55TMC2    C7  862   2.710   0.074   0.010 -0.8050 -0.7587  0.0279
   55TMC2    C8  863   2.928   0.428  17.507 -0.1919 -0.1463  0.0426
   55TMC2    O1  864   2.748   4.728  17.682  0.4633 -0.0220 -0.2064
   55TMC2    O2  865   2.917   0.547  17.479 -0.6300  0.0893 -0.5377
   55TMC2    O5  866   3.043   0.361  17.502 -0.2395 -0.0350 -0.1040
   55TMC2    H5  867   3.051   0.271  17.539 -0.5933 -0.6945 -1.6227
   56MPD2     C  868   2.498   0.836  17.749  0.4953  0.2207 -1.0881
   56MPD2    C1  869   2.500   0.724   0.072 -0.2089 -0.2459 -0.1257
   56MPD2    C2  870   2.412   0.710   0.175 -0.3830 -0.0247 -0.4227
   56MPD2    C3  871   2.303   0.794   0.183 -0.2588 -0.2384  0.6848
   56MPD2    C4  872   2.294   0.908   0.111 -0.3322  0.1362  0.6982
   56MPD2    C5  873   2.392   0.929   0.016 -0.1263  0.2385 -0.0764
   56MPD2     H  874   2.426   0.631   0.249  0.3592  1.4620  1.0326
   56MPD2    H1  875   2.205   0.969   0.125 -1.2504 -0.6955 -1.4629
   56MPD2    H2  876   2.569   0.856  17.670  1.6527 -1.4735 -0.4572
   56MPD2    H3  877   2.394   1.016  17.703  0.8439 -0.3018 -0.7790
   56MPD2     N  878   2.204   0.747   0.276 -0.3974 -0.0389  0.0251
   56MPD2    H5  879   2.223   0.661   0.326  0.9553 -0.0758 -0.5496
   56MPD2    N1  880   2.615   0.640   0.045  0.0993  0.6053 -0.0215
   56MPD2    H7  881   2.671   0.667  17.717 -1.4773  0.3837 -1.1802
   57TMC2    C1  882   2.197   4.405  13.732  0.7311  0.8612 -0.2094
   57TMC2    C2  883   2.234   4.281  13.692 -0.3384 -0.0503 -0.0357
   57TMC2    C3  884   2.337   4.278  13.600  0.4788  0.0183 -0.3000
   57TMC2    C4  885   2.253   4.514  13.673 -0.6155 -0.3875 -0.2860
   57TMC2    C5  886   2.353   4.502  13.585 -0.1149 -0.2177  0.4525
   57TMC2    C6  887   2.399   4.381  13.535 -0.2558 -0.7338 -0.3219
   57TMC2     C  888   2.071   4.424  13.807 -0.3136  0.1290  0.5627
   57TMC2     O  889   2.052   4.541  13.837  0.3648 -0.1099  0.0039
   57TMC2     H  890   2.201   4.189  13.740 -0.5810  0.9297  1.6732
   57TMC2    H1  891   2.209   4.610  13.701  1.5292  0.2399  0.8867
   57TMC2    H2  892   2.463   4.360  13.450  0.5878 -0.7436  0.3179
   57TMC2    C7  893   2.406   4.627  13.534  0.6459 -0.7065  0.0099
   57TMC2    C8  894   2.385   4.143  13.554  0.2649 -0.3467 -0.0059
   57TMC2    O1  895   2.345   4.731  13.544  0.2181 -0.4760  0.0714
   57TMC2    O2  896   2.308   4.048  13.557  0.0110 -0.2493 -0.1206
   57TMC2    O5  897   2.515   4.131  13.521  0.8080  0.0585  0.1188
   57TMC2    H5  898   2.565   4.210  13.554  0.8876 -0.1895  0.5901
   58MPD2     C  899   1.618   4.293  13.999  0.1856  0.2301 -0.0019
   58MPD2    C1  900   1.668   4.413  13.966 -0.6557 -0.0061 -0.5543
   58MPD2    C2  901   1.788   4.431  13.901 -0.1142 -0.0806  0.0471
   58MPD2    C3  902   1.864   4.312  13.873 -1.0328  0.0471  0.5077
   58MPD2    C4  903   1.813   4.189  13.901  0.4375 -0.0249  0.3998
   58MPD2    C5  904   1.698   4.181  13.977 -0.4124  0.1185  0.2973
   58MPD2     H  905   1.828   4.531  13.890 -2.6395  1.0861  1.6837
   58MPD2    H1  906   1.863   4.093  13.897 -0.6060 -0.5742  0.7214
   58MPD2    H2  907   1.522   4.278  14.046  0.1900  2.4606  0.7146
   58MPD2    H3  908   1.642   4.091  13.999  2.2302 -1.5446  0.1578
   58MPD2     N  909   1.994   4.310  13.822  0.0155  0.1116  0.0377
   58MPD2    H5  910   2.027   4.218  13.795  2.2588  0.5719  1.2452
   58MPD2    N1  911   1.606   4.535  13.994  0.3016  0.5834  0.0834
   58MPD2    H7  912   1.650   4.626  13.985 -0.1655  1.1449  3.2892
   59TMC2    C1  913   4.544   0.455  12.623  0.0244  0.1822 -0.0382
   59TMC2    C2  914   4.441   0.375  12.669 -0.1621 -0.0786  0.1967
   59TMC2    C3  915   4.351   0.325  12.580  0.3871 -0.0394 -0.0064
   59TMC2    C4  916   4.550   0.483  12.492 -0.5207 -0.1435 -0.5403
   59TMC2    C5  917   4.466   0.418  12.403  0.6678  0.5778 -0.1212
   59TMC2    C6  918   4.367   0.337  12.446  0.0717 -0.2087  0.3475
   59TMC2     C  919   4.609   0.541  12.718 -0.2042  0.9246  0.5874
   59TMC2     O  920   4.644   0.650  12.680 -0.2857  0.2918  0.4541
   59TMC2     H  921   4.435   0.353  12.775 -0.1260 -0.4980  0.1118
   59TMC2    H1  922   4.622   0.559  12.465 -3.1568  1.7999 -2.1003
   59TMC2    H2  923   4.293   0.292  12.380  0.7787  0.2298 -0.7478
   59TMC2    C7  924   4.482   0.446  12.262 -0.4790 -0.2435 -0.1121
   59TMC2    C8  925   4.215   0.291  12.622  0.3113  0.5650  0.2562
   59TMC2    O1  926   4.450   0.356  12.189 -0.2746 -0.1075 -0.1602
   59TMC2    O2  927   4.118   0.281  12.553  0.7234 -0.2209  0.4783
   59TMC2    O5  928   4.234   0.246  12.746  0.4904  0.5029 -0.0098
   59TMC2    H5  929   4.146   0.216  12.780  1.6198 -2.5238  0.2510
   60MPD2     C  930   4.639   0.687  12.965 -0.2017 -0.2603 -0.6608
   60MPD2    C1  931   4.673   0.556  12.953 -0.0114 -0.2219  0.2101
   60MPD2    C2  932   4.735   0.483  13.061  0.2834  0.1348 -0.2700
   60MPD2    C3  933   0.021   0.552  13.180  0.3227 -0.6432  0.9248
   60MPD2    C4  934   4.712   0.682  13.194  0.7861  0.3765 -0.2974
   60MPD2    C5  935   4.647   0.743  13.088 -0.6034 -0.2652  0.3594
   60MPD2     H  936   0.028   0.382  13.038  0.5922 -0.4296  2.6557
   60MPD2    H1  937   4.736   0.745  13.279  0.5682  0.4971 -0.3269
   60MPD2    H2  938   4.588   0.735  12.882 -1.6660 -1.2934 -0.3443
   60MPD2    H3  939   4.615   0.846  13.094  1.6930  0.4069  1.1817
   60MPD2     N  940   0.106   0.509  13.286  0.4361 -0.5241 -0.3531
   60MPD2    H5  941   0.127   0.572  13.363  0.0343  0.5790 -1.1395
   60MPD2    N1  942   4.633   0.478  12.839  0.0305  0.4229 -0.1344
   60MPD2    H7  943   4.625   0.377  12.840 -1.0689  0.5200  0.8639
   61TMC2    C1  944   4.123   1.598  15.547  0.2266  0.3099  0.2437
   61TMC2    C2  945   4.095   1.521  15.656  0.1849  0.7577  0.2550
   61TMC2    C3  946   4.010   1.562  15.751 -0.0329 -0.3756  0.1746
   61TMC2    C4  947   4.047   1.712  15.526  0.2985  0.0171  0.1045
   61TMC2    C5  948   3.944   1.747  15.611 -0.8020  0.1261 -0.2997
   61TMC2    C6  949   3.922   1.670  15.722  0.5817 -0.3128 -0.4155
   61TMC2     C  950   4.235   1.563  15.453  0.5266  0.7101 -0.1188
   61TMC2     O  951   4.323   1.491  15.490 -0.1417 -0.1975  0.1011
   61TMC2     H  952   4.146   1.427  15.672 -1.5318 -0.3106 -0.4416
   61TMC2    H1  953   4.065   1.782  15.445  0.0424 -1.0708 -0.8817
   61TMC2    H2  954   3.842   1.693  15.791  1.7841  2.0952  0.1589
   61TMC2    C7  955   3.877   1.868  15.591 -0.3344 -0.6712  0.2970
   61TMC2    C8  956   3.963   1.466  15.845  0.7067 -0.6311 -0.2765
   61TMC2    O1  957   3.930   1.954  15.520 -0.0936  0.4643  0.5337
   61TMC2    O2  958   3.970   1.344  15.825  0.0029  0.5428  0.4069
   61TMC2    O5  959   3.923   1.521  15.962 -0.8894  0.9769 -0.3920
   61TMC2    H5  960   3.946   1.617  15.967  4.2913 -0.2643 -0.4221
   62MPD2     C  961   4.420   1.563  15.223 -0.2068  0.2818 -0.0863
   62MPD2    C1  962   4.296   1.629  15.221 -0.3120  0.3366  0.1383
   62MPD2    C2  963   4.259   1.688  15.097 -0.5462  0.1550  1.0325
   62MPD2    C3  964   4.330   1.663  14.980  0.3022 -0.1146 -0.0641
   62MPD2    C4  965   4.454   1.599  14.991 -0.0940 -0.3293 -0.5475
   62MPD2    C5  966   4.486   1.544  15.107  0.0488 -0.4401  0.0601
   62MPD2     H  967   4.168   1.745  15.090 -0.2987  0.4088 -0.0600
   62MPD2    H1  968   4.517   1.589  14.904 -0.2999  0.3002 -0.7725
   62MPD2    H2  969   4.464   1.540  15.320 -0.8788  1.9915  0.6341
   62MPD2    H3  970   4.580   1.490  15.110 -0.5261 -1.4360 -0.0447
   62MPD2     N  971   4.299   1.710  14.853 -0.2287  0.0478  0.6139
   62MPD2    H5  972   4.369   1.720  14.780 -0.6447  1.9153  0.4703
   62MPD2    N1  973   4.211   1.629  15.334  0.0942 -0.3364 -0.3319
   62MPD2    H7  974   4.125   1.683  15.326  1.9339  2.8038  1.0495
   63TMC2    C1  975   3.503   2.069  10.811 -1.2564 -0.3574  0.4159
   63TMC2    C2  976   3.560   2.110  10.931 -0.6271 -0.5009  1.0522
   63TMC2    C3  977   3.671   2.188  10.918  0.5006  0.0583  0.5549
   63TMC2    C4  978   3.557   2.092  10.689 -0.2571 -0.2148 -0.4041
   63TMC2    C5  979   3.670   2.172  10.680  0.5516 -0.0628  0.0153
   63TMC2    C6  980   3.718   2.237  10.796  0.2891  0.8883  0.3157
   63TMC2     C  981   3.390   1.977  10.803  0.0596  0.3460 -0.7147
   63TMC2     O  982   3.361   1.944  10.692 -0.9366 -0.0921 -0.1721
   63TMC2     H  983   3.520   2.072  11.025 -0.3914 -0.2701  1.2429
   63TMC2    H1  984   3.517   2.057  10.595 -0.5022  0.1800 -0.4467
   63TMC2    H2  985   3.803   2.304  10.793  1.4050 -0.3648  3.4986
   63TMC2    C7  986   3.695   2.236  10.552  0.3443 -0.0867 -0.8493
   63TMC2    C8  987   3.714   2.271  11.028 -0.2052 -0.1590 -0.9327
   63TMC2    O1  988   3.599   2.217  10.475  0.0202 -0.6970  0.2716
   63TMC2    O2  989   3.748   2.387  11.014 -0.1794  0.8130 -0.7218
   63TMC2    O5  990   3.665   2.218  11.139  0.1151 -0.2480 -0.2253
   63TMC2    H5  991   3.643   2.123  11.130 -0.1326 -0.1125 -0.9982
   64MPD2     C  992   3.095   1.604  10.975  0.4646 -0.3860 -0.1252
   64MPD2    C1  993   3.160   1.624  10.859 -0.5374  0.0406 -0.6100
   64MPD2    C2  994   3.236   1.733  10.834  0.8530  0.0613 -0.3446
   64MPD2    C3  995   3.258   1.823  10.938  0.4022 -0.0336  0.0458
   64MPD2    C4  996   3.192   1.806  11.056 -0.0880 -0.3055  0.2135
   64MPD2    C5  997   3.100   1.709  11.071  0.3923 -0.1192  1.4960
   64MPD2     H  998   3.278   1.734  10.734  0.7270 -0.3591 -0.3999
   64MPD2    H1  999   3.200   1.877  11.137  0.9340 -0.8955  0.6217
   64MPD2    H2 1000   3.034   1.517  10.998  1.5772 -0.9736  0.5988
   64MPD2    H3 1001   3.033   1.707  11.157  3.0802  1.8543  3.6492
   64MPD2     N 1002   3.344   1.933  10.925 -0.1791  0.0556 -0.5196
   64MPD2    H5 1003   3.353   1.991  11.008 -4.4606  2.5005 -1.7470
   64MPD2    N1 1004   3.172   1.532  10.759  0.7535 -0.3566 -0.2885
   64MPD2    H7 1005   3.240   1.558  10.689  1.8560 -0.7250  0.6436
   65TMC2    C1 1006   4.486   1.453  15.760 -0.2030  0.0964  0.3903
   65TMC2    C2 1007   4.548   1.370  15.660 -0.0495  0.1385 -0.2384
   65TMC2    C3 1008   4.637   1.429  15.580  0.1703 -0.4046 -0.4993
   65TMC2    C4 1009   4.518   1.585  15.772 -0.5016 -0.5477 -0.7504
   65TMC2    C5 1010   4.616   1.635  15.683  0.1606  0.1625  0.3431
   65TMC2    C6 1011   4.671   1.565  15.579 -0.1449  0.2309 -0.5857
   65TMC2     C 1012   4.401   1.400  15.862  0.3456  0.2307 -0.4663
   65TMC2     O 1013   4.340   1.477  15.935 -0.3740  0.0774  0.0280
   65TMC2     H 1014   4.543   1.262  15.656 -1.5255  0.2542 -1.3666
   65TMC2    H1 1015   4.484   1.641  15.858  0.4750  1.1545 -1.4700
   65TMC2    H2 1016   0.016   1.597  15.517  1.0335 -0.0894  0.8076
   65TMC2    C7 1017   4.637   1.780  15.680  0.1635 -0.4866  0.1036
   65TMC2    C8 1018   4.704   1.345  15.483  0.0357  0.3739 -0.0551
   65TMC2    O1 1019   4.691   1.824  15.577  0.2707  0.1505  0.0557
   65TMC2    O2 1020   4.716   1.223  15.494  0.3678 -0.5314 -0.1625
   65TMC2    O5 1021   4.697   1.415  15.369  0.1175 -0.4349 -0.4479
   65TMC2    H5 1022   4.670   1.509  15.366 -0.3660 -0.6123 -1.6180
   66MPD2     C 1023   4.223   1.225  16.026 -0.7688 -0.3926  0.2159
   66MPD2    C1 1024   4.307   1.183  15.928 -1.2270 -0.1414  0.3583
   66MPD2    C2 1025   4.316   1.048  15.894  0.5109  0.3504  0.0872
   66MPD2    C3 1026   4.229   0.958  15.957 -0.1252 -0.0884  0.5995
   66MPD2    C4 1027   4.138   1.007  16.047 -0.1879  1.0755  0.1424
   66MPD2    C5 1028   4.136   1.135  16.084  0.4968  0.1341  0.3399
   66MPD2     H 1029   4.382   1.010  15.817 -0.0407 -0.0653 -0.1746
   66MPD2    H1 1030   4.069   0.943  16.100 -1.9418  1.4098 -1.7069
   66MPD2    H2 1031   4.214   1.328  16.058 -0.1925 -0.8988  2.0282
   66MPD2    H3 1032   4.071   1.178  16.159  0.0384  0.2443 -0.1208
   66MPD2     N 1033   4.215   0.823  15.927  0.0198  1.0644  0.3813
   66MPD2    H5 1034   4.144   0.772  15.979  0.5039 -0.3407 -0.3399
   66MPD2    N1 1035   4.387   1.270  15.853 -0.1994 -0.4828 -0.4255
   66MPD2    H7 1036   4.438   1.226  15.777  0.8706  0.5369 -0.3019
   67TMC2    C1 1037   0.133   0.629  14.632  0.1956 -0.5831  0.1522
   67TMC2    C2 1038   0.079   0.754  14.628 -1.0533 -0.3611 -0.1914
   67TMC2    C3 1039   0.103   0.841  14.729 -0.2500 -0.3442 -0.3107
   67TMC2    C4 1040   0.197   0.585  14.738  0.2887 -0.2065  0.7660
   67TMC2    C5 1041   0.237   0.676  14.833 -0.8951 -0.9128  0.8836
   67TMC2    C6 1042   0.184   0.806  14.834  0.3546  0.1529 -0.1911
   67TMC2     C 1043   0.099   0.530  14.534 -0.4461  0.1770  0.4656
   67TMC2     O 1044   0.170   0.433  14.519  0.2366 -0.0727 -0.0626
   67TMC2     H 1045   0.029   0.793  14.540 -0.1301 -3.2718 -1.9797
   67TMC2    H1 1046   0.246   0.489  14.736 -0.1060 -0.4168  1.0487
   67TMC2    H2 1047   0.222   0.878  14.905 -0.1587  0.6212 -0.3893
   67TMC2    C7 1048   0.299   0.618  14.955  0.3378  0.3419 -0.4144
   67TMC2    C8 1049   0.059   0.979  14.721  0.2031  0.5218  0.2969
   67TMC2    O1 1050   0.363   0.516  14.943 -0.2212 -0.3932  0.2386
   67TMC2    O2 1051   0.025   1.037  14.619  0.8618  0.3481 -0.3269
   67TMC2    O5 1052   0.004   1.011  14.840  0.2889  0.4845 -0.0819
   67TMC2    H5 1053   0.041   0.939  14.896 -0.1814 -0.7209 -1.3222
   68MPD2     C 1054   4.714   0.365  14.310 -0.4394  0.1204  0.4147
   68MPD2    C1 1055   4.648   0.469  14.372  0.3255 -0.1640 -0.4474
   68MPD2    C2 1056   4.522   0.507  14.328 -0.0930  0.1099  0.0149
   68MPD2    C3 1057   4.454   0.428  14.234 -0.4844  0.7901  0.3694
   68MPD2    C4 1058   4.517   0.324  14.173 -0.0357  0.4348  0.0976
   68MPD2    C5 1059   4.639   0.294  14.220 -0.1961  0.2018 -0.2927
   68MPD2     H 1060   4.482   0.594  14.379  1.5253  0.0274  1.4243
   68MPD2    H1 1061   4.474   0.250  14.107 -1.3169 -0.8367  2.3588
   68MPD2    H2 1062   0.071   0.323  14.338 -0.8474 -0.4486  0.9509
   68MPD2    H3 1063   4.677   0.198  14.185 -1.7453  0.0794 -1.6127
   68MPD2     N 1064   4.318   0.452  14.205 -0.5827  0.1824  0.2838
   68MPD2    H5 1065   4.291   0.412  14.116 -0.3357 -1.7950  1.1062
   68MPD2    N1 1066   4.714   0.555  14.468  0.7797  0.4058  0.0059
   68MPD2    H7 1067   4.656   0.629  14.505  2.0749  2.5655 -2.2311
   69TMC2    C1 1068   1.882   1.625  12.726  0.0110  0.7225  0.1522
   69TMC2    C2 1069   1.772   1.614  12.646 -0.3507 -0.7669 -0.8501
   69TMC2    C3 1070   1.780   1.643  12.513  0.4603  0.2917  0.4715
   69TMC2    C4 1071   1.998   1.656  12.669  0.0374 -0.3192  0.0869
   69TMC2    C5 1072   2.007   1.661  12.537 -0.6985  0.0346 -1.0123
   69TMC2    C6 1073   1.900   1.660  12.452  0.0678 -0.3717  0.1654
   69TMC2     C 1074   1.863   1.597  12.869  0.2084  0.1765 -0.1204
   69TMC2     O 1075   1.751   1.595  12.916 -0.2454  0.0860  0.0176
   69TMC2     H 1076   1.674   1.595  12.689 -0.1071 -1.6592 -0.6889
   69TMC2    H1 1077   2.089   1.679  12.722 -1.8662  1.5450  2.5550
   69TMC2    H2 1078   1.907   1.659  12.343 -3.2404  1.2762 -0.0694
   69TMC2    C7 1079   2.130   1.658  12.474  0.5620  0.6571  0.2861
   69TMC2    C8 1080   1.655   1.638  12.437 -0.3152 -0.9315 -0.6008
   69TMC2    O1 1081   2.122   1.612  12.360  0.2875  0.0676 -0.0895
   69TMC2    O2 1082   1.552   1.662  12.504 -0.0730 -0.4611 -0.8859
   69TMC2    O5 1083   1.679   1.671  12.308  0.6293 -0.0216  0.1472
   69TMC2    H5 1084   1.764   1.639  12.271  0.0784 -1.6045  0.2650
   70MPD2     C 1085   2.152   1.559  13.112 -0.0581  0.5757 -0.1564
   70MPD2    C1 1086   2.020   1.557  13.064  0.2321  0.3356  0.7467
   70MPD2    C2 1087   1.921   1.511  13.156  0.1072  1.0768  0.7735
   70MPD2    C3 1088   1.963   1.458  13.276  0.1491 -0.4538  0.1313
   70MPD2    C4 1089   2.098   1.458  13.310 -0.3520 -0.4719 -0.5992
   70MPD2    C5 1090   2.192   1.519  13.233 -0.4769 -0.7754  0.2532
   70MPD2     H 1091   1.818   1.497  13.126  0.0028  1.8031  0.7998
   70MPD2    H1 1092   2.136   1.420  13.405 -1.1517  0.3197  0.0406
   70MPD2    H2 1093   2.231   1.588  13.044  0.4000  1.0297  0.5703
   70MPD2    H3 1094   2.296   1.512  13.263  0.2374  0.8494 -1.8426
   70MPD2     N 1095   1.880   1.392  13.358 -0.1354 -0.7869 -0.2355
   70MPD2    H5 1096   1.931   1.353  13.436 -2.2041 -0.7970  1.0902
   70MPD2    N1 1097   1.990   1.591  12.930 -0.0260 -0.3541  0.1358
   70MPD2    H7 1098   2.072   1.588  12.871 -0.0364 -0.6859  0.1405
   71TMC2    C1 1099   4.283   2.709   0.567 -0.5595 -0.3075 -0.2274
   71TMC2    C2 1100   4.398   2.766   0.507 -0.0610 -0.5297 -0.2717
   71TMC2    C3 1101   4.514   2.705   0.537  0.3394  0.8993  0.0448
   71TMC2    C4 1102   4.297   2.622   0.667  0.9018  0.2332  0.3062
   71TMC2    C5 1103   4.421   2.579   0.696 -0.6408  0.0822 -0.2901
   71TMC2    C6 1104   4.530   2.612   0.634  0.2200 -0.1886 -0.3394
   71TMC2     C 1105   4.156   2.762   0.526 -0.3075  0.1166 -0.0464
   71TMC2     O 1106   4.142   2.872   0.479  0.0542  0.4425 -0.2421
   71TMC2     H 1107   4.378   2.825   0.418  0.1979  1.5946  1.0829
   71TMC2    H1 1108   4.208   2.574   0.707  0.6267 -0.8844 -1.6603
   71TMC2    H2 1109   4.625   2.563   0.654  0.6463  0.0414 -1.7761
   71TMC2    C7 1110   4.440   2.494   0.808  0.6269  0.0189 -0.0796
   71TMC2    C8 1111   4.623   2.714   0.446  0.2945 -0.4309  0.2621
   71TMC2    O1 1112   4.533   2.415   0.795 -0.6625 -0.1510 -0.3906
   71TMC2    O2 1113   4.640   2.818   0.377  0.1048  0.3684  0.7589
   71TMC2    O5 1114   4.627   2.585   0.393  0.7339 -0.3221 -0.1833
   71TMC2    H5 1115   4.595   2.521   0.461 -2.1834  2.1119  0.7004
   72MPD2     C 1116   3.655   2.677   0.463  0.5837 -0.1624 -0.1541
   72MPD2    C1 1117   3.724   2.797   0.462  0.4603  0.0276  0.0139
   72MPD2    C2 1118   3.854   2.802   0.499  0.2861 -0.4978  0.3313
   72MPD2    C3 1119   3.916   2.685   0.533 -0.1795 -0.7777 -0.2250
   72MPD2    C4 1120   3.845   2.561   0.542  1.0965  0.1713  0.3472
   72MPD2    C5 1121   3.717   2.561   0.508  0.5747 -0.0065  0.1332
   72MPD2     H 1122   3.904   2.895   0.474 -3.0266 -0.0239 -4.6184
   72MPD2    H1 1123   3.893   2.467   0.566  0.6397  0.2336  1.5086
   72MPD2    H2 1124   3.552   2.660   0.434  0.5746 -1.4029  0.5760
   72MPD2    H3 1125   3.660   2.470   0.495  1.9430 -0.9847  0.9640
   72MPD2     N 1126   4.056   2.671   0.542 -0.1801 -0.2321  0.2297
   72MPD2    H5 1127   4.086   2.577   0.566 -0.9755 -0.0581  1.8836
   72MPD2    N1 1128   3.664   2.921   0.429  0.0297 -0.1631 -0.4322
   72MPD2    H7 1129   3.722   3.002   0.446  1.1295 -1.2813  1.0909
   73TMC2    C1 1130   3.838   3.749  13.884  0.4544 -0.3974  0.1413
   73TMC2    C2 1131   3.949   3.674  13.904 -0.5589 -0.0985  0.1396
   73TMC2    C3 1132   3.970   3.569  13.821  0.0998  1.0850 -0.2983
   73TMC2    C4 1133   3.738   3.709  13.796  0.5256  0.0673 -0.8694
   73TMC2    C5 1134   3.767   3.609  13.708  0.6855 -0.1773 -0.3617
   73TMC2    C6 1135   3.877   3.534  13.727  0.0164  0.5476  0.0306
   73TMC2     C 1136   3.851   3.895  13.877  0.3394 -0.6718  0.0538
   73TMC2     O 1137   3.812   3.946  13.773  0.1846  0.5273  0.1736
   73TMC2     H 1138   4.024   3.693  13.980  1.0235  3.8084 -2.3576
   73TMC2    H1 1139   3.657   3.779  13.782  0.4836 -0.0475 -1.2025
   73TMC2    H2 1140   3.918   3.467  13.652  1.7748  0.3654  1.1539
   73TMC2    C7 1141   3.748   3.643  13.567  0.6429 -0.9387  0.2216
   73TMC2    C8 1142   4.079   3.482  13.863  0.5437 -0.3142  0.5027
   73TMC2    O1 1143   3.783   3.568  13.480 -0.3473  0.1594  0.2570
   73TMC2    O2 1144   4.170   3.525  13.930 -0.6803  0.4268  0.2872
   73TMC2    O5 1145   4.010   3.368  13.891 -0.1990  0.0444 -0.0149
   73TMC2    H5 1146   3.921   3.364  13.850 -0.6001  1.3989  0.7430
   74MPD2     C 1147   4.132   4.319  13.957  0.3080 -0.1028  0.0313
   74MPD2    C1 1148   4.050   4.286  13.855  0.6370  0.3558 -0.0106
   74MPD2    C2 1149   3.994   4.158  13.847  0.0598  0.2880 -0.5615
   74MPD2    C3 1150   4.007   4.071  13.952  0.7411  0.1557  1.2224
   74MPD2    C4 1151   4.091   4.112  14.055 -0.9358 -0.8018  0.4744
   74MPD2    C5 1152   4.154   4.234  14.061 -0.0623 -0.6733 -0.1757
   74MPD2     H 1153   3.940   4.134  13.756  0.6096  1.3434 -1.1603
   74MPD2    H1 1154   4.096   4.047  14.141  0.1168 -1.1048  0.1857
   74MPD2    H2 1155   4.166   4.422  13.958 -0.7152  0.2470 -1.8743
   74MPD2    H3 1156   4.215   4.251  14.149 -0.3407  0.1026 -0.1347
   74MPD2     N 1157   3.943   3.944  13.966 -0.2473  0.4886  0.2776
   74MPD2    H5 1158   3.969   3.879  14.040 -0.8188  0.1974  0.2267
   74MPD2    N1 1159   4.034   4.383  13.756  0.5050 -0.4090  0.0489
   74MPD2    H7 1160   4.078   4.472  13.776 -0.3915 -0.5892  2.7606
   75TMC2    C1 1161   4.095   0.503  14.227  0.0002  0.3111 -0.2332
   75TMC2    C2 1162   3.993   0.490  14.322  0.2373 -0.9082  0.6470
   75TMC2    C3 1163   3.862   0.466  14.276 -1.3144  0.5653  0.1434
   75TMC2    C4 1164   4.067   0.529  14.099 -0.6075  0.1059 -0.1410
   75TMC2    C5 1165   3.933   0.532  14.062  0.0622  0.5644  0.3575
   75TMC2    C6 1166   3.830   0.493  14.143 -0.6816  0.1133  0.1317
   75TMC2     C 1167   4.226   0.522  14.281 -0.6346 -0.0353 -0.4790
   75TMC2     O 1168   4.241   0.568  14.394 -0.3860 -0.4423  0.6262
   75TMC2     H 1169   4.031   0.483  14.423 -0.6753  0.3397  1.0723
   75TMC2    H1 1170   4.152   0.549  14.036  0.4870  1.5844  1.8240
   75TMC2    H2 1171   3.726   0.496  14.115 -0.9317  0.7017  1.1246
   75TMC2    C7 1172   3.902   0.592  13.932 -0.1573 -0.1502  0.4314
   75TMC2    C8 1173   3.754   0.483  14.367 -0.3660 -0.7124 -0.2545
   75TMC2    O1 1174   3.785   0.591  13.896  0.0974  0.1029  0.1315
   75TMC2    O2 1175   3.655   0.410  14.362 -1.2616 -0.2711  0.0574
   75TMC2    O5 1176   3.759   0.611  14.409  0.2204 -0.0482 -0.7481
   75TMC2    H5 1177   3.813   0.667  14.351 -0.7237  0.3897 -1.2051
   76TMC2    C1 1178   3.413   0.732  12.013 -0.1240 -0.4219  0.4812
   76TMC2    C2 1179   3.337   0.618  12.007 -0.3974 -0.4576  0.0483
   76TMC2    C3 1180   3.396   0.494  11.987 -0.0693 -0.2308 -0.1568
   76TMC2    C4 1181   3.551   0.721  12.015  0.4682  0.2150  0.0157
   76TMC2    C5 1182   3.605   0.600  12.022  0.0291  0.0969 -0.2325
   76TMC2    C6 1183   3.531   0.481  12.001 -0.2842 -0.5484  0.1806
   76TMC2     C 1184   3.336   0.854  12.015 -0.2153  0.2225 -0.7513
   76TMC2     O 1185   3.214   0.844  12.004  0.3987 -0.0995 -0.0750
   76TMC2     H 1186   3.230   0.619  12.028 -1.0120 -3.2919 -2.9569
   76TMC2    H1 1187   3.611   0.811  12.021 -0.6924  1.0388 -1.0250
   76TMC2    H2 1188   3.579   0.384  11.998  2.4594  0.8240 -0.8061
   76TMC2    C7 1189   3.743   0.578  12.024 -0.0291  1.3237  0.2554
   76TMC2    C8 1190   3.321   0.365  11.992  0.0024  0.2079 -0.1846
   76TMC2    O1 1191   3.787   0.464  11.999 -0.2185 -0.1200  0.1074
   76TMC2    O2 1192   3.377   0.258  12.014 -0.1102  0.7600  0.0972
   76TMC2    O5 1193   3.196   0.372  11.941  0.2023  0.0501 -0.0313
   76TMC2    H5 1194   3.180   0.452  11.886  1.2138  0.7651  0.7192
   77MPD2     C 1195   3.286   1.360  12.061 -0.1492 -0.3614 -0.0224
   77MPD2    C1 1196   3.202   1.265  12.010 -0.3582  0.2946  0.0088
   77MPD2    C2 1197   3.240   1.135  11.995 -0.6988 -0.2998  0.1044
   77MPD2    C3 1198   3.370   1.096  12.026  0.5394  0.4754  0.6505
   77MPD2    C4 1199   3.462   1.197  12.051  0.0094  0.3625  0.4906
   77MPD2    C5 1200   3.418   1.329  12.069  0.0621 -0.1480  0.0690
   77MPD2     H 1201   3.162   1.066  11.963 -0.1530 -1.1172  0.5395
   77MPD2    H1 1202   3.568   1.178  12.068  0.5333  1.0850 -1.9059
   77MPD2    H2 1203   3.248   1.456  12.093 -3.3472 -1.3642 -0.7950
   77MPD2    H3 1204   3.502   1.395  12.089 -0.6268  0.5863  0.5175
   77MPD2     N 1205   3.417   0.963  12.025  0.8800 -0.9077 -0.0279
   77MPD2    H5 1206   3.514   0.944  12.049  1.1939 -0.6313 -1.0863
   77MPD2    N1 1207   3.063   1.301  11.987 -0.2066 -0.3797 -0.0026
   77MPD2    H7 1208   3.003   1.232  11.942 -1.2182 -0.0136  0.7702
   78TMC2    C1 1209   0.684   3.449   0.313  0.2015 -0.1445  0.1611
   78TMC2    C2 1210   0.756   3.347   0.257 -0.6012  0.2966  0.1350
   78TMC2    C3 1211   0.747   3.221   0.299  0.4881 -0.1396  0.0224
   78TMC2    C4 1212   0.621   3.426   0.430  0.5080 -0.6021  0.1270
   78TMC2    C5 1213   0.627   3.302   0.479 -0.8210  0.0101  0.0460
   78TMC2    C6 1214   0.689   3.195   0.416  0.4726  0.3082  0.1416
   78TMC2     C 1215   0.708   3.577   0.262  0.9375 -0.0593 -0.1054
   78TMC2     O 1216   0.812   3.596   0.196  0.1956 -0.8658  0.9111
   78TMC2     H 1217   0.809   3.362   0.163  0.5830  2.4697  1.1316
   78TMC2    H1 1218   0.561   3.498   0.485  0.5807 -1.1571  0.9287
   78TMC2    H2 1219   0.703   3.097   0.460  3.3177  1.3489  1.5541
   78TMC2    C7 1220   0.575   3.275   0.610  0.1490 -0.4878 -0.2181
   78TMC2    C8 1221   0.804   3.108   0.224  0.6494  0.1502  0.4020
   78TMC2    O1 1222   0.560   3.158   0.629  0.1880  0.4027  0.2093
   78TMC2    O2 1223   0.756   2.997   0.233  0.1655 -0.2052 -0.0036
   78TMC2    O5 1224   0.873   3.151   0.114  0.3274  0.4704 -0.3112
   78TMC2    H5 1225   0.918   3.236   0.131  0.3360  0.2323  0.8287
   79MPD1     C 1226   0.561   4.064   0.193  0.4135 -1.1169  0.5598
   79MPD1    C1 1227   0.683   4.004   0.179 -0.3153 -0.2967 -1.0005
   79MPD1    C2 1228   0.698   3.870   0.210 -0.4648  0.1288  0.2711
   79MPD1    C3 1229   0.592   3.798   0.258  0.5328 -0.7721  0.3131
   79MPD1    C4 1230   0.468   3.850   0.263  0.5582  0.5761 -0.7369
   79MPD1    C5 1231   0.448   3.983   0.234  0.3514 -0.7900 -0.1340
   79MPD1     H 1232   0.792   3.818   0.193 -0.9056 -0.6330  0.1804
   79MPD1    H1 1233   0.379   3.795   0.293 -0.5536  1.8461 -1.6796
   79MPD1    H2 1234   0.539   4.169   0.179 -0.6635 -1.4193 -0.0103
   79MPD1    H3 1235   0.346   4.019   0.238  0.1818 -1.3822  0.8965
   79MPD1     N 1236   0.599   3.656   0.287 -0.1075 -0.2941  0.6452
   79MPD1    H5 1237   0.509   3.614   0.308 -1.1313  1.4847 -0.2111
   79MPD1    N1 1238   0.800   4.080   0.145 -0.3694 -0.0576 -0.0495
   79MPD1    H6 1239   0.781   4.172   0.105 -1.9351  0.1394  1.1432
   79MPD1    H7 1240   0.862   4.031   0.081  1.1761  1.5125  0.2536
   80TMC2    C1 1241   1.827   0.857  12.475 -0.1870 -0.5437 -0.2277
   80TMC2    C2 1242   1.794   0.941  12.372  0.6668  0.3289 -0.3070
   80TMC2    C3 1243   1.671   0.926  12.321 -0.2009 -0.2747  0.1780
   80TMC2    C4 1244   1.734   0.768  12.526 -0.4895  0.2122 -0.1652
   80TMC2    C5 1245   1.610   0.756  12.470 -0.1487 -0.1607  0.5484
   80TMC2    C6 1246   1.571   0.844  12.370  0.1002 -0.1095 -0.2241
   80TMC2     C 1247   1.953   0.892  12.533 -0.5898  0.0379  0.0546
   80TMC2     O 1248   2.036   0.947  12.458  0.1550  0.2446  0.1147
   80TMC2     H 1249   1.863   1.021  12.347 -1.0277  2.5710  2.1973
   80TMC2    H1 1250   1.754   0.702  12.610 -1.7625  0.0193 -0.0130
   80TMC2    H2 1251   1.476   0.841  12.318  1.3858 -2.3732 -2.3789
   80TMC2    C7 1252   1.519   0.646  12.493  0.0227  0.5997 -0.7508
   80TMC2    C8 1253   1.639   1.006  12.211  0.7388  0.3053 -0.9961
   80TMC2    O1 1254   1.403   0.672  12.464 -0.0327  0.3876  0.6364
   80TMC2    O2 1255   1.524   1.024  12.174  0.4506 -0.8002  0.8398
   80TMC2    O5 1256   1.753   1.021  12.131  0.5399 -0.0591  0.2432
   80TMC2    H5 1257   1.837   0.990  12.170  1.4430 -1.3048 -2.7421
   81MPD2     C 1258   2.194   0.906  12.706  0.5002 -0.3464  0.3415
   81MPD2    C1 1259   2.070   0.860  12.748  0.8417  0.2769 -0.0898
   81MPD2    C2 1260   2.058   0.841  12.885  0.1415 -0.1360  0.0813
   81MPD2    C3 1261   2.165   0.859  12.973 -0.0886  0.4408 -0.1022
   81MPD2    C4 1262   2.289   0.892  12.921 -0.2611 -0.2844  0.2178
   81MPD2    C5 1263   2.301   0.917  12.787  0.5411  0.1664  0.8409
   81MPD2     H 1264   1.962   0.805  12.919 -0.3226 -0.0694 -1.1735
   81MPD2    H1 1265   2.373   0.903  12.989 -0.8501  1.0309  0.7460
   81MPD2    H2 1266   2.206   0.934  12.602 -0.0325  0.4700  0.5084
   81MPD2    H3 1267   2.399   0.942  12.747 -0.5873  3.3304  0.0902
   81MPD2     N 1268   2.141   0.826  13.106 -0.3549 -0.0718  0.3284
   81MPD2    H5 1269   2.048   0.793  13.127  0.3999 -1.8846  0.8554
   81MPD2    N1 1270   1.956   0.856  12.664 -0.3227  0.0328 -0.1230
   81MPD2    H7 1271   1.867   0.826  12.702  1.2033 -5.2329 -0.7864
   82TMC2    C1 1272   0.300   0.565  11.368 -0.0568 -0.7236  0.1976
   82TMC2    C2 1273   0.424   0.571  11.426 -1.3655 -0.5405 -1.1093
   82TMC2    C3 1274   0.453   0.490  11.527 -0.0713  0.9709  0.1654
   82TMC2    C4 1275   0.204   0.466  11.409  0.2332 -0.3991 -0.1057
   82TMC2    C5 1276   0.240   0.381  11.507 -0.0034 -0.7110 -0.5299
   82TMC2    C6 1277   0.363   0.395  11.567 -0.2621 -0.9167  0.3097
   82TMC2     C 1278   0.254   0.666  11.270  0.3887  0.8468 -0.4529
   82TMC2     O 1279   0.139   0.672  11.233  0.1166  0.0817 -0.2836
   82TMC2     H 1280   0.498   0.649  11.411  0.5462 -2.1698 -0.1537
   82TMC2    H1 1281   0.115   0.460  11.348  0.3212 -1.0822 -0.1651
   82TMC2    H2 1282   0.388   0.334  11.653 -1.0971 -1.6201  0.0541
   82TMC2    C7 1283   0.153   0.273  11.551  0.6280 -0.6861 -0.8104
   82TMC2    C8 1284   0.583   0.510  11.591  0.2908  0.2095  0.2072
   82TMC2    O1 1285   0.033   0.271  11.524 -0.4699 -0.3193  0.0336
   82TMC2    O2 1286   0.680   0.543  11.527 -0.6871 -0.1535  0.9988
   82TMC2    O5 1287   0.565   0.523  11.723 -0.0223 -0.9240 -0.5302
   82TMC2    H5 1288   0.472   0.516  11.752 -0.3895  0.9164 -1.2760
   83MPD2     C 1289   0.358   1.063  10.966 -0.9549  0.2969 -0.1937
   83MPD2    C1 1290   0.237   1.025  11.022  0.0890 -0.0023  0.0074
   83MPD2    C2 1291   0.235   0.912  11.102  0.1517  0.5021  0.4526
   83MPD2    C3 1292   0.355   0.850  11.136  0.0471 -0.0187 -0.0720
   83MPD2    C4 1293   0.478   0.899  11.085 -0.0125 -0.3068  0.0748
   83MPD2    C5 1294   0.475   0.999  10.993 -0.2811 -0.2263  0.1568
   83MPD2     H 1295   0.140   0.891  11.150 -1.0750  4.2996 -0.2638
   83MPD2    H1 1296   0.568   0.847  11.115  0.7876  0.4014 -1.1230
   83MPD2    H2 1297   0.355   1.142  10.891 -1.1538  0.4211 -0.0550
   83MPD2    H3 1298   0.573   1.036  10.967 -0.3638 -0.3540 -0.3410
   83MPD2     N 1299   0.365   0.738  11.227 -0.1009 -0.0977 -0.4706
   83MPD2    H5 1300   0.459   0.707  11.249 -0.2659 -1.0852 -1.1818
   83MPD2    N1 1301   0.120   1.095  10.971 -0.4279 -0.6345 -0.2570
   83MPD2    H7 1302   0.148   1.180  10.923  0.8881 -1.0228 -0.1827
   84TMC2    C1 1303   1.570   4.530  11.254 -0.7502  0.2269  0.2412
   84TMC2    C2 1304   1.696   4.480  11.276  0.1423  0.1889 -0.2040
   84TMC2    C3 1305   1.770   4.473  11.158  0.1517 -0.4948  0.5258
   84TMC2    C4 1306   1.504   4.547  11.135 -0.0906 -0.3516 -0.2604
   84TMC2    C5 1307   1.581   4.543  11.027  0.5089  0.1322  0.9224
   84TMC2    C6 1308   1.718   4.509  11.031  0.8488 -0.8017  0.5058
   84TMC2     C 1309   1.485   4.546  11.368  0.5983  0.6478 -0.1188
   84TMC2     O 1310   1.374   4.602  11.354 -0.1442  0.1851  0.2672
   84TMC2     H 1311   1.738   4.468  11.375  0.6279  1.4370 -0.2586
   84TMC2    H1 1312   1.401   4.580  11.129  0.1479  0.2893 -0.8664
   84TMC2    H2 1313   1.782   4.502  10.945  0.3712  3.3388 -0.1943
   84TMC2    C7 1314   1.507   4.554  10.902 -0.1494 -0.4174  0.8792
   84TMC2    C8 1315   1.910   4.440  11.170 -0.5209  0.3343  0.1293
   84TMC2    O1 1316   1.398   4.504  10.884 -0.3765  0.4025  0.0553
   84TMC2    O2 1317   1.969   4.387  11.079  0.1443 -0.4835  0.1145
   84TMC2    O5 1318   1.963   4.547  11.234 -0.1327  0.4912  0.5232
   84TMC2    H5 1319   1.905   4.607  11.285 -0.7113  0.2375  0.1560
   85TMC2    C1 1320   1.818   2.437  15.819 -0.0762  0.0108  0.0922
   85TMC2    C2 1321   1.812   2.573  15.794 -0.3319  0.3859 -0.6421
   85TMC2    C3 1322   1.828   2.610  15.666  0.6430  0.7001  0.2280
   85TMC2    C4 1323   1.852   2.347  15.721 -0.6300 -0.6607 -0.0373
   85TMC2    C5 1324   1.871   2.386  15.593 -0.5230  0.8194  0.2364
   85TMC2    C6 1325   1.861   2.520  15.563 -0.0155 -0.1405 -0.0263
   85TMC2     C 1326   1.799   2.394  15.956  0.1028 -1.1828 -0.0529
   85TMC2     O 1327   1.818   2.478  16.043 -0.1758 -0.5035 -0.5545
   85TMC2     H 1328   1.767   2.646  15.860 -1.4605  0.1902 -1.1834
   85TMC2    H1 1329   1.860   2.242  15.747 -1.2849 -0.3046  1.5638
   85TMC2    H2 1330   1.887   2.562  15.467 -1.0618 -1.0053 -0.6876
   85TMC2    C7 1331   1.926   2.290  15.502 -0.6830 -0.7164 -0.2573
   85TMC2    C8 1332   1.812   2.749  15.635  0.0847  0.2646 -0.1595
   85TMC2    O1 1333   1.919   2.168  15.520 -0.0355 -0.1803  0.0063
   85TMC2    O2 1334   1.840   2.843  15.705  0.3708 -0.3289  0.1606
   85TMC2    O5 1335   1.764   2.764  15.511 -0.5029  0.6981  0.1964
   85TMC2    H5 1336   1.719   2.683  15.480  0.3508 -0.4202  1.8441
   86MPD2     C 1337   1.691   2.053  16.333 -0.6811  0.5493 -0.1540
   86MPD2    C1 1338   1.641   1.998  16.218  0.5052 -0.5179 -0.2859
   86MPD2    C2 1339   1.659   2.077  16.097  0.6567  0.4471 -0.4387
   86MPD2    C3 1340   1.721   2.200  16.098  0.4719  0.1993  0.4288
   86MPD2    C4 1341   1.762   2.248  16.222 -0.5181 -0.0931  0.1800
   86MPD2    C5 1342   1.752   2.178  16.335 -0.3994 -0.3115 -0.6906
   86MPD2     H 1343   1.633   2.037  16.000  0.3404 -0.1892 -0.0935
   86MPD2    H1 1344   1.813   2.344  16.219  1.6291 -1.3015 -1.4487
   86MPD2    H2 1345   1.679   2.007  16.431  1.4800  0.1286 -0.0909
   86MPD2    H3 1346   1.797   2.230  16.419 -0.5469  0.4867 -1.1105
   86MPD2     N 1347   1.743   2.268  15.972  0.5674  0.0260  0.0394
   86MPD2    H5 1348   1.718   2.220  15.886 -0.5201  2.3196 -0.9136
   86MPD2    N1 1349   1.578   1.876  16.205 -0.1753 -0.7838  0.1297
   86MPD2    H7 1350   1.530   1.869  16.116  0.4702  1.3706 -0.3895
   87TMC2    C1 1351   4.189   1.339   0.734 -0.5793  0.0206 -0.3969
   87TMC2    C2 1352   4.268   1.447   0.715 -0.1364  0.4243  0.1011
   87TMC2    C3 1353   4.248   1.544   0.806 -0.6361 -0.6751  0.4715
   87TMC2    C4 1354   4.101   1.321   0.839  0.0706  0.5069 -1.0144
   87TMC2    C5 1355   4.102   1.416   0.938 -1.0382 -0.7386 -0.9007
   87TMC2    C6 1356   4.172   1.532   0.920 -0.0627  0.4296 -0.0248
   87TMC2     C 1357   4.204   1.241   0.625  0.5495  0.4082  0.1766
   87TMC2     O 1358   4.151   1.136   0.640  0.3474  0.6729  0.6464
   87TMC2     H 1359   4.338   1.463   0.633 -2.7896  2.5729 -1.7321
   87TMC2    H1 1360   4.049   1.226   0.845 -0.5894  0.8633 -1.0920
   87TMC2    H2 1361   4.164   1.609   0.995  0.2790 -0.4137  0.8864
   87TMC2    C7 1362   3.986   1.422   1.026 -0.2723 -1.3120  0.1208
   87TMC2    C8 1363   4.339   1.663   0.817  0.1918 -0.6184 -0.4052
   87TMC2    O1 1364   3.958   1.534   1.070  0.3374 -0.8458 -0.6221
   87TMC2    O2 1365   4.384   1.711   0.917  0.1007 -0.4284  0.1157
   87TMC2    O5 1366   4.341   1.736   0.697  0.6544  0.2797 -0.0877
   87TMC2    H5 1367   4.297   1.703   0.616  0.7350 -1.4422  0.5732
   88MPD2     C 1368   3.778   1.151   1.167 -0.1360  0.8918  0.3974
   88MPD2    C1 1369   3.810   1.279   1.131  0.1821  0.2666 -0.0788
   88MPD2    C2 1370   3.727   1.382   1.154 -0.5465  0.3602  0.1991
   88MPD2    C3 1371   3.603   1.358   1.213  0.0317 -0.1729  0.0932
   88MPD2    C4 1372   3.576   1.234   1.263 -0.4637  0.0778 -0.2613
   88MPD2    C5 1373   3.670   1.136   1.250 -1.2266  0.2927  0.1437
   88MPD2     H 1374   3.750   1.480   1.111  1.4027  0.7365  2.1381
   88MPD2    H1 1375   3.478   1.214   1.306  0.6101  0.3683  2.3649
   88MPD2    H2 1376   3.841   1.063   1.159  0.0728  1.0899 -0.1019
   88MPD2    H3 1377   3.650   1.046   1.308 -1.0465  0.3218  0.2491
   88MPD2     N 1378   3.508   1.464   1.229 -0.0163 -0.4147  0.7282
   88MPD2    H5 1379   3.543   1.558   1.221  0.3853 -0.8067 -2.0770
   88MPD2    N1 1380   3.928   1.297   1.056 -1.0448 -0.7377  0.2355
   88MPD2    H7 1381   3.976   1.214   1.021 -1.1819 -0.4254 -0.7062
   89TMC2    C1 1382   4.221   4.622   1.555 -0.1243  0.2317  0.2029
   89TMC2    C2 1383   4.288   4.519   1.502  0.0236  0.5159 -0.2075
   89TMC2    C3 1384   4.397   4.553   1.434  0.1144  0.3716 -0.0382
   89TMC2    C4 1385   4.275   0.012   1.558  0.0558  0.2782  0.5190
   89TMC2    C5 1386   4.391   0.035   1.487 -0.0830 -0.2165 -0.0605
   89TMC2    C6 1387   4.448   4.673   1.415  0.0418 -0.3166  0.1793
   89TMC2     C 1388   4.092   4.591   1.612  0.6306 -0.3868  0.1026
   89TMC2     O 1389   4.025   4.687   1.644  0.5979  0.2002 -0.2860
   89TMC2     H 1390   4.233   4.429   1.474 -0.3734  1.0994 -1.2880
   89TMC2    H1 1391   4.216   0.092   1.602 -0.3004  0.2377  0.1108
   89TMC2    H2 1392   4.541   4.687   1.361 -0.1655 -1.5404 -0.4989
   89TMC2    C7 1393   4.473   0.145   1.539  0.2109  0.0301  0.2053
   89TMC2    C8 1394   4.463   4.446   1.351 -0.7115 -0.1919  0.4380
   89TMC2    O1 1395   4.419   0.199   1.636 -0.2339 -0.1607  0.8466
   89TMC2    O2 1396   4.489   4.466   1.233 -0.5650 -0.3773  0.4357
   89TMC2    O5 1397   4.482   4.335   1.429  0.2345 -0.0576 -0.2343
   89TMC2    H5 1398   4.476   4.358   1.524 -2.1271  1.0472 -0.6422
   90MPD2     C 1399   3.752   4.298   1.859  0.6106  0.0742  0.2453
   90MPD2    C1 1400   3.839   4.217   1.790 -0.1586  0.2858 -0.8380
   90MPD2    C2 1401   3.939   4.277   1.716 -0.0085 -0.0763  0.1049
   90MPD2    C3 1402   3.964   4.411   1.721 -0.4511 -0.5285  0.3123
   90MPD2    C4 1403   3.875   4.488   1.792 -0.0587 -0.2226  0.0938
   90MPD2    C5 1404   3.778   4.433   1.858  0.6495  0.1199  0.6495
   90MPD2     H 1405   4.005   4.219   1.652  0.5311 -1.0030  1.4958
   90MPD2    H1 1406   3.884   4.594   1.811 -2.0272 -0.2034  0.8897
   90MPD2    H2 1407   3.676   4.269   1.931 -0.7083  0.0837 -1.1358
   90MPD2    H3 1408   3.718   4.504   1.915 -1.4023 -0.8109 -0.3284
   90MPD2     N 1409   4.077   4.463   1.657 -0.3619 -0.2166  0.6826
   90MPD2    H5 1410   4.131   4.390   1.613 -0.8146  0.0534 -0.3251
   90MPD2    N1 1411   3.819   4.082   1.781 -0.5018 -0.1908 -0.4384
   90MPD2    H7 1412   3.861   4.029   1.706 -1.3030 -2.0870  0.4362
   91TMC2    C1 1413   1.528   3.453  16.592 -0.4009  0.0914 -0.0145
   91TMC2    C2 1414   1.543   3.482  16.728 -0.4441  0.4749  0.1464
   91TMC2    C3 1415   1.450   3.432  16.812 -0.1975 -0.0287  0.4815
   91TMC2    C4 1416   1.425   3.371  16.551 -0.5592  0.0170  0.2741
   91TMC2    C5 1417   1.340   3.322  16.646 -0.4037  0.3104 -0.5833
   91TMC2    C6 1418   1.360   3.344  16.779  0.2342 -0.0254  0.0379
   91TMC2     C 1419   1.598   3.523  16.490  0.1340  0.1435 -0.2768
   91TMC2     O 1420   1.548   3.527  16.375  0.4690 -0.0868  0.3008
   91TMC2     H 1421   1.618   3.553  16.761 -1.2313  0.0129  2.9628
   91TMC2    H1 1422   1.431   3.337  16.448  0.0385 -0.1825  0.3789
   91TMC2    H2 1423   1.296   3.316  16.862  0.2142 -1.7963 -0.5640
   91TMC2    C7 1424   1.257   3.203  16.614 -0.3996 -0.0633  0.3643
   91TMC2    C8 1425   1.465   3.448  16.957  0.7477 -0.2167  0.3309
   91TMC2    O1 1426   1.225   3.122  16.698  0.7732 -0.1476  0.0488
   91TMC2    O2 1427   1.420   3.369  17.040  0.0657  0.2164  0.4471
   91TMC2    O5 1428   1.561   3.536  16.997 -0.7185  0.0351 -0.0414
   91TMC2    H5 1429   1.585   3.603  16.929  1.4365 -1.2054 -0.5051
   92MPD2     C 1430   1.785   3.703  16.328 -0.1678  0.5153 -0.2733
   92MPD2    C1 1431   1.811   3.652  16.457 -0.7502 -0.1026  0.3398
   92MPD2    C2 1432   1.941   3.655  16.511  0.2141  0.1475  0.3104
   92MPD2    C3 1433   2.045   3.698  16.432 -0.0064  0.5571 -0.8060
   92MPD2    C4 1434   2.019   3.751  16.308  0.4414 -0.3787  0.1219
   92MPD2    C5 1435   1.890   3.754  16.256  0.0456 -0.4289 -0.1865
   92MPD2     H 1436   1.952   3.610  16.609 -1.0498  0.2859  0.5086
   92MPD2    H1 1437   2.099   3.800  16.253  0.9807 -1.0000  0.3583
   92MPD2    H2 1438   1.684   3.708  16.289 -0.6146 -1.8290  0.6238
   92MPD2    H3 1439   1.871   3.792  16.156  2.8712 -3.9946 -2.1027
   92MPD2     N 1440   2.173   3.679  16.481  0.0505  0.0139  0.3746
   92MPD2    H5 1441   2.184   3.653  16.578  1.1963  0.0796  0.2577
   92MPD2    N1 1442   1.718   3.579  16.530 -0.1095 -0.3893 -0.2895
   92MPD2    H7 1443   1.755   3.552  16.620  2.9824 -2.1731 -2.0954
   93TMC2    C1 1444   4.185   3.035  13.926  0.5814 -0.9016 -0.5136
   93TMC2    C2 1445   4.141   3.076  13.804 -0.1927 -0.7410 -0.2749
   93TMC2    C3 1446   4.220   3.144  13.720  0.5263 -0.3225 -0.3073
   93TMC2    C4 1447   4.307   3.076  13.969 -0.5502 -0.0248  0.0604
   93TMC2    C5 1448   4.382   3.144  13.879  0.9195 -0.3211  0.2461
   93TMC2    C6 1449   4.350   3.171  13.751  0.0096  0.2564 -0.3720
   93TMC2     C 1450   4.118   2.952  14.022 -0.0492  0.1421  0.2153
   93TMC2     O 1451   4.167   2.935  14.132  0.6617  0.1188 -0.1126
   93TMC2     H 1452   4.048   3.048  13.758 -0.0554 -0.0115 -1.0049
   93TMC2    H1 1453   4.347   3.030  14.059 -0.0775  2.9582  1.3707
   93TMC2    H2 1454   4.407   3.236  13.686  0.2666 -0.0424 -0.4466
   93TMC2    C7 1455   4.514   3.198  13.915  0.1515 -0.6729 -0.1389
   93TMC2    C8 1456   4.163   3.213  13.602 -0.4657 -0.4251 -0.6347
   93TMC2    O1 1457   4.603   3.213  13.833 -0.1947 -0.0529  0.3503
   93TMC2    O2 1458   4.041   3.235  13.596  0.3242 -0.3478 -0.5063
   93TMC2    O5 1459   4.247   3.209  13.499  0.3793 -0.2878  0.0982
   93TMC2    H5 1460   4.336   3.176  13.521 -0.0072 -0.8924  0.7429
   94MPD2     C 1461   3.921   2.804  14.172 -0.2827  0.6599 -0.5159
   94MPD2    C1 1462   3.886   2.847  14.052  0.1716  0.3809 -0.3858
   94MPD2    C2 1463   3.756   2.835  14.006  0.0884  0.4389 -0.5783
   94MPD2    C3 1464   3.652   2.787  14.090  0.1276  0.8148 -0.4135
   94MPD2    C4 1465   3.690   2.733  14.206  0.1981  0.4326 -0.0360
   94MPD2    C5 1466   3.822   2.746  14.250 -0.0975 -0.0812  0.2256
   94MPD2     H 1467   3.731   2.874  13.908  2.4919 -1.0812 -1.8042
   94MPD2    H1 1468   3.620   2.681  14.272 -2.2841  0.3097 -2.7566
   94MPD2    H2 1469   4.017   2.810  14.221  0.6128 -0.8499 -2.0673
   94MPD2    H3 1470   3.848   2.694  14.342  0.4556 -2.6528 -1.3798
   94MPD2     N 1471   3.516   2.810  14.065 -0.3460  0.4235  0.6179
   94MPD2    H5 1472   3.450   2.785  14.138 -0.8898 -0.1148 -0.0460
   94MPD2    N1 1473   3.988   2.915  13.973 -0.0902 -0.5347 -0.4034
   94MPD2    H7 1474   3.958   2.941  13.879 -0.8066 -0.2380 -0.0886
   95TMC2    C1 1475   3.335   0.182  16.062  0.0442 -0.0697 -0.1306
   95TMC2    C2 1476   3.387   0.102  16.169  0.1750 -0.2220 -0.4174
   95TMC2    C3 1477   3.320   4.726  16.199  0.4704 -0.2389 -0.2662
   95TMC2    C4 1478   3.218   0.152  15.999 -0.7000  0.8415 -0.0595
   95TMC2    C5 1479   3.155   0.039  16.042  0.3333  0.6722 -0.2911
   95TMC2    C6 1480   3.203   4.694  16.139 -0.2541  0.1839  0.0178
   95TMC2     C 1481   3.427   0.281  15.999  0.1737 -0.1647 -1.0945
   95TMC2     O 1482   3.530   0.315  16.063  0.0034  0.0012 -0.5534
   95TMC2     H 1483   3.480   0.117  16.223 -0.4559  0.9167  0.3566
   95TMC2    H1 1484   3.184   0.224  15.926  0.3862  0.0956 -1.2934
   95TMC2    H2 1485   3.153   4.601  16.162 -2.1198  1.2379  0.2532
   95TMC2    C7 1486   3.036   0.008  15.958 -0.0113  0.0658 -0.0344
   95TMC2    C8 1487   3.375   4.625  16.290 -0.2326  0.5027  0.2907
   95TMC2    O1 1488   2.979   0.099  15.896  0.2694  0.6107  0.3385
   95TMC2    O2 1489   3.304   4.550  16.356  0.2207 -0.5756 -0.1556
   95TMC2    O5 1490   3.503   4.620  16.267  0.4698 -0.2253  0.0953
   95TMC2    H5 1491   3.549   4.683  16.208 -0.9836 -0.4720 -1.3104
   96MPD2     C 1492   3.596   0.494  15.556 -0.6507  0.0967 -0.3692
   96MPD2    C1 1493   3.669   0.473  15.672  0.0020  0.1783 -0.6542
   96MPD2    C2 1494   3.604   0.406  15.779 -0.3540  0.6479  0.0519
   96MPD2    C3 1495   3.469   0.368  15.767 -0.9217 -0.0409  0.4725
   96MPD2    C4 1496   3.405   0.391  15.647  0.4870 -0.2587 -0.5437
   96MPD2    C5 1497   3.469   0.453  15.541  0.0549  0.4347 -0.1126
   96MPD2     H 1498   3.654   0.384  15.873 -0.3726 -0.4125 -0.1901
   96MPD2    H1 1499   3.304   0.358  15.627  0.8524  0.1762 -3.1840
   96MPD2    H2 1500   3.650   0.533  15.470 -0.6810 -3.3543 -1.9873
   96MPD2    H3 1501   3.412   0.479  15.453 -2.6062 -1.7022  1.0116
   96MPD2     N 1502   3.398   0.303  15.864  0.3736  0.3637 -0.5039
   96MPD2    H5 1503   3.310   0.267  15.827  0.1037  0.3251  0.1884
   96MPD2    N1 1504   3.805   0.494  15.663 -0.1055 -0.7118 -0.1065
   96MPD2    H7 1505   3.845   0.532  15.577 -0.5230  0.5711  0.2720
   97TMC2    C1 1506   0.592   3.694  17.640 -0.4690 -0.0513  0.2797
   97TMC2    C2 1507   0.503   3.801  17.627  0.5401  0.4157  0.0876
   97TMC2    C3 1508   0.562   3.921  17.590 -0.8589 -0.8715  0.2871
   97TMC2    C4 1509   0.727   3.702  17.632 -0.4892 -0.3534 -0.4341
   97TMC2    C5 1510   0.775   3.830  17.614  0.0602 -0.0821 -1.3394
   97TMC2    C6 1511   0.694   3.939  17.583  0.3515 -0.8013  0.3700
   97TMC2     C 1512   0.531   3.574  17.706  0.9151  0.2174  0.3709
   97TMC2     O 1513   0.426   3.595   0.015 -0.0162  0.2432  0.1274
   97TMC2     H 1514   0.396   3.799  17.639  0.2011  1.3370 -3.0160
   97TMC2    H1 1515   0.786   3.612  17.650  0.0350 -0.1811 -1.3092
   97TMC2    H2 1516   0.733   4.037  17.560  0.7723 -1.3946 -1.3951
   97TMC2    C7 1517   0.900   3.862  17.663  0.3567  0.3798 -0.6555
   97TMC2    C8 1518   0.486   4.043  17.578 -0.1536 -0.0717  0.1041
   97TMC2    O1 1519   0.927   3.979  17.643  0.0767  0.1704 -0.5319
   97TMC2    O2 1520   0.538   4.155  17.571 -0.1928 -0.6194  0.0856
   97TMC2    O5 1521   0.359   4.014  17.534 -0.0156 -0.1764  0.2188
   97TMC2    H5 1522   0.334   3.919  17.529 -0.1241 -0.3160  3.3234
   98MPD2     C 1523   0.483   3.060  17.744 -0.5217 -0.2521 -0.5703
   98MPD2    C1 1524   0.440   3.154   0.082 -0.0831 -0.0645 -0.9124
   98MPD2    C2 1525   0.464   3.290   0.063 -0.3449  0.0586 -0.7984
   98MPD2    C3 1526   0.553   3.327  17.709  0.6639  0.2466 -0.1329
   98MPD2    C4 1527   0.614   3.227  17.637 -0.6795 -0.1509  0.7507
   98MPD2    C5 1528   0.568   3.104  17.643 -0.1292  0.6437 -0.2699
   98MPD2     H 1529   0.432   3.365   0.134 -0.7910 -1.2822  0.3921
   98MPD2    H1 1530   0.685   3.255  17.560 -1.9414  0.5847 -0.1343
   98MPD2    H2 1531   0.445   2.959  17.749  0.3238 -0.6298 -1.6995
   98MPD2    H3 1532   0.588   3.036  17.561 -0.1213  0.0167  0.2413
   98MPD2     N 1533   0.591   3.456  17.670  0.0518 -0.5388  0.2103
   98MPD2    H5 1534   0.668   3.464  17.605  0.8641  1.9572  1.4803
   98MPD2    N1 1535   0.376   3.104   0.206  0.6759 -0.5823 -0.0760
   98MPD2    H7 1536   0.362   3.004   0.211  0.0975 -0.4947  0.0475
   99TMC2    C1 1537   4.460   1.004   1.696  0.0022 -0.3561 -0.3762
   99TMC2    C2 1538   4.553   1.034   1.790 -0.1675 -0.1364  0.4789
   99TMC2    C3 1539   4.508   1.074   1.911 -0.0619  0.7946 -0.0590
   99TMC2    C4 1540   4.329   0.979   1.724  0.6123 -0.4974 -0.0237
   99TMC2    C5 1541   4.298   0.995   1.852  0.4110  0.0051  0.6426
   99TMC2    C6 1542   4.380   1.043   1.950 -0.2439 -0.0076  1.1566
   99TMC2     C 1543   4.507   1.009   1.558 -0.1080  0.1639 -0.3262
   99TMC2     O 1544   4.603   1.080   1.527  0.1672 -0.3672 -1.1444
   99TMC2     H 1545   4.656   1.055   1.761 -0.2697  0.1396  0.3157
   99TMC2    H1 1546   4.251   0.959   1.651  0.4208  0.4688 -0.0860
   99TMC2    H2 1547   4.353   1.060   2.054 -0.4279 -0.1383  1.1297
   99TMC2    C7 1548   4.169   0.958   1.893 -0.0131 -0.2410  0.0741
   99TMC2    C8 1549   4.601   1.061   2.015  0.8737  0.4105  0.4910
   99TMC2    O1 1550   4.129   1.018   1.990 -0.4605  0.5763  0.6272
   99TMC2    O2 1551   4.712   1.016   1.991 -0.4686 -0.7319  0.2416
   99TMC2    O5 1552   4.575   1.174   2.081 -0.1439  0.5529 -0.3782
   99TMC2    H5 1553   4.481   1.205   2.084 -0.0178  0.7804  1.2420
  100MPD2     C 1554   4.557   0.965   1.269 -0.5312  0.4799 -0.4948
  100MPD2    C1 1555   4.451   0.906   1.337  0.1781 -0.1696  0.2816
  100MPD2    C2 1556   4.362   0.838   1.262 -0.2818 -0.7678 -0.2804
  100MPD2    C3 1557   4.394   0.806   1.130  0.0125 -0.2321  0.0863
  100MPD2    C4 1558   4.503   0.867   1.067 -0.8348  0.1454 -0.5672
  100MPD2    C5 1559   4.572   0.963   1.135 -0.4318 -0.3061  0.4745
  100MPD2     H 1560   4.277   0.794   1.312  1.5945  0.8904  4.3643
  100MPD2    H1 1561   4.521   0.844   0.962  0.6930  1.7696 -0.6610
  100MPD2    H2 1562   4.630   1.027   1.319  0.1890  0.2201 -1.2163
  100MPD2    H3 1563   4.648   1.027   1.093 -1.2248 -1.2781 -2.4471
  100MPD2     N 1564   4.317   0.707   1.062  0.1900 -1.0102  0.0660
  100MPD2    H5 1565   4.236   0.667   1.107  0.0217 -0.3540  0.3382
  100MPD2    N1 1566   4.437   0.927   1.477  0.2397  0.1733 -0.3214
  100MPD2    H7 1567   4.362   0.875   1.521  1.0500 -1.3029 -0.6655
  101TMC2    C1 1568   0.876   1.117  13.300  0.5395 -0.4730 -0.2012
  101TMC2    C2 1569   0.779   1.195  13.360  0.3276 -0.5655 -0.0089
  101TMC2    C3 1570   0.764   1.327  13.318  0.1650 -0.0163  0.0331
  101TMC2    C4 1571   0.951   1.173  13.198 -0.3107  0.5104 -0.2029
  101TMC2    C5 1572   0.937   1.302  13.168 -0.8219 -0.5227 -0.0862
  101TMC2    C6 1573   0.836   1.376  13.214 -0.4437  0.7402  0.0742
  101TMC2     C 1574   0.835   0.979  13.310 -0.6278  0.4768 -0.3171
  101TMC2     O 1575   0.714   0.963  13.322  0.8434 -0.1540 -0.0161
  101TMC2     H 1576   0.715   1.164  13.443 -0.2368 -1.9936 -0.9659
  101TMC2    H1 1577   1.022   1.103  13.155  0.6804  1.6315 -0.4019
  101TMC2    H2 1578   0.816   1.479  13.186 -1.6026  0.6779  0.6427
  101TMC2    C7 1579   1.018   1.372  13.066  0.4629 -0.0060  0.0145
  101TMC2    C8 1580   0.637   1.385  13.354  0.2339 -0.4198 -0.5543
  101TMC2    O1 1581   0.997   1.492  13.049  0.1918  0.9885  0.1304
  101TMC2    O2 1582   0.587   1.359  13.463  0.2944 -0.4620 -0.5080
  101TMC2    O5 1583   0.567   1.382  13.240  0.4428  0.0524  0.1192
  101TMC2    H5 1584   0.622   1.390  13.159  0.7255  0.1175  0.3172
  102MPD2     C 1585   0.986   0.673  13.181 -0.2387  0.3714 -0.2299
  102MPD2    C1 1586   0.906   0.751  13.259 -0.0545  0.3921  0.8249
  102MPD2    C2 1587   0.816   0.684  13.341 -0.7146  0.8459 -0.2106
  102MPD2    C3 1588   0.790   0.546  13.321 -0.6047 -0.5449 -0.6269
  102MPD2    C4 1589   0.873   0.468  13.252 -0.4412 -0.5237  0.9568
  102MPD2    C5 1590   0.975   0.532  13.187 -0.1516 -0.4954  0.7273
  102MPD2     H 1591   0.755   0.740  13.410  0.3436 -0.6616  1.9577
  102MPD2    H1 1592   0.861   0.360  13.252  0.5036 -0.6328  2.4864
  102MPD2    H2 1593   1.057   0.724  13.116 -2.6478  0.2467 -2.9414
  102MPD2    H3 1594   1.064   0.489  13.141 -1.8190 -1.0844 -1.9816
  102MPD2     N 1595   0.687   0.488  13.395 -0.3023  0.3750  0.1710
  102MPD2    H5 1596   0.650   0.544  13.471  0.1866  1.7291 -0.5951
  102MPD2    N1 1597   0.929   0.890  13.277 -0.5014  0.1815  0.0185
  102MPD2    H7 1598   1.025   0.919  13.260 -0.3171  0.2832  1.2741
  103TMC2    C1 1599   4.164   1.139  12.408 -1.3454 -0.9394  0.4260
  103TMC2    C2 1600   4.299   1.151  12.391  0.4327  0.5091 -0.5872
  103TMC2    C3 1601   4.359   1.247  12.463 -0.1827  0.0457 -0.2515
  103TMC2    C4 1602   4.096   1.230  12.478  0.1466  1.2152  0.2892
  103TMC2    C5 1603   4.159   1.325  12.551 -0.6815 -0.2198 -0.7933
  103TMC2    C6 1604   4.297   1.342  12.542 -0.1138 -0.0501 -0.3984
  103TMC2     C 1605   4.086   1.061  12.316  0.3246  0.2175  0.4655
  103TMC2     O 1606   3.964   1.069  12.316  0.7665 -0.1459  0.1225
  103TMC2     H 1607   4.355   1.075  12.337 -1.6289  0.3651 -2.5075
  103TMC2    H1 1608   3.990   1.211  12.492  0.4577 -0.1349  0.7711
  103TMC2    H2 1609   4.358   1.417  12.592  0.7551  0.1566 -1.7663
  103TMC2    C7 1610   4.078   1.419  12.626 -0.7770 -0.0658 -0.4635
  103TMC2    C8 1611   4.490   1.275  12.419 -0.2804  0.1367  0.1062
  103TMC2    O1 1612   3.980   1.373  12.689  0.3347 -0.0521 -0.1622
  103TMC2    O2 1613   4.574   1.193  12.386  0.0257 -0.6378 -0.7052
  103TMC2    O5 1614   4.476   1.405  12.382  0.1765  0.0459  0.0337
  103TMC2    H5 1615   4.384   1.440  12.392 -0.9265 -2.0699 -2.5420
  104MPD2     C 1616   4.194   0.806  12.075  0.4776 -0.1214  0.3340
  104MPD2    C1 1617   4.111   0.868  12.164 -0.3525  0.8414  0.2698
  104MPD2    C2 1618   3.978   0.822  12.166 -0.0241  0.1417 -0.4168
  104MPD2    C3 1619   3.939   0.718  12.087 -0.5956 -0.5312  0.2103
  104MPD2    C4 1620   4.026   0.661  11.991 -0.4108  0.2807 -0.3524
  104MPD2    C5 1621   4.154   0.708  11.991 -0.3922 -0.3129 -0.0713
  104MPD2     H 1622   3.906   0.860  12.238  0.3680 -0.6310  0.3763
  104MPD2    H1 1623   3.996   0.578  11.928  2.7369 -0.7174 -0.5276
  104MPD2    H2 1624   4.299   0.833  12.079 -0.0745  2.0969 -0.0343
  104MPD2    H3 1625   4.234   0.657  11.938 -0.0067 -0.3232  0.5125
  104MPD2     N 1626   3.803   0.686  12.091 -0.7589 -0.6725 -0.9473
  104MPD2    H5 1627   3.729   0.741  12.132 -2.3302 -2.7427 -0.9894
  104MPD2    N1 1628   4.164   0.977  12.238 -0.0539 -0.3424 -0.0435
  104MPD2    H7 1629   4.265   0.988  12.235  0.2447 -2.0242  2.9256
  105TMC2    C1 1630   4.328   0.447   0.105 -0.1140  0.8884  0.4485
  105TMC2    C2 1631   4.246   0.394   0.200  0.3272  0.1893 -0.0866
  105TMC2    C3 1632   4.174   0.484   0.272 -0.2034  0.3074  0.5115
  105TMC2    C4 1633   4.329   0.582   0.084 -0.3726  0.0737 -0.1881
  105TMC2    C5 1634   4.249   0.666   0.160 -0.4190 -0.6104 -0.3519
  105TMC2    C6 1635   4.173   0.622   0.263  0.1498 -0.7522  0.9570
  105TMC2     C 1636   4.435   0.361   0.058  0.0824 -0.3942  0.2399
  105TMC2     O 1637   4.428   0.241   0.085 -0.2511 -0.2841 -0.2192
  105TMC2     H 1638   4.253   0.287   0.217 -0.9400  0.2816  1.0049
  105TMC2    H1 1639   4.380   0.619  17.748  1.1759 -1.3358  0.1242
  105TMC2    H2 1640   4.099   0.679   0.318  0.2728 -0.2870  0.6419
  105TMC2    C7 1641   4.244   0.804   0.128  0.1528  0.5223  0.0586
  105TMC2    C8 1642   4.102   0.433   0.382 -0.0861  0.5825  0.7013
  105TMC2    O1 1643   4.279   0.837   0.014  0.3226 -0.0444 -0.2125
  105TMC2    O2 1644   4.111   0.487   0.490 -0.1112  0.6894 -0.6368
  105TMC2    O5 1645   4.064   0.307   0.352 -0.0919  0.4709 -0.0841
  105TMC2    H5 1646   4.053   0.301   0.255 -0.6301  0.0448  0.0012
  106MPD2     C 1647   0.135   0.308  17.529 -0.3799 -0.1116 -0.3488
  106MPD2    C1 1648   0.110   0.443  17.550  0.1438 -0.4974 -0.3799
  106MPD2    C2 1649   0.001   0.478  17.626  0.6832  0.4455 -0.2647
  106MPD2    C3 1650   4.656   0.381  17.683 -0.4213 -0.6926 -0.2972
  106MPD2    C4 1651   4.695   0.246  17.677  0.5393 -0.3384 -0.6078
  106MPD2    C5 1652   0.067   0.215  17.607  0.1250 -0.2103 -0.0728
  106MPD2     H 1653   4.729   0.582  17.655  3.7026  0.5732  0.3843
  106MPD2    H1 1654   4.634   0.167  17.719 -0.3395  1.4579  1.4652
  106MPD2    H2 1655   0.208   0.275  17.456 -0.3947  0.9623 -0.8563
  106MPD2    H3 1656   0.092   0.111  17.587  1.0757 -0.0370  0.2057
  106MPD2     N 1657   4.538   0.434  17.750  0.0898 -0.0854 -0.0537
  106MPD2    H5 1658   4.530   0.534  17.734 -0.9212 -0.0157  0.9159
  106MPD2    N1 1659   0.181   0.545  17.484 -0.5390 -0.5970  0.6191
  106MPD2    H7 1660   0.146   0.638  17.504  0.3449 -0.2390  0.5300
  107TMC2    C1 1661   0.793   0.052  11.986  0.5508  0.3468 -0.9773
  107TMC2    C2 1662   0.820   0.180  11.961 -0.4310 -0.3756 -0.0345
  107TMC2    C3 1663   0.935   0.225  11.899  0.3347  0.0471 -0.2738
  107TMC2    C4 1664   0.886   4.692  11.954 -0.3561  0.1415  0.1788
  107TMC2    C5 1665   0.998   4.738  11.896  0.6723  0.6285  0.4896
  107TMC2    C6 1666   1.023   0.128  11.863 -0.0857  0.0354  0.2306
  107TMC2     C 1667   0.705   0.040  12.106  0.4698  0.0627 -0.5855
  107TMC2     O 1668   0.620   0.126  12.128 -0.4749  0.0808  0.7913
  107TMC2     H 1669   0.746   0.253  11.989  1.1463  1.8767 -1.7559
  107TMC2    H1 1670   0.883   4.585  11.971  0.4907  0.0499 -0.2025
  107TMC2    H2 1671   1.114   0.137  11.805  0.3494 -1.8032  0.6314
  107TMC2    C7 1672   1.109   4.643  11.897 -0.2775 -0.7472  0.1668
  107TMC2    C8 1673   0.935   0.356  11.836 -0.4044 -0.4411 -0.0156
  107TMC2    O1 1674   1.112   4.576  11.999 -0.8545  0.5651 -0.0282
  107TMC2    O2 1675   1.042   0.417  11.839 -0.7154  0.0526 -0.2104
  107TMC2    O5 1676   0.862   0.343  11.726 -0.0537 -0.3137  0.2016
  107TMC2    H5 1677   0.805   0.264  11.725 -2.0727  1.1551 -1.2299
  108MPD2     C 1678   0.724   4.547  12.399  0.3568 -0.9827  0.1864
  108MPD2    C1 1679   0.677   4.653  12.323  0.0591  0.2937  0.6817
  108MPD2    C2 1680   0.585   0.004  12.378  0.3282 -0.6184 -0.1144
  108MPD2    C3 1681   0.565   0.004  12.519 -0.1961 -0.3585  0.0334
  108MPD2    C4 1682   0.619   4.637  12.589 -0.4860  0.6929 -0.3611
  108MPD2    C5 1683   0.689   4.536  12.531  0.5291  0.6970  0.5265
  108MPD2     H 1684   0.537   0.081  12.319 -2.4942 -0.6265  2.1598
  108MPD2    H1 1685   0.606   4.638  12.696  1.5033  1.2424 -0.1244
  108MPD2    H2 1686   0.792   4.475  12.355  1.8451 -0.3035  1.3801
  108MPD2    H3 1687   0.717   4.445  12.583 -0.0798  0.6858  0.8449
  108MPD2     N 1688   0.499   0.097  12.601  0.0164 -0.4888  0.3081
  108MPD2    H5 1689   0.493   0.080  12.701  0.4795  1.0503  0.6063
  108MPD2    N1 1690   0.730   4.669  12.194 -0.3061  0.7980  0.1179
  108MPD2    H7 1691   0.806   4.607  12.167 -0.7552 -0.6751  2.2358
  109TMC2    C1 1692   4.694   2.020   0.811  0.0595  0.1692 -0.0464
  109TMC2    C2 1693   4.558   2.028   0.825  0.6920 -0.2373 -0.0043
  109TMC2    C3 1694   4.496   2.091   0.719  0.7707 -0.2855  0.0811
  109TMC2    C4 1695   0.023   2.082   0.703  0.6076  0.2419  0.1446
  109TMC2    C5 1696   4.690   2.143   0.603 -0.2819  0.1544 -0.2075
  109TMC2    C6 1697   4.560   2.139   0.608  0.6313 -0.5405  0.1803
  109TMC2     C 1698   0.036   2.004   0.931  0.0940 -0.1558  0.3643
  109TMC2     O 1699   0.043   1.893   0.982  0.6382 -0.4027  0.0261
  109TMC2     H 1700   4.514   2.020   0.924  0.5622 -3.5002 -0.3294
  109TMC2    H1 1701   0.131   2.068   0.701  0.5623 -0.3010  1.3852
  109TMC2    H2 1702   4.503   2.180   0.525 -1.7463  1.2051  2.6578
  109TMC2    C7 1703   0.016   2.254   0.530  0.4640 -0.6377  0.0254
  109TMC2    C8 1704   4.353   2.094   0.719  0.4335 -0.4677  0.3755
  109TMC2    O1 1705   4.685   2.352   0.503  0.4484  0.5182 -0.1430
  109TMC2    O2 1706   4.283   2.084   0.822 -0.4300  0.1331 -0.0899
  109TMC2    O5 1707   4.319   2.047   0.596  0.3713 -0.0521  0.0285
  109TMC2    H5 1708   4.394   2.010   0.545 -0.0545 -0.0833 -0.5784
  110MPD2     C 1709   0.358   2.210   1.271 -0.2932  0.9049 -0.0492
  110MPD2    C1 1710   0.316   2.309   1.188  0.1257 -0.7244 -0.7147
  110MPD2    C2 1711   0.234   2.278   1.080 -0.1357  0.1726 -0.1279
  110MPD2    C3 1712   0.187   2.145   1.066 -0.1603 -0.1174 -0.8624
  110MPD2    C4 1713   0.234   2.042   1.149 -0.1434  0.3834 -0.5973
  110MPD2    C5 1714   0.317   2.078   1.250  0.5811  0.4519 -0.0829
  110MPD2     H 1715   0.196   2.350   1.008 -3.2586  0.4346  1.8049
  110MPD2    H1 1716   0.210   1.940   1.120 -0.5312  0.0563  0.9148
  110MPD2    H2 1717   0.436   2.227   1.345  2.2206  1.9666 -2.9192
  110MPD2    H3 1718   0.368   1.998   1.302  0.4093 -0.1246 -0.7962
  110MPD2     N 1719   0.106   2.118   0.954  0.7028  0.5116 -0.0716
  110MPD2    H5 1720   0.078   2.202   0.904 -2.5420  0.3215  1.3773
  110MPD2    N1 1721   0.367   2.435   1.208  0.3239 -0.0476  0.0742
  110MPD2    H7 1722   0.431   2.447   1.286 -3.4631 -0.7140  3.3013
  111TMC2    C1 1723   0.486   2.352  12.095  0.9161  0.5463  0.9208
  111TMC2    C2 1724   0.411   2.451  12.140 -0.2531  0.1879  0.3433
  111TMC2    C3 1725   0.446   2.503  12.266 -0.5395  0.3187 -0.1358
  111TMC2    C4 1726   0.608   2.308  12.150 -0.5402  0.7466  1.2004
  111TMC2    C5 1727   0.632   2.361  12.273  0.4367 -0.0156 -0.0997
  111TMC2    C6 1728   0.565   2.462  12.324 -0.3917  0.5748 -0.2801
  111TMC2     C 1729   0.481   2.325  11.953  0.5411  0.3108 -0.0511
  111TMC2     O 1730   0.441   2.408  11.871  0.6505  1.0583  0.4749
  111TMC2     H 1731   0.336   2.493  12.075  0.5265 -0.2383 -0.8241
  111TMC2    H1 1732   0.664   2.223  12.112 -0.8854  0.0798  2.1913
  111TMC2    H2 1733   0.604   2.506  12.415 -0.4373 -0.6376  0.3237
  111TMC2    C7 1734   0.771   2.349  12.321  1.0491 -0.2358 -0.3487
  111TMC2    C8 1735   0.419   2.642  12.283 -0.9769  0.1740  0.1027
  111TMC2    O1 1736   0.786   2.352  12.443  0.2623 -1.4074 -0.1275
  111TMC2    O2 1737   0.496   2.731  12.321 -0.1766  0.0788  0.1643
  111TMC2    O5 1738   0.283   2.646  12.260  0.1312  0.7917 -0.5637
  111TMC2    H5 1739   0.234   2.561  12.264  0.0276  0.9022  0.6251
  112MPD2     C 1740   0.663   2.001  11.594 -0.3786  0.6511 -0.2638
  112MPD2    C1 1741   0.627   2.140  11.580 -0.6324 -0.6949 -0.5269
  112MPD2    C2 1742   0.592   2.205  11.693  0.9813  0.0939  0.3735
  112MPD2    C3 1743   0.564   2.137  11.813  1.3185  0.5211 -0.0346
  112MPD2    C4 1744   0.589   2.004  11.817 -0.0845  0.4742 -0.2465
  112MPD2    C5 1745   0.646   1.936  11.712 -1.2265 -0.2244  0.2824
  112MPD2     H 1746   0.561   2.306  11.672 -0.0879 -0.8923 -2.7565
  112MPD2    H1 1747   0.576   1.947  11.908 -0.2238 -1.4349 -1.4614
  112MPD2    H2 1748   0.704   1.939  11.514 -0.5963 -0.5840  0.5730
  112MPD2    H3 1749   0.692   1.842  11.740  0.1328  0.4197  0.1917
  112MPD2     N 1750   0.520   2.195  11.932  0.2610 -0.2108  0.9697
  112MPD2    H5 1751   0.528   2.133  12.011  1.4329 -0.4770  0.6410
  112MPD2    N1 1752   0.645   2.200  11.456 -0.3308  0.1146 -0.1014
  112MPD2    H7 1753   0.634   2.301  11.452  0.6857  0.2059 -0.6218
  113TMC2    C1 1754   3.395   0.244   0.610  0.2974 -0.0096 -0.3341
  113TMC2    C2 1755   3.460   0.300   0.504 -0.4099 -0.2351 -0.3986
  113TMC2    C3 1756   3.407   0.284   0.380  0.0559  0.3397 -0.3397
  113TMC2    C4 1757   3.271   0.183   0.598  0.6280  0.0195 -0.1995
  113TMC2    C5 1758   3.231   0.165   0.470 -0.3612  0.0780 -0.0614
  113TMC2    C6 1759   3.291   0.217   0.359 -0.3805  0.1240  0.6535
  113TMC2     C 1760   3.459   0.269   0.739  0.5833  0.9571  0.2382
  113TMC2     O 1761   3.390   0.278   0.839  0.3697  0.0530  1.1242
  113TMC2     H 1762   3.536   0.375   0.520 -2.1339  1.2066  0.9806
  113TMC2    H1 1763   3.213   0.149   0.683  2.6602 -1.1951  0.7101
  113TMC2    H2 1764   3.255   0.184   0.262  0.4241 -0.1462  0.4493
  113TMC2    C7 1765   3.129   0.068   0.450  0.5365 -0.5003  0.0028
  113TMC2    C8 1766   3.463   0.346   0.267 -0.0726  0.6562 -0.4058
  113TMC2    O1 1767   3.063   0.063   0.345  0.5397  0.2702  0.0059
  113TMC2    O2 1768   3.555   0.429   0.284  0.0954  0.3329 -0.4072
  113TMC2    O5 1769   3.472   0.239   0.182  0.3132  0.0308 -0.7973
  113TMC2    H5 1770   3.417   0.159   0.196  0.0166  0.3976  0.1265
  114MPD2     C 1771   3.862   0.235   1.051  0.3943 -0.1387 -0.6632
  114MPD2    C1 1772   3.743   0.303   1.060 -0.6252  0.4392  0.1825
  114MPD2    C2 1773   3.654   0.305   0.954  0.2981  0.0516 -0.3406
  114MPD2    C3 1774   3.680   0.242   0.839  0.0963  0.7597  0.0393
  114MPD2    C4 1775   3.801   0.173   0.822 -0.7173  0.1767 -0.1161
  114MPD2    C5 1776   3.885   0.163   0.935 -0.2711  0.5849 -0.5135
  114MPD2     H 1777   3.562   0.358   0.978  1.2692  1.0460  1.2384
  114MPD2    H1 1778   3.826   0.119   0.731  2.0448  1.3978 -0.1033
  114MPD2    H2 1779   3.920   0.223   1.142 -0.0903 -0.1422 -0.3557
  114MPD2    H3 1780   3.979   0.111   0.923 -0.7881 -0.6871  0.9873
  114MPD2     N 1781   3.590   0.239   0.728 -0.6406 -0.0471  0.2360
  114MPD2    H5 1782   3.625   0.210   0.638 -0.1909  0.6607  0.1856
  114MPD2    N1 1783   3.702   0.379   1.173 -0.0822 -0.4922  0.0335
  114MPD2    H7 1784   3.616   0.432   1.172 -0.0499 -0.4033  1.3501
  115TMC2    C1 1785   4.035   2.635  17.425 -0.1005  0.5184 -0.5766
  115TMC2    C2 1786   4.043   2.647  17.291  0.5206 -0.3042 -0.2435
  115TMC2    C3 1787   4.058   2.771  17.238  0.3410  0.0388 -0.0349
  115TMC2    C4 1788   4.033   2.749  17.506  0.6971 -0.1680 -0.1799
  115TMC2    C5 1789   4.054   2.871  17.447 -0.2179  0.0474 -0.2340
  115TMC2    C6 1790   4.071   2.889  17.318  0.5983  0.2930  0.4947
  115TMC2     C 1791   4.005   2.496  17.461 -0.4980 -0.0633  0.7391
  115TMC2     O 1792   3.958   2.419  17.381  0.2405 -0.2308 -0.2181
  115TMC2     H 1793   4.039   2.559  17.227  0.7654 -0.7071  0.2978
  115TMC2    H1 1794   4.013   2.747  17.612 -2.4224  0.7757 -0.7473
  115TMC2    H2 1795   4.070   2.984  17.265  1.3040  0.1860  0.2969
  115TMC2    C7 1796   4.081   2.979  17.533 -0.9724  1.2468 -0.4019
  115TMC2    C8 1797   4.052   2.782  17.101  0.1298  0.3210 -0.5887
  115TMC2    O1 1798   4.037   2.993  17.648  0.3474 -0.1141 -0.6309
  115TMC2    O2 1799   4.031   2.692  17.024 -0.1966 -0.7252  0.4355
  115TMC2    O5 1800   4.110   2.902  17.064 -0.2481 -0.1029  0.1103
  115TMC2    H5 1801   4.165   2.958  17.122 -0.0256  1.0901 -1.2577
  116MPD2     C 1802   4.042   2.082   0.017  0.1066 -0.1386 -0.8656
  116MPD2    C1 1803   3.962   2.115  17.656  0.3738 -0.1809  0.2390
  116MPD2    C2 1804   3.964   2.241  17.606  0.9153  0.2939  0.2782
  116MPD2    C3 1805   4.042   2.343  17.656 -0.6499 -0.2741  0.8429
  116MPD2    C4 1806   4.112   2.312   0.017  0.1767 -0.1106 -0.3236
  116MPD2    C5 1807   4.115   2.184   0.071 -0.0223  0.2287  0.1172
  116MPD2     H 1808   3.898   2.263  17.522  1.6172  1.2166 -0.0343
  116MPD2    H1 1809   4.172   2.391   0.061 -0.7701 -0.5145  1.6857
  116MPD2    H2 1810   4.044   1.987   0.069 -1.5360  1.0358  1.3544
  116MPD2    H3 1811   4.173   2.163   0.160 -1.5052  0.1212  1.0688
  116MPD2     N 1812   4.048   2.472  17.594 -0.3502 -0.4142 -0.2271
  116MPD2    H5 1813   4.106   2.542  17.638 -1.9871  0.9473 -0.2450
  116MPD2    N1 1814   3.882   2.009  17.603 -0.5014  0.2874  0.0458
  116MPD2    H7 1815   3.931   1.922  17.619 -0.6813  0.2965  0.6590
  117TMC2    C1 1816   3.509   3.265  14.203 -0.5284  0.1143 -0.3566
  117TMC2    C2 1817   3.532   3.237  14.076  0.4497  0.3271  0.2786
  117TMC2    C3 1818   3.596   3.330  13.995 -0.0638 -0.2133 -0.3667
  117TMC2    C4 1819   3.557   3.382  14.257  0.8425  0.0546  0.1058
  117TMC2    C5 1820   3.639   3.464  14.183  0.1634  0.2148  0.4543
  117TMC2    C6 1821   3.674   3.434  14.053  0.1026  0.5479  0.8467
  117TMC2     C 1822   3.382   3.214  14.256 -0.2886 -0.3492  0.4382
  117TMC2     O 1823   3.381   3.152  14.363  0.2635  0.0572 -0.0888
  117TMC2     H 1824   3.496   3.145  14.032  2.3629 -0.7125  0.9123
  117TMC2    H1 1825   3.532   3.406  14.360  2.5700 -0.9708  0.7535
  117TMC2    H2 1826   3.744   3.497  13.999  0.9233 -0.9816  0.1040
  117TMC2    C7 1827   3.698   3.581  14.241 -0.2517 -0.3842  0.2232
  117TMC2    C8 1828   3.642   3.285  13.872  0.3099 -0.6377  1.1549
  117TMC2    O1 1829   3.754   3.667  14.169  0.1081 -0.5573  0.6565
  117TMC2    O2 1830   3.757   3.290  13.835  0.2343 -0.0215 -0.2478
  117TMC2    O5 1831   3.525   3.269  13.799 -0.3882 -0.1512 -0.4102
  117TMC2    H5 1832   3.438   3.268  13.843 -0.0703 -1.5156  0.1788
  118MPD2     C 1833   3.659   3.731  14.587 -0.7787  0.5352  0.3046
  118MPD2    C1 1834   3.673   3.726  14.448 -0.1741  0.3424  0.1233
  118MPD2    C2 1835   3.675   3.854  14.388 -0.1126  0.4153  0.1076
  118MPD2    C3 1836   3.679   3.976  14.453  0.1642 -0.4032 -0.4170
  118MPD2    C4 1837   3.677   3.967  14.593 -0.4221  0.0039 -0.6535
  118MPD2    C5 1838   3.666   3.851  14.652  0.6112  0.2096 -0.2533
  118MPD2     H 1839   3.687   3.850  14.280  2.1783 -0.0050  0.3799
  118MPD2    H1 1840   3.688   4.057  14.652 -2.3422 -0.1438 -0.0548
  118MPD2    H2 1841   3.645   3.635  14.635 -0.8273 -0.5979 -1.9678
  118MPD2    H3 1842   3.655   3.855  14.759  0.9497 -2.1869 -0.1372
  118MPD2     N 1843   3.711   4.099  14.392  0.4266  0.0879 -0.0239
  118MPD2    H5 1844   3.729   4.179  14.452 -1.2772  0.3075  0.1839
  118MPD2    N1 1845   3.672   3.602  14.379 -0.4248 -0.2812 -0.0447
  118MPD2    H7 1846   3.646   3.523  14.437 -0.2024 -1.3178 -1.3478
  119TMC2    C1 1847   1.166   4.515  13.602 -0.6489 -0.9556 -0.0471
  119TMC2    C2 1848   1.179   4.479  13.469  0.4823  0.0657 -0.0843
  119TMC2    C3 1849   1.068   4.440  13.402 -0.2287  0.4382  0.3151
  119TMC2    C4 1850   1.043   4.543  13.655  0.4547 -0.8128  0.0901
  119TMC2    C5 1851   0.933   4.518  13.583  0.5292  0.1027  0.4137
  119TMC2    C6 1852   0.943   4.462  13.454  0.3882 -0.0423 -0.5539
  119TMC2     C 1853   1.275   4.607  13.650 -0.3570 -0.0389  0.6134
  119TMC2     O 1854   1.240   4.706  13.716  0.2195  0.9281  0.5788
  119TMC2     H 1855   1.276   4.452  13.429  1.4300  4.0400 -0.4633
  119TMC2    H1 1856   1.051   4.584  13.755 -1.0880  1.6270 -0.7765
  119TMC2    H2 1857   0.854   4.435  13.399 -1.6810  1.3895  2.1074
  119TMC2    C7 1858   0.801   4.553  13.640 -1.3509  0.1547 -0.2442
  119TMC2    C8 1859   1.090   4.365  13.285  0.3962 -0.3860 -0.4344
  119TMC2    O1 1860   0.716   4.593  13.564  0.2307  0.8248  0.3986
  119TMC2    O2 1861   1.184   4.288  13.268 -0.6793  0.1624 -0.0930
  119TMC2    O5 1862   0.980   4.387  13.214  0.9275 -0.3628  0.0574
  119TMC2    H5 1863   0.940   4.474  13.237 -1.1522 -1.3549  0.2425
  120MPD2     C 1864   1.766   0.015  13.667  0.1411  0.9320 -0.1148
  120MPD2    C1 1865   1.653   0.075  13.733 -0.1692 -0.0643 -0.2058
  120MPD2    C2 1866   1.528   0.011  13.722 -0.3373  0.1240 -0.9113
  120MPD2    C3 1867   1.519   4.628  13.647 -0.2869 -0.0625 -0.4407
  120MPD2    C4 1868   1.629   4.581  13.582  0.1138 -0.2667 -0.2374
  120MPD2    C5 1869   1.756   4.636  13.597  0.3406  0.1912 -0.2286
  120MPD2     H 1870   1.439   0.057  13.764  1.5708  2.6699  0.3612
  120MPD2    H1 1871   1.622   4.492  13.520  0.9306  1.2225 -2.4541
  120MPD2    H2 1872   1.863   0.059  13.687 -0.2530  1.7136  0.0361
  120MPD2    H3 1873   1.836   4.590  13.541 -0.9098 -1.2981 -0.7833
  120MPD2     N 1874   1.400   4.562  13.619 -0.4096 -0.7434 -0.0613
  120MPD2    H5 1875   1.408   4.473  13.571  1.1887  0.6945 -2.4769
  120MPD2    N1 1876   1.660   0.205  13.793  0.8817  1.0551  0.7112
  120MPD2    H7 1877   1.734   0.261  13.753  1.0060 -0.4542 -1.1380
  121TMC2    C1 1878   2.752   2.024  13.999 -0.2171  1.0189  0.4045
  121TMC2    C2 1879   2.760   1.930  14.098 -0.4045  0.6008  0.1830
  121TMC2    C3 1880   2.659   1.836  14.088  0.1873  0.0677  0.1129
  121TMC2    C4 1881   2.653   2.035  13.900 -0.2146  0.2595  0.5051
  121TMC2    C5 1882   2.550   1.944  13.910 -0.6097  0.1491  0.0000
  121TMC2    C6 1883   2.559   1.836  13.995 -0.1033  0.0313  0.4257
  121TMC2     C 1884   2.822   2.147  14.014  1.1197  0.6409  0.6289
  121TMC2     O 1885   2.818   2.201  14.124 -0.1097 -0.2908 -0.5665
  121TMC2     H 1886   2.827   1.943  14.183 -0.7991 -2.7437  0.9813
  121TMC2    H1 1887   2.640   2.126  13.842  0.9930 -0.2359 -0.5427
  121TMC2    H2 1888   2.483   1.761  14.014  0.9689 -1.4100 -0.9561
  121TMC2    C7 1889   2.427   1.981  13.847  0.1500  0.2151  0.3287
  121TMC2    C8 1890   2.652   1.731  14.187  0.4916  0.8799 -0.2041
  121TMC2    O1 1891   2.430   2.032  13.734  0.5893  0.4614 -0.4979
  121TMC2    O2 1892   2.545   1.685  14.225 -0.1211 -0.5013  0.3891
  121TMC2    O5 1893   2.776   1.716  14.245  0.2737  0.0773  0.1866
  121TMC2    H5 1894   2.848   1.767  14.201 -1.2840  1.6705 -0.4808
  122MPD2     C 1895   2.933   2.418  13.961  0.5617  0.6679  0.1340
  122MPD2    C1 1896   2.941   2.311  13.876  0.2743  0.3239  0.1337
  122MPD2    C2 1897   3.011   2.326  13.758 -0.0511  0.3570  0.3430
  122MPD2    C3 1898   3.074   2.448  13.723  0.1137  0.5043 -0.1160
  122MPD2    C4 1899   3.069   2.548  13.812  0.0790  0.4710 -0.7602
  122MPD2    C5 1900   3.012   2.526  13.932 -0.6917  0.0882  0.3096
  122MPD2     H 1901   3.029   2.240  13.694  0.4909  0.5125  0.2888
  122MPD2    H1 1902   3.128   2.639  13.805 -0.4747  0.8407 -0.6463
  122MPD2    H2 1903   2.881   2.419  14.056 -0.7662  0.2265 -0.5867
  122MPD2    H3 1904   3.014   2.609  14.002 -1.2710  1.1632 -0.9481
  122MPD2     N 1905   3.146   2.467  13.601 -0.1395 -0.4717  0.0195
  122MPD2    H5 1906   3.199   2.553  13.590  0.8746 -0.8486  1.8556
  122MPD2    N1 1907   2.882   2.191  13.902  0.4528 -0.7207 -0.1721
  122MPD2    H7 1908   2.881   2.125  13.825  0.1452 -3.4390  2.1965
  123TMC2    C1 1909   1.743   0.920  11.226  0.6308 -0.3847  0.1729
  123TMC2    C2 1910   1.766   1.051  11.229 -0.0330 -0.8785 -0.3312
  123TMC2    C3 1911   1.795   1.118  11.117  0.1222  0.5722 -0.5585
  123TMC2    C4 1912   1.721   0.858  11.104 -0.5512 -0.2669  0.1542
  123TMC2    C5 1913   1.751   0.929  10.986 -0.3152 -0.2201 -0.4189
  123TMC2    C6 1914   1.793   1.059  10.993 -0.3943  0.3526  0.2043
  123TMC2     C 1915   1.664   0.873  11.339  0.4206  0.3582  0.2348
  123TMC2     O 1916   1.691   0.914  11.446  0.0906  0.7216 -0.1654
  123TMC2     H 1917   1.759   1.105  11.323 -0.3595  0.4588 -1.1182
  123TMC2    H1 1918   1.702   0.752  11.098 -1.1920 -0.1476  0.0653
  123TMC2    H2 1919   1.813   1.118  10.904 -1.8894  2.3061  1.1748
  123TMC2    C7 1920   1.733   0.858  10.859 -0.5452  0.3193  0.1749
  123TMC2    C8 1921   1.822   1.261  11.125 -1.0030  0.2445 -0.0300
  123TMC2    O1 1922   1.685   0.749  10.858 -0.1813  0.1200 -0.3727
  123TMC2    O2 1923   1.915   1.319  11.069 -0.2430 -0.1326  0.1281
  123TMC2    O5 1924   1.732   1.313  11.210 -0.1211 -0.7854  0.1436
  123TMC2    H5 1925   1.656   1.251  11.217  0.0801 -0.9746  0.6845
  124MPD2     C 1926   1.239   0.636  11.509 -0.0760  0.0414  0.6098
  124MPD2    C1 1927   1.248   0.627  11.375 -0.0761 -0.0184  0.3837
  124MPD2    C2 1928   1.358   0.674  11.311 -0.4576  0.0700  0.2434
  124MPD2    C3 1929   1.459   0.737  11.376  0.1390 -0.5143  0.2307
  124MPD2    C4 1930   1.454   0.740  11.514 -0.6229  0.0750  0.6347
  124MPD2    C5 1931   1.349   0.689  11.578  0.3423 -0.8658  0.1401
  124MPD2     H 1932   1.367   0.662  11.204  1.5432 -1.6146  0.6077
  124MPD2    H1 1933   1.532   0.796  11.565 -0.8575  1.5374 -0.6028
  124MPD2    H2 1934   1.158   0.595  11.568 -0.3198  2.7710  2.1436
  124MPD2    H3 1935   1.342   0.676  11.685  3.2456 -5.5269 -0.2427
  124MPD2     N 1936   1.561   0.792  11.300  0.2793  0.2037  0.4493
  124MPD2    H5 1937   1.553   0.761  11.203 -1.2486  0.5345  0.4729
  124MPD2    N1 1938   1.148   0.549  11.305 -0.5506 -0.1021  0.0273
  124MPD2    H7 1939   1.075   0.512  11.365 -0.2755  1.9081  1.5699
  125TMC2    C1 1940   2.191   3.035  10.515 -0.6529 -0.0684 -0.2621
  125TMC2    C2 1941   2.118   2.922  10.553  0.0691  0.1578  0.5892
  125TMC2    C3 1942   2.179   2.805  10.537 -0.4634  0.1570  0.4480
  125TMC2    C4 1943   2.324   3.030  10.470  0.2291  0.2624  0.1921
  125TMC2    C5 1944   2.381   2.907  10.449  0.0573 -0.6198  0.1397
  125TMC2    C6 1945   2.304   2.795  10.488  0.2471  0.2274  0.5504
  125TMC2     C 1946   2.136   3.159  10.559  0.2002  0.7887 -0.2849
  125TMC2     O 1947   2.184   3.258  10.513 -0.1113 -0.1322 -0.1666
  125TMC2     H 1948   2.011   2.923  10.571  0.0486 -1.9627  0.5432
  125TMC2    H1 1949   2.380   3.119  10.445 -0.6977  0.4044 -1.3845
  125TMC2    H2 1950   2.343   2.694  10.481  0.5955  0.5437 -2.0941
  125TMC2    C7 1951   2.518   2.887  10.408 -0.0682 -0.2655 -0.1127
  125TMC2    C8 1952   2.081   2.701  10.516 -0.1923 -0.2937 -0.0434
  125TMC2    O1 1953   2.574   2.795  10.467 -0.6120  0.1481 -0.2182
  125TMC2    O2 1954   1.982   2.676  10.587  0.0126  0.1829 -0.1919
  125TMC2    O5 1955   2.103   2.646  10.396 -0.0760 -0.3174  0.3385
  125TMC2    H5 1956   2.177   2.692  10.352 -0.9533 -0.2742 -1.1099
  126MPD1     C 1957   1.778   3.409  10.813  0.8039  0.2067  0.3530
  126MPD1    C1 1958   1.751   3.274  10.833  0.4560 -0.8424 -0.1961
  126MPD1    C2 1959   1.857   3.191  10.798  0.4854 -0.0971  0.1349
  126MPD1    C3 1960   1.954   3.233  10.716 -0.5011  0.0051  0.0277
  126MPD1    C4 1961   1.959   3.362  10.671 -0.3246 -0.2618 -0.2664
  126MPD1    C5 1962   1.874   3.455  10.724  1.0197 -0.1020 -0.9772
  126MPD1     H 1963   1.850   3.091  10.840  0.6806  0.0984  0.6354
  126MPD1    H1 1964   2.041   3.410  10.619  0.6211  0.6673  2.0942
  126MPD1    H2 1965   1.714   3.479  10.866 -0.0839 -1.5936  1.6357
  126MPD1    H3 1966   1.883   3.559  10.696  0.8684 -0.5775 -2.7537
  126MPD1     N 1967   2.043   3.138  10.654 -0.0264 -0.0296  0.6156
  126MPD1    H5 1968   2.015   3.044  10.680 -0.1876  0.8247  3.4788
  126MPD1    N1 1969   1.658   3.232  10.924 -0.8988  0.1137 -1.0129
  126MPD1    H6 1970   1.623   3.137  10.911  0.3532 -0.3020 -1.4210
  126MPD1    H7 1971   1.580   3.296  10.917 -0.5447  0.9066  2.3183
  127TMC2    C1 1972   3.254   1.438   9.901  0.3955 -0.1571  0.4062
  127TMC2    C2 1973   3.357   1.454   9.993  0.0667 -0.2424  0.2016
  127TMC2    C3 1974   3.378   1.347  10.079  0.0034 -0.1603 -0.3279
  127TMC2    C4 1975   3.192   1.322   9.882 -0.7155  0.4123  0.4268
  127TMC2    C5 1976   3.227   1.221   9.963  0.1235 -0.1157 -0.7536
  127TMC2    C6 1977   3.324   1.220  10.060  0.0489 -0.0381 -1.1228
  127TMC2     C 1978   3.228   1.546   9.801  0.5739  0.3612 -0.7688
  127TMC2     O 1979   3.289   1.651   9.817  0.1432  0.0443 -0.5963
  127TMC2     H 1980   3.418   1.544   9.995  0.6847 -0.6474 -0.4343
  127TMC2    H1 1981   3.104   1.302   9.821 -1.7703  2.0997  1.4094
  127TMC2    H2 1982   3.361   1.133  10.113  0.2470  1.2964  0.9072
  127TMC2    C7 1983   3.188   1.093   9.904 -0.3916 -0.3240  0.1433
  127TMC2    C8 1984   3.494   1.355  10.160  0.6306  0.1193 -0.0830
  127TMC2    O1 1985   3.157   1.097   9.781  0.5310 -0.1069 -0.8575
  127TMC2    O2 1986   3.551   1.250  10.186  0.1648  0.1654  0.0762
  127TMC2    O5 1987   3.491   1.462  10.244 -0.5188 -0.3448  0.3759
  127TMC2    H5 1988   3.430   1.523  10.198 -0.2415 -1.3739 -1.3746
  128MPD2     C 1989   2.945   1.560   9.563 -0.3588 -0.0481 -0.2918
  128MPD2    C1 1990   3.062   1.602   9.626  0.3852 -1.0409 -0.4471
  128MPD2    C2 1991   3.123   1.718   9.579  0.0411 -0.3104  0.1610
  128MPD2    C3 1992   3.056   1.795   9.486  0.0434 -0.0268 -0.2415
  128MPD2    C4 1993   2.933   1.756   9.435 -0.3184  1.0200 -0.4830
  128MPD2    C5 1994   2.873   1.636   9.475  0.2617  1.0544 -0.5892
  128MPD2     H 1995   3.222   1.752   9.604  0.3784  0.0450 -1.6835
  128MPD2    H1 1996   2.870   1.819   9.373  1.4836  2.5214 -0.8014
  128MPD2    H2 1997   2.894   1.472   9.600  0.1360 -1.0559 -1.9938
  128MPD2    H3 1998   2.775   1.607   9.439  1.1182 -0.6725 -1.5337
  128MPD2     N 1999   3.111   1.921   9.460 -1.3595 -0.8376  0.0742
  128MPD2    H5 2000   3.193   1.947   9.515 -0.6679 -2.4330 -0.1930
  128MPD2    N1 2001   3.120   1.514   9.719 -0.0674 -0.2357  0.2120
  128MPD2    H7 2002   3.066   1.430   9.739  0.5998 -0.7175  0.0042
  129TMC2    C1 2003   1.854   1.765   1.360  0.8656  0.4240  0.3087
  129TMC2    C2 2004   1.857   1.879   1.289 -0.2518  0.3992  0.4005
  129TMC2    C3 2005   1.751   1.966   1.312  0.7750 -0.2619 -0.2503
  129TMC2    C4 2006   1.757   1.734   1.449  0.4408 -0.7481  0.2267
  129TMC2    C5 2007   1.655   1.828   1.471 -0.1179  0.5122 -0.4447
  129TMC2    C6 2008   1.651   1.946   1.399  0.1407  0.3206 -0.1789
  129TMC2     C 2009   1.952   1.670   1.326  0.7146  0.0829 -0.0548
  129TMC2     O 2010   1.925   1.549   1.329 -0.0282 -0.1425 -0.2371
  129TMC2     H 2011   1.930   1.895   1.212 -0.5411  0.8852  0.2287
  129TMC2    H1 2012   1.778   1.640   1.499 -0.9775 -1.3227 -0.2898
  129TMC2    H2 2013   1.580   2.020   1.432 -1.8278 -1.3992 -0.5171
  129TMC2    C7 2014   1.536   1.784   1.550 -0.3283  0.3287 -0.1400
  129TMC2    C8 2015   1.760   2.106   1.265 -0.1615 -0.0438  0.9193
  129TMC2    O1 2016   1.443   1.864   1.563  0.4150 -0.4813 -0.6595
  129TMC2    O2 2017   1.671   2.186   1.288  0.2316 -0.8773  0.0617
  129TMC2    O5 2018   1.894   2.137   1.274 -0.0300 -0.2271 -0.5829
  129TMC2    H5 2019   1.957   2.066   1.298 -1.5128 -1.8354 -1.3414
  130MPD2     C 2020   2.200   1.525   1.234 -0.1604 -0.4594  0.3960
  130MPD2    C1 2021   2.193   1.663   1.259  0.0159 -0.3602 -0.0273
  130MPD2    C2 2022   2.313   1.733   1.242  0.1169  0.3485 -0.7094
  130MPD2    C3 2023   2.432   1.676   1.226  0.2253 -0.2941 -0.4770
  130MPD2    C4 2024   2.432   1.539   1.197  1.0181  0.0022  0.4064
  130MPD2    C5 2025   2.322   1.458   1.198  0.1824 -0.7942  0.6342
  130MPD2     H 2026   2.307   1.840   1.251 -2.4726  0.4193 -2.9726
  130MPD2    H1 2027   2.527   1.488   1.181  0.9916  0.3485 -0.8800
  130MPD2    H2 2028   2.108   1.470   1.219  1.3573 -2.9738  0.1565
  130MPD2    H3 2029   2.320   1.351   1.181 -0.3280 -0.8384  0.9515
  130MPD2     N 2030   2.546   1.759   1.211  0.8150  0.0222 -0.4034
  130MPD2    H5 2031   2.518   1.854   1.232 -3.8428 -2.0077  2.6706
  130MPD2    N1 2032   2.074   1.730   1.298  0.1241  0.1416 -0.3003
  130MPD2    H7 2033   2.086   1.830   1.310  2.4094 -0.2303  0.3954
  131TMC2    C1 2034   1.344   0.933  10.498 -0.0884 -0.2734 -0.2285
  131TMC2    C2 2035   1.346   0.970  10.368 -0.2835 -0.0143  0.8845
  131TMC2    C3 2036   1.383   1.102  10.343 -0.1738 -0.5274 -0.3132
  131TMC2    C4 2037   1.394   1.014  10.595 -0.0354 -0.3793 -0.0403
  131TMC2    C5 2038   1.423   1.142  10.567 -0.7799  0.5154  0.0449
  131TMC2    C6 2039   1.416   1.196  10.441 -0.2448 -0.8650 -0.3339
  131TMC2     C 2040   1.290   0.804  10.529  0.5356  0.1259 -0.6223
  131TMC2     O 2041   1.336   0.747  10.631 -0.1392 -0.4262 -0.5842
  131TMC2     H 2042   1.335   0.899  10.287 -0.4231  0.6458  0.3244
  131TMC2    H1 2043   1.387   0.979  10.697 -1.6634  1.1586  0.3614
  131TMC2    H2 2044   1.451   1.293  10.407 -0.4331 -0.3242  0.9865
  131TMC2    C7 2045   1.469   1.221  10.676 -0.2394  0.1547 -0.0977
  131TMC2    C8 2046   1.435   1.133  10.214  0.5540  0.3704  0.1073
  131TMC2    O1 2047   1.485   1.160  10.782  0.1755  0.5500 -0.0184
  131TMC2    O2 2048   1.521   1.221  10.202  0.0163 -0.0044  0.0342
  131TMC2    O5 2049   1.375   1.056  10.116  0.7849 -1.0901  0.1221
  131TMC2    H5 2050   1.304   1.001  10.155  1.1844 -0.2948  1.9981
  132MPD2     C 2051   1.018   0.604  10.372 -0.8537  0.6249 -0.2896
  132MPD2    C1 2052   1.111   0.644  10.471 -0.0531  0.2697 -0.1100
  132MPD2    C2 2053   1.124   0.565  10.583  0.0184  0.3780  0.1204
  132MPD2    C3 2054   1.042   0.456  10.608 -0.5370  0.1673 -0.9054
  132MPD2    C4 2055   0.933   0.438  10.521  0.1084 -0.2035  0.0002
  132MPD2    C5 2056   0.931   0.501  10.399  0.1352 -0.2965  0.4580
  132MPD2     H 2057   1.194   0.578  10.666  0.2785  0.0868 -0.0526
  132MPD2    H1 2058   0.859   0.362  10.541 -2.3412  1.9612 -0.8067
  132MPD2    H2 2059   1.017   0.657  10.277  0.4788  1.4657  0.1681
  132MPD2    H3 2060   0.848   0.471  10.335  2.9299 -1.4001 -2.6567
  132MPD2     N 2061   1.041   0.407  10.742  0.6856 -0.0978 -0.3212
  132MPD2    H5 2062   1.106   0.454  10.805  1.1229 -1.7977  0.5025
  132MPD2    N1 2063   1.194   0.750  10.446 -0.1265  0.5004  0.5021
  132MPD2    H7 2064   1.175   0.796  10.357  0.2469 -1.2631 -0.4890
  133TMC2    C1 2065   4.332   0.805   9.971 -0.1840 -0.6235  0.1533
  133TMC2    C2 2066   4.236   0.784   9.872  0.3782  0.2911 -0.3311
  133TMC2    C3 2067   4.237   0.654   9.821 -0.0213 -0.0072 -0.6934
  133TMC2    C4 2068   4.434   0.715   9.991  0.4829 -0.6491 -0.3577
  133TMC2    C5 2069   4.428   0.591   9.929 -0.2120 -0.1431  0.6336
  133TMC2    C6 2070   4.335   0.563   9.838 -0.5639 -0.5978 -0.3544
  133TMC2     C 2071   4.361   0.944   9.992 -0.5024  0.2833 -0.0066
  133TMC2     O 2072   4.476   0.978  10.007  0.1440 -0.7571  0.3312
  133TMC2     H 2073   4.160   0.854   9.837 -1.0662  0.1993  2.5774
  133TMC2    H1 2074   4.514   0.742  10.059  2.5521 -3.2447 -1.7543
  133TMC2    H2 2075   4.337   0.470   9.782  1.3484 -0.3995 -0.6057
  133TMC2    C7 2076   4.560   0.530   9.900  1.0855 -0.1183 -0.2626
  133TMC2    C8 2077   4.172   0.633   9.694 -0.0118  1.0155  0.3279
  133TMC2    O1 2078   4.564   0.466   9.795  0.7996  0.0644  0.0780
  133TMC2    O2 2079   4.138   0.527   9.641 -0.4561 -0.3676  1.0589
  133TMC2    O5 2080   4.209   0.738   9.631  0.0792 -0.1686  0.1661
  133TMC2    H5 2081   4.273   0.797   9.676  1.7586 -1.0495 -1.0621
  134MPD2     C 2082   4.152   1.252   9.970 -0.1071 -0.6278  0.3825
  134MPD2    C1 2083   4.268   1.178   9.980  0.1514 -0.4270 -0.3485
  134MPD2    C2 2084   4.392   1.241   9.975 -0.2122  0.6967  0.0553
  134MPD2    C3 2085   4.403   1.375   9.946 -0.6407 -0.1202 -1.1024
  134MPD2    C4 2086   4.290   1.448   9.937 -0.3023  0.0449 -0.2525
  134MPD2    C5 2087   4.165   1.385   9.945  0.5806  0.1276  0.5962
  134MPD2     H 2088   4.483   1.186   9.995  0.4272  1.4278 -0.8831
  134MPD2    H1 2089   4.295   1.556   9.924  1.4169 -0.0130 -0.0662
  134MPD2    H2 2090   4.050   1.216   9.969 -0.1224 -0.5348 -0.8384
  134MPD2    H3 2091   4.076   1.446   9.931  0.0141 -1.0958 -1.1213
  134MPD2     N 2092   4.525   1.451   9.944  0.3985  0.6963 -0.2723
  134MPD2    H5 2093   4.507   1.550   9.935 -2.1799  0.2926  0.3652
  134MPD2    N1 2094   4.257   1.034   9.985 -0.3147  0.0336 -0.3625
  134MPD2    H7 2095   4.162   0.998   9.986  0.1762 -1.2954 -2.0587
  135TMC2    C1 2096   3.042   3.175  10.239  0.3081 -0.4361 -0.2477
  135TMC2    C2 2097   3.113   3.062  10.263  0.7610  0.6895  0.3393
  135TMC2    C3 2098   3.092   2.999  10.382  0.4821  0.1683 -0.6976
  135TMC2    C4 2099   2.944   3.217  10.323 -0.3137  0.1741 -0.3621
  135TMC2    C5 2100   2.937   3.156  10.443  0.4563  0.0136 -0.3179
  135TMC2    C6 2101   2.996   3.037  10.475 -0.3770 -0.4082 -0.1331
  135TMC2     C 2102   3.092   3.285  10.148  0.1021  0.6374 -0.5312
  135TMC2     O 2103   3.060   3.397  10.181  0.6640  0.0104 -0.1422
  135TMC2     H 2104   3.203   3.041  10.206  0.7106  0.8705  0.1956
  135TMC2    H1 2105   2.900   3.315  10.312 -3.2318 -1.1141 -0.1873
  135TMC2    H2 2106   2.999   3.004  10.578 -1.0214  0.7029  0.2324
  135TMC2    C7 2107   2.820   3.190  10.513  0.3424 -0.1913  0.0321
  135TMC2    C8 2108   3.180   2.883  10.419 -0.6227 -0.3859 -1.0821
  135TMC2    O1 2109   2.766   3.300  10.491  0.0288  0.4520 -0.2580
  135TMC2    O2 2110   3.271   2.846  10.346 -0.0330  0.7560  0.0704
  135TMC2    O5 2111   3.127   2.811  10.522  0.6810  0.4534  0.5384
  135TMC2    H5 2112   3.050   2.849  10.570  0.2129 -1.5564  1.3461
  136MPD2     C 2113   3.191   3.439   9.908 -0.8542  1.1892  0.1803
  136MPD2    C1 2114   3.196   3.295   9.918  1.0989 -0.2291 -0.1402
  136MPD2    C2 2115   3.233   3.226   9.806 -0.8651 -0.3438  0.1777
  136MPD2    C3 2116   3.276   3.285   9.689 -0.3913 -0.1420 -0.5431
  136MPD2    C4 2117   3.272   3.420   9.683  0.0043  0.4606  0.3520
  136MPD2    C5 2118   3.232   3.503   9.791 -0.0186  0.5500  0.0896
  136MPD2     H 2119   3.253   3.121   9.818 -0.5230 -0.1732  1.1202
  136MPD2    H1 2120   3.298   3.469   9.590  0.6454  0.3653  0.4834
  136MPD2    H2 2121   3.146   3.503   9.983  0.2618  1.7231  0.3883
  136MPD2    H3 2122   3.212   3.608   9.777  1.5024  0.5735 -1.9447
  136MPD2     N 2123   3.337   3.216   9.582  0.7291  0.4093 -0.2339
  136MPD2    H5 2124   3.366   3.265   9.499  2.1202  0.5842  0.3527
  136MPD2    N1 2125   3.147   3.230  10.036  0.1918  0.2038  0.1122
  136MPD2    H7 2126   3.170   3.131  10.034 -1.1879 -0.0993 -0.4162
  137TMC2    C1 2127   2.001   1.561   9.772 -0.0302  0.1739 -0.3632
  137TMC2    C2 2128   2.008   1.473   9.670  0.6964 -0.2572 -0.3657
  137TMC2    C3 2129   1.917   1.491   9.570 -0.1869 -0.4811 -0.3096
  137TMC2    C4 2130   1.915   1.667   9.778 -0.9008  0.3504 -0.2681
  137TMC2    C5 2131   1.825   1.677   9.674 -0.3464 -0.2656  0.8272
  137TMC2    C6 2132   1.824   1.591   9.561  0.3981 -0.9812  0.1612
  137TMC2     C 2133   2.122   1.574   9.850  0.1803 -0.0986 -0.5255
  137TMC2     O 2134   2.149   1.677   9.908  0.2741 -0.0141 -0.3111
  137TMC2     H 2135   2.092   1.406   9.653  0.2424 -1.0193  0.3936
  137TMC2    H1 2136   1.922   1.732   9.864  1.9815  0.8677 -0.8921
  137TMC2    H2 2137   1.753   1.603   9.480  0.7250  1.7400  0.2844
  137TMC2    C7 2138   1.721   1.773   9.680  0.6191 -0.0190  0.2960
  137TMC2    C8 2139   1.910   1.387   9.475 -0.0127  0.1910  0.6573
  137TMC2    O1 2140   1.674   1.815   9.576 -0.3217 -0.4810  0.0950
  137TMC2    O2 2141   2.006   1.317   9.456 -0.2407 -0.4219 -0.7759
  137TMC2    O5 2142   1.789   1.347   9.493 -0.4695 -0.4224 -0.1888
  137TMC2    H5 2143   1.720   1.396   9.543 -0.0882 -1.1302  1.0494
  138MPD2     C 2144   2.349   1.297   9.971  0.3281 -0.1583 -0.0871
  138MPD2    C1 2145   2.307   1.428   9.952 -0.4130  0.0776 -0.1680
  138MPD2    C2 2146   2.386   1.527  10.003 -0.2662  0.4276 -0.0587
  138MPD2    C3 2147   2.501   1.503  10.076 -0.2473  0.0173  0.1306
  138MPD2    C4 2148   2.544   1.369  10.088  0.0095 -0.0219  0.4846
  138MPD2    C5 2149   2.466   1.266  10.036  0.0164  0.0846 -0.8293
  138MPD2     H 2150   2.350   1.628   9.991  2.3299  1.4604  1.0830
  138MPD2    H1 2151   2.634   1.335  10.138  0.4465  0.5252  0.0578
  138MPD2    H2 2152   2.297   1.219   9.917 -0.3234  0.4117 -0.2819
  138MPD2    H3 2153   2.503   1.164  10.038 -0.1175  0.0190 -1.7377
  138MPD2     N 2154   2.568   1.617  10.130 -0.0947  0.6416  0.0928
  138MPD2    H5 2155   2.538   1.713  10.117 -1.3001  0.1060 -0.9614
  138MPD2    N1 2156   2.187   1.451   9.878 -0.5038 -0.5018 -0.4193
  138MPD2    H7 2157   2.134   1.368   9.855  0.3035 -1.3360  0.6585
  139TMC2    C1 2158   3.189   0.122  13.808 -0.7391 -0.6943 -0.9165
  139TMC2    C2 2159   3.211   0.132  13.671  0.2443 -0.4579 -0.2576
  139TMC2    C3 2160   3.109   0.195  13.604 -0.5890 -0.0903 -0.2779
  139TMC2    C4 2161   3.072   0.164  13.874 -0.4432  0.3952  0.3201
  139TMC2    C5 2162   2.977   0.228  13.798  0.0472 -0.3105 -0.2914
  139TMC2    C6 2163   2.996   0.242  13.661 -0.9065  0.2841  0.1137
  139TMC2     C 2164   3.273   0.018  13.867 -0.9806 -0.5671  1.0122
  139TMC2     O 2165   3.359   4.714  13.794 -0.0514  0.2010 -0.4153
  139TMC2     H 2166   3.300   0.090  13.625 -1.3281 -1.9586 -1.9064
  139TMC2    H1 2167   3.063   0.160  13.982 -0.2677  2.6540  0.4217
  139TMC2    H2 2168   2.930   0.299  13.597 -1.8022 -0.6386  0.2222
  139TMC2    C7 2169   2.858   0.281  13.859 -0.6201  0.6976 -0.0685
  139TMC2    C8 2170   3.113   0.182  13.463  0.0096 -0.4143  0.3282
  139TMC2    O1 2171   2.802   0.353  13.786  0.2888 -0.0643 -1.0629
  139TMC2    O2 2172   3.225   0.171  13.407  0.4751  0.9379  0.3438
  139TMC2    O5 2173   3.012   0.106  13.427 -0.0347  0.2295 -0.1258
  139TMC2    H5 2174   2.949   0.069  13.492  0.5908 -0.9918 -0.1991
  140MPD2     C 2175   3.246   4.561  14.181  0.2756 -0.1155  0.3344
  140MPD2    C1 2176   3.283   4.585  14.050 -0.2998  0.7024  0.1876
  140MPD2    C2 2177   3.364   4.494  13.983 -0.2017  0.1068  0.0666
  140MPD2    C3 2178   3.373   4.366  14.034 -0.3021  0.7018  0.1530
  140MPD2    C4 2179   3.327   4.339  14.161  0.0776 -0.0315 -0.1420
  140MPD2    C5 2180   3.264   4.435  14.229  1.1961  0.0143 -0.0060
  140MPD2     H 2181   3.402   4.511  13.883  0.4067 -0.1301  0.2599
  140MPD2    H1 2182   3.333   4.242  14.208 -2.1128 -0.0102  0.1461
  140MPD2    H2 2183   3.186   4.634  14.234  1.7819  0.2941  1.4504
  140MPD2    H3 2184   3.232   4.410  14.329  0.7456 -0.5380 -0.2876
  140MPD2     N 2185   3.431   4.262  13.959 -0.1513  0.3875 -0.3946
  140MPD2    H5 2186   3.486   4.292  13.879 -0.2936  2.3870  0.2570
  140MPD2    N1 2187   3.235   4.704  13.990  0.1513 -0.3397  0.1935
  140MPD2    H7 2188   3.169   0.016  14.049  0.6535  1.4596 -0.7946
  141TMC2    C1 2189   3.487   1.207  13.997 -0.2044 -0.6184  0.9904
  141TMC2    C2 2190   3.569   1.139  14.076  0.8127 -0.2247  0.1114
  141TMC2    C3 2191   3.604   1.181  14.203 -0.1116  0.0555 -0.2246
  141TMC2    C4 2192   3.434   1.320  14.042 -0.8607  0.7894  0.4375
  141TMC2    C5 2193   3.479   1.375  14.161  0.8388 -0.6231 -0.1401
  141TMC2    C6 2194   3.564   1.307  14.246  0.3457 -0.1858  0.2386
  141TMC2     C 2195   3.514   1.203  13.861 -1.0226 -1.1835  0.6574
  141TMC2     O 2196   3.439   1.269  13.792 -0.5462 -0.0225  0.3146
  141TMC2     H 2197   3.602   1.038  14.055  0.9961  0.0367 -0.8359
  141TMC2    H1 2198   3.370   1.377  13.976 -0.5344 -0.8885 -1.3420
  141TMC2    H2 2199   3.586   1.333  14.349 -0.4888 -0.6852  0.5478
  141TMC2    C7 2200   3.461   1.515  14.184  0.5559 -0.2621 -0.1650
  141TMC2    C8 2201   3.650   1.085  14.298  0.3531 -0.3223 -0.6260
  141TMC2    O1 2202   3.364   1.571  14.136 -0.2361 -0.4321  0.9322
  141TMC2    O2 2203   3.724   0.994  14.267 -0.1222 -0.0818 -0.0969
  141TMC2    O5 2204   3.550   1.073  14.397  0.3509  0.4161  0.2784
  141TMC2    H5 2205   3.478   1.140  14.399  2.2820  2.5333 -0.4457
  142TMC2    C1 2206   1.321   0.234  10.536  0.4938  0.8638  0.7132
  142TMC2    C2 2207   1.243   0.249  10.417 -0.4604  0.3830  0.1085
  142TMC2    C3 2208   1.277   0.348  10.328  0.0094 -0.0435 -0.0869
  142TMC2    C4 2209   1.435   0.305  10.554 -0.4976  1.5981 -0.3064
  142TMC2    C5 2210   1.471   0.401  10.460  0.0253 -0.1581  0.0180
  142TMC2    C6 2211   1.379   0.437  10.357  0.3703 -0.0390 -1.2225
  142TMC2     C 2212   1.264   0.169  10.652  0.2117  0.5810  0.0379
  142TMC2     O 2213   1.170   0.088  10.636  0.0339  1.0854 -0.6847
  142TMC2     H 2214   1.151   0.194  10.403  0.3552 -0.4615 -1.8088
  142TMC2    H1 2215   1.506   0.282  10.632 -0.2818  1.4863 -0.5330
  142TMC2    H2 2216   1.393   0.520  10.290 -0.1408  1.5370  0.6185
  142TMC2    C7 2217   1.558   0.506  10.515 -0.1473  0.5325  0.7224
  142TMC2    C8 2218   1.201   0.362  10.203  0.1071  0.2485 -0.2083
  142TMC2    O1 2219   1.608   0.484  10.624 -0.0851  0.2223  0.3282
  142TMC2    O2 2220   1.201   0.464  10.137  0.1223  0.3790  1.1533
  142TMC2    O5 2221   1.178   0.233  10.155  0.0434  0.1120 -0.3152
  142TMC2    H5 2222   1.224   0.163  10.206 -1.7962 -0.0326  1.1055
  143MPD2     C 2223   1.250   0.065  11.150  0.2295 -0.2584 -0.2681
  143MPD2    C1 2224   1.188   0.001  11.048  0.4078 -0.2685 -0.1180
  143MPD2    C2 2225   1.219   0.048  10.922 -0.0920 -0.7103 -0.1240
  143MPD2    C3 2226   1.289   0.163  10.899  0.8247 -0.2969 -0.2242
  143MPD2    C4 2227   1.347   0.224  11.010 -0.0823  1.4593  0.2866
  143MPD2    C5 2228   1.331   0.171  11.133 -0.0584 -0.1527  0.3989
  143MPD2     H 2229   1.188   4.729  10.836  1.0646 -0.1941 -0.8816
  143MPD2    H1 2230   1.413   0.309  10.996  2.6932 -0.6386  0.6556
  143MPD2    H2 2231   1.229   0.037  11.253 -2.0676  0.8503 -0.4423
  143MPD2    H3 2232   1.379   0.213  11.221 -0.6791  0.7639  0.3008
  143MPD2     N 2233   1.308   0.224  10.770  0.1094  0.2944 -0.0268
  143MPD2    H5 2234   1.360   0.311  10.766 -2.1383  1.4913 -3.0129
  143MPD2    N1 2235   1.106   4.629  11.083  0.0472 -0.0231  0.2218
  143MPD2    H7 2236   1.110   4.587  11.175  2.0312  0.4091  0.3337
  144TMC2    C1 2237   3.892   4.091   0.992 -0.1123  0.2019 -0.3317
  144TMC2    C2 2238   3.951   3.969   1.015 -0.1383  0.4207 -0.6212
  144TMC2    C3 2239   4.080   3.971   1.065  0.4345 -0.6879  0.2316
  144TMC2    C4 2240   3.952   4.213   1.014 -0.6591  0.5116 -1.4696
  144TMC2    C5 2241   4.075   4.209   1.064 -0.0214  0.3293  0.0161
  144TMC2    C6 2242   4.143   4.091   1.083 -0.2914 -0.3972  0.3360
  144TMC2     C 2243   3.761   4.077   0.933  0.1616  0.0912  0.0771
  144TMC2     O 2244   3.726   3.961   0.913 -0.0539 -0.4112 -0.3110
  144TMC2     H 2245   3.900   3.874   1.011 -0.1588  0.4788 -1.6835
  144TMC2    H1 2246   3.898   4.303   0.984 -0.0082  0.7253 -2.0031
  144TMC2    H2 2247   4.241   4.093   1.130  0.0668  1.7648 -0.5059
  144TMC2    C7 2248   4.143   4.328   1.097  0.6297  0.0264 -0.7613
  144TMC2    C8 2249   4.148   3.839   1.074  0.1449  0.7161  0.1390
  144TMC2    O1 2250   4.264   4.328   1.078  0.3081  0.3573  0.0762
  144TMC2    O2 2251   4.086   3.737   1.096  0.1086  0.2135 -0.2440
  144TMC2    O5 2252   4.283   3.849   1.079 -0.1664 -0.4477  0.6207
  144TMC2    H5 2253   4.333   3.929   1.051  3.4516 -2.4213  1.4007
  145MPD2     C 2254   3.317   4.218   0.716  0.5461 -0.0248 -0.3895
  145MPD2    C1 2255   3.370   4.090   0.743  0.2686  0.2336 -0.2308
  145MPD2    C2 2256   3.492   4.083   0.799  0.6721  0.3453  0.2513
  145MPD2    C3 2257   3.562   4.197   0.838 -0.7324 -0.2168  0.1971
  145MPD2    C4 2258   3.503   4.319   0.829 -0.2084  0.3874 -0.0720
  145MPD2    C5 2259   3.381   4.329   0.763 -0.0069  0.0090  0.4824
  145MPD2     H 2260   3.529   3.985   0.827  2.4923  1.4346  1.6710
  145MPD2    H1 2261   3.544   4.411   0.869  0.8465  0.8340 -2.1640
  145MPD2    H2 2262   3.220   4.223   0.669 -0.7733 -1.7029  2.1060
  145MPD2    H3 2263   3.349   4.428   0.731 -0.6535 -0.4541 -0.3173
  145MPD2     N 2264   3.689   4.191   0.907 -0.0470  0.0646  0.3809
  145MPD2    H5 2265   3.712   4.285   0.939 -0.6291  0.2196  0.3465
  145MPD2    N1 2266   3.313   3.969   0.703  0.3489 -0.2999 -0.1876
  145MPD2    H7 2267   3.369   3.885   0.714  3.5729  2.2298  2.7800
  146TMC2    C1 2268   0.861   2.771  12.536  0.0710  0.3420  0.4267
  146TMC2    C2 2269   0.788   2.824  12.427  0.2726  0.0078  0.0005
  146TMC2    C3 2270   0.838   2.783  12.305 -0.2393 -0.3488  0.1139
  146TMC2    C4 2271   0.981   2.713  12.528  0.0647  0.0126  0.6049
  146TMC2    C5 2272   1.029   2.682  12.401 -0.4817 -0.2139  0.0441
  146TMC2    C6 2273   0.972   2.734  12.288 -0.7035  0.4162 -0.8531
  146TMC2     C 2274   0.805   2.801  12.668  0.5206 -0.3503  0.0451
  146TMC2     O 2275   0.732   2.897  12.673 -0.8857 -0.1975 -0.5556
  146TMC2     H 2276   0.695   2.876  12.447  0.9510  1.4324 -0.5859
  146TMC2    H1 2277   1.028   2.688  12.622  0.1787  2.0062  1.0789
  146TMC2    H2 2278   1.019   2.706  12.194 -3.5701 -0.6697 -1.9600
  146TMC2    C7 2279   1.166   2.638  12.397 -0.2390 -0.2748  0.3448
  146TMC2    C8 2280   0.801   2.867  12.190  0.0204  0.4650  0.1174
  146TMC2    O1 2281   1.237   2.664  12.299 -1.0571 -0.4854 -0.2743
  146TMC2    O2 2282   0.888   2.922  12.119  0.2062  0.6384  0.0852
  146TMC2    O5 2283   0.670   2.899  12.196  0.2754  0.9487 -0.2316
  146TMC2    H5 2284   0.625   2.837  12.258 -1.1065  1.0348 -1.1607
  147MPD2     C 2285   1.571   2.487  12.669  0.2175 -0.2865  0.5084
  147MPD2    C1 2286   1.466   2.407  12.712  0.5034  0.0340  0.5115
  147MPD2    C2 2287   1.343   2.434  12.654  0.3288  0.5847 -0.6335
  147MPD2    C3 2288   1.325   2.529  12.555 -0.1267 -0.0442  0.0294
  147MPD2    C4 2289   1.432   2.595  12.508  0.0677 -0.1314 -0.1018
  147MPD2    C5 2290   1.554   2.570  12.565  0.2222  0.3159 -0.3698
  147MPD2     H 2291   1.249   2.387  12.679  0.1262  0.9806 -0.6600
  147MPD2    H1 2292   1.421   2.674  12.434 -1.0096  0.8272  1.0735
  147MPD2    H2 2293   1.668   2.464  12.712  0.5340  0.6509  0.3031
  147MPD2    H3 2294   1.633   2.627  12.518 -1.3039  1.9233 -0.9897
  147MPD2     N 2295   1.194   2.565  12.510 -0.7323  0.4861 -0.1032
  147MPD2    H5 2296   1.116   2.535  12.567 -0.6658  1.4621  0.4995
  147MPD2    N1 2297   1.482   2.317  12.818 -0.4899 -0.3474 -0.0090
  147MPD2    H7 2298   1.574   2.302  12.858 -0.5169  1.7056  0.7905
  148TMC2    C1 2299   1.129   1.967  10.638 -0.3126  0.9934 -0.5855
  148TMC2    C2 2300   1.204   2.042  10.733 -0.1626  0.1393 -0.5359
  148TMC2    C3 2301   1.235   1.987  10.858 -0.0572  0.0483  0.6417
  148TMC2    C4 2302   1.129   1.828  10.652  0.0398  0.0957 -0.5032
  148TMC2    C5 2303   1.193   1.773  10.766 -0.4068  0.3871  0.3629
  148TMC2    C6 2304   1.243   1.847  10.871  0.4525  0.1426  0.4573
  148TMC2     C 2305   1.039   2.036  10.543 -0.5109  0.2186 -0.1310
  148TMC2     O 2306   1.045   2.159  10.525  0.0755 -0.6455  0.1354
  148TMC2     H 2307   1.223   2.148  10.719  0.1618  0.3744  1.5985
  148TMC2    H1 2308   1.083   1.760  10.580  1.7398 -2.8909  1.2200
  148TMC2    H2 2309   1.289   1.801  10.957  2.8390 -2.8108 -2.3873
  148TMC2    C7 2310   1.187   1.626  10.774 -0.2157  1.3390 -0.0327
  148TMC2    C8 2311   1.324   2.062  10.954  0.0645  0.2141 -0.1864
  148TMC2    O1 2312   1.139   1.571  10.674 -0.5153  0.0178 -0.1288
  148TMC2    O2 2313   1.384   2.162  10.915 -0.4444  0.2247 -0.5509
  148TMC2    O5 2314   1.275   2.028  11.073 -0.3588 -0.0945  0.1864
  148TMC2    H5 2315   1.189   1.982  11.074 -0.8314  0.7608 -1.6605
  149MPD2     C 2316   0.803   2.115  10.371 -0.4038  0.2169  0.2044
  149MPD2    C1 2317   0.817   1.990  10.424  0.1769 -0.7890 -0.6646
  149MPD2    C2 2318   0.715   1.898  10.413  0.0900  0.8861  0.2466
  149MPD2    C3 2319   0.606   1.919  10.339 -0.0080 -0.2507  0.3086
  149MPD2    C4 2320   0.588   2.046  10.289  0.0190  0.2678  0.1617
  149MPD2    C5 2321   0.687   2.142  10.305  0.1633  0.2698  0.7638
  149MPD2     H 2322   0.730   1.802  10.462 -1.5100 -0.3034 -1.6139
  149MPD2    H1 2323   0.496   2.065  10.236  0.0092 -1.2380 -0.3546
  149MPD2    H2 2324   0.881   2.192  10.371 -0.5758  0.4044 -1.3529
  149MPD2    H3 2325   0.660   2.236  10.259 -4.7953 -0.5023  2.0421
  149MPD2     N 2326   0.493   1.828  10.334 -0.0293 -0.3351 -0.1189
  149MPD2    H5 2327   0.399   1.861  10.313 -0.9132 -0.5266  3.6376
  149MPD2    N1 2328   0.929   1.954  10.510 -0.9998  0.3231  0.5360
  149MPD2    H7 2329   0.936   1.860  10.548  1.2205 -0.0260 -0.7547
  150TMC2    C1 2330   2.713   0.917  12.531 -0.1082 -0.3642 -0.3332
  150TMC2    C2 2331   2.695   0.991  12.418 -0.3322 -0.2266 -0.1396
  150TMC2    C3 2332   2.803   1.059  12.363 -0.5309  0.7753 -0.1564
  150TMC2    C4 2333   2.846   0.908  12.579 -0.0206 -0.6446  0.2424
  150TMC2    C5 2334   2.949   0.977  12.515  0.4144 -0.0407  0.4223
  150TMC2    C6 2335   2.929   1.067  12.413  0.5924  0.3567 -0.1625
  150TMC2     C 2336   2.619   0.821  12.580  0.6348  0.3774  0.7577
  150TMC2     O 2337   2.637   0.782  12.699  0.4784  0.2634 -0.2214
  150TMC2     H 2338   2.600   1.004  12.367 -0.2926  0.5676 -0.0033
  150TMC2    H1 2339   2.862   0.849  12.668 -0.4401 -1.2376 -0.0795
  150TMC2    H2 2340   3.008   1.130  12.375 -1.4692  2.7082 -0.4870
  150TMC2    C7 2341   3.086   0.946  12.558 -0.1379  0.0153 -0.4401
  150TMC2    C8 2342   2.766   1.135  12.248  0.0276 -0.1807  0.6248
  150TMC2    O1 2343   3.178   1.022  12.528  0.6495 -1.2425 -0.0947
  150TMC2    O2 2344   2.668   1.207  12.239  0.9986 -0.5208 -0.5629
  150TMC2    O5 2345   2.868   1.112  12.158 -0.3498  0.5839  0.0930
  150TMC2    H5 2346   2.930   1.050  12.202  1.2730  2.0649 -0.1148
  151MPD2     C 2347   2.196   0.533  12.508 -0.0362  0.1195 -0.0232
  151MPD2    C1 2348   2.230   0.598  12.392  0.7271 -0.7785  0.1650
  151MPD2    C2 2349   2.340   0.678  12.394 -0.1080 -0.9041 -0.6224
  151MPD2    C3 2350   2.414   0.700  12.503  0.5731  0.1126 -0.2707
  151MPD2    C4 2351   2.388   0.632  12.618  0.3137  0.7766  0.4073
  151MPD2    C5 2352   2.286   0.544  12.617 -1.3137 -0.0359 -0.2705
  151MPD2     H 2353   2.359   0.734  12.304 -0.5623 -0.6295 -0.5486
  151MPD2    H1 2354   2.452   0.633  12.706  1.5549  0.0156 -0.4999
  151MPD2    H2 2355   2.110   0.467  12.513  0.7399 -0.8416  0.5951
  151MPD2    H3 2356   2.258   0.492  12.707 -0.4339 -1.8355 -1.0262
  151MPD2     N 2357   2.527   0.779  12.484 -0.6585 -0.7073  0.6221
  151MPD2    H5 2358   2.540   0.827  12.396 -1.5414 -0.7432  0.4639
  151MPD2    N1 2359   2.148   0.572  12.277 -0.3615  0.2759  0.5910
  151MPD2    H7 2360   2.067   0.512  12.287 -0.1125  0.0699  1.3576
  152TMC2    C1 2361   2.630   0.345  12.828 -0.0995 -0.7110  0.3474
  152TMC2    C2 2362   2.654   0.405  12.711 -0.5178  0.0489 -0.0369
  152TMC2    C3 2363   2.772   0.474  12.692 -0.6086  0.2352  0.3502
  152TMC2    C4 2364   2.715   0.365  12.932 -1.1967 -0.6314 -0.5222
  152TMC2    C5 2365   2.825   0.450  12.917  0.4359  0.7595  0.1723
  152TMC2    C6 2366   2.858   0.499  12.792  0.2432 -0.5441  0.0046
  152TMC2     C 2367   2.515   0.257  12.850  0.0080  1.2239  0.8778
  152TMC2     O 2368   2.409   0.298  12.803 -0.5178  0.7932  0.0142
  152TMC2     H 2369   2.572   0.401  12.640 -2.4016  0.7116  2.0966
  152TMC2    H1 2370   2.701   0.309  13.024  3.1984  0.4658  0.8589
  152TMC2    H2 2371   2.943   0.567  12.782  0.1556 -0.5639 -0.8400
  152TMC2    C7 2372   2.878   0.523  13.034  0.3398 -0.2296  0.1203
  152TMC2    C8 2373   2.797   0.529  12.557  0.7360  0.0781  0.1745
  152TMC2    O1 2374   2.803   0.548  13.126 -0.2753 -0.4290 -0.2728
  152TMC2    O2 2375   2.867   0.625  12.537 -0.4119 -0.1286  0.3587
  152TMC2    O5 2376   2.715   0.470  12.469 -0.0182 -0.1011  0.0662
  152TMC2    H5 2377   2.689   0.377  12.480 -0.5212  0.0698  0.3413
  153MPD2     C 2378   2.525   4.655  13.001  0.3380 -1.1348  0.5724
  153MPD2    C1 2379   2.470   0.036  12.958  0.2359 -0.0455 -0.3710
  153MPD2    C2 2380   2.336   0.045  12.947  0.5789  0.3601 -0.0648
  153MPD2    C3 2381   2.254   4.687  13.004 -0.1231  0.2711  0.5442
  153MPD2    C4 2382   2.309   4.580  13.069 -0.3440  0.3053 -0.8608
  153MPD2    C5 2383   2.443   4.555  13.054 -0.0510 -0.4174  0.6634
  153MPD2     H 2384   2.284   0.133  12.910  0.0050  0.2776  0.5442
  153MPD2    H1 2385   2.255   4.500  13.118  0.7738 -0.0269 -0.1625
  153MPD2    H2 2386   2.632   4.639  12.999  0.5749  0.5394 -0.0115
  153MPD2    H3 2387   2.492   4.468  13.095 -1.8875 -1.2453  1.0996
  153MPD2     N 2388   2.113   4.709  12.998  0.3374 -0.0202 -0.5689
  153MPD2    H5 2389   2.078   0.058  12.960  1.1251  0.9368  0.8943
  153MPD2    N1 2390   2.556   0.133  12.898  0.5285  0.4916 -0.1435
  153MPD2    H7 2391   2.655   0.114  12.905  0.6558  1.3841  0.4903
  154TMC2    C1 2392   3.526   0.614  17.605 -0.0787  0.7512 -0.1731
  154TMC2    C2 2393   3.552   0.745  17.565  0.4297 -0.3814  0.0525
  154TMC2    C3 2394   3.668   0.758  17.487  0.4301  0.3104 -0.0447
  154TMC2    C4 2395   3.614   0.501  17.573 -0.0805  0.6636 -0.1459
  154TMC2    C5 2396   3.717   0.526  17.489  0.5925  0.3482 -0.7327
  154TMC2    C6 2397   3.750   0.652  17.448  0.0700 -0.3105  0.1082
  154TMC2     C 2398   3.411   0.608  17.695 -1.0839  0.7140  0.0139
  154TMC2     O 2399   3.371   0.713  17.737 -0.1050 -0.2273 -0.2385
  154TMC2     H 2400   3.472   0.818  17.558  1.1291  0.3173 -0.5740
  154TMC2    H1 2401   3.578   0.402  17.597 -0.5987  0.7014 -0.7906
  154TMC2    H2 2402   3.833   0.670  17.381  0.4287 -0.8102  0.4214
  154TMC2    C7 2403   3.775   0.419  17.417  0.6821  0.2905 -0.2669
  154TMC2    C8 2404   3.686   0.881  17.414  0.2153  0.4854  0.4109
  154TMC2    O1 2405   3.846   0.456  17.323  0.3195 -0.0887  0.1798
  154TMC2    O2 2406   3.785   0.889  17.338 -0.0629  0.3994  0.0307
  154TMC2    O5 2407   3.633   0.983  17.482 -0.3947  0.6674  0.7183
  154TMC2    H5 2408   3.589   0.964  17.568 -0.7105 -0.6191  0.2737
  155MPD2     C 2409   3.205   0.318   0.030  0.8032 -0.0440  0.0035
  155MPD2    C1 2410   3.257   0.444   0.046 -0.3347  0.6613 -0.0262
  155MPD2    C2 2411   3.218   0.523   0.153 -0.0174  0.1781  0.3467
  155MPD2    C3 2412   3.114   0.478   0.233  0.2594 -0.7775 -0.0364
  155MPD2    C4 2413   3.047   0.363   0.207  0.0897 -0.1124  0.4276
  155MPD2    C5 2414   3.098   0.279   0.107 -0.9809  0.0966  0.8315
  155MPD2     H 2415   3.267   0.618   0.169  0.2645  0.5854 -2.9070
  155MPD2    H1 2416   2.962   0.330   0.264 -1.4166  2.0912 -0.5554
  155MPD2    H2 2417   3.240   0.243  17.712 -3.3742 -1.3289 -0.7016
  155MPD2    H3 2418   3.051   0.182   0.106 -2.5064  0.8440  0.0039
  155MPD2     N 2419   3.091   0.560   0.348 -0.5156 -0.8206  0.4877
  155MPD2    H5 2420   3.141   0.648   0.358 -1.9503  0.2048 -1.1392
  155MPD2    N1 2421   3.357   0.483  17.709 -0.3833 -0.2049  0.2797
  155MPD2    H7 2422   3.378   0.416  17.635  0.7685  1.3133 -0.7836
  156TMC2    C1 2423   2.494   2.702  11.499  0.0691  0.7701  0.2416
  156TMC2    C2 2424   2.394   2.611  11.530 -0.4515 -0.8614  0.3340
  156TMC2    C3 2425   2.267   2.633  11.474 -0.1522  0.6087  0.6320
  156TMC2    C4 2426   2.468   2.812  11.422  0.2059  0.5433 -0.6726
  156TMC2    C5 2427   2.349   2.833  11.370  0.0476 -1.0037  0.0036
  156TMC2    C6 2428   2.247   2.748  11.398 -0.3038 -0.4508 -0.0277
  156TMC2     C 2429   2.613   2.711  11.588 -0.0852 -0.3745  0.1640
  156TMC2     O 2430   2.662   2.823  11.607  0.2140  0.0028  0.8885
  156TMC2     H 2431   2.407   2.523  11.591  1.4307  0.8689  2.4229
  156TMC2    H1 2432   2.549   2.882  11.402  1.6184 -0.9201 -0.0576
  156TMC2    H2 2433   2.145   2.759  11.361 -0.6247  0.7051  1.1957
  156TMC2    C7 2434   2.340   2.940  11.275 -0.3877  0.4539  0.1271
  156TMC2    C8 2435   2.150   2.600  11.559 -0.0485 -0.0774  1.1318
  156TMC2    O1 2436   2.444   2.965  11.213 -0.0604  0.0717 -0.2404
  156TMC2    O2 2437   2.164   2.586  11.682 -0.7890 -0.2719  0.2036
  156TMC2    O5 2438   2.041   2.561  11.480  0.4490 -0.4457 -0.7357
  156TMC2    H5 2439   2.046   2.576  11.384  0.3711  1.0681 -0.5048
  157MPD2     C 2440   2.790   2.437  11.765 -0.2805 -0.8691 -0.3768
  157MPD2    C1 2441   2.757   2.564  11.735 -0.1297 -0.0563 -0.9593
  157MPD2    C2 2442   2.826   2.666  11.798 -0.0830 -0.2086  0.4769
  157MPD2    C3 2443   2.940   2.639  11.874  0.5187 -0.1555 -0.1854
  157MPD2    C4 2444   2.972   2.509  11.905  0.2252 -0.4188  0.8225
  157MPD2    C5 2445   2.891   2.402  11.851 -0.1787 -0.2440  0.6695
  157MPD2     H 2446   2.801   2.771  11.787  0.4830 -0.2700 -1.3412
  157MPD2    H1 2447   3.049   2.469  11.970 -0.5989  0.7459  2.5050
  157MPD2    H2 2448   2.739   2.349  11.727  1.3166 -0.5667 -3.1933
  157MPD2    H3 2449   2.919   2.299  11.868 -2.0426 -0.5197  2.0010
  157MPD2     N 2450   3.006   2.752  11.926 -0.5102  0.6580  0.7578
  157MPD2    H5 2451   2.959   2.842  11.916 -0.0381  0.7796 -0.3804
  157MPD2    N1 2452   2.650   2.592  11.645  0.5001 -0.3796  1.0368
  157MPD2    H7 2453   2.595   2.516  11.606  1.6178 -0.6690  0.0180
  158TMC2    C1 2454   3.427   0.932  13.629 -0.7225 -0.6863  0.3688
  158TMC2    C2 2455   3.518   0.942  13.531 -0.9429  0.7637 -0.3482
  158TMC2    C3 2456   3.485   1.027  13.413 -0.1900 -0.4667  0.3522
  158TMC2    C4 2457   3.303   0.992  13.625 -0.4819 -0.3023 -0.1187
  158TMC2    C5 2458   3.278   1.069  13.518  0.2345 -0.0156 -0.0752
  158TMC2    C6 2459   3.364   1.084  13.415  0.6230 -0.6395  0.3284
  158TMC2     C 2460   3.466   0.857  13.752 -0.5150  0.2617 -0.4957
  158TMC2     O 2461   3.563   0.791  13.747 -0.5598 -0.0468 -0.6220
  158TMC2     H 2462   3.612   0.888  13.536 -0.6683  1.2476 -0.2194
  158TMC2    H1 2463   3.232   0.981  13.706 -0.3708  1.3271  0.2027
  158TMC2    H2 2464   3.322   1.138  13.330  0.8562 -1.0104 -0.0209
  158TMC2    C7 2465   3.156   1.154  13.518 -0.1456 -0.4088 -0.0641
  158TMC2    C8 2466   3.540   0.991  13.285  0.4590 -0.0601  0.2286
  158TMC2    O1 2467   3.158   1.253  13.448  0.1386 -0.7376 -0.7031
  158TMC2    O2 2468   3.496   1.037  13.180 -0.3062  0.2260  0.1770
  158TMC2    O5 2469   3.573   0.864  13.303  0.2600 -0.1278  0.4975
  158TMC2    H5 2470   3.577   0.830  13.394 -0.1912  2.5642  1.5262
  159MPD2     C 2471   3.402   0.757  14.252  0.3022 -0.0515  0.4385
  159MPD2    C1 2472   3.300   0.843  14.208 -0.0559 -0.7647 -0.0400
  159MPD2    C2 2473   3.298   0.878  14.082  0.2850  0.2586  0.5273
  159MPD2    C3 2474   3.400   0.851  13.994 -0.4190  0.6109 -0.2670
  159MPD2    C4 2475   3.495   0.762  14.033  0.6286 -0.2245  0.2950
  159MPD2    C5 2476   3.499   0.721  14.163 -0.0335 -0.2124 -0.9273
  159MPD2     H 2477   3.214   0.939  14.050 -0.3318 -1.2359 -0.7115
  159MPD2    H1 2478   3.584   0.728  13.981  1.0080  1.0985  0.0844
  159MPD2    H2 2479   3.410   0.733  14.358 -0.9871  2.4087  1.0990
  159MPD2    H3 2480   3.581   0.658  14.193 -0.9946 -0.9115  0.2238
  159MPD2     N 2481   3.385   0.898  13.861 -0.0728 -0.6255 -0.0693
  159MPD2    H5 2482   3.302   0.953  13.842 -0.2221 -0.5704  0.7574
  159MPD2    N1 2483   3.203   0.883  14.304  0.1552  0.2575 -0.0959
  159MPD2    H7 2484   3.223   0.851  14.398  2.1331  1.6044 -0.0515
  160TMC2    C1 2485   2.559   4.202   1.340  0.1628 -0.2191 -0.8462
  160TMC2    C2 2486   2.560   4.065   1.322  0.4432 -1.0981  0.6375
  160TMC2    C3 2487   2.585   4.006   1.201  0.3868  0.9453  0.5264
  160TMC2    C4 2488   2.585   4.281   1.229  0.3398  0.2125 -0.4179
  160TMC2    C5 2489   2.629   4.219   1.111 -0.8734  0.2307  0.1051
  160TMC2    C6 2490   2.626   4.083   1.094 -0.5650 -0.5199 -0.4686
  160TMC2     C 2491   2.451   4.254   1.431  0.4294 -0.7336  0.6519
  160TMC2     O 2492   2.420   4.169   1.514  0.0336  0.2258  0.2345
  160TMC2     H 2493   2.521   4.004   1.402  2.0610 -0.5604  1.8482
  160TMC2    H1 2494   2.599   4.386   1.250  0.4227  0.4584 -1.6605
  160TMC2    H2 2495   2.651   4.044   0.996  1.5696 -1.1640  0.3288
  160TMC2    C7 2496   2.680   4.298   1.000 -0.9949  0.2413  0.9598
  160TMC2    C8 2497   2.576   3.861   1.189 -0.1915 -0.2510 -0.1875
  160TMC2    O1 2498   2.697   4.247   0.888  0.4935 -0.0465  0.1319
  160TMC2    O2 2499   2.595   3.802   1.295  0.1402 -0.8266 -0.3255
  160TMC2    O5 2500   2.479   3.838   1.096 -0.7263 -0.2693 -0.1525
  160TMC2    H5 2501   2.455   3.911   1.034 -2.1758 -1.0055 -0.4680
  161MPD2     C 2502   2.169   4.296   1.427  0.4898 -0.1321 -0.4697
  161MPD2    C1 2503   2.256   4.395   1.393  0.3987  0.3591 -0.5300
  161MPD2    C2 2504   2.207   4.519   1.348  0.1778 -0.0665  0.4638
  161MPD2    C3 2505   2.066   4.544   1.331  0.2972 -0.3648 -0.6041
  161MPD2    C4 2506   1.984   4.437   1.362  0.2031  0.8866  0.1397
  161MPD2    C5 2507   2.036   4.321   1.408 -0.0516 -0.8346  0.1186
  161MPD2     H 2508   2.277   4.597   1.317 -0.6108  0.6956  0.5803
  161MPD2    H1 2509   1.878   4.446   1.345 -0.0627  0.3968  1.5821
  161MPD2    H2 2510   2.191   4.195   1.458  1.6721  0.6163  1.1005
  161MPD2    H3 2511   1.958   4.247   1.421 -0.7278 -0.1951 -0.2768
  161MPD2     N 2512   2.014   4.661   1.267 -0.1253 -0.0195  0.1584
  161MPD2    H5 2513   1.917   4.654   1.239  0.0549  3.4160 -1.3633
  161MPD2    N1 2514   2.396   4.371   1.393 -0.1844  0.3332 -0.1929
  161MPD2    H7 2515   2.442   4.449   1.348 -0.7280  0.0897 -1.1715
  162TMC2    C1 2516   0.478   2.227   0.791 -0.2201 -0.4757  0.0775
  162TMC2    C2 2517   0.491   2.345   0.727  0.2843  0.5093 -0.1149
  162TMC2    C3 2518   0.541   2.456   0.801 -0.3186  0.2464 -0.1314
  162TMC2    C4 2519   0.539   2.199   0.916  0.0444 -0.4994 -0.1422
  162TMC2    C5 2520   0.594   2.315   0.972  0.0132  0.1880  0.6326
  162TMC2    C6 2521   0.594   2.439   0.924 -0.2065 -0.5419  0.0127
  162TMC2     C 2522   0.434   2.105   0.714 -0.6991 -0.8887 -0.2252
  162TMC2     O 2523   0.449   2.116   0.592  0.6530 -0.0302  0.1830
  162TMC2     H 2524   0.447   2.352   0.628 -2.5148 -2.3985  0.9281
  162TMC2    H1 2525   0.557   2.106   0.969  1.6219 -0.5669 -0.7895
  162TMC2    H2 2526   0.627   2.529   0.975 -2.4147  0.3068 -0.0514
  162TMC2    C7 2527   0.676   2.310   1.089 -0.1709  0.6196 -0.0056
  162TMC2    C8 2528   0.583   2.573   0.725  0.2857  0.1316 -0.6174
  162TMC2    O1 2529   0.739   2.415   1.116 -0.0848  0.5470  0.1520
  162TMC2    O2 2530   0.578   2.687   0.770 -0.0603 -0.4582  0.0297
  162TMC2    O5 2531   0.593   2.540   0.597 -0.0344  0.5101  0.1156
  162TMC2    H5 2532   0.591   2.443   0.589  0.4300  0.6243 -1.3553
  163MPD2     C 2533   0.309   1.602   0.704 -0.5107  0.1512  0.1994
  163MPD2    C1 2534   0.368   1.674   0.600 -0.6758  0.9065 -0.4556
  163MPD2    C2 2535   0.394   1.813   0.624 -0.0497  0.5312  0.2023
  163MPD2    C3 2536   0.358   1.870   0.746 -0.3780 -0.0132 -0.3299
  163MPD2    C4 2537   0.318   1.789   0.851 -0.9661 -0.1396 -0.0067
  163MPD2    C5 2538   0.287   1.657   0.825 -0.6082 -0.6574 -0.4809
  163MPD2     H 2539   0.448   1.878   0.557 -1.0965  2.4112  1.1845
  163MPD2    H1 2540   0.300   1.828   0.951  0.6891  3.1156 -0.9562
  163MPD2    H2 2541   0.281   1.498   0.695 -1.7222  0.3979  1.1481
  163MPD2    H3 2542   0.255   1.594   0.907 -0.2923 -0.2492 -0.0465
  163MPD2     N 2543   0.394   2.000   0.788  0.3662 -0.4496  0.3389
  163MPD2    H5 2544   0.384   2.022   0.887  0.1031  1.5451 -0.1473
  163MPD2    N1 2545   0.382   1.617   0.472 -0.4549 -0.6162  0.3626
  163MPD2    H7 2546   0.348   1.522   0.462  0.3873 -0.5780 -2.7241
  164TMC2    C1 2547   1.355   2.056  11.852 -0.2023  0.1431 -0.4184
  164TMC2    C2 2548   1.391   2.048  11.981 -0.3180 -0.0076  0.2076
  164TMC2    C3 2549   1.324   1.963  12.064  0.3318 -0.4527 -0.4268
  164TMC2    C4 2550   1.265   1.976  11.790  0.4705 -0.2844 -0.0590
  164TMC2    C5 2551   1.224   1.873  11.867  1.0301  0.3508 -0.2367
  164TMC2    C6 2552   1.245   1.871  12.004  0.3571  0.5377  0.2300
  164TMC2     C 2553   1.355   2.184  11.790  0.3551 -0.2837 -0.8065
  164TMC2     O 2554   1.255   2.218  11.729  0.1534 -0.3596 -0.2055
  164TMC2     H 2555   1.473   2.113  12.010 -0.2231 -0.1320  0.2199
  164TMC2    H1 2556   1.247   1.984  11.684 -0.6467 -0.5551  0.1130
  164TMC2    H2 2557   1.224   1.781  12.060 -0.5598  0.7629  0.2633
  164TMC2    C7 2558   1.112   1.807  11.800  0.1355 -0.0210  0.3274
  164TMC2    C8 2559   1.363   1.960  12.205  0.3707  0.6943 -0.0308
  164TMC2    O1 2560   1.083   1.836  11.683 -0.1897 -0.1487 -0.1852
  164TMC2    O2 2561   1.467   2.003  12.254  0.1149 -0.4276  0.1214
  164TMC2    O5 2562   1.254   1.913  12.268 -0.0013 -0.0160  0.2710
  164TMC2    H5 2563   1.173   1.925  12.213 -0.1343  0.4345  0.5653
  165TMC2    C1 2564   3.465   3.524   1.949  0.0311 -0.6097  0.9517
  165TMC2    C2 2565   3.522   3.552   2.068  0.1952  0.1440  0.4187
  165TMC2    C3 2566   3.538   3.687   2.095  0.5695 -0.7988 -0.3912
  165TMC2    C4 2567   3.411   3.624   1.871 -0.9071 -0.3578 -0.2472
  165TMC2    C5 2568   3.434   3.754   1.895  0.0855  0.4797  0.3043
  165TMC2    C6 2569   3.495   3.787   2.008 -0.2094  0.3414 -0.3099
  165TMC2     C 2570   3.428   3.387   1.933  0.3653  0.1395 -0.0714
  165TMC2     O 2571   3.514   3.310   1.970 -0.1113  0.5827 -0.5142
  165TMC2     H 2572   3.558   3.473   2.134  0.6893 -0.0127 -0.0394
  165TMC2    H1 2573   3.371   3.595   1.775  1.2999 -0.7914 -1.0401
  165TMC2    H2 2574   3.528   3.888   2.025  0.0738  0.3110 -0.6851
  165TMC2    C7 2575   3.396   3.849   1.793 -0.0700 -0.0084 -0.7711
  165TMC2    C8 2576   3.623   3.723   2.208  0.5437  0.6406 -0.4267
  165TMC2    O1 2577   3.385   3.812   1.678 -0.1625  1.5082  0.5465
  165TMC2    O2 2578   3.692   3.826   2.214  0.1921  0.1623 -0.4328
  165TMC2    O5 2579   3.574   3.639   2.307 -0.0979 -0.0513  0.2980
  165TMC2    H5 2580   3.495   3.588   2.276 -0.4543 -0.3190  1.6466
  166MPD2     C 2581   3.121   3.009   1.782 -0.5028 -0.5179  0.2653
  166MPD2    C1 2582   3.259   3.008   1.799  0.1859  0.5178 -0.3049
  166MPD2    C2 2583   3.320   3.128   1.826  0.3035  0.5193 -0.3280
  166MPD2    C3 2584   3.251   3.246   1.847  0.0246 -0.7076  0.4665
  166MPD2    C4 2585   3.118   3.239   1.836 -0.4536 -0.1713 -0.1447
  166MPD2    C5 2586   3.055   3.126   1.797 -0.0032  0.2268  0.4914
  166MPD2     H 2587   3.427   3.144   1.832  0.4219 -0.5663  0.3992
  166MPD2    H1 2588   3.055   3.326   1.854  1.2739  0.9759  0.4414
  166MPD2    H2 2589   3.066   2.917   1.766  0.5629 -1.2774  0.9853
  166MPD2    H3 2590   2.948   3.135   1.780 -0.5606 -2.3517  2.5800
  166MPD2     N 2591   3.308   3.371   1.879  0.3199  0.7422  0.0934
  166MPD2    H5 2592   3.253   3.455   1.861  0.0084  0.3667 -0.6908
  166MPD2    N1 2593   3.335   2.888   1.785 -0.6249  0.1377  1.0251
  166MPD2    H7 2594   3.285   2.807   1.750 -1.1344  0.3685  1.2159
  167TMC2    C1 2595   0.708   0.843  12.962  0.3935  0.8400  0.4052
  167TMC2    C2 2596   0.613   0.849  13.068 -0.1459 -1.0004 -0.7492
  167TMC2    C3 2597   0.571   0.724  13.106  0.1377  0.2984 -0.1457
  167TMC2    C4 2598   0.752   0.725  12.903 -0.0735  0.7819  0.4436
  167TMC2    C5 2599   0.703   0.609  12.957 -0.0792 -0.0029  0.4060
  167TMC2    C6 2600   0.606   0.603  13.054  0.0214  0.2752  0.4924
  167TMC2     C 2601   0.758   0.968  12.914  0.1350  0.2177 -0.0402
  167TMC2     O 2602   0.745   1.066  12.989 -0.4546  0.3958  0.1361
  167TMC2     H 2603   0.567   0.941  13.100 -2.3213 -1.7051 -1.8333
  167TMC2    H1 2604   0.833   0.730  12.831 -0.9918 -1.0092 -0.6985
  167TMC2    H2 2605   0.586   0.509  13.104 -2.7933  1.0501  0.8205
  167TMC2    C7 2606   0.739   0.477  12.903 -0.2034  0.3044 -0.8149
  167TMC2    C8 2607   0.490   0.708  13.226 -0.0594  0.7791 -0.6735
  167TMC2    O1 2608   0.710   0.378  12.970  0.3432  0.2793  0.2930
  167TMC2    O2 2609   0.393   0.636  13.204  0.0371  1.0060  0.1178
  167TMC2    O5 2610   0.498   0.813  13.310 -0.2912 -0.0719  0.2854
  167TMC2    H5 2611   0.578   0.869  13.296 -0.2385  0.3847  2.3321
  168MPD2     C 2612   0.907   1.166  12.764 -0.7489  0.1613  0.0472
  168MPD2    C1 2613   0.854   1.051  12.708 -0.8296  0.1560  0.1528
  168MPD2    C2 2614   0.869   1.026  12.571 -0.7648 -0.2844 -0.1719
  168MPD2    C3 2615   0.932   1.117  12.485 -0.4826 -0.0264 -0.3013
  168MPD2    C4 2616   0.968   1.236  12.544 -0.0850 -0.1530 -0.3007
  168MPD2    C5 2617   0.954   1.262  12.679  0.7009  0.1286 -0.3320
  168MPD2     H 2618   0.824   0.935  12.532  0.4030  0.3207 -2.8954
  168MPD2    H1 2619   1.007   1.319  12.487 -1.1487  1.2040  0.9390
  168MPD2    H2 2620   0.896   1.199  12.867  0.3212  0.9367 -0.0827
  168MPD2    H3 2621   0.988   1.363  12.696  0.4775 -0.1884  1.9771
  168MPD2     N 2622   0.938   1.093  12.342  0.5720 -0.3803 -0.1912
  168MPD2    H5 2623   0.896   1.008  12.307  0.2431 -0.7020  1.0158
  168MPD2    N1 2624   0.783   0.953  12.779  0.8733  0.5714 -0.4358
  168MPD2    H7 2625   0.757   0.867  12.731 -0.0936  0.4689  0.2621
  169MPD1     C 2626   2.916   4.640   8.748  0.2307 -0.0394 -0.4328
  169MPD1    C1 2627   2.881   4.587   8.870  0.1202 -0.1478 -0.9004
  169MPD1    C2 2628   2.945   4.640   8.985 -0.1821  0.0554  0.0055
  169MPD1    C3 2629   3.022   0.011   8.980  0.4139  0.2290  0.1501
  169MPD1    C4 2630   3.050   0.071   8.859 -0.5135  0.0349 -0.2625
  169MPD1    C5 2631   2.993   0.018   8.745  0.8537  0.2665  0.1227
  169MPD1     H 2632   2.921   4.602   9.084 -0.5210 -1.3687 -0.6302
  169MPD1    H1 2633   3.110   0.159   8.837 -0.5492  0.4055  1.1554
  169MPD1    H2 2634   2.872   4.606   8.655  1.1185  0.3884 -1.0024
  169MPD1    H3 2635   3.019   0.055   8.646 -0.4731  1.7105  0.3048
  169MPD1     N 2636   3.067   0.065   9.106  0.5036  0.5457  0.7295
  169MPD1    H5 2637   3.029   0.027   9.192 -1.4865  0.0299 -0.3736
  169MPD1    N1 2638   2.809   4.466   8.877  0.3217  0.7573 -0.7202
  169MPD1    H6 2639   2.744   4.454   8.799  0.7390 -1.7735 -0.6988
  169MPD1    H7 2640   2.758   4.461   8.965  2.7100 -0.9544  0.5745
  170MPD1     C 2641   1.765   3.573  12.510 -0.1906 -0.7975  0.3184
  170MPD1    C1 2642   1.703   3.453  12.490 -0.2545 -0.7208  0.6017
  170MPD1    C2 2643   1.668   3.381  12.603  0.0198 -0.2701 -0.2623
  170MPD1    C3 2644   1.655   3.434  12.734  0.0158 -0.1336 -0.0107
  170MPD1    C4 2645   1.718   3.557  12.753 -0.2685  0.2744 -0.0341
  170MPD1    C5 2646   1.778   3.620  12.650  0.3677  0.4033  0.3002
  170MPD1     H 2647   1.641   3.277  12.584 -1.3490 -0.2038  1.2363
  170MPD1    H1 2648   1.716   3.605  12.851 -2.4329 -1.4044  0.7539
  170MPD1    H2 2649   1.810   3.627  12.427  0.6324 -1.6487  0.2080
  170MPD1    H3 2650   1.817   3.721  12.661  0.2498  0.3911  0.8399
  170MPD1     N 2651   1.603   3.349  12.839  1.2415 -0.6970  0.3534
  170MPD1    H5 2652   1.541   3.271  12.821 -2.2073  2.4344 -1.4315
  170MPD1    N1 2653   1.711   3.394  12.361 -0.5264 -0.2530  0.1823
  170MPD1    H6 2654   1.640   3.322  12.348  0.4225 -0.8142 -1.9562
  170MPD1    H7 2655   1.686   3.461  12.289  0.1092 -0.1055  0.0996
  171MPD1     C 2656   0.246   4.580  15.583 -0.3496  0.8744 -0.3679
  171MPD1    C1 2657   0.139   4.510  15.535  0.3171  0.8710  0.3325
  171MPD1    C2 2658   0.092   4.396  15.599  0.2623  0.2708 -0.0421
  171MPD1    C3 2659   0.164   4.346  15.703 -0.5125  1.0695 -0.4238
  171MPD1    C4 2660   0.270   4.413  15.744  0.3832 -0.2158  0.1191
  171MPD1    C5 2661   0.312   4.530  15.694 -0.2584 -0.0792 -0.6229
  171MPD1     H 2662   0.004   4.342  15.564 -0.6606  0.3867  2.1230
  171MPD1    H1 2663   0.337   4.367  15.816 -0.7072 -1.9786  0.0042
  171MPD1    H2 2664   0.288   4.664  15.529 -0.5357  0.4733 -1.1289
  171MPD1    H3 2665   0.398   4.587  15.728  0.5810 -0.5842 -1.8786
  171MPD1     N 2666   0.133   4.224  15.764 -0.4207 -0.4237  0.2899
  171MPD1    H5 2667   0.172   4.211  15.856 -0.2468  1.1228  0.4347
  171MPD1    N1 2668   0.067   4.567  15.429  0.4842  0.0253  0.1793
  171MPD1    H6 2669   0.120   4.639  15.380 -0.9590  0.1135 -1.2909
  171MPD1    H7 2670   0.040   4.503  15.354 -0.4831 -0.4590  0.9361
  172MPD1     C 2671   3.603   3.375   0.109 -0.1922  0.5296  0.3865
  172MPD1    C1 2672   3.538   3.495   0.115 -0.1941 -0.0895  0.3229
  172MPD1    C2 2673   3.566   3.584   0.221 -0.3508 -0.0742  0.3631
  172MPD1    C3 2674   3.681   3.559   0.298  0.3726  0.4399  0.1842
  172MPD1    C4 2675   3.751   3.444   0.281  0.2765  0.4938  0.1143
  172MPD1    C5 2676   3.711   3.348   0.193 -0.2859 -0.3968  0.5670
  172MPD1     H 2677   3.526   3.685   0.224 -1.6513 -0.5880  0.2093
  172MPD1    H1 2678   3.836   3.424   0.346 -0.4737  0.3321  1.0464
  172MPD1    H2 2679   3.566   3.312   0.029 -1.2562 -0.9347  2.0316
  172MPD1    H3 2680   3.758   3.253   0.171  2.1536  0.5731  1.5905
  172MPD1     N 2681   3.730   3.645   0.398  0.4949 -0.2006 -0.8308
  172MPD1    H5 2682   3.820   3.618   0.439 -0.7917 -2.7241  0.3126
  172MPD1    N1 2683   3.449   3.516   0.008 -0.3710  0.0280 -0.0756
  172MPD1    H6 2684   3.391   3.597   0.028 -0.5429 -0.4058  1.2279
  172MPD1    H7 2685   3.404   3.432  17.723 -0.8376  1.1716 -2.0605
  173MPD1     C 2686   0.085   3.802  13.920 -0.3646 -0.2909  0.2456
  173MPD1    C1 2687   0.220   3.802  13.920  0.0579  0.2913 -0.3057
  173MPD1    C2 2688   0.289   3.782  14.038 -0.2512  0.2241 -0.7116
  173MPD1    C3 2689   0.226   3.758  14.156  0.6280 -0.1666 -0.1254
  173MPD1    C4 2690   0.089   3.770  14.159  0.2351 -0.4586 -0.2248
  173MPD1    C5 2691   0.023   3.788  14.037 -0.0439  0.1453 -0.2384
  173MPD1     H 2692   0.396   3.764  14.042 -0.5656 -1.6017 -0.6080
  173MPD1    H1 2693   0.032   3.773  14.251 -2.1463  3.4263 -1.8286
  173MPD1    H2 2694   0.019   3.810  13.834 -0.2470  2.5694  0.4190
  173MPD1    H3 2695   4.653   3.795  14.043 -0.0987 -1.5455  0.7420
  173MPD1     N 2696   0.310   3.726  14.258  0.2084  0.1775  0.2615
  173MPD1    H5 2697   0.409   3.714  14.242  0.3806  1.1742  0.5305
  173MPD1    N1 2698   0.286   3.792  13.798 -0.6408 -0.0576 -0.5316
  173MPD1    H6 2699   0.380   3.828  13.807 -1.0299  0.6342  0.8016
  173MPD1    H7 2700   0.231   3.826  13.719 -2.3049  0.5555  0.8810
  174MPD1     C 2701   1.024   3.322  14.083  0.3991 -0.1680  0.7136
  174MPD1    C1 2702   1.018   3.295  14.218  0.2118 -0.2144  0.7372
  174MPD1    C2 2703   0.912   3.332  14.301  0.2286 -0.2937  0.7138
  174MPD1    C3 2704   0.813   3.403  14.239  0.0934 -0.1874  0.0797
  174MPD1    C4 2705   0.825   3.436  14.107  0.4628 -0.1246 -0.0116
  174MPD1    C5 2706   0.927   3.400  14.024 -0.3810 -0.6795 -0.1172
  174MPD1     H 2707   0.913   3.311  14.407  0.2668  0.2015  0.8104
  174MPD1    H1 2708   0.749   3.496  14.058  0.5445 -0.0526 -0.0510
  174MPD1    H2 2709   1.103   3.288  14.017 -2.2523 -1.4252 -1.8318
  174MPD1    H3 2710   0.933   3.433  13.921  0.7033 -1.4032 -0.2832
  174MPD1     N 2711   0.700   3.454  14.304 -0.6822 -0.2871 -0.4247
  174MPD1    H5 2712   0.647   3.533  14.268  1.3039  0.5377 -1.5644
  174MPD1    N1 2713   1.121   3.227  14.267  0.0776 -0.0700  0.0163
  174MPD1    H6 2714   1.135   3.241  14.367 -2.9995 -1.4376  0.6364
  174MPD1    H7 2715   1.214   3.247  14.230  0.7141 -1.1240  1.0234
  175MPD1     C 2716   3.438   0.029  15.647 -0.2684  0.3505  0.6572
  175MPD1    C1 2717   3.328   4.689  15.651 -0.2716  0.3966 -0.0063
  175MPD1    C2 2718   3.318   4.583  15.748  0.1076 -0.2409 -0.1657
  175MPD1    C3 2719   3.421   4.555  15.836 -0.1955 -0.8456 -0.0860
  175MPD1    C4 2720   3.532   4.639  15.827  0.4444  0.0497  0.0359
  175MPD1    C5 2721   3.530   0.011  15.748  0.0427  0.2090 -0.6422
  175MPD1     H 2722   3.223   4.531  15.743  0.1669 -0.2024 -1.7979
  175MPD1    H1 2723   3.611   4.622  15.900 -0.4201  1.0579  1.2158
  175MPD1    H2 2724   3.446   0.120  15.588  0.1618  0.8791  1.5188
  175MPD1    H3 2725   3.610   0.083  15.760  0.5215 -0.2249 -1.2450
  175MPD1     N 2726   3.413   4.471  15.947 -0.2767 -0.0221 -0.2564
  175MPD1    H5 2727   3.502   4.465  15.996 -1.1938  0.1237  1.4503
  175MPD1    N1 2728   3.222   4.711  15.573 -0.3555 -0.0382  0.2298
  175MPD1    H6 2729   3.152   4.637  15.572 -3.7329  3.0968  1.8393
  175MPD1    H7 2730   3.250   0.001  15.479 -3.6102  0.1253 -0.6925
  176MPD1     C 2731   0.417   1.335  17.210  0.2628  0.4522 -0.2557
  176MPD1    C1 2732   0.475   1.438  17.141 -0.3346 -0.5464  0.3696
  176MPD1    C2 2733   0.473   1.568  17.201  0.1171 -0.2763 -0.4186
  176MPD1    C3 2734   0.406   1.595  17.318 -0.3755  0.3157  0.3927
  176MPD1    C4 2735   0.332   1.492  17.370 -0.7412  0.0236  0.1701
  176MPD1    C5 2736   0.340   1.368  17.323  0.7341  0.0458 -0.0634
  176MPD1     H 2737   0.530   1.649  17.157 -0.3625  0.0350 -0.4729
  176MPD1    H1 2738   0.266   1.498  17.455 -1.7615 -1.2845 -0.5356
  176MPD1    H2 2739   0.429   1.232  17.176  1.0605  0.3808  0.2329
  176MPD1    H3 2740   0.282   1.287  17.364  0.6432 -1.7612 -3.8238
  176MPD1     N 2741   0.412   1.723  17.376 -0.2336  0.7163 -0.3105
  176MPD1    H5 2742   0.472   1.795  17.335  1.5937  0.0915  1.2641
  176MPD1    N1 2743   0.547   1.403  17.028 -0.3416  0.6871 -0.6666
  176MPD1    H6 2744   0.517   1.321  16.975 -0.6045  0.9363 -0.9007
  176MPD1    H7 2745   0.560   1.469  16.952 -1.0973  1.4625 -0.1200
  177MPD1     C 2746   3.940   2.238   9.512  0.4281  0.2018  0.1093
  177MPD1    C1 2747   3.875   2.114   9.489  0.3446 -0.0831  0.5088
  177MPD1    C2 2748   3.735   2.110   9.475  0.2620 -0.2593 -0.4236
  177MPD1    C3 2749   3.657   2.230   9.483 -0.8647 -0.4433 -0.0512
  177MPD1    C4 2750   3.721   2.347   9.508  0.3492  0.1350  0.3791
  177MPD1    C5 2751   3.859   2.351   9.529  0.5926 -0.3197 -0.4301
  177MPD1     H 2752   3.682   2.016   9.473  0.5195 -0.4208  0.5275
  177MPD1    H1 2753   3.669   2.438   9.535  3.3725  1.8163  0.5321
  177MPD1    H2 2754   4.048   2.233   9.527  0.5450  2.4696  0.0333
  177MPD1    H3 2755   3.913   2.444   9.548 -1.7138  1.2632 -1.6168
  177MPD1     N 2756   3.515   2.215   9.472  1.1127  0.1522 -0.1003
  177MPD1    H5 2757   3.476   2.124   9.453  1.4051 -0.2828  1.4126
  177MPD1    N1 2758   3.959   1.997   9.499  0.5720 -0.3671  0.1705
  177MPD1    H6 2759   3.908   1.922   9.453 -1.6845  0.9547  0.5181
  177MPD1    H7 2760   4.042   1.999   9.440  0.4494 -2.8816 -0.0884
  178MPD1     C 2761   1.059   2.906  17.737 -0.1973 -1.2215  0.0416
  178MPD1    C1 2762   1.022   2.956  17.614  0.1298 -0.3840 -0.1526
  178MPD1    C2 2763   1.100   2.912  17.502 -0.4213  0.3240 -0.2293
  178MPD1    C3 2764   1.216   2.838  17.512  0.0133 -0.8312  0.4366
  178MPD1    C4 2765   1.253   2.795  17.636 -0.3243  0.8008 -0.5930
  178MPD1    C5 2766   1.175   2.833  17.746 -0.0092  0.5495  0.0539
  178MPD1     H 2767   1.086   2.962  17.407  1.1747 -0.1780 -0.7195
  178MPD1    H1 2768   1.339   2.730  17.652 -0.7911  0.7072  1.4841
  178MPD1    H2 2769   0.995   2.925   0.070 -1.7124  1.3650 -1.6721
  178MPD1    H3 2770   1.193   2.781   0.088 -2.3221 -0.1629  0.1231
  178MPD1     N 2771   1.300   2.814  17.401  0.0551 -0.1121  0.2541
  178MPD1    H5 2772   1.393   2.779  17.420  1.2640  4.1227  2.1971
  178MPD1    N1 2773   0.902   3.031  17.603  0.2730 -0.2245 -0.1671
  178MPD1    H6 2774   0.876   3.075  17.691 -0.5451  3.2870 -2.1387
  178MPD1    H7 2775   0.897   3.099  17.527  0.0171 -0.1763 -0.1044
  179MPD1     C 2776   0.742   1.094  16.151  0.4014  0.3343  0.1785
  179MPD1    C1 2777   0.809   1.016  16.055 -0.0824 -0.3956  0.3878
  179MPD1    C2 2778   0.808   0.879  16.070  0.7100 -0.2371  1.3112
  179MPD1    C3 2779   0.736   0.818  16.177  0.3129 -0.0134 -0.1574
  179MPD1    C4 2780   0.659   0.902  16.261  0.2929 -0.0928 -0.4369
  179MPD1    C5 2781   0.661   1.034  16.244 -0.2200 -0.0638  0.5255
  179MPD1     H 2782   0.861   0.822  15.995 -0.4658  0.5094 -0.1021
  179MPD1    H1 2783   0.600   0.866  16.345  0.2371 -1.4349 -1.0483
  179MPD1    H2 2784   0.751   1.202  16.162 -1.3855  0.6220 -1.2848
  179MPD1    H3 2785   0.598   1.101  16.300  2.1023  3.3842 -0.9743
  179MPD1     N 2786   0.734   0.678  16.197 -0.8601 -0.5348  0.0766
  179MPD1    H5 2787   0.680   0.642  16.276 -1.2096  0.1579  0.1589
  179MPD1    N1 2788   0.911   1.071  15.975  0.1352 -0.8937 -0.4839
  179MPD1    H6 2789   0.892   1.167  15.946  0.0867 -0.8506 -0.3132
  179MPD1    H7 2790   0.924   1.029  15.883 -1.8808  2.0852 -2.1296
  180MPD1     C 2791   1.207   1.512  15.216  0.7161 -0.7362 -0.3355
  180MPD1    C1 2792   1.227   1.499  15.079  0.5068 -0.3537  0.2620
  180MPD1    C2 2793   1.161   1.583  14.991 -0.6289  0.2576 -0.1073
  180MPD1    C3 2794   1.082   1.683  15.045 -0.5271  0.0079 -0.2548
  180MPD1    C4 2795   1.064   1.696  15.178 -0.5464 -0.0789  0.4008
  180MPD1    C5 2796   1.126   1.608  15.260 -0.4786  0.1989 -0.3453
  180MPD1     H 2797   1.185   1.565  14.887  1.6860 -0.9797  0.6277
  180MPD1    H1 2798   1.010   1.779  15.223 -0.3344 -1.0364  2.4015
  180MPD1    H2 2799   1.251   1.446  15.290 -0.9599 -1.7888 -0.2879
  180MPD1    H3 2800   1.127   1.629  15.366  2.5730 -3.3702  0.3108
  180MPD1     N 2801   1.017   1.767  14.958  1.1919 -0.8510 -0.2556
  180MPD1    H5 2802   1.038   1.766  14.859  1.8902  0.0587 -0.1134
  180MPD1    N1 2803   1.317   1.403  15.027 -0.1137  0.3117 -0.0059
  180MPD1    H6 2804   1.397   1.386  15.087 -1.0671 -0.1502  1.1250
  180MPD1    H7 2805   1.337   1.423  14.929 -0.4662 -0.4882 -0.2406
  181MPD1     C 2806   2.830   0.113   9.873  0.2217 -0.2911  0.9588
  181MPD1    C1 2807   2.733   0.044   9.938  0.3096  0.5069  0.4074
  181MPD1    C2 2808   2.770   4.682  10.019  0.1010  0.1355  0.7617
  181MPD1    C3 2809   2.906   4.650  10.052  1.2460  0.5704 -0.6527
  181MPD1    C4 2810   2.994   4.730   9.994  0.1544  0.2337 -0.1273
  181MPD1    C5 2811   2.958   0.088   9.906 -0.4746 -0.3102 -0.2803
  181MPD1     H 2812   2.697   4.611  10.057 -1.4122  2.6246  2.4635
  181MPD1    H1 2813   3.100   4.717  10.015  0.1956 -2.6816 -2.0574
  181MPD1    H2 2814   2.806   0.179   9.791  0.6001 -1.2813  0.0582
  181MPD1    H3 2815   3.043   0.137   9.861 -1.6061  1.1322 -0.8315
  181MPD1     N 2816   2.954   4.551  10.142  0.3070 -0.0893 -0.3456
  181MPD1    H5 2817   3.055   4.548  10.155  0.3502 -0.9790 -0.9420
  181MPD1    N1 2818   2.601   0.059   9.899  0.1654 -0.4317  0.7093
  181MPD1    H6 2819   2.566   0.154   9.889  2.3586  0.2953  0.1163
  181MPD1    H7 2820   2.537   0.011   9.963 -2.0782  1.1420 -0.3717
  182MPD1     C 2821   3.729   2.680   1.004  0.4948  0.4038 -0.1696
  182MPD1    C1 2822   3.653   2.578   0.935  0.1190  1.1490 -0.3342
  182MPD1    C2 2823   3.514   2.590   0.922  0.5720  0.0757 -0.3536
  182MPD1    C3 2824   3.450   2.704   0.976 -0.4705 -0.2288 -1.1738
  182MPD1    C4 2825   3.522   2.798   1.043 -0.1798 -0.6452 -0.0235
  182MPD1    C5 2826   3.662   2.789   1.063  0.8638 -0.9198 -0.1885
  182MPD1     H 2827   3.454   2.514   0.874  0.5928 -0.4423  0.4413
  182MPD1    H1 2828   3.469   2.887   1.076 -0.7459 -1.2813  0.8093
  182MPD1    H2 2829   3.835   2.663   1.016  0.4737 -0.9193 -1.8935
  182MPD1    H3 2830   3.714   2.868   1.116 -0.2469 -0.7866  0.6967
  182MPD1     N 2831   3.313   2.733   0.958 -0.1628 -0.4858 -0.0321
  182MPD1    H5 2832   3.273   2.813   1.007 -0.3929 -0.9706  0.5766
  182MPD1    N1 2833   3.714   2.454   0.892  0.1580  0.9052  0.0085
  182MPD1    H6 2834   3.813   2.459   0.870 -0.1626  3.7907 -0.7815
  182MPD1    H7 2835   3.669   2.418   0.808 -0.2130  0.6913  0.3005
  183MPD1     C 2836   4.693   0.064   9.780  0.2610  0.5145 -0.8068
  183MPD1    C1 2837   4.558   0.083   9.745 -0.6822  0.7850  0.1792
  183MPD1    C2 2838   4.474   4.718   9.744 -0.0224  0.1255  0.0078
  183MPD1    C3 2839   4.514   4.596   9.786 -0.2017  0.3984 -0.6778
  183MPD1    C4 2840   4.645   4.571   9.830 -0.5842  0.6439  0.1044
  183MPD1    C5 2841   4.732   4.678   9.830 -0.3538 -0.2035  0.9511
  183MPD1     H 2842   4.373   0.005   9.716  0.2612  0.8566 -0.3541
  183MPD1    H1 2843   4.677   4.471   9.856  2.4984  1.5068 -0.3522
  183MPD1    H2 2844   0.024   0.145   9.798 -1.5716  1.1878  3.3572
  183MPD1    H3 2845   0.094   4.662   9.867  0.2108 -1.3549 -1.0722
  183MPD1     N 2846   4.412   4.499   9.797 -0.4641  0.3650  0.2807
  183MPD1    H5 2847   4.315   4.525   9.780 -0.7347 -0.6412  0.2619
  183MPD1    N1 2848   4.520   0.209   9.690  0.3034  0.2037 -0.4939
  183MPD1    H6 2849   4.418   0.215   9.687  0.2516  0.3988  1.4027
  183MPD1    H7 2850   4.561   0.289   9.737 -2.2818  1.3993 -0.2951
  184MPD1     C 2851   2.956   1.439  10.083  0.2543 -0.0602 -0.4331
  184MPD1    C1 2852   2.875   1.456   9.966 -0.7850 -0.1076 -1.2142
  184MPD1    C2 2853   2.869   1.591   9.927 -0.2108 -0.4497 -0.0366
  184MPD1    C3 2854   2.926   1.697   9.996  0.1019 -0.4703  0.6781
  184MPD1    C4 2855   3.002   1.666  10.106  0.7120 -0.1438  0.0056
  184MPD1    C5 2856   3.024   1.540  10.148 -0.7907 -0.1366 -0.5937
  184MPD1     H 2857   2.813   1.614   9.837 -1.7511  0.3421  1.1370
  184MPD1    H1 2858   3.046   1.750  10.157 -2.3671  0.3648  1.7426
  184MPD1    H2 2859   2.975   1.341  10.126  2.4309  0.4176 -0.3069
  184MPD1    H3 2860   3.093   1.524  10.230 -0.7491  0.4021 -0.5248
  184MPD1     N 2861   2.936   1.830   9.951 -1.0647 -0.0482 -0.2457
  184MPD1    H5 2862   3.003   1.891   9.996  1.1309 -0.9128 -2.3778
  184MPD1    N1 2863   2.837   1.347   9.887  0.1927  0.0670  0.5753
  184MPD1    H6 2864   2.815   1.271   9.951  1.5845 -2.1195 -1.5575
  184MPD1    H7 2865   2.760   1.366   9.822 -0.6399  1.0412  1.8444
  185MPD1     C 2866   2.329   2.375   9.356 -0.9196  0.3626 -0.4973
  185MPD1    C1 2867   2.394   2.460   9.440 -0.1398  0.4015  0.1214
  185MPD1    C2 2868   2.497   2.406   9.518  0.1482  0.2200  0.2427
  185MPD1    C3 2869   2.536   2.274   9.500  0.4982  0.4029 -0.1725
  185MPD1    C4 2870   2.457   2.196   9.420 -0.1095 -0.4440  0.1057
  185MPD1    C5 2871   2.358   2.245   9.344  1.2296  0.4628  0.3629
  185MPD1     H 2872   2.530   2.480   9.590  0.3721  1.6237 -1.3096
  185MPD1    H1 2873   2.487   2.094   9.397 -0.8944 -0.3367 -1.4423
  185MPD1    H2 2874   2.258   2.414   9.284 -1.9380 -0.1047  0.2584
  185MPD1    H3 2875   2.308   2.184   9.270 -1.5555  1.7420  1.1901
  185MPD1     N 2876   2.643   2.216   9.567 -0.5137 -0.5358 -0.1695
  185MPD1    H5 2877   2.646   2.115   9.561  1.9131 -0.4856  0.5262
  185MPD1    N1 2878   2.361   2.589   9.465  0.0130  0.2626  0.1728
  185MPD1    H6 2879   2.442   2.631   9.510  0.0254  0.5608 -0.1364
  185MPD1    H7 2880   2.343   2.635   9.377 -1.5463  0.9724  0.8549
  186MPD1     C 2881   1.104   0.260  16.079  0.7280 -0.0240  0.0667
  186MPD1    C1 2882   1.131   0.252  16.219  0.3454 -0.3357 -0.2055
  186MPD1    C2 2883   1.166   0.370  16.284  0.6578  0.4613 -0.0138
  186MPD1    C3 2884   1.159   0.495  16.219 -0.2641 -0.3748  0.4740
  186MPD1    C4 2885   1.118   0.502  16.092  0.2352  0.0218 -0.2075
  186MPD1    C5 2886   1.103   0.387  16.020  0.0725 -0.0820  0.1749
  186MPD1     H 2887   1.203   0.361  16.385 -1.0914 -1.8082  0.3954
  186MPD1    H1 2888   1.106   0.598  16.043  2.8249  1.1219  1.2931
  186MPD1    H2 2889   1.084   0.170  16.023 -2.4564  0.3185  0.6384
  186MPD1    H3 2890   1.066   0.392  15.918  0.9695  1.3817 -0.0802
  186MPD1     N 2891   1.174   0.617  16.283  0.1954  0.4641 -0.4134
  186MPD1    H5 2892   1.142   0.701  16.237 -1.0647 -0.7686 -1.8075
  186MPD1    N1 2893   1.170   0.125  16.279  0.3802 -0.1434  0.3101
  186MPD1    H6 2894   1.140   0.036  16.242 -2.2813  0.3852  1.1547
  186MPD1    H7 2895   1.180   0.125  16.380  0.5964  0.9333  0.2939
  187MPD1     C 2896   4.654   3.328   0.419  0.5953 -0.1594  0.5173
  187MPD1    C1 2897   4.650   3.202   0.368  1.0950 -0.0476  0.3075
  187MPD1    C2 2898   4.698   3.185   0.236 -0.3648  0.1391 -0.0602
  187MPD1    C3 2899   0.016   3.290   0.161  0.6868 -0.2227  0.2357
  187MPD1    C4 2900   0.012   3.416   0.212 -0.0345 -0.3117 -0.6892
  187MPD1    C5 2901   4.696   3.433   0.335 -0.7722  0.2475  0.1552
  187MPD1     H 2902   4.690   3.088   0.190  2.1452  0.6777 -1.6760
  187MPD1    H1 2903   0.055   3.506   0.169  1.9219 -1.3548 -0.9383
  187MPD1    H2 2904   4.620   3.359   0.518  1.7838 -1.0241  1.1942
  187MPD1    H3 2905   4.673   3.531   0.377 -2.6369 -0.3180  0.4345
  187MPD1     N 2906   0.070   3.279   0.025 -0.7530  0.1048  0.5027
  187MPD1    H5 2907   0.107   3.361  17.731 -2.4468  0.7447  0.2647
  187MPD1    N1 2908   4.596   3.098   0.446  1.3059 -0.4841 -0.4929
  187MPD1    H6 2909   4.613   3.090   0.546  3.9763 -2.8586 -1.1265
  187MPD1    H7 2910   4.618   3.003   0.417 -0.2998 -0.6085 -1.3140
  188MPD1     C 2911   0.996   3.048  10.743 -0.3972 -0.5069 -0.5373
  188MPD1    C1 2912   0.995   3.104  10.617  0.1980  0.2468 -0.4994
  188MPD1    C2 2913   0.998   3.019  10.504 -0.6029 -0.2253  0.4407
  188MPD1    C3 2914   1.009   2.881  10.523 -0.1812 -0.6676 -0.0067
  188MPD1    C4 2915   1.031   2.832  10.646  0.5242 -0.2940 -0.7987
  188MPD1    C5 2916   1.013   2.910  10.755 -0.0602 -0.8487 -0.5061
  188MPD1     H 2917   0.980   3.072  10.411 -0.6276 -0.6252  0.2145
  188MPD1    H1 2918   1.047   2.729  10.676 -1.2088 -0.7829 -1.5574
  188MPD1    H2 2919   0.991   3.102  10.836  0.9059  0.8812 -1.2744
  188MPD1    H3 2920   1.027   2.861  10.851  2.7421 -0.0383 -0.4837
  188MPD1     N 2921   1.019   2.791  10.411 -0.3390  0.0626  0.2812
  188MPD1    H5 2922   1.028   2.693  10.434  3.6604  0.1157 -1.0788
  188MPD1    N1 2923   0.963   3.244  10.602 -0.0872  0.9614  0.1039
  188MPD1    H6 2924   1.015   3.275  10.520 -1.2887 -0.3728 -1.1676
  188MPD1    H7 2925   0.989   3.294  10.686 -0.3450  2.4685 -0.7022
  189MPD1     C 2926   2.038   4.046   0.736 -0.3027  0.1964  0.5210
  189MPD1    C1 2927   1.972   3.952   0.655  0.0359  0.5302 -0.2986
  189MPD1    C2 2928   1.852   3.995   0.599  0.4257  0.4683 -0.1151
  189MPD1    C3 2929   1.813   4.127   0.597 -0.4955  0.0560  0.0287
  189MPD1    C4 2930   1.892   4.217   0.667  0.0536 -0.2175 -0.1703
  189MPD1    C5 2931   1.998   4.176   0.736  0.0708 -0.5197 -0.0996
  189MPD1     H 2932   1.788   3.931   0.540 -0.2041  1.7278 -0.7997
  189MPD1    H1 2933   1.883   4.325   0.664  0.0237 -0.2334 -0.6992
  189MPD1    H2 2934   2.129   4.023   0.789 -0.6216 -0.1330  0.9309
  189MPD1    H3 2935   2.051   4.258   0.784 -0.0023 -2.4946  3.3729
  189MPD1     N 2936   1.706   4.168   0.515 -0.2712  0.2840  0.0467
  189MPD1    H5 2937   1.678   4.108   0.438  0.3752  0.5076 -0.3694
  189MPD1    N1 2938   2.010   3.819   0.666  0.3075  0.3451  0.0772
  189MPD1    H6 2939   1.989   3.785   0.572 -1.7871  0.3739  0.5213
  189MPD1    H7 2940   2.110   3.813   0.684 -0.2504 -0.2185  3.0276
  190MPD1     C 2941   0.539   1.355  15.846  0.0749  1.0938  0.1351
  190MPD1    C1 2942   0.597   1.411  15.954 -0.3744 -0.2881  0.6568
  190MPD1    C2 2943   0.707   1.492  15.941 -0.1749  0.4460  0.2114
  190MPD1    C3 2944   0.766   1.500  15.811 -0.2932  0.3094 -0.1108
  190MPD1    C4 2945   0.709   1.431  15.705  0.3550 -0.0917 -0.2021
  190MPD1    C5 2946   0.602   1.351  15.723 -0.4287  0.7897 -0.3569
  190MPD1     H 2947   0.763   1.536  16.023  0.0296 -0.9492  0.8072
  190MPD1    H1 2948   0.744   1.447  15.603 -1.3273 -1.5239 -1.0037
  190MPD1    H2 2949   0.441   1.311  15.857  1.7316 -2.5473  0.1385
  190MPD1    H3 2950   0.551   1.302  15.641 -2.1444  2.0370 -0.0382
  190MPD1     N 2951   0.896   1.564  15.806  0.4747 -0.5133 -0.1986
  190MPD1    H5 2952   0.934   1.593  15.896  0.7441  0.0288 -0.4899
  190MPD1    N1 2953   0.517   1.409  16.071  0.2253 -0.4718 -0.7349
  190MPD1    H6 2954   0.455   1.329  16.076  0.6862 -0.8186 -0.5173
  190MPD1    H7 2955   0.568   1.424  16.158 -0.0098  2.5015 -1.0969
  191MPD1     C 2956   0.009   3.800  12.865  0.4906 -0.0581 -0.4428
  191MPD1    C1 2957   4.700   3.912  12.810 -0.5365 -0.3374  0.3200
  191MPD1    C2 2958   0.014   3.952  12.687  0.4269  0.3583 -0.5613
  191MPD1    C3 2959   0.102   3.875  12.616 -0.3513  0.4112 -0.1909
  191MPD1    C4 2960   0.156   3.762  12.675  0.7092 -0.2787  0.2725
  191MPD1    C5 2961   0.108   3.734  12.800  0.2904  0.1120 -0.7361
  191MPD1     H 2962   4.705   4.038  12.642 -2.3205 -1.0418 -0.3680
  191MPD1    H1 2963   0.235   3.707  12.625  1.3763  0.7644  0.1703
  191MPD1    H2 2964   4.710   3.766  12.961  0.7473  2.4803  0.5509
  191MPD1    H3 2965   0.151   3.650  12.854 -0.0904  1.3134  1.4379
  191MPD1     N 2966   0.144   3.905  12.485  0.0656  0.2484  0.2206
  191MPD1    H5 2967   0.206   3.841  12.436 -0.9198 -1.9156  1.7883
  191MPD1    N1 2968   4.580   3.970  12.861 -0.1106  0.6227 -0.4701
  191MPD1    H6 2969   4.575   4.065  12.828 -0.0042  0.8002  0.0176
  191MPD1    H7 2970   4.558   3.958  12.960 -1.7298  0.6064 -0.8464
  192MPD1     C 2971   4.440   4.023  11.637  0.4517 -0.2805 -0.2347
  192MPD1    C1 2972   4.551   4.100  11.623  0.1368  0.0270 -0.3604
  192MPD1    C2 2973   4.642   4.114  11.727 -0.0350 -0.3574  0.7048
  192MPD1    C3 2974   4.618   4.052  11.848  0.4951 -0.2806 -0.2696
  192MPD1    C4 2975   4.496   3.995  11.873 -0.0479 -0.0410  0.2820
  192MPD1    C5 2976   4.416   3.971  11.764 -0.3064 -0.3864 -0.1534
  192MPD1     H 2977   0.001   4.148  11.697  0.3735 -1.7552  0.4485
  192MPD1    H1 2978   4.470   3.948  11.967  0.3291  0.2281  0.5190
  192MPD1    H2 2979   4.370   4.007  11.557  1.1621  0.1574 -0.9382
  192MPD1    H3 2980   4.327   3.911  11.780  0.7708 -2.0234 -0.3073
  192MPD1     N 2981   4.715   4.065  11.954 -0.0547  0.4146  0.1565
  192MPD1    H5 2982   4.698   4.019  12.043  1.3773  0.1230  0.2823
  192MPD1    N1 2983   4.586   4.140  11.491 -0.0959 -0.6202  0.0085
  192MPD1    H6 2984   4.634   4.229  11.488  0.6710 -1.0211  0.3953
  192MPD1    H7 2985   4.514   4.142  11.419  0.7605  0.7518 -0.7958
  193MPD1     C 2986   4.258   3.930  16.297  0.3939  0.0747 -0.3612
  193MPD1    C1 2987   4.219   4.026  16.383 -0.4761  0.3881  0.0472
  193MPD1    C2 2988   4.311   4.073  16.468 -1.1067  0.5922 -0.1537
  193MPD1    C3 2989   4.434   4.022  16.483 -0.1260  0.4955 -0.3948
  193MPD1    C4 2990   4.465   3.908  16.418 -0.3263  0.8883 -0.5398
  193MPD1    C5 2991   4.383   3.876  16.314  0.3228 -0.3780  0.0492
  193MPD1     H 2992   4.281   4.163  16.520 -0.4985  0.9734 -0.4696
  193MPD1    H1 2993   4.550   3.848  16.446 -1.2339  0.2489  0.8330
  193MPD1    H2 2994   4.179   3.889  16.235 -0.6822  1.1640  0.2951
  193MPD1    H3 2995   4.423   3.796  16.252  1.3865 -0.3946  0.7456
  193MPD1     N 2996   4.528   4.059  16.587  0.1441  0.0932  0.0917
  193MPD1    H5 2997   4.601   3.989  16.594 -1.1002 -1.2972 -0.7490
  193MPD1    N1 2998   4.102   4.092  16.347  0.8413 -0.1254  0.2480
  193MPD1    H6 2999   4.074   4.145  16.430  1.7423  0.4559  0.1850
  193MPD1    H7 3000   4.027   4.025  16.334 -0.1766  0.9548  0.5282
  194MPD1     C 3001   2.332   1.667  16.887 -0.2991  0.6231 -0.0051
  194MPD1    C1 3002   2.262   1.566  16.823  0.4988  0.2749  0.5210
  194MPD1    C2 3003   2.311   1.442  16.840 -0.1678  0.0125  0.0384
  194MPD1    C3 3004   2.444   1.412  16.888 -0.4808 -0.7169 -0.7981
  194MPD1    C4 3005   2.511   1.521  16.918  0.0232 -1.2821 -0.3224
  194MPD1    C5 3006   2.457   1.643  16.933  0.0307  0.0483  0.2165
  194MPD1     H 3007   2.252   1.355  16.817 -0.8768  0.7098 -0.7737
  194MPD1    H1 3008   2.614   1.499  16.944  0.2358  1.6421  1.3341
  194MPD1    H2 3009   2.298   1.769  16.901  0.9213  0.6576  2.6783
  194MPD1    H3 3010   2.516   1.722  16.978 -0.1847  0.5737 -0.4340
  194MPD1     N 3011   2.508   1.287  16.900 -0.3332  0.0529  0.0491
  194MPD1    H5 3012   2.604   1.286  16.934 -0.7289 -0.6419  1.1719
  194MPD1    N1 3013   2.136   1.599  16.775 -0.2072 -0.5248 -0.2827
  194MPD1    H6 3014   2.110   1.537  16.698 -0.3421  1.1961 -1.6183
  194MPD1    H7 3015   2.133   1.693  16.735  2.5760  1.5967  4.5291
  195MPD1     C 3016   4.553   3.684   0.047  0.6453 -0.1201  0.5948
  195MPD1    C1 3017   4.451   3.631   0.124 -0.4767  0.3469  0.7199
  195MPD1    C2 3018   4.417   3.501   0.102  0.5777  0.4114 -0.3699
  195MPD1    C3 3019   4.477   3.422   0.002 -0.1677  0.3518 -0.0235
  195MPD1    C4 3020   4.570   3.478  17.668 -0.0475  0.4385 -0.7197
  195MPD1    C5 3021   4.602   3.613  17.694  0.1053  0.1835  0.0084
  195MPD1     H 3022   4.362   3.448   0.179  0.6552 -1.1901 -1.4142
  195MPD1    H1 3023   4.620   3.420  17.592  0.9464 -0.0551  0.3056
  195MPD1    H2 3024   4.586   3.787   0.062  5.6896 -1.8347  1.4524
  195MPD1    H3 3025   4.689   3.660  17.650 -0.9837  1.4368 -0.8003
  195MPD1     N 3026   4.464   3.280  17.749 -0.0110 -0.6000 -0.8227
  195MPD1    H5 3027   4.526   3.229  17.687  1.0699  0.6518 -0.7848
  195MPD1    N1 3028   4.406   3.699   0.238 -0.1608 -0.1266  0.4487
  195MPD1    H6 3029   4.395   3.797   0.215  0.5834  0.0308  0.7610
  195MPD1    H7 3030   4.313   3.666   0.265  0.5738 -0.7829  2.1766
  196MPD1     C 3031   2.710   3.150   0.108 -0.5131 -0.5235  0.9489
  196MPD1    C1 3032   2.734   3.229   0.224  0.3482  0.4321  0.3202
  196MPD1    C2 3033   2.868   3.245   0.273 -0.2202  0.3078 -0.5000
  196MPD1    C3 3034   2.973   3.171   0.218 -0.0419  0.6105 -0.4654
  196MPD1    C4 3035   2.938   3.092   0.109  0.3115  0.1287  0.1272
  196MPD1    C5 3036   2.813   3.083   0.054 -0.6699 -0.1301 -0.5257
  196MPD1     H 3037   2.887   3.306   0.361 -0.6993  0.4045 -0.4630
  196MPD1    H1 3038   3.015   3.028   0.067  0.5964  0.7992 -0.3697
  196MPD1    H2 3039   2.613   3.141   0.061 -1.8711  0.0223  3.6086
  196MPD1    H3 3040   2.796   3.031  17.712  0.8680 -0.4554 -0.6214
  196MPD1     N 3041   3.111   3.165   0.257  0.0358  0.4422 -0.0191
  196MPD1    H5 3042   3.174   3.117   0.194  1.0405 -0.0117  1.3319
  196MPD1    N1 3043   2.631   3.311   0.272  0.5636  0.5038  0.4383
  196MPD1    H6 3044   2.543   3.260   0.266  1.0856 -0.4369  0.7347
  196MPD1    H7 3045   2.645   3.343   0.368  2.1595 -2.7859  1.3470
  197MPD1     C 3046   3.255   4.157  17.729 -0.4588 -0.4870  0.2155
  197MPD1    C1 3047   3.382   4.219  17.741  0.4630 -0.2097 -0.3984
  197MPD1    C2 3048   3.408   4.330  17.662 -0.0001  0.1438  0.0774
  197MPD1    C3 3049   3.322   4.375  17.566  0.4102  0.3028 -0.3157
  197MPD1    C4 3050   3.207   4.303  17.543 -0.3064  0.3349  0.3100
  197MPD1    C5 3051   3.178   4.197  17.625 -0.5551  0.5679  0.4727
  197MPD1     H 3052   3.492   4.394  17.686  1.6222 -2.1658  0.5218
  197MPD1    H1 3053   3.130   4.334  17.473 -0.4638  0.2669  0.4527
  197MPD1    H2 3054   3.208   4.083   0.040 -0.7367 -0.5941 -0.1179
  197MPD1    H3 3055   3.081   4.148  17.615 -0.1390  0.0889 -1.2341
  197MPD1     N 3056   3.347   4.481  17.482  0.2992  0.3742  0.2228
  197MPD1    H5 3057   3.293   4.491  17.396 -2.4503 -3.6407  1.4936
  197MPD1    N1 3058   3.437   4.197   0.119  0.5834 -0.0479  0.6550
  197MPD1    H6 3059   3.535   4.219   0.103  0.4662  0.4889  0.6862
  197MPD1    H7 3060   3.444   4.096   0.132  1.1747 -0.1664 -0.5701
  198MPD1     C 3061   0.862   2.855  14.996  0.9901 -0.7258  0.2852
  198MPD1    C1 3062   0.953   2.960  15.002  0.8154 -0.1561 -0.4507
  198MPD1    C2 3063   0.989   3.019  15.130  0.0002 -1.2571  0.5800
  198MPD1    C3 3064   0.947   2.965  15.251  0.1570  0.4999 -0.2409
  198MPD1    C4 3065   0.865   2.855  15.239 -0.5075 -0.2828 -0.0267
  198MPD1    C5 3066   0.821   2.805  15.117  0.0637  0.6181 -0.1719
  198MPD1     H 3067   1.052   3.107  15.131 -2.7374  0.7257  0.6316
  198MPD1    H1 3068   0.813   2.807  15.322 -2.8546 -1.8280 -2.3902
  198MPD1    H2 3069   0.835   2.814  14.900 -1.3115 -3.3411  2.0357
  198MPD1    H3 3070   0.747   2.726  15.118  1.4605 -0.6820  1.0603
  198MPD1     N 3071   0.989   3.028  15.374  0.1573 -0.2784  0.1568
  198MPD1    H5 3072   1.060   3.099  15.359  1.0274 -0.7064  2.2457
  198MPD1    N1 3073   0.999   3.023  14.886 -0.4142  0.1745 -0.0977
  198MPD1    H6 3074   0.991   2.980  14.794  2.4071 -1.1141  0.2681
  198MPD1    H7 3075   1.083   3.077  14.906 -1.9772  2.1054  1.2511
  199MPD1     C 3076   2.526   3.968  10.425  0.1769 -0.2288 -0.5196
  199MPD1    C1 3077   2.415   3.983  10.344 -0.7721 -0.2717 -0.1605
  199MPD1    C2 3078   2.419   4.075  10.243  0.4792  0.7482  0.3163
  199MPD1    C3 3079   2.527   4.162  10.230  0.2019  0.3514  0.1099
  199MPD1    C4 3080   2.630   4.155  10.322 -0.4583  0.2492 -0.0356
  199MPD1    C5 3081   2.630   4.054  10.413  0.2531 -0.0251 -0.5996
  199MPD1     H 3082   2.330   4.079  10.181  0.3979  0.8877  0.4435
  199MPD1    H1 3083   2.720   4.214  10.308  0.7697 -2.8248 -5.2266
  199MPD1    H2 3084   2.541   3.889  10.498  0.8004  0.4478  0.0819
  199MPD1    H3 3085   2.715   4.044  10.480  0.5944  0.9791 -0.8930
  199MPD1     N 3086   2.527   4.265  10.142 -0.1523 -0.8032  0.0536
  199MPD1    H5 3087   2.616   4.308  10.121  0.5089 -2.1079  0.1952
  199MPD1    N1 3088   2.312   3.893  10.357 -0.0292 -0.0126 -0.1960
  199MPD1    H6 3089   2.282   3.869  10.452 -0.3466  0.0651 -0.2738
  199MPD1    H7 3090   2.226   3.933  10.320 -0.1280 -0.2100 -0.1807
  200MPD1     C 3091   1.699   3.952  15.288 -0.3850  0.0755  0.1644
  200MPD1    C1 3092   1.652   3.972  15.160  0.5995  0.3603  0.0819
  200MPD1    C2 3093   1.751   3.997  15.057  0.0453  0.1361  0.0653
  200MPD1    C3 3094   1.885   4.009  15.094 -1.0788 -0.4846 -0.0516
  200MPD1    C4 3095   1.927   4.003  15.222  0.0225  0.1284  0.4942
  200MPD1    C5 3096   1.832   3.979  15.320  0.6590 -0.1354 -0.4876
  200MPD1     H 3097   1.731   4.003  14.950 -1.2286  0.4969  0.3211
  200MPD1    H1 3098   2.031   3.987  15.248 -0.2159 -1.6461  0.3689
  200MPD1    H2 3099   1.632   3.936  15.371 -2.0556 -0.3321 -1.2602
  200MPD1    H3 3100   1.861   3.978  15.424  2.6266  0.8891 -1.0231
  200MPD1     N 3101   1.982   4.043  14.993 -0.0936 -0.7408 -0.2372
  200MPD1    H5 3102   1.960   4.051  14.894 -2.3410  0.2372  0.3395
  200MPD1    N1 3103   1.511   3.953  15.128 -0.7648  0.1838  0.3023
  200MPD1    H6 3104   1.459   3.994  15.205 -0.7990  0.3536  0.1863
  200MPD1    H7 3105   1.481   3.992  15.039 -2.2308 -3.1544 -0.6690
  201MPD1     C 3106   4.441   3.657  13.065 -0.8416  0.4241 -0.1679
  201MPD1    C1 3107   4.567   3.635  13.118 -0.4806 -0.5883 -0.1690
  201MPD1    C2 3108   4.641   3.525  13.072  0.4771  0.2360  0.1378
  201MPD1    C3 3109   4.598   3.453  12.960 -0.8037 -0.5047  0.3821
  201MPD1    C4 3110   4.485   3.489  12.895 -0.3835  0.4811 -0.0430
  201MPD1    C5 3111   4.403   3.590  12.951 -0.0784 -0.2288  0.0024
  201MPD1     H 3112   4.726   3.486  13.128 -1.1221 -0.5231  2.0621
  201MPD1    H1 3113   4.440   3.442  12.808 -1.4704  2.0186 -0.3154
  201MPD1    H2 3114   4.368   3.725  13.107  1.1114  2.3686  0.0471
  201MPD1    H3 3115   4.301   3.612  12.922 -0.4332 -2.0918 -0.1706
  201MPD1     N 3116   4.677   3.349  12.915 -0.5355  0.3333 -0.5619
  201MPD1    H5 3117   0.033   3.341  12.950 -0.9867 -1.3677  0.2469
  201MPD1    N1 3118   4.597   3.684  13.245  0.4809  0.2008  0.4059
  201MPD1    H6 3119   4.566   3.780  13.262  2.6561  1.0955 -0.5829
  201MPD1    H7 3120   4.698   3.683  13.254  0.7269  0.1282 -2.3130
  202MPD1     C 3121   0.448   3.908  10.770 -0.1642  0.1808 -0.1803
  202MPD1    C1 3122   0.387   3.964  10.661 -0.3507  0.7180  0.1249
  202MPD1    C2 3123   0.308   3.873  10.585 -0.5541 -0.3096 -0.4751
  202MPD1    C3 3124   0.332   3.735  10.603 -0.5731 -0.3586 -0.3618
  202MPD1    C4 3125   0.411   3.689  10.704 -0.0372 -0.2409  0.2522
  202MPD1    C5 3126   0.457   3.777  10.796 -0.9885  0.2748  0.1102
  202MPD1     H 3127   0.254   3.913  10.500 -0.4391 -0.5278 -0.6499
  202MPD1    H1 3128   0.435   3.584  10.699  0.8497 -0.0969  1.3905
  202MPD1    H2 3129   0.499   3.964  10.848 -0.5583 -1.6157  1.3856
  202MPD1    H3 3130   0.513   3.738  10.879 -1.5036  1.2304  0.9083
  202MPD1     N 3131   0.289   3.634  10.511 -0.0994  0.2379  0.7370
  202MPD1    H5 3132   0.321   3.539  10.524 -0.4565 -0.0240 -0.2759
  202MPD1    N1 3133   0.359   4.101  10.656  0.9896  0.2609 -0.5690
  202MPD1    H6 3134   0.327   4.130  10.564  1.7847 -0.5499 -1.1086
  202MPD1    H7 3135   0.437   4.157  10.691 -0.2728  0.4775  1.8871
  203MPD1     C 3136   2.916   3.790  12.318 -0.1063  0.2081  0.5635
  203MPD1    C1 3137   2.967   3.685  12.243  0.2501  0.1706 -0.0436
  203MPD1    C2 3138   3.030   3.582  12.313 -0.1680 -0.4825  0.2230
  203MPD1    C3 3139   3.047   3.587  12.449  0.1682  0.1757  0.1976
  203MPD1    C4 3140   2.991   3.695  12.516 -0.1377 -0.3485 -0.5333
  203MPD1    C5 3141   2.927   3.792  12.452 -1.0944 -0.3436  0.5183
  203MPD1     H 3142   3.066   3.489  12.269 -0.2554  0.5989 -2.1449
  203MPD1    H1 3143   3.002   3.703  12.623 -1.5621  2.5171 -0.6184
  203MPD1    H2 3144   2.853   3.868  12.276 -0.8395 -0.5868  0.1771
  203MPD1    H3 3145   2.887   3.872  12.513 -0.9114 -0.4780  0.8136
  203MPD1     N 3146   3.124   3.476  12.500 -0.4493 -0.2707  0.5565
  203MPD1    H5 3147   3.151   3.402  12.436 -0.1668  0.5565 -0.2736
  203MPD1    N1 3148   2.943   3.692  12.108  0.3843  0.1654 -0.4958
  203MPD1    H6 3149   3.027   3.675  12.053  0.4726 -0.1086 -0.2807
  203MPD1    H7 3150   2.921   3.788  12.083  2.4477  0.8847  0.4224
  204MPD1     C 3151   2.588   0.481  17.411 -0.1946  0.0663  0.0429
  204MPD1    C1 3152   2.635   0.373  17.333  0.4343  0.0895  0.0876
  204MPD1    C2 3153   2.587   0.253  17.374  0.3043 -0.2980 -0.5896
  204MPD1    C3 3154   2.503   0.231  17.484  0.0437  0.1607 -0.4115
  204MPD1    C4 3155   2.476   0.338  17.570  0.2447 -1.1839 -0.0564
  204MPD1    C5 3156   2.510   0.462  17.523 -0.7450 -0.7065  0.2438
  204MPD1     H 3157   2.601   0.161  17.319 -0.0199  0.1962 -1.4882
  204MPD1    H1 3158   2.405   0.329  17.652  2.8849 -3.1806  2.0198
  204MPD1    H2 3159   2.631   0.576  17.382 -0.2566  0.3193  0.7910
  204MPD1    H3 3160   2.467   0.551  17.569  0.9963  1.0196 -1.4575
  204MPD1     N 3161   2.426   0.109  17.506 -0.3052  0.0104  0.0103
  204MPD1    H5 3162   2.438   0.034  17.439 -2.3303 -1.3267  1.1722
  204MPD1    N1 3163   2.688   0.385  17.203 -0.0307  0.2041  0.2224
  204MPD1    H6 3164   2.728   0.294  17.180 -1.3175 -0.4194  0.4319
  204MPD1    H7 3165   2.755   0.461  17.197  1.6747 -1.2018  1.4454
  205MPD1     C 3166   2.891   3.389  17.256 -0.7746  0.2224 -0.9155
  205MPD1    C1 3167   2.820   3.270  17.297  0.0226  0.0646  0.6305
  205MPD1    C2 3168   2.729   3.293  17.399  0.1312 -0.3250 -0.4889
  205MPD1    C3 3169   2.702   3.419  17.446  0.6428  0.5675 -0.1686
  205MPD1    C4 3170   2.767   3.530  17.395  0.1103 -0.4262  0.0170
  205MPD1    C5 3171   2.866   3.513  17.307  0.2076 -0.6375  0.6246
  205MPD1     H 3172   2.674   3.205  17.431 -1.3775  0.9891  0.5430
  205MPD1    H1 3173   2.745   3.634  17.416 -1.0981 -0.1208 -2.7202
  205MPD1    H2 3174   2.965   3.371  17.179  1.0722 -1.2875  1.2394
  205MPD1    H3 3175   2.914   3.593  17.252 -2.4409 -0.3420 -1.2826
  205MPD1     N 3176   2.610   3.445  17.547 -0.1489  0.3959 -0.9437
  205MPD1    H5 3177   2.615   3.536  17.591 -2.4519 -0.3478  0.8116
  205MPD1    N1 3178   2.852   3.142  17.257  0.1559 -0.0509  0.0442
  205MPD1    H6 3179   2.890   3.134  17.163  1.0054  3.4152  0.0978
  205MPD1    H7 3180   2.772   3.080  17.265 -0.4582  0.7760  0.2549
  206MPD1     C 3181   2.862   1.657  16.907  0.1376  0.1436  0.0476
  206MPD1    C1 3182   2.933   1.562  16.846  0.6530 -0.7485 -0.8119
  206MPD1    C2 3183   2.900   1.518  16.718  0.0344 -0.2745  0.0685
  206MPD1    C3 3184   2.790   1.564  16.656  0.5285  0.3475 -0.0741
  206MPD1    C4 3185   2.718   1.667  16.705 -0.5608  0.3387  0.2714
  206MPD1    C5 3186   2.756   1.710  16.834 -0.3078  0.1455 -0.4911
  206MPD1     H 3187   2.965   1.440  16.680  0.4508  0.5323 -0.8489
  206MPD1    H1 3188   2.642   1.721  16.649 -0.1545  2.0021  1.3209
  206MPD1    H2 3189   2.883   1.688  17.008  1.3944  0.7131 -0.3876
  206MPD1    H3 3190   2.701   1.794  16.875  1.1810  1.6377 -1.5332
  206MPD1     N 3191   2.742   1.516  16.530  0.1406 -0.7039 -0.3439
  206MPD1    H5 3192   2.658   1.565  16.499  0.8725  0.2405 -0.8231
  206MPD1    N1 3193   3.020   1.482  16.921 -0.4646  0.4023 -0.2085
  206MPD1    H6 3194   3.063   1.539  16.993 -0.7695 -0.8033  0.9417
  206MPD1    H7 3195   3.093   1.434  16.868 -2.4805 -0.7819 -1.8858
  207MPD1     C 3196   0.289   4.467  10.644  0.4058  0.2986  0.0289
  207MPD1    C1 3197   0.291   4.421  10.772 -0.1448 -0.7892 -0.4822
  207MPD1    C2 3198   0.413   4.369  10.817  0.2918 -0.0292 -0.3659
  207MPD1    C3 3199   0.530   4.365  10.744  0.1511 -0.3055 -0.9892
  207MPD1    C4 3200   0.527   4.405  10.615 -0.0853 -0.0178 -0.1067
  207MPD1    C5 3201   0.402   4.449  10.566 -0.9439 -0.2495 -0.6958
  207MPD1     H 3202   0.412   4.340  10.922  0.2949 -2.5508 -1.0819
  207MPD1    H1 3203   0.611   4.406  10.546 -0.2705 -0.8286 -0.3445
  207MPD1    H2 3204   0.204   4.511  10.593  0.1936 -1.3671 -1.0802
  207MPD1    H3 3205   0.399   4.489  10.465  1.9196 -2.0370 -1.4708
  207MPD1     N 3206   0.653   4.331  10.800 -0.2359 -0.0728 -0.2986
  207MPD1    H5 3207   0.738   4.368  10.757  0.0780 -1.2304 -0.6656
  207MPD1    N1 3208   0.190   4.454  10.862 -0.1331  0.2978  0.0777
  207MPD1    H6 3209   0.196   4.394  10.944  0.3754 -0.0459 -0.2084
  207MPD1    H7 3210   0.098   4.450  10.818 -0.8462  0.6947  1.5241
  208MPD1     C 3211   1.714   1.977  17.633  0.1579  0.1204  0.4096
  208MPD1    C1 3212   1.699   2.110  17.613  0.1978  0.5249 -0.7932
  208MPD1    C2 3213   1.764   2.201  17.691 -0.0986 -0.3625  0.3523
  208MPD1    C3 3214   1.860   2.156   0.030 -0.6514 -0.2075  0.7887
  208MPD1    C4 3215   1.897   2.026   0.028  0.0630  0.9799  0.3879
  208MPD1    C5 3216   1.814   1.935  17.722 -0.8194 -0.1221 -0.4641
  208MPD1     H 3217   1.724   2.301  17.681  0.6106  0.1504  2.5682
  208MPD1    H1 3218   1.962   1.987   0.105  0.9474  0.9765 -0.3575
  208MPD1    H2 3219   1.648   1.909  17.581  1.1479 -0.6587  0.1723
  208MPD1    H3 3220   1.847   1.833  17.738 -2.0561 -0.3982  0.3288
  208MPD1     N 3221   1.903   2.244   0.122  1.1679  0.2482 -0.2020
  208MPD1    H5 3222   1.862   2.337   0.115 -1.5095 -1.0303 -1.4290
  208MPD1    N1 3223   1.589   2.159  17.538 -0.2180 -0.1202  0.0509
  208MPD1    H6 3224   1.564   2.098  17.460  0.5801 -0.0780 -0.2297
  208MPD1    H7 3225   1.614   2.251  17.502  1.4037 -0.1369  1.1361
  209MPD1     C 3226   1.278   3.363  12.488  0.4023  0.9088 -0.1432
  209MPD1    C1 3227   1.339   3.298  12.384 -0.2772 -0.2459 -0.2004
  209MPD1    C2 3228   1.339   3.359  12.258  0.5527  0.1942 -0.0538
  209MPD1    C3 3229   1.267   3.470  12.226 -0.0812  0.6292  0.1738
  209MPD1    C4 3230   1.209   3.537  12.334  0.3776  0.4885 -0.3341
  209MPD1    C5 3231   1.217   3.484  12.462 -0.1540 -0.2317 -0.2020
  209MPD1     H 3232   1.394   3.308  12.179  1.6384  0.2983  0.6379
  209MPD1    H1 3233   1.167   3.637  12.325  1.5463  0.8456 -1.8007
  209MPD1    H2 3234   1.293   3.319  12.586 -0.2224  1.9436  0.4124
  209MPD1    H3 3235   1.165   3.545  12.536 -0.7210 -1.4615  0.4264
  209MPD1     N 3236   1.258   3.517  12.093 -0.1525  0.4633 -0.3372
  209MPD1    H5 3237   1.312   3.467  12.023 -1.8453 -1.6194 -0.1396
  209MPD1    N1 3238   1.431   3.193  12.414  0.1611  0.3087 -0.9274
  209MPD1    H6 3239   1.395   3.140  12.493  0.1079 -1.4653 -2.1448
  209MPD1    H7 3240   1.450   3.131  12.336 -0.8057 -1.2148  0.0718
  210MPD1     C 3241   1.839   3.822  11.369  0.3373  0.4318  0.2331
  210MPD1    C1 3242   1.862   3.745  11.477  0.0602  0.1176  0.0388
  210MPD1    C2 3243   1.745   3.695  11.536 -0.3848  0.1502  0.0807
  210MPD1    C3 3244   1.625   3.731  11.484  0.6197 -0.3488  0.1611
  210MPD1    C4 3245   1.617   3.817  11.380 -0.5700  0.2291  0.2176
  210MPD1    C5 3246   1.727   3.868  11.326 -0.3135 -0.0685 -0.2663
  210MPD1     H 3247   1.753   3.627  11.621 -0.0970  0.3714  0.2307
  210MPD1    H1 3248   1.518   3.836  11.340  0.1968  1.8529 -0.8995
  210MPD1    H2 3249   1.923   3.855  11.309  0.1787  0.6836  0.1496
  210MPD1    H3 3250   1.715   3.926  11.235  0.4639 -0.8664 -0.8812
  210MPD1     N 3251   1.503   3.709  11.546 -0.3004 -0.7340  0.4239
  210MPD1    H5 3252   1.422   3.731  11.490  0.7275 -1.8567 -1.5244
  210MPD1    N1 3253   1.989   3.731  11.526  0.0515  0.6368 -0.6450
  210MPD1    H6 3254   2.065   3.734  11.459 -0.0315 -0.1609 -0.7783
  210MPD1    H7 3255   1.995   3.654  11.593  0.7671  0.4320 -0.9512
  211MPD1     C 3256   2.971   2.996  16.564  0.1459 -0.4503 -0.6093
  211MPD1    C1 3257   3.021   3.111  16.620  0.0731  0.0437  0.3400
  211MPD1    C2 3258   2.942   3.225  16.608 -0.6182 -0.7232 -0.2487
  211MPD1    C3 3259   2.834   3.236  16.523  0.1160  0.1375 -0.1476
  211MPD1    C4 3260   2.790   3.121  16.461  0.6418 -0.0792  0.1343
  211MPD1    C5 3261   2.860   3.007  16.485  0.3798 -0.2026  1.2974
  211MPD1     H 3262   2.980   3.312  16.660  1.2182 -2.0665  0.6608
  211MPD1    H1 3263   2.700   3.122  16.401  0.9810 -2.8334 -0.3859
  211MPD1    H2 3264   3.009   2.897  16.586  0.7742  0.1218  0.8642
  211MPD1    H3 3265   2.823   2.912  16.446 -1.1140 -0.5420  3.5675
  211MPD1     N 3266   2.758   3.354  16.526 -0.7507  0.2367  0.0766
  211MPD1    H5 3267   2.800   3.430  16.579 -0.1983  1.0615 -1.5327
  211MPD1    N1 3268   3.128   3.097  16.715 -0.1922 -0.5845 -0.0034
  211MPD1    H6 3269   3.165   3.186  16.747 -0.3333 -0.9629  1.1843
  211MPD1    H7 3270   3.203   3.045  16.669  0.9042  1.4517 -0.4982
  212MPD1     C 3271   2.232   1.337  16.343 -0.7254 -0.7397 -0.1153
  212MPD1    C1 3272   2.164   1.450  16.385 -0.3236 -0.1241 -0.6826
  212MPD1    C2 3273   2.064   1.424  16.481 -0.2134 -0.4620 -0.6000
  212MPD1    C3 3274   2.050   1.302  16.544 -0.3434 -0.5237  0.7059
  212MPD1    C4 3275   2.132   1.198  16.507  0.0388  1.0696 -0.1449
  212MPD1    C5 3276   2.231   1.218  16.411  0.1936 -0.3656  0.7499
  212MPD1     H 3277   1.996   1.504  16.507 -1.5200 -1.6977 -0.2132
  212MPD1    H1 3278   2.130   1.106  16.564 -0.4515  1.3856  0.3462
  212MPD1    H2 3279   2.302   1.344  16.261 -1.9506 -0.4405 -1.1244
  212MPD1    H3 3280   2.289   1.132  16.378  0.7485  0.9646 -1.7296
  212MPD1     N 3281   1.955   1.270  16.644 -0.1794 -0.1070  0.3022
  212MPD1    H5 3282   1.952   1.172  16.670 -2.0428  0.1354  1.0018
  212MPD1    N1 3283   2.163   1.565  16.308 -0.2149 -0.3820 -0.1164
  212MPD1    H6 3284   2.254   1.581  16.267 -0.3150  1.2550  0.3031
  212MPD1    H7 3285   2.133   1.648  16.360 -0.1771 -0.7082  0.4257
  213MPD1     C 3286   0.636   2.111  15.989  0.0380  0.7218 -0.2807
  213MPD1    C1 3287   0.544   2.015  15.952 -0.3994 -0.2633 -0.4710
  213MPD1    C2 3288   0.464   2.042  15.845 -0.6264  0.5355  0.0581
  213MPD1    C3 3289   0.514   2.121  15.743  0.6984  0.2372  0.4616
  213MPD1    C4 3290   0.624   2.198  15.770  0.8100 -0.2744  0.1424
  213MPD1    C5 3291   0.674   2.202  15.899 -0.5608  0.0135  0.5922
  213MPD1     H 3292   0.378   1.981  15.819  0.6219 -1.5658  0.8862
  213MPD1    H1 3293   0.666   2.275  15.707  0.0132  0.7824  0.8990
  213MPD1    H2 3294   0.699   2.104  16.076  3.3024 -1.2569 -2.8020
  213MPD1    H3 3295   0.747   2.276  15.932 -0.0922 -0.6019  0.9270
  213MPD1     N 3296   0.440   2.125  15.620  0.0568 -0.6733  0.3936
  213MPD1    H5 3297   0.351   2.076  15.618  0.7235 -1.8456 -0.1363
  213MPD1    N1 3298   0.502   1.921  16.044 -0.0045  0.4901 -0.3889
  213MPD1    H6 3299   0.453   1.845  15.997 -0.5434  0.6262 -0.0477
  213MPD1    H7 3300   0.567   1.875  16.109 -2.0187  0.2735  1.4634
  214MPD1     C 3301   0.005   1.738  14.800 -0.0804  0.0723  0.1268
  214MPD1    C1 3302   0.065   1.691  14.914 -0.1745 -0.8830  0.7032
  214MPD1    C2 3303   0.115   1.786  15.002 -0.0784  1.2726 -0.5216
  214MPD1    C3 3304   0.087   1.921  14.980 -0.4659  0.8327  0.7112
  214MPD1    C4 3305   0.016   1.964  14.869  0.4765 -0.0742 -0.1073
  214MPD1    C5 3306   4.710   1.869  14.776 -0.1355  0.4666  0.2650
  214MPD1     H 3307   0.171   1.750  15.087 -1.0182 -1.4756 -1.0760
  214MPD1    H1 3308   0.004   2.070  14.855  2.7291  0.1967  0.0204
  214MPD1    H2 3309   4.710   1.680  14.714  0.8675 -1.1736  0.5847
  214MPD1    H3 3310   4.661   1.902  14.684 -1.1832  1.0285  1.0190
  214MPD1     N 3311   0.129   2.022  15.073  0.0931 -0.0903 -0.7438
  214MPD1    H5 3312   0.102   2.117  15.048 -2.3713 -0.3964  0.7551
  214MPD1    N1 3313   0.112   1.557  14.905 -0.6396  0.3268 -0.3616
  214MPD1    H6 3314   0.048   1.493  14.858  1.3469 -0.5697 -1.8137
  214MPD1    H7 3315   0.125   1.525  15.001 -0.2522  0.0876 -0.4961
  215MPD1     C 3316   1.265   3.729  10.987 -0.1131 -0.9218  0.6997
  215MPD1    C1 3317   1.265   3.821  11.086 -0.0984  0.0719  0.2384
  215MPD1    C2 3318   1.142   3.855  11.146  0.0101  0.1766 -0.4993
  215MPD1    C3 3319   1.027   3.797  11.106  0.5061 -0.5166 -0.2771
  215MPD1    C4 3320   1.027   3.707  11.004  0.5300  0.7315 -0.3012
  215MPD1    C5 3321   1.146   3.662  10.949  0.2552 -0.2273  0.2405
  215MPD1     H 3322   1.132   3.923  11.230  0.3758  1.8049 -1.7670
  215MPD1    H1 3323   0.935   3.658  10.973 -0.7304  1.8035  1.7144
  215MPD1    H2 3324   1.351   3.684  10.939 -0.6854 -1.9731  0.6632
  215MPD1    H3 3325   1.163   3.582  10.879 -1.1499 -0.6298  0.3607
  215MPD1     N 3326   0.902   3.848  11.168 -0.2852 -0.3189  0.1692
  215MPD1    H5 3327   0.907   3.918  11.241 -0.6832  0.4240 -0.5224
  215MPD1    N1 3328   1.383   3.883  11.117 -0.0930  0.6515 -0.5358
  215MPD1    H6 3329   1.372   3.965  11.176  1.9658 -0.3736  1.2800
  215MPD1    H7 3330   1.449   3.899  11.041  0.0304  0.5488 -0.4517
  216MPD1     C 3331   1.723   1.962  16.801 -0.0786 -0.0234  0.5716
  216MPD1    C1 3332   1.780   1.839  16.784 -0.2237  0.3236  0.0590
  216MPD1    C2 3333   1.806   1.759  16.893  0.5609  0.3471  0.1286
  216MPD1    C3 3334   1.776   1.806  17.022  1.0845  0.1700  0.2296
  216MPD1    C4 3335   1.715   1.932  17.036 -0.0078 -0.2648  0.0065
  216MPD1    C5 3336   1.705   2.016  16.929  0.7064  0.6989 -0.1260
  216MPD1     H 3337   1.839   1.656  16.886  0.7587  0.4669 -0.7387
  216MPD1    H1 3338   1.693   1.975  17.133  0.6148 -3.7711  1.6930
  216MPD1    H2 3339   1.720   2.030  16.717  0.5761 -0.3620  0.2773
  216MPD1    H3 3340   1.676   2.120  16.934 -2.4343 -0.1305 -0.9039
  216MPD1     N 3341   1.791   1.711  17.127 -0.1575 -0.3319 -0.6869
  216MPD1    H5 3342   1.845   1.629  17.105  0.3947 -0.3000  0.5884
  216MPD1    N1 3343   1.774   1.775  16.654 -0.2162  0.2914 -0.5608
  216MPD1    H6 3344   1.838   1.697  16.649 -0.3194  0.1137  0.8747
  216MPD1    H7 3345   1.792   1.841  16.578 -0.6119  0.2502 -0.6915
  217MPD1     C 3346   3.338   2.331   9.027 -0.0658 -0.1326 -0.0473
  217MPD1    C1 3347   3.450   2.360   9.097 -0.6834  0.4887 -0.3700
  217MPD1    C2 3348   3.462   2.483   9.157  0.0955 -0.4666  1.0062
  217MPD1    C3 3349   3.374   2.586   9.138 -0.4744 -0.5831  0.6892
  217MPD1    C4 3350   3.269   2.560   9.051 -0.1528  0.4740  0.2100
  217MPD1    C5 3351   3.257   2.434   8.999 -0.0652  0.3467 -0.2824
  217MPD1     H 3352   3.545   2.504   9.224  1.3253 -0.6638 -0.4460
  217MPD1    H1 3353   3.195   2.633   9.021  0.5515  1.5140  0.9648
  217MPD1    H2 3354   3.300   2.241   8.979 -0.5173  1.1207 -2.0327
  217MPD1    H3 3355   3.171   2.406   8.939 -0.8862 -1.4270  1.7413
  217MPD1     N 3356   3.393   2.715   9.192 -0.3700  0.2043  0.1386
  217MPD1    H5 3357   3.322   2.784   9.171 -0.8795 -0.3603 -0.0034
  217MPD1    N1 3358   3.535   2.249   9.114 -0.1014 -0.3255 -0.5401
  217MPD1    H6 3359   3.489   2.172   9.162 -0.6003  0.7377  0.6821
  217MPD1    H7 3360   3.618   2.269   9.169 -1.6164  2.7597  0.6372
  218MPD1     C 3361   4.056   3.298  12.565  0.3253 -0.1406 -0.3141
  218MPD1    C1 3362   4.171   3.226  12.542 -0.0759 -0.5125 -0.1434
  218MPD1    C2 3363   4.289   3.293  12.521  0.3090 -0.0186 -0.0739
  218MPD1    C3 3364   4.309   3.420  12.562 -0.1733  1.3080  0.1911
  218MPD1    C4 3365   4.200   3.487  12.617  0.4515  0.1794 -0.4175
  218MPD1    C5 3366   4.072   3.425  12.608  0.0024  0.2911 -1.0772
  218MPD1     H 3367   4.377   3.241  12.486 -0.3948  0.4424 -2.5079
  218MPD1    H1 3368   4.212   3.589  12.651  0.4624  0.0564 -0.0540
  218MPD1    H2 3369   3.955   3.267  12.542  0.0803  0.3142  0.1658
  218MPD1    H3 3370   3.981   3.472  12.642  1.1729  0.4499  1.8591
  218MPD1     N 3371   4.439   3.479  12.548  0.5614 -0.2672  0.3446
  218MPD1    H5 3372   4.517   3.416  12.530  0.6926  0.0967 -0.3491
  218MPD1    N1 3373   4.155   3.100  12.489  0.6279 -0.7865 -0.3667
  218MPD1    H6 3374   4.070   3.049  12.512  0.7470 -0.3598  1.0095
  218MPD1    H7 3375   4.241   3.051  12.510  1.6292  0.5687 -1.2431
  219MPD1     C 3376   0.033   3.596  11.677  0.2800 -0.4045 -0.3182
  219MPD1    C1 3377   0.014   3.718  11.741  0.1398  0.6293  0.7973
  219MPD1    C2 3378   0.010   3.723  11.881 -0.4869  0.3597  0.4410
  219MPD1    C3 3379   0.018   3.599  11.948 -1.3920 -0.6651  0.5681
  219MPD1    C4 3380   0.048   3.482  11.883 -0.1041 -0.3156 -0.3188
  219MPD1    C5 3381   0.055   3.481  11.746 -0.7109 -0.2951 -0.3773
  219MPD1     H 3382   0.003   3.817  11.935  0.9753  0.0721  1.1366
  219MPD1    H1 3383   0.049   3.386  11.933  0.3403 -1.1770 -1.9806
  219MPD1    H2 3384   0.039   3.592  11.569  0.6719 -0.2036 -0.3013
  219MPD1    H3 3385   0.095   3.392  11.699  1.8874 -0.0240  1.2773
  219MPD1     N 3386   4.738   3.590  12.087  0.0344 -0.0361  0.0408
  219MPD1    H5 3387   0.012   3.495  12.122  1.7267 -0.1429 -0.8565
  219MPD1    N1 3388   0.019   3.830  11.658  0.1307  0.2174  0.1208
  219MPD1    H6 3389   4.696   3.904  11.689 -1.5002 -0.5234 -1.2955
  219MPD1    H7 3390   4.723   3.818  11.563 -1.6079 -2.2882  1.0825
  220MPD1     C 3391   0.390   4.449   9.940  0.7511 -0.0671 -0.0984
  220MPD1    C1 3392   0.285   4.373   9.896 -1.4440 -0.3055  0.0881
  220MPD1    C2 3393   0.231   4.275   9.975  0.0626  0.7506 -0.7882
  220MPD1    C3 3394   0.258   4.270  10.111 -0.5358 -0.1661  0.0213
  220MPD1    C4 3395   0.358   4.362  10.158  0.6058 -0.6644 -0.1350
  220MPD1    C5 3396   0.421   4.446  10.073 -0.4185 -0.6019 -0.4546
  220MPD1     H 3397   0.159   4.206   9.931  0.7728  0.2132 -1.1068
  220MPD1    H1 3398   0.393   4.371  10.260  2.3725 -2.0326 -0.6123
  220MPD1    H2 3399   0.431   4.523   9.872  0.8402 -0.1581 -0.1435
  220MPD1    H3 3400   0.490   4.516  10.118  0.6345 -2.2896  0.5313
  220MPD1     N 3401   0.185   4.188  10.197  0.3122 -0.4210 -0.2215
  220MPD1    H5 3402   0.103   4.142  10.157 -1.2731  2.3017 -0.0362
  220MPD1    N1 3403   0.257   4.378   9.756  0.1290 -0.2877 -0.4249
  220MPD1    H6 3404   0.286   4.466   9.715  2.2538 -0.6505  0.2892
  220MPD1    H7 3405   0.158   4.370   9.733  0.3600  0.3341 -1.5969
  221MPD1     C 3406   2.228   2.742  15.439  0.0925  1.1962  0.3223
  221MPD1    C1 3407   2.203   2.801  15.559  0.9601 -1.0950 -0.0980
  221MPD1    C2 3408   2.200   2.730  15.676 -0.3540  0.4884 -0.1108
  221MPD1    C3 3409   2.230   2.593  15.675 -1.1968 -0.2850  0.2207
  221MPD1    C4 3410   2.261   2.531  15.556  0.1837 -0.3093 -0.7279
  221MPD1    C5 3411   2.255   2.603  15.434  0.7613  0.2562 -0.1480
  221MPD1     H 3412   2.180   2.783  15.768  0.5562 -2.3346  1.7067
  221MPD1    H1 3413   2.288   2.426  15.553 -1.3101 -0.7239  0.8037
  221MPD1    H2 3414   2.215   2.802  15.350  0.2353 -1.0804 -1.2439
  221MPD1    H3 3415   2.270   2.556  15.337  2.4131 -2.2008  1.3269
  221MPD1     N 3416   2.239   2.522  15.801  0.2433  0.3979 -0.0401
  221MPD1    H5 3417   2.246   2.422  15.785 -0.5998  0.5173 -1.1602
  221MPD1    N1 3418   2.168   2.937  15.554 -0.2879 -0.1640 -0.3788
  221MPD1    H6 3419   2.169   2.991  15.641  0.6120 -0.0465 -0.4673
  221MPD1    H7 3420   2.221   2.988  15.483 -0.3208  0.0017 -0.2850
  222MPD1     C 3421   1.525   1.487  17.594 -0.1497  0.0525 -0.0334
  222MPD1    C1 3422   1.526   1.465  17.724 -0.2639  0.7864 -0.3686
  222MPD1    C2 3423   1.492   1.577   0.046  0.2356  1.2412  0.1407
  222MPD1    C3 3424   1.483   1.706  17.742 -0.0192  0.3656 -0.5357
  222MPD1    C4 3425   1.476   1.718  17.607 -0.1471  0.0472 -0.6981
  222MPD1    C5 3426   1.500   1.605  17.530  0.1081 -0.1310  0.1185
  222MPD1     H 3427   1.472   1.565   0.152  3.5650  1.7367  0.8057
  222MPD1    H1 3428   1.459   1.811  17.554  2.7238  1.7937  1.4807
  222MPD1    H2 3429   1.539   1.401  17.528  1.4401 -1.2944  2.0523
  222MPD1    H3 3430   1.502   1.610  17.422 -0.1274 -3.5655 -0.0669
  222MPD1     N 3431   1.491   1.831   0.056  0.1614 -0.2165 -0.3693
  222MPD1    H5 3432   1.496   1.910  17.744 -1.1147  0.7950  0.7978
  222MPD1    N1 3433   1.540   1.337   0.019 -0.3321  0.5758  0.5682
  222MPD1    H6 3434   1.593   1.280  17.706 -1.7833  2.7816 -2.5867
  222MPD1    H7 3435   1.594   1.344   0.104 -1.4596  3.5726  1.0381
  223MPD1     C 3436   1.080   2.415  17.434  0.1768  0.4971 -0.1205
  223MPD1    C1 3437   1.136   2.294  17.409  0.0551  0.2304 -0.5255
  223MPD1    C2 3438   1.230   2.247  17.502 -0.3150 -0.5179 -0.0246
  223MPD1    C3 3439   1.267   2.321  17.612  0.4057 -0.0783 -0.1590
  223MPD1    C4 3440   1.192   2.435  17.634 -0.2735  0.4829  0.0379
  223MPD1    C5 3441   1.109   2.486  17.540 -0.1495 -0.8935 -0.0400
  223MPD1     H 3442   1.282   2.157  17.472 -2.2326 -2.3351  2.1306
  223MPD1    H1 3443   1.207   2.492  17.725 -0.1566 -0.5871  0.6950
  223MPD1    H2 3444   1.016   2.463  17.360  0.1573 -1.0901 -1.1189
  223MPD1    H3 3445   1.065   2.584  17.554 -1.3477 -1.5746  0.9941
  223MPD1     N 3446   1.361   2.263  17.698 -0.1148  0.8431 -0.1105
  223MPD1    H5 3447   1.418   2.189  17.658 -0.0347  0.5780  0.4858
  223MPD1    N1 3448   1.119   2.220  17.284  0.4317 -0.2469 -0.2270
  223MPD1    H6 3449   1.152   2.125  17.301  1.1915  0.2419  1.0313
  223MPD1    H7 3450   1.032   2.229  17.231  0.2943  0.1852  0.0707
  224MPD1     C 3451   3.656   0.379   9.512  1.2368  0.4008 -0.7307
  224MPD1    C1 3452   3.736   0.315   9.422  0.2339  0.0561  0.0656
  224MPD1    C2 3453   3.759   0.177   9.445 -0.2318 -0.2374 -0.2288
  224MPD1    C3 3454   3.705   0.110   9.553 -0.2658 -0.5087 -0.8548
  224MPD1    C4 3455   3.629   0.181   9.644 -0.7386 -0.7990  0.7652
  224MPD1    C5 3456   3.614   0.317   9.624  0.1820 -0.0903  0.0162
  224MPD1     H 3457   3.825   0.124   9.378 -0.0801 -1.5862  0.9795
  224MPD1    H1 3458   3.588   0.133   9.732 -0.3001 -2.4895  0.0592
  224MPD1    H2 3459   3.625   0.482   9.498 -2.2308 -0.9017 -2.7951
  224MPD1    H3 3460   3.566   0.369   9.706  2.7384  0.9735  0.8068
  224MPD1     N 3461   3.725   4.716   9.584 -0.0505  0.2586  0.2256
  224MPD1    H5 3462   3.686   4.683   9.672  0.9456  0.1168  0.6091
  224MPD1    N1 3463   3.775   0.395   9.311  0.0515 -0.1752 -0.2144
  224MPD1    H6 3464   3.865   0.371   9.270 -0.9402 -0.0137 -2.4427
  224MPD1    H7 3465   3.778   0.494   9.335  0.0417 -0.0482 -0.7470
  225MPD1     C 3466   0.272   4.494  12.726  0.2775  0.0421  0.1949
  225MPD1    C1 3467   0.224   4.372  12.697 -0.8542 -0.1784 -0.4487
  225MPD1    C2 3468   0.086   4.347  12.719 -0.1237 -0.0926  0.0033
  225MPD1    C3 3469   0.003   4.437  12.786  0.7921  0.7460 -0.6946
  225MPD1    C4 3470   0.057   4.560  12.813  0.3378  0.2916 -0.1993
  225MPD1    C5 3471   0.189   4.588  12.787  0.1830  0.0036  0.7795
  225MPD1     H 3472   0.047   4.246  12.714  1.2143 -0.6188  0.1872
  225MPD1    H1 3473   4.731   4.630  12.867  1.5061  1.8876 -0.8714
  225MPD1    H2 3474   0.373   4.516  12.694  0.2604 -0.1873 -0.0201
  225MPD1    H3 3475   0.235   4.684  12.807 -0.3021  0.7328 -1.5267
  225MPD1     N 3476   4.607   4.408  12.818  0.4952  0.2766  0.5393
  225MPD1    H5 3477   4.553   4.477  12.870 -0.5613  0.3142 -0.5855
  225MPD1    N1 3478   0.309   4.282  12.631  0.6549 -0.2803  0.0515
  225MPD1    H6 3479   0.287   4.184  12.649  0.7344 -0.1710  0.7572
  225MPD1    H7 3480   0.405   4.286  12.663  0.3854  0.3198  0.7755
  226MPD1     C 3481   3.900   0.811   9.782 -0.2120 -0.6433  0.1193
  226MPD1    C1 3482   3.904   0.858   9.914  0.2686 -0.2188  0.2337
  226MPD1    C2 3483   3.869   0.775  10.024  0.4803  0.1919  0.2547
  226MPD1    C3 3484   3.819   0.656   9.993  0.2601 -0.1237 -0.4178
  226MPD1    C4 3485   3.799   0.619   9.860  0.1581  0.0908  0.1688
  226MPD1    C5 3486   3.836   0.693   9.748  0.2173 -0.3047  0.4210
  226MPD1     H 3487   3.877   0.797  10.130 -4.3266  1.0362  0.4307
  226MPD1    H1 3488   3.753   0.527   9.826 -0.2661  1.1755 -2.1609
  226MPD1    H2 3489   3.936   0.869   9.697  0.4802  0.8408  1.4263
  226MPD1    H3 3490   3.826   0.665   9.644 -0.1550 -0.4698  0.5017
  226MPD1     N 3491   3.804   0.566  10.097 -0.1561  0.1702  0.2286
  226MPD1    H5 3492   3.838   0.600  10.186  0.6706  0.6362 -0.2709
  226MPD1    N1 3493   3.957   0.989   9.933 -0.0259  0.7940 -0.4765
  226MPD1    H6 3494   3.963   1.038   9.843 -2.0536  2.0491  0.0726
  226MPD1    H7 3495   3.899   1.051   9.990  1.9616 -0.6955  3.0985
  227MPD1     C 3496   3.593   0.728  11.008 -0.1104  0.6866  0.0105
  227MPD1    C1 3497   3.479   0.687  10.953  0.1840 -0.0250  0.0216
  227MPD1    C2 3498   3.490   0.609  10.835 -0.6698  0.1533 -0.3948
  227MPD1    C3 3499   3.608   0.588  10.769 -0.3903 -0.3486 -0.0634
  227MPD1    C4 3500   3.719   0.640  10.820  0.3354 -0.4955 -0.2838
  227MPD1    C5 3501   3.712   0.698  10.943  0.1440 -0.0105  0.1904
  227MPD1     H 3502   3.406   0.565  10.784 -0.9791 -0.2274  0.4363
  227MPD1    H1 3503   3.818   0.620  10.781 -1.7411 -2.5376 -4.5534
  227MPD1    H2 3504   3.587   0.787  11.098  0.1091  1.9641 -0.8186
  227MPD1    H3 3505   3.809   0.729  10.982  0.2695 -0.6602  0.3973
  227MPD1     N 3506   3.607   0.515  10.647 -0.9234  0.0736 -0.1894
  227MPD1    H5 3507   3.515   0.478  10.624 -1.0958  1.0383 -1.0386
  227MPD1    N1 3508   3.364   0.683  11.032  0.7283 -0.0288  0.4284
  227MPD1    H6 3509   3.348   0.753  11.104 -2.3665 -0.2889  0.0215
  227MPD1    H7 3510   3.285   0.674  10.969 -0.3685  2.7403  1.4019
  228MPD1     C 3511   2.242   1.948  12.926 -0.2060 -0.2939 -0.1537
  228MPD1    C1 3512   2.179   2.021  12.832  1.0041 -0.6349 -0.2589
  228MPD1    C2 3513   2.036   2.012  12.831  0.2442 -0.1793  0.2677
  228MPD1    C3 3514   1.967   1.961  12.934 -0.5273 -0.1416  0.4434
  228MPD1    C4 3515   2.036   1.910  13.037  0.8847  0.6032 -0.4781
  228MPD1    C5 3516   2.174   1.904  13.037  0.0898 -0.5348  0.4606
  228MPD1     H 3517   1.985   2.045  12.742  0.6166  2.5419  1.0713
  228MPD1    H1 3518   1.986   1.852  13.114  1.0600  0.3303 -0.5718
  228MPD1    H2 3519   2.350   1.949  12.938 -0.0130 -2.4968 -1.7646
  228MPD1    H3 3520   2.224   1.856  13.120  1.0308  0.6163  0.5734
  228MPD1     N 3521   1.828   1.979  12.930  0.2189 -0.0820  0.1975
  228MPD1    H5 3522   1.792   2.017  12.843  0.7315 -0.1081 -0.0205
  228MPD1    N1 3523   2.248   2.064  12.713  0.8342 -0.0917  0.0393
  228MPD1    H6 3524   2.200   2.130  12.653 -2.9325  1.8264  5.1545
  228MPD1    H7 3525   2.341   2.100  12.736  0.0540  0.8278  1.7502
  229MPD1     C 3526   0.810   1.115  14.664 -1.0590 -0.5174 -0.0184
  229MPD1    C1 3527   0.888   1.044  14.572 -0.5011  0.4307 -0.3825
  229MPD1    C2 3528   0.957   0.932  14.610  0.5615  0.1487 -1.7402
  229MPD1    C3 3529   0.952   0.896  14.744  0.4843 -0.0244  0.2004
  229MPD1    C4 3530   0.880   0.971  14.828 -0.4423 -0.5457 -0.4437
  229MPD1    C5 3531   0.819   1.087  14.789  0.1849 -0.9549  0.1844
  229MPD1     H 3532   1.023   0.879  14.542  2.8207 -0.2908  0.7927
  229MPD1    H1 3533   0.868   0.945  14.932 -1.4738  0.9895 -0.1933
  229MPD1    H2 3534   0.745   1.195  14.630  0.1587 -0.9912 -3.4420
  229MPD1    H3 3535   0.751   1.132  14.860  2.4313  1.4397  0.8161
  229MPD1     N 3536   1.011   0.785  14.800  0.3439  0.3907  0.2711
  229MPD1    H5 3537   0.985   0.782  14.898 -1.3645  2.9020 -0.0906
  229MPD1    N1 3538   0.892   1.086  14.437  0.4979 -0.2661 -0.3441
  229MPD1    H6 3539   0.909   1.006  14.377 -0.7036  0.6175 -1.8503
  229MPD1    H7 3540   0.807   1.132  14.407  0.5019 -1.1743 -1.7372
  230MPD1     C 3541   1.297   0.371  15.635 -0.1375 -0.6134 -0.6107
  230MPD1    C1 3542   1.294   0.254  15.564 -0.3448 -0.2667  0.2898
  230MPD1    C2 3543   1.262   0.262  15.432 -0.1132 -0.8444  0.0138
  230MPD1    C3 3544   1.236   0.384  15.372 -0.1932  0.6228  0.3344
  230MPD1    C4 3545   1.230   0.496  15.453 -0.3689 -0.4421  0.3336
  230MPD1    C5 3546   1.266   0.493  15.582 -0.3910  0.2718 -0.4135
  230MPD1     H 3547   1.254   0.168  15.378 -0.9905 -0.3398 -0.7348
  230MPD1    H1 3548   1.222   0.597  15.415  0.8448 -0.7509 -0.7320
  230MPD1    H2 3549   1.310   0.370  15.743  0.2375 -0.8084 -0.6610
  230MPD1    H3 3550   1.278   0.583  15.641  1.3876  0.9982 -1.9054
  230MPD1     N 3551   1.213   0.388  15.237  0.4115 -0.5958  0.2092
  230MPD1    H5 3552   1.221   0.303  15.183  0.8048  0.1400 -0.8882
  230MPD1    N1 3553   1.299   0.130  15.633  0.2089  0.3232  0.4595
  230MPD1    H6 3554   1.364   0.142  15.711 -0.2793  0.3313  0.8619
  230MPD1    H7 3555   1.329   0.065  15.561  0.8205  0.7630  0.3083
  231MPD1     C 3556   4.225   2.364  15.476 -0.2029  0.1075  0.3937
  231MPD1    C1 3557   4.206   2.383  15.344 -0.2453  0.1090  0.4348
  231MPD1    C2 3558   4.311   2.428  15.266 -0.8009  0.3190 -0.2590
  231MPD1    C3 3559   4.439   2.476  15.318 -0.0308 -0.3737 -0.4730
  231MPD1    C4 3560   4.448   2.469  15.457 -0.0629 -0.5851 -1.1389
  231MPD1    C5 3561   4.340   2.414  15.525  0.4278 -0.3742  0.0401
  231MPD1     H 3562   4.296   2.431  15.159 -0.2587  1.8826 -0.2830
  231MPD1    H1 3563   4.537   2.498  15.511 -0.9873  0.0198  0.0461
  231MPD1    H2 3564   4.157   2.318  15.547  0.0247 -2.0854 -0.8167
  231MPD1    H3 3565   4.352   2.407  15.632 -0.3091  1.7060  0.2666
  231MPD1     N 3566   4.543   2.522  15.232  0.0364  0.0288  0.1716
  231MPD1    H5 3567   4.510   2.523  15.136 -1.6544  1.5237  0.7824
  231MPD1    N1 3568   4.082   2.331  15.294  0.0241 -0.4306  0.0180
  231MPD1    H6 3569   4.047   2.378  15.211 -0.1881  0.7878  0.7868
  231MPD1    H7 3570   4.013   2.336  15.369 -0.1330  2.2144 -0.3097
  232MPD1     C 3571   1.293   0.852   0.374 -0.1542  0.0857 -0.8509
  232MPD1    C1 3572   1.186   0.934   0.334 -0.6017 -0.2610  0.5489
  232MPD1    C2 3573   1.078   0.869   0.272  0.4577  0.0358  0.0498
  232MPD1    C3 3574   1.086   0.731   0.246 -0.6926  0.5283  0.7512
  232MPD1    C4 3575   1.187   0.655   0.291  0.3212  0.0374  0.1766
  232MPD1    C5 3576   1.287   0.717   0.353  0.2877 -0.6531  0.0212
  232MPD1     H 3577   1.002   0.934   0.230  1.0967  1.9153  1.7488
  232MPD1    H1 3578   1.184   0.547   0.288  0.6302 -0.0339  2.4812
  232MPD1    H2 3579   1.376   0.885   0.435 -1.7354  5.6447 -1.6734
  232MPD1    H3 3580   1.367   0.661   0.401 -0.7503 -3.1695 -1.2141
  232MPD1     N 3581   0.979   0.675   0.178  0.2630  0.0058 -0.2485
  232MPD1    H5 3582   0.903   0.732   0.141  0.3777 -0.1147 -0.6734
  232MPD1    N1 3583   1.181   1.073   0.367  0.1464  0.2207  0.7096
  232MPD1    H6 3584   1.121   1.124   0.302 -1.0582 -1.2737  0.6479
  232MPD1    H7 3585   1.273   1.116   0.361 -0.2131  1.2390  2.5204
  233MPD1     C 3586   2.693   4.089   1.672 -0.3975 -0.3240 -0.0941
  233MPD1    C1 3587   2.823   4.096   1.625 -0.3966  0.1598  0.2281
  233MPD1    C2 3588   2.896   3.979   1.614  0.0318  0.0908  0.0980
  233MPD1    C3 3589   2.829   3.859   1.634  0.5757  0.4800 -0.0012
  233MPD1    C4 3590   2.694   3.850   1.664 -0.1534  0.1292 -0.3806
  233MPD1    C5 3591   2.632   3.968   1.689 -0.0900 -0.8379 -0.1169
  233MPD1     H 3592   3.000   3.979   1.586  0.6149 -3.3916  2.1807
  233MPD1    H1 3593   2.635   3.760   1.672  1.1799 -0.7793 -0.8542
  233MPD1    H2 3594   2.639   4.181   1.690 -0.0081 -0.3413  1.1228
  233MPD1    H3 3595   2.525   3.976   1.706 -0.2963 -2.5477 -0.6568
  233MPD1     N 3596   2.887   3.736   1.613 -0.3654 -0.0870 -0.0051
  233MPD1    H5 3597   2.824   3.657   1.625 -1.0711  0.6845  1.3688
  233MPD1    N1 3598   2.884   4.216   1.624  0.1186  0.0548  0.2300
  233MPD1    H6 3599   2.816   4.286   1.595 -1.3264 -0.2220  2.9660
  233MPD1    H7 3600   2.969   4.222   1.569  0.7421  0.7934  1.2845
  234MPD1     C 3601   0.346   3.216   9.958  0.1806  0.5020  1.6068
  234MPD1    C1 3602   0.326   3.351   9.963  0.0635  0.1204  0.4582
  234MPD1    C2 3603   0.216   3.401   9.894 -0.2212 -0.3721 -0.3152
  234MPD1    C3 3604   0.129   3.321   9.815 -0.5539 -0.5858 -0.3373
  234MPD1    C4 3605   0.162   3.183   9.807 -0.1045 -0.1715  1.1113
  234MPD1    C5 3606   0.268   3.132   9.882  0.3122  0.4540 -1.0500
  234MPD1     H 3607   0.197   3.508   9.892 -1.2622 -0.5023  2.5988
  234MPD1    H1 3608   0.099   3.119   9.746 -0.4974  0.6503  0.6652
  234MPD1    H2 3609   0.438   3.184  10.006  0.8815 -0.2557 -0.2499
  234MPD1    H3 3610   0.283   3.025   9.893 -1.2484  0.1938 -1.4307
  234MPD1     N 3611   0.014   3.390   9.757 -0.1927  0.1113  0.1814
  234MPD1    H5 3612   0.023   3.489   9.739  0.8610  0.2250  1.3372
  234MPD1    N1 3613   0.410   3.413  10.055 -0.2873 -0.3371  0.4836
  234MPD1    H6 3614   0.415   3.513  10.040 -0.6012 -0.4062 -0.0681
  234MPD1    H7 3615   0.504   3.376  10.044 -0.1906  0.3237 -0.9131
  235MPD1     C 3616   0.592   4.442  11.292 -0.7688 -0.6048 -0.3108
  235MPD1    C1 3617   0.560   4.509  11.175 -0.3808  0.6843  0.0547
  235MPD1    C2 3618   0.632   4.619  11.141 -0.2936 -0.0750  0.1507
  235MPD1    C3 3619   0.738   4.669  11.214  0.1064  0.3024  0.3319
  235MPD1    C4 3620   0.764   4.606  11.334 -0.1241  0.8717  0.4095
  235MPD1    C5 3621   0.696   4.489  11.369 -0.6818 -0.3466  0.2230
  235MPD1     H 3622   0.600   4.684  11.060  2.4902  1.3710  0.2294
  235MPD1    H1 3623   0.840   4.646  11.401  0.9863 -1.7755  0.7074
  235MPD1    H2 3624   0.521   4.372  11.337 -0.4908  0.1892  1.3665
  235MPD1    H3 3625   0.710   4.449  11.468  0.7310  1.6284  0.8213
  235MPD1     N 3626   0.801   0.046  11.171 -0.3947 -0.9402 -0.3214
  235MPD1    H5 3627   0.777   0.066  11.075  1.2805  0.8685 -0.3596
  235MPD1    N1 3628   0.434   4.484  11.115 -0.1732  0.0652  0.7244
  235MPD1    H6 3629   0.397   4.390  11.130 -0.3634  0.0258 -0.0047
  235MPD1    H7 3630   0.429   4.506  11.016  1.5564  0.1222  0.6649
  236MPD1     C 3631   4.255   1.642  10.213  0.2803  0.0793  0.1523
  236MPD1    C1 3632   4.346   1.742  10.188  0.3567 -0.7187  0.0121
  236MPD1    C2 3633   4.479   1.718  10.207 -0.7701  0.9549  0.1135
  236MPD1    C3 3634   4.525   1.600  10.268 -0.3246 -0.4829 -0.9599
  236MPD1    C4 3635   4.429   1.506  10.308 -0.1476 -0.5695  1.1020
  236MPD1    C5 3636   4.297   1.532  10.285  0.5586 -0.6474 -0.2164
  236MPD1     H 3637   4.550   1.794  10.176  0.0910  0.8146  1.7010
  236MPD1    H1 3638   4.461   1.411  10.349  0.9535 -1.4696 -1.7884
  236MPD1    H2 3639   4.149   1.654  10.194 -0.1705 -1.6618  1.5100
  236MPD1    H3 3640   4.225   1.453  10.304 -1.9005  1.6801  0.1864
  236MPD1     N 3641   4.660   1.567  10.288  0.1732  0.1198 -0.5530
  236MPD1    H5 3642   4.677   1.476  10.330  1.3106  0.5721 -0.0124
  236MPD1    N1 3643   4.308   1.852  10.109  0.4536 -0.1805 -0.3201
  236MPD1    H6 3644   4.362   1.936  10.127 -2.0619  1.3634  0.0252
  236MPD1    H7 3645   4.208   1.854  10.128  0.7263 -1.1864  1.2335
  237MPD1     C 3646   4.539   3.800  15.332  0.2532 -0.0364 -0.3443
  237MPD1    C1 3647   4.550   3.687  15.412 -0.4077 -0.1158 -0.0938
  237MPD1    C2 3648   4.452   3.666  15.507 -0.1405  0.6660 -0.4277
  237MPD1    C3 3649   4.337   3.748  15.522  0.0926 -0.2058  0.3977
  237MPD1    C4 3650   4.331   3.856  15.430  1.1262  0.7810  0.1414
  237MPD1    C5 3651   4.427   3.874  15.334  0.7412 -0.1170 -0.1608
  237MPD1     H 3652   4.454   3.574  15.564 -0.0535  0.4763 -0.7332
  237MPD1    H1 3653   4.238   3.910  15.423 -0.9900 -2.9037 -0.2531
  237MPD1    H2 3654   4.625   3.828  15.273  0.5896  2.7156  1.4727
  237MPD1    H3 3655   4.423   3.950  15.257  0.5012 -1.6914 -1.6785
  237MPD1     N 3656   4.214   3.711  15.587  0.0639  0.7649  0.0239
  237MPD1    H5 3657   4.132   3.770  15.582  0.2492  1.0772  0.6414
  237MPD1    N1 3658   4.659   3.604  15.400 -0.1487 -0.4631  0.7377
  237MPD1    H6 3659   0.005   3.637  15.356  0.3374 -2.9522 -0.2276
  237MPD1    H7 3660   4.681   3.560  15.489 -1.4275 -1.1855  0.7087
  238MPD1     C 3661   1.958   1.805  14.835 -0.3568 -0.2877  0.1317
  238MPD1    C1 3662   1.962   1.938  14.802  0.4933 -0.5111 -0.4672
  238MPD1    C2 3663   1.847   2.015  14.812 -1.4715 -0.3928  0.3879
  238MPD1    C3 3664   1.730   1.958  14.850 -0.7370 -0.2822 -0.3887
  238MPD1    C4 3665   1.731   1.832  14.898  0.2587 -0.2648 -0.5055
  238MPD1    C5 3666   1.843   1.753  14.896  0.2190  0.1697 -0.6814
  238MPD1     H 3667   1.856   2.118  14.780  1.4309 -1.2683 -1.5937
  238MPD1    H1 3668   1.637   1.795  14.937 -0.3862  2.8357  0.8648
  238MPD1    H2 3669   2.044   1.739  14.826 -0.4751 -0.6011  1.3077
  238MPD1    H3 3670   1.834   1.650  14.929 -0.9832 -0.4375 -2.9339
  238MPD1     N 3671   1.607   2.021  14.831 -0.0746 -0.3355  0.4520
  238MPD1    H5 3672   1.528   1.958  14.834 -1.7004  1.7479  1.8301
  238MPD1    N1 3673   2.079   1.986  14.735  0.5294 -0.2562 -0.1683
  238MPD1    H6 3674   2.158   1.930  14.766 -0.4833 -0.4952  1.9668
  238MPD1    H7 3675   2.093   2.086  14.744  0.1565 -0.3855  1.9604
  239MPD1     C 3676   1.531   3.654  14.900  1.0745 -0.2341  0.1310
  239MPD1    C1 3677   1.544   3.708  14.777 -0.0447  0.3506  0.0698
  239MPD1    C2 3678   1.463   3.656  14.675  0.3868  0.4274  0.3162
  239MPD1    C3 3679   1.388   3.534  14.690 -0.0501  0.8618  0.6938
  239MPD1    C4 3680   1.393   3.467  14.811  1.3177 -0.1488 -0.4980
  239MPD1    C5 3681   1.465   3.525  14.915  0.0322 -0.2583  0.5094
  239MPD1     H 3682   1.474   3.705  14.579  0.6022  0.9929  0.6345
  239MPD1    H1 3683   1.343   3.373  14.830  2.0848 -0.6931 -1.1412
  239MPD1    H2 3684   1.581   3.703  14.984  0.6821  0.6850 -0.1678
  239MPD1    H3 3685   1.453   3.472  15.008  3.2024 -1.0790  0.4476
  239MPD1     N 3686   1.297   3.488  14.587  0.2465 -0.1830  0.6309
  239MPD1    H5 3687   1.233   3.412  14.609  1.3305 -0.9955  0.9927
  239MPD1    N1 3688   1.621   3.820  14.760  0.2343 -0.1705  0.2010
  239MPD1    H6 3689   1.707   3.834  14.813 -0.1595  0.8090  0.5808
  239MPD1    H7 3690   1.648   3.829  14.662  0.9196 -0.6388  0.3435
  240MPD1     C 3691   1.441   3.126  14.730 -0.1418  0.0020 -0.1672
  240MPD1    C1 3692   1.385   3.032  14.649  0.8084  0.3904 -0.2270
  240MPD1    C2 3693   1.317   2.931  14.716  0.2664  0.4420 -0.0306
  240MPD1    C3 3694   1.322   2.919  14.854 -0.8525 -0.0499  0.6161
  240MPD1    C4 3695   1.384   3.011  14.928 -0.4712 -0.1799  0.1972
  240MPD1    C5 3696   1.445   3.119  14.869  0.9176  1.0594  0.8545
  240MPD1     H 3697   1.259   2.865  14.653 -1.5132  2.7113 -0.7649
  240MPD1    H1 3698   1.382   3.015  15.036  1.6497 -0.5427  0.2498
  240MPD1    H2 3699   1.471   3.218  14.680  2.8366 -0.2994  1.1113
  240MPD1    H3 3700   1.474   3.205  14.928  1.2887 -0.5287  2.9787
  240MPD1     N 3701   1.255   2.806  14.908  0.3154 -0.4536 -0.4127
  240MPD1    H5 3702   1.180   2.763  14.854 -0.3556  1.4836 -1.0363
  240MPD1    N1 3703   1.355   3.064  14.520 -0.1644  0.2843  0.4888
  240MPD1    H6 3704   1.325   2.984  14.465  0.7400  0.4586 -0.2549
  240MPD1    H7 3705   1.416   3.126  14.467 -0.0200 -0.5806 -0.3478
  241MPD1     C 3706   1.131   2.160  15.815  0.1157 -0.0494 -0.3348
  241MPD1    C1 3707   1.255   2.183  15.757  0.6328 -0.8970  0.6457
  241MPD1    C2 3708   1.265   2.258  15.636  0.1064 -0.2822  0.2662
  241MPD1    C3 3709   1.145   2.298  15.572 -0.0657  0.2728  0.8988
  241MPD1    C4 3710   1.023   2.268  15.633 -0.1654  0.0597 -0.4950
  241MPD1    C5 3711   1.016   2.197  15.751  0.6316  0.2318 -0.4317
  241MPD1     H 3712   1.366   2.278  15.602 -0.1028  3.7083  2.0321
  241MPD1    H1 3713   0.926   2.300  15.594  0.0145  0.0188 -0.9710
  241MPD1    H2 3714   1.122   2.134  15.920 -0.2437  0.9466 -0.1248
  241MPD1    H3 3715   0.924   2.193  15.808  1.3738 -2.8872  0.5411
  241MPD1     N 3716   1.143   2.379  15.453 -0.0156 -0.5234  0.4273
  241MPD1    H5 3717   1.053   2.406  15.414  0.7336  0.3293 -0.6994
  241MPD1    N1 3718   1.371   2.154  15.831 -0.0918  0.0756 -0.3620
  241MPD1    H6 3719   1.448   2.142  15.765  1.3264  1.6694  1.0162
  241MPD1    H7 3720   1.358   2.063  15.873 -0.4875  0.3740  0.1587
  242MPD1     C 3721   0.293   0.943  16.163  0.4138 -0.1528  0.1780
  242MPD1    C1 3722   0.280   1.047  16.076 -0.4745  0.1155  0.0797
  242MPD1    C2 3723   0.353   1.040  15.954 -0.1420 -0.6864  0.0769
  242MPD1    C3 3724   0.429   0.935  15.913  0.6310  0.8928  0.0502
  242MPD1    C4 3725   0.430   0.828  16.003 -0.4605  0.0524  0.3462
  242MPD1    C5 3726   0.362   0.830  16.124  0.8556 -0.6272  0.5928
  242MPD1     H 3727   0.357   1.131  15.894  2.0983  0.3360  1.8182
  242MPD1    H1 3728   0.496   0.743  15.991 -1.6283 -0.7242 -0.5133
  242MPD1    H2 3729   0.241   0.939  16.257 -1.0712 -2.0417 -0.7193
  242MPD1    H3 3730   0.379   0.750  16.196  0.2124  1.4598  3.0602
  242MPD1     N 3731   0.507   0.937  15.805  0.2426 -0.6631 -0.5182
  242MPD1    H5 3732   0.571   0.864  15.777  0.7061 -1.3861  2.4071
  242MPD1    N1 3733   0.213   1.161  16.121  0.5812 -0.3051 -0.3738
  242MPD1    H6 3734   0.135   1.143  16.184  0.0485 -0.0394 -0.9492
  242MPD1    H7 3735   0.171   1.207  16.041  1.7045  1.5059  0.0582
  243MPD1     C 3736   2.195   1.304  17.473 -0.8244  0.0107  0.7830
  243MPD1    C1 3737   2.198   1.264  17.343 -0.6189 -0.0966  0.5493
  243MPD1    C2 3738   2.183   1.129  17.317 -0.0913  0.4288 -0.1831
  243MPD1    C3 3739   2.165   1.039  17.419 -0.4597  0.0078  0.6429
  243MPD1    C4 3740   2.156   1.087  17.549 -1.2571  0.4521 -0.1044
  243MPD1    C5 3741   2.160   1.217  17.572 -0.7831  0.2443  0.3676
  243MPD1     H 3742   2.187   1.098  17.213 -0.4148 -2.1013  0.5691
  243MPD1    H1 3743   2.151   1.017  17.632 -2.9973 -1.5284 -1.8819
  243MPD1    H2 3744   2.208   1.409  17.496  2.9747  0.1102 -1.7469
  243MPD1    H3 3745   2.154   1.254  17.673  1.0339 -2.2990  1.4238
  243MPD1     N 3746   2.175   0.897  17.386  0.2353  0.0320 -0.1610
  243MPD1    H5 3747   2.199   0.887  17.288  0.1862 -2.2822  0.0566
  243MPD1    N1 3748   2.225   1.353  17.245  0.3141  0.8196 -0.3741
  243MPD1    H6 3749   2.184   1.445  17.262  0.3935  0.6770  0.5479
  243MPD1    H7 3750   2.200   1.318  17.153  0.6343 -1.2553  0.3480
  244MPD1     C 3751   1.943   0.051   0.144 -0.6625 -0.4131  0.0536
  244MPD1    C1 3752   1.965   0.184   0.191  0.5315  0.2037  0.7112
  244MPD1    C2 3753   1.994   0.280   0.090 -0.2171 -0.5514 -0.0679
  244MPD1    C3 3754   2.017   0.241  17.709  0.5632  0.1222 -0.2833
  244MPD1    C4 3755   1.996   0.113  17.668  0.8442  0.5754  0.0782
  244MPD1    C5 3756   1.967   0.021   0.010 -0.3524 -0.5553 -0.8075
  244MPD1     H 3757   1.997   0.384   0.118  2.9935 -1.0002  1.3436
  244MPD1    H1 3758   2.010   0.073  17.568  0.0674 -0.2014  0.2842
  244MPD1    H2 3759   1.907   4.715   0.214 -1.6617 -0.9100 -0.9825
  244MPD1    H3 3760   1.950   4.660  17.721 -0.3469 -0.6523 -0.5745
  244MPD1     N 3761   2.059   0.340  17.611  0.5246 -0.2204  0.2263
  244MPD1    H5 3762   2.076   0.429  17.656  2.0890  0.9427 -2.7290
  244MPD1    N1 3763   1.944   0.221   0.323 -0.5704  0.2002 -0.1817
  244MPD1    H6 3764   2.015   0.283   0.363  0.3852 -1.4260  0.6170
  244MPD1    H7 3765   1.933   0.140   0.383  2.1970  0.1552  0.2795
  245MPD1     C 3766   4.337   0.246  13.073 -0.1981  0.1335 -0.0340
  245MPD1    C1 3767   4.249   0.314  13.156 -0.2220  0.1942  0.0349
  245MPD1    C2 3768   4.298   0.385  13.258  0.3657 -0.1042 -0.4068
  245MPD1    C3 3769   4.425   0.362  13.305 -0.0881  0.0142  0.3368
  245MPD1    C4 3770   4.510   0.280  13.239  0.2578 -0.1253 -0.1817
  245MPD1    C5 3771   4.464   0.223  13.117  0.2359 -0.4525 -0.0487
  245MPD1     H 3772   4.236   0.460  13.306 -0.6330  0.2005 -2.1694
  245MPD1    H1 3773   4.613   0.265  13.269  1.0656  0.2821 -2.6912
  245MPD1    H2 3774   4.293   0.210  12.981 -0.1147 -1.4237  0.5346
  245MPD1    H3 3775   4.528   0.164  13.053 -1.5299 -0.9341 -1.3749
  245MPD1     N 3776   4.461   0.422  13.428 -0.2349  0.0740  0.3363
  245MPD1    H5 3777   4.384   0.470  13.475 -0.5599 -0.4269  0.3142
  245MPD1    N1 3778   4.119   0.343  13.099 -0.3408 -0.2020 -0.6711
  245MPD1    H6 3779   4.049   0.366  13.169 -0.3496 -1.4914 -0.2671
  245MPD1    H7 3780   4.087   0.260  13.049  0.1086 -1.6599  1.4919
  246MPD1     C 3781   0.271   0.331  10.029 -0.0384  0.0605  0.1040
  246MPD1    C1 3782   0.206   0.357  10.154  0.5192  0.1812 -0.7059
  246MPD1    C2 3783   0.081   0.425  10.140 -0.3412  0.5162  0.2809
  246MPD1    C3 3784   0.023   0.446  10.011  0.0611  0.0895 -0.4096
  246MPD1    C4 3785   0.088   0.407   9.897  0.2608 -0.3880  0.1579
  246MPD1    C5 3786   0.208   0.342   9.906  0.4026  0.0044  0.2382
  246MPD1     H 3787   0.029   0.466  10.226  0.0998  0.2329  0.6797
  246MPD1    H1 3788   0.044   0.411   9.798  0.5601 -2.2699 -0.0457
  246MPD1    H2 3789   0.370   0.290  10.016  1.4877  3.2176  1.6500
  246MPD1    H3 3790   0.271   0.328   9.819  0.6904  0.6959  0.3309
  246MPD1     N 3791   4.644   0.523  10.009  0.9255 -0.8665 -0.1617
  246MPD1    H5 3792   4.615   0.555  10.101  0.8975 -0.0111 -0.4659
  246MPD1    N1 3793   0.273   0.342  10.280  0.2364  0.5087  0.5818
  246MPD1    H6 3794   0.207   0.326  10.356  0.2214 -1.7715  0.0898
  246MPD1    H7 3795   0.328   0.258  10.270  0.0323  0.3959  0.3944
  247MPD1     C 3796   2.607   4.490  15.874  0.0258 -0.1664 -0.1042
  247MPD1    C1 3797   2.633   4.620  15.913  0.0157 -0.7511  0.5258
  247MPD1    C2 3798   2.758   4.657  15.947  0.5014 -0.2790  0.2512
  247MPD1    C3 3799   2.865   4.574  15.942  0.1703 -0.2597  0.3553
  247MPD1    C4 3800   2.838   4.443  15.915  0.4474  0.1586  0.3277
  247MPD1    C5 3801   2.713   4.405  15.875  0.2352 -0.0559  0.4481
  247MPD1     H 3802   2.779   0.022  15.972 -0.1785  0.1270 -0.8750
  247MPD1    H1 3803   2.916   4.369  15.904  1.6801  1.5137 -0.0754
  247MPD1    H2 3804   2.506   4.453  15.863 -1.0768  2.8850 -0.2012
  247MPD1    H3 3805   2.694   4.302  15.848  1.3882 -0.0268 -0.4432
  247MPD1     N 3806   2.997   4.612  15.972 -0.3400  0.6473 -0.7867
  247MPD1    H5 3807   3.064   4.539  15.993 -1.5223 -0.1614  0.2182
  247MPD1    N1 3808   2.530   4.710  15.894 -0.5390  0.5597  0.0564
  247MPD1    H6 3809   2.446   4.665  15.929 -0.3909 -1.5046 -2.2618
  247MPD1    H7 3810   2.543   0.060  15.943 -0.1188  0.9281 -0.7083
  248MPD1     C 3811   3.865   4.666  17.274  0.8198  0.0763 -0.3309
  248MPD1    C1 3812   3.800   4.671  17.399 -0.2701 -0.2031  0.7127
  248MPD1    C2 3813   3.769   0.054  17.458 -0.0970  0.0126 -0.0573
  248MPD1    C3 3814   3.797   0.173  17.396  0.0838  0.3271 -0.5989
  248MPD1    C4 3815   3.854   0.165  17.266  0.6189 -0.1863  0.3317
  248MPD1    C5 3816   3.880   0.042  17.203 -0.6497  0.5072  0.3629
  248MPD1     H 3817   3.722   0.060  17.556 -0.5036  0.5448 -0.2835
  248MPD1    H1 3818   3.878   0.253  17.207 -0.6885  0.7024  1.1339
  248MPD1    H2 3819   3.890   4.573  17.225  1.4405  0.0457  0.0302
  248MPD1    H3 3820   3.916   0.042  17.101 -1.0067 -1.9749  0.2234
  248MPD1     N 3821   3.764   0.292  17.461 -1.1601  0.1288  0.6173
  248MPD1    H5 3822   3.729   0.288  17.556 -3.5902  0.2746 -0.2531
  248MPD1    N1 3823   3.761   4.558  17.474  0.8531  0.1800  0.1748
  248MPD1    H6 3824   3.676   4.590  17.520 -0.1180  0.2065 -1.6465
  248MPD1    H7 3825   3.743   4.476  17.416 -0.4410 -2.7606  4.7760
  249MPD1     C 3826   0.903   4.006  10.808 -0.5581 -0.5679 -0.1786
  249MPD1    C1 3827   1.016   4.089  10.816  0.0760 -0.3939  0.0923
  249MPD1    C2 3828   1.024   4.193  10.731 -0.3428  0.6472 -0.0991
  249MPD1    C3 3829   0.934   4.217  10.627  0.1618 -0.1591  0.4140
  249MPD1    C4 3830   0.834   4.124  10.615 -0.3216 -0.6256  0.2715
  249MPD1    C5 3831   0.810   4.028  10.712 -0.5712  0.8277 -0.5302
  249MPD1     H 3832   1.111   4.257  10.741 -0.5534  0.9263 -0.0482
  249MPD1    H1 3833   0.761   4.120  10.535 -0.9899 -1.6835  0.9303
  249MPD1    H2 3834   0.886   3.918  10.870 -1.9968  0.4262  0.8295
  249MPD1    H3 3835   0.726   3.959  10.706 -0.1903  0.4275 -1.3111
  249MPD1     N 3836   0.941   4.324  10.533 -0.3114 -0.1523  0.2322
  249MPD1    H5 3837   1.018   4.390  10.545 -1.9884  1.8405  0.0474
  249MPD1    N1 3838   1.101   4.076  10.924  0.3328  0.9539 -0.0450
  249MPD1    H6 3839   1.118   3.983  10.962 -0.9538  1.1249  0.9490
  249MPD1    H7 3840   1.183   4.135  10.936  0.5445  0.9380 -1.4197
  250MPD2     C 3841   3.299   3.990  12.882  0.2256  0.0921 -0.2845
  250MPD2    C1 3842   3.177   4.050  12.877 -0.1042  0.1957  0.6535
  250MPD2    C2 3843   3.061   3.967  12.870  0.2338  0.0055 -0.3372
  250MPD2    C3 3844   3.070   3.831  12.885 -0.3456 -0.1313  0.3477
  250MPD2    C4 3845   3.197   3.779  12.899 -0.5942  0.3709  0.2372
  250MPD2    C5 3846   3.312   3.854  12.889 -0.2960 -0.1561 -0.2041
  250MPD2     H 3847   2.962   4.009  12.863  0.2252  0.1425  0.7148
  250MPD2    H1 3848   3.208   3.672  12.915 -1.4146  0.2312 -0.1649
  250MPD2    H2 3849   3.386   4.053  12.889  1.0437 -0.8480 -1.9354
  250MPD2    H3 3850   3.408   3.805  12.879  1.0543  2.5096 -0.4903
  250MPD2     N 3851   2.967   3.743  12.879  0.0796  0.9702 -1.3012
  250MPD2    H5 3852   2.993   3.645  12.867 -0.1404  0.5816  1.4168
  250MPD2    N1 3853   3.174   4.191  12.882  0.0510 -0.2909  0.3799
  250MPD2    H7 3854   3.259   4.247  12.877  0.0128 -0.1674  1.1498
  251TMC3    C1 3855   3.102   4.410  12.906 -0.0660  0.2650 -0.4127
  251TMC3    C2 3856   3.000   4.493  12.922 -0.0802  0.5265 -0.6006
  251TMC3    C3 3857   3.011   4.589  13.025  0.6244  0.4097  0.1470
  251TMC3    C4 3858   3.219   4.433  12.970 -0.4520  0.4842 -1.0199
  251TMC3    C5 3859   3.234   4.535  13.059 -0.0903  0.0995  0.0878
  251TMC3    C6 3860   3.126   4.611  13.089 -0.3505  0.0851 -0.5911
  251TMC3     C 3861   3.068   4.271  12.895  0.1684 -0.2779 -0.5425
  251TMC3     O 3862   2.946   4.246  12.911 -0.2945  1.0660 -0.0130
  251TMC3     H 3863   2.913   4.479  12.858 -0.6991 -0.2833  0.4241
  251TMC3    H1 3864   3.310   4.378  12.950 -1.2868 -1.9712  1.8052
  251TMC3    H2 3865   3.131   4.670  13.180  0.8531 -1.4020  0.3019
  251TMC3    C7 3866   3.333   4.501  13.155  0.7969  0.1209 -0.0810
  251TMC3    C8 3867   2.892   4.605  13.101 -0.2340  1.0525  0.1590
  251TMC3    O1 3868   3.342   4.381  13.173 -0.6336  0.4140 -0.6304
  251TMC3    O2 3869   2.839   4.497  13.135  0.0072 -0.0298  0.1397
  252TMC3    C1 3870   3.174   0.210   9.258  0.4287 -0.3391  0.1472
  252TMC3    C2 3871   3.206   0.336   9.289  0.2162  0.3470  0.0545
  252TMC3    C3 3872   3.259   0.361   9.411 -0.3792  0.3073  0.0257
  252TMC3    C4 3873   3.203   0.103   9.337  0.2196  0.4513 -0.5943
  252TMC3    C5 3874   3.280   0.124   9.456  0.3713 -0.2612 -0.1799
  252TMC3    C6 3875   3.290   0.258   9.497 -0.1719 -0.2068  0.4540
  252TMC3     C 3876   3.138   0.185   9.119  0.0048  0.3258 -0.2879
  252TMC3     O 3877   3.177   0.260   9.033 -0.5979 -0.0733  0.3315
  252TMC3     H 3878   3.191   0.417   9.218  1.5464  1.2656  0.8268
  252TMC3    H1 3879   3.183   0.001   9.308 -1.0813  0.1404  1.3679
  252TMC3    H2 3880   3.342   0.268   9.591 -2.1158  1.4381  1.3701
  252TMC3    C7 3881   3.276   0.020   9.557 -0.4681 -0.4125  0.7957
  252TMC3    C8 3882   3.280   0.503   9.446  0.7304 -0.2381 -0.2764
  252TMC3    O1 3883   3.375   0.027   9.625  0.2092 -0.3792 -0.0261
  252TMC3    O2 3884   3.280   0.586   9.358  0.1327  0.0983 -0.5321
  253MPD2     C 3885   3.670   4.136  16.054  0.4546 -0.3197  0.3493
  253MPD2    C1 3886   3.563   4.113  15.977 -0.7124 -0.1305 -0.3980
  253MPD2    C2 3887   3.473   4.017  16.023 -0.4700 -0.3758  0.3140
  253MPD2    C3 3888   3.495   3.933  16.128  0.7191 -0.5113 -0.1055
  253MPD2    C4 3889   3.610   3.955  16.199 -0.4323 -1.0888 -0.3016
  253MPD2    C5 3890   3.699   4.057  16.160  0.3858 -0.5623 -0.3843
  253MPD2     H 3891   3.393   3.997  15.953  2.2186  1.1071 -3.1684
  253MPD2    H1 3892   3.639   3.896  16.285 -0.5681 -1.5746 -0.5846
  253MPD2    H2 3893   3.750   4.201  16.021  1.6007 -1.9368 -0.0661
  253MPD2    H3 3894   3.786   4.076  16.223 -1.8364 -0.4286  2.6696
  253MPD2     N 3895   3.423   3.822  16.153  0.1858 -0.3292  0.0224
  253MPD2    H5 3896   3.446   3.768  16.236 -1.6343  0.4497  1.0335
  253MPD2    N1 3897   3.538   4.165  15.852 -0.3211 -0.5171 -0.2224
  253MPD2    H7 3898   3.462   4.120  15.800 -0.2277  1.4612 -2.0571
  254TMC3    C1 3899   3.271   3.646  16.120 -0.2328 -0.4204  0.8207
  254TMC3    C2 3900   3.134   3.627  16.095  1.1206  0.5326  0.1259
  254TMC3    C3 3901   3.065   3.522  16.157 -0.0309  0.2889  0.4650
  254TMC3    C4 3902   3.339   3.567  16.203  0.0815 -0.3068 -0.6360
  254TMC3    C5 3903   3.273   3.467  16.261  0.2578  0.1806 -0.7557
  254TMC3    C6 3904   3.139   3.453  16.254  0.3264 -0.2702 -0.4534
  254TMC3     C 3905   3.322   3.771  16.075  0.2672 -0.2327 -0.0404
  254TMC3     O 3906   3.267   3.808  15.974 -0.2596 -0.4176  0.1701
  254TMC3     H 3907   3.085   3.689  16.021 -0.2441 -0.2498  0.3777
  254TMC3    H1 3908   3.444   3.583  16.224 -0.7015  0.4244  2.6008
  254TMC3    H2 3909   3.085   3.390  16.324 -0.3417 -0.2104 -0.9129
  254TMC3    C7 3910   3.341   3.391  16.375 -0.3782 -0.3036 -0.2301
  254TMC3    C8 3911   2.939   3.569  16.206  0.3093 -0.1955  0.0716
  254TMC3    O1 3912   3.415   3.458  16.444 -0.5896  0.5433  0.0279
  254TMC3    O2 3913   2.918   3.559  16.327  0.3294 -0.3259  0.2833
  255MPD2     C 3914   2.724   2.076  11.040 -0.4766 -0.9819  0.2624
  255MPD2    C1 3915   2.639   2.140  10.952  0.4630  0.5574  0.7805
  255MPD2    C2 3916   2.645   2.100  10.817 -0.0560  0.2730 -0.3084
  255MPD2    C3 3917   2.726   1.995  10.773  0.3325 -0.3641  0.0112
  255MPD2    C4 3918   2.799   1.931  10.868 -0.1023  0.0781  0.1818
  255MPD2    C5 3919   2.802   1.968  10.997  0.4280 -0.0671 -0.1544
  255MPD2     H 3920   2.573   2.139  10.745 -0.8977  1.2664  1.0661
  255MPD2    H1 3921   2.871   1.854  10.842 -0.2172 -1.0830  3.2346
  255MPD2    H2 3922   2.727   2.109  11.143  1.6719 -0.0147 -0.1099
  255MPD2    H3 3923   2.873   1.919  11.063  1.5108  1.8261  0.0635
  255MPD2     N 3924   2.733   1.966  10.634  0.2662  0.7179  0.2446
  255MPD2    H5 3925   2.674   2.015  10.567 -2.1398  0.6606  2.3064
  255MPD2    N1 3926   2.559   2.250  10.992 -0.0403  0.3418 -0.0287
  255MPD2    H7 3927   2.538   2.270  11.089  0.1091  1.8306 -0.3104
  256TMC3    C1 3928   2.430   2.448  10.963 -0.2968  0.6881  0.3507
  256TMC3    C2 3929   2.440   2.576  10.919 -0.6761  0.6286 -0.3649
  256TMC3    C3 3930   2.381   2.672  11.000 -0.1054 -0.0271  0.1000
  256TMC3    C4 3931   2.331   2.408  11.051  0.3976 -0.9149 -0.6572
  256TMC3    C5 3932   2.245   2.508  11.098  0.3493 -0.0604 -0.2056
  256TMC3    C6 3933   2.275   2.640  11.086 -0.1629 -0.2054  0.6851
  256TMC3     C 3934   2.522   2.352  10.904  0.7984 -0.3914 -0.6931
  256TMC3     O 3935   2.577   2.375  10.796 -0.0738 -0.0340  0.4236
  256TMC3     H 3936   2.492   2.609  10.829 -1.5022 -0.1351 -1.1305
  256TMC3    H1 3937   2.295   2.306  11.053  1.4186 -1.2984 -1.4014
  256TMC3    H2 3938   2.204   2.713  11.125 -0.7881  0.2382 -1.2939
  256TMC3    C7 3939   2.103   2.481  11.129 -0.6658  0.6897 -0.3189
  256TMC3    C8 3940   2.371   2.810  10.947 -1.0858 -0.3159  0.2314
  256TMC3    O1 3941   2.063   2.560  11.208  0.5129 -0.5019 -0.2863
  256TMC3    O2 3942   2.254   2.845  10.932  0.0290 -0.0315 -1.1422
  257MPD2     C 3943   0.834   3.614  13.070  0.4206  1.3742 -0.0612
  257MPD2    C1 3944   0.956   3.685  13.060  0.1671 -0.1793 -0.0850
  257MPD2    C2 3945   1.076   3.616  13.063  0.2276 -0.2586 -0.7044
  257MPD2    C3 3946   1.075   3.480  13.096  0.3199 -0.2020  0.7184
  257MPD2    C4 3947   0.954   3.412  13.108  0.8473  0.0516 -0.0118
  257MPD2    C5 3948   0.835   3.475  13.086 -0.5447  0.2200  0.3687
  257MPD2     H 3949   1.175   3.658  13.048  0.0231  0.8538  1.0936
  257MPD2    H1 3950   0.952   3.307  13.134  1.6945  0.4936  1.8559
  257MPD2    H2 3951   0.740   3.668  13.066 -0.0466  0.6810  1.6520
  257MPD2    H3 3952   0.738   3.429  13.098  0.0688 -1.5416 -1.2728
  257MPD2     N 3953   1.198   3.413  13.114  0.3329  0.6692  0.8512
  257MPD2    H5 3954   1.278   3.460  13.074  2.7484 -2.9016  1.5117
  257MPD2    N1 3955   0.959   3.825  13.027 -0.5873  0.1327  0.2230
  257MPD2    H7 3956   0.873   3.875  13.008 -0.7559 -0.4478 -0.5539
  258TMC3    C1 3957   1.335   3.227  13.130 -0.3187  0.2832 -0.1581
  258TMC3    C2 3958   1.415   3.294  13.044  0.6726 -0.2016  0.0198
  258TMC3    C3 3959   1.548   3.301  13.062 -0.2739 -0.8064 -0.2322
  258TMC3    C4 3960   1.391   3.168  13.244  0.1129 -0.8673  0.0349
  258TMC3    C5 3961   1.520   3.169  13.258  0.4828 -0.6410  0.0521
  258TMC3    C6 3962   1.603   3.237  13.171 -0.5443 -0.0932  0.3680
  258TMC3     C 3963   1.201   3.283  13.156  0.6688  0.0020 -0.5625
  258TMC3     O 3964   1.124   3.212  13.216 -0.3684  1.1317 -0.2668
  258TMC3     H 3965   1.376   3.340  12.953 -0.1480 -0.8181  0.0541
  258TMC3    H1 3966   1.335   3.114  13.319 -2.3679  2.1594  0.3435
  258TMC3    H2 3967   1.710   3.227  13.181 -0.0340  0.7579 -4.4255
  258TMC3    C7 3968   1.577   3.054  13.309 -0.2966 -0.1385  0.2955
  258TMC3    C8 3969   1.638   3.365  12.972  0.0542  0.4954  0.0694
  258TMC3    O1 3970   1.536   2.943  13.283  0.0415 -0.4094  0.0011
  258TMC3    O2 3971   1.732   3.431  13.020 -0.4580  0.1736  0.5836
  259MPD2     C 3972   4.691   1.583   0.727  0.2807 -0.1423  0.1085
  259MPD2    C1 3973   4.636   1.458   0.750 -1.1017 -0.6157  0.3201
  259MPD2    C2 3974   4.607   1.377   0.641  0.3042 -0.2692 -0.2324
  259MPD2    C3 3975   4.636   1.408   0.514 -0.1673 -0.2321  0.0175
  259MPD2    C4 3976   4.698   1.526   0.494 -0.8570  0.0099  0.1575
  259MPD2    C5 3977   4.719   1.617   0.594  0.0202 -0.0758  0.3846
  259MPD2     H 3978   4.554   1.283   0.657 -0.6288 -0.1122 -2.4238
  259MPD2    H1 3979   4.731   1.559   0.396  1.6446  0.1809  1.0403
  259MPD2    H2 3980   4.702   1.658   0.804  0.4018 -0.3682  0.3080
  259MPD2    H3 3981   0.022   1.714   0.572 -0.8782  0.4167  0.8467
  259MPD2     N 3982   4.616   1.311   0.417 -0.5244 -0.3071  0.5050
  259MPD2    H5 3983   4.593   1.217   0.448  0.3468 -0.0637  1.8578
  259MPD2    N1 3984   4.602   1.429   0.884  0.2490  0.5345 -0.3290
  259MPD2    H7 3985   4.637   1.489   0.957 -0.6009 -0.0216  0.5428
  260TMC3    C1 3986   4.626   1.223   0.205 -0.4875  0.0772 -0.4449
  260TMC3    C2 3987   4.677   1.244   0.080 -0.3305 -0.1773 -0.8849
  260TMC3    C3 3988   4.722   1.136   0.011 -0.2110  0.3958 -0.1154
  260TMC3    C4 3989   4.619   1.095   0.260 -0.0186  0.2422 -0.3591
  260TMC3    C5 3990   4.653   0.988   0.174  0.4652  0.2298 -0.1011
  260TMC3    C6 3991   4.707   1.003   0.049  0.1443  0.3410 -0.2929
  260TMC3     C 3992   4.622   1.336   0.283  0.3607  0.5807  0.0367
  260TMC3     O 3993   4.635   1.451   0.233  0.1020 -0.1604  0.3692
  260TMC3     H 3994   4.690   1.343   0.036 -2.5714  0.4534 -0.0888
  260TMC3    H1 3995   4.567   1.074   0.353 -2.9428 -3.0942 -2.7146
  260TMC3    H2 3996   4.724   0.918  17.736 -1.6187  0.5837 -1.0717
  260TMC3    C7 3997   4.619   0.848   0.197  0.0352  0.1629  0.4570
  260TMC3    C8 3998   0.101   1.162  17.678  0.1621  0.3512  0.4243
  260TMC3    O1 3999   4.631   0.757   0.111  0.7456  0.2859  0.1780
  260TMC3    O2 4000   0.132   1.281  17.657 -0.3780  0.4863 -0.1906
  261MPD2     C 4001   2.146   3.862  12.809 -0.1177 -0.1428 -0.1430
  261MPD2    C1 4002   2.239   3.825  12.714  0.7854 -0.2034  0.1725
  261MPD2    C2 4003   2.217   3.865  12.583  0.3256 -0.6358 -0.2632
  261MPD2    C3 4004   2.117   3.961  12.549 -0.4672 -0.2034  0.0106
  261MPD2    C4 4005   2.027   3.989  12.651 -0.0192 -0.1878 -0.0022
  261MPD2    C5 4006   2.031   3.928  12.774  0.3355 -0.3437  0.1677
  261MPD2     H 4007   2.290   3.831  12.511  1.4720 -1.7765  1.4408
  261MPD2    H1 4008   1.946   4.057  12.628  0.1852  0.0500 -0.0225
  261MPD2    H2 4009   2.164   3.828  12.910  1.3434 -0.1652 -0.4026
  261MPD2    H3 4010   1.955   3.965  12.842 -0.6157 -0.1568 -0.9989
  261MPD2     N 4011   2.116   4.024  12.426  0.1866 -0.3067  0.3104
  261MPD2    H5 4012   2.175   3.988  12.352 -0.2217 -1.9726  0.8023
  261MPD2    N1 4013   2.355   3.753  12.752  0.3609  0.1785  0.0912
  261MPD2    H7 4014   2.383   3.757  12.849  1.5779  1.8703 -0.3405
  262TMC3    C1 4015   2.075   4.214  12.271  0.1732 -0.0058  0.5187
  262TMC3    C2 4016   2.008   4.331  12.261  1.0050  0.2227  0.3206
  262TMC3    C3 4017   1.957   4.371  12.132 -0.5164  0.0695  0.6336
  262TMC3    C4 4018   2.104   4.143  12.160 -0.1382 -0.5551  0.2322
  262TMC3    C5 4019   2.067   4.186  12.033 -0.0913 -0.4867 -0.4987
  262TMC3    C6 4020   1.997   4.304  12.015 -0.3683  0.2403  0.3405
  262TMC3     C 4021   2.057   4.149  12.405  0.3300 -0.2078 -0.7272
  262TMC3     O 4022   2.005   4.223  12.484 -0.9867 -0.1971 -0.0569
  262TMC3     H 4023   1.986   4.388  12.350 -1.9584  0.7047 -0.7218
  262TMC3    H1 4024   2.155   4.047  12.165  0.0588 -0.4857 -0.4450
  262TMC3    H2 4025   1.972   4.342  11.916  1.7449  0.1698 -0.2267
  262TMC3    C7 4026   2.115   4.113  11.919  0.5822  0.3351 -0.7127
  262TMC3    C8 4027   1.905   4.508  12.108  0.3995 -0.1319 -0.4941
  262TMC3    O1 4028   2.126   3.996  11.946 -0.1132 -0.1931 -1.4494
  262TMC3    O2 4029   1.926   4.556  11.995  0.0701 -0.0747 -0.1673
  263MPD2     C 4030   3.219   3.316  11.432 -0.2444  0.6695 -0.3920
  263MPD2    C1 4031   3.345   3.266  11.398  0.4610  0.1157 -0.0914
  263MPD2    C2 4032   3.380   3.274  11.263  0.0421 -0.0650  0.3336
  263MPD2    C3 4033   3.303   3.341  11.170  0.0483  1.1758  0.9502
  263MPD2    C4 4034   3.186   3.394  11.210  1.2068 -0.7393  0.4465
  263MPD2    C5 4035   3.144   3.379  11.334 -0.6806 -0.0203  0.0997
  263MPD2     H 4036   3.478   3.233  11.242 -0.2004  0.3169 -1.5779
  263MPD2    H1 4037   3.126   3.461  11.148 -1.4238 -1.9941  1.6472
  263MPD2    H2 4038   3.187   3.319  11.536 -2.3325 -2.3755 -0.9285
  263MPD2    H3 4039   3.050   3.428  11.358 -1.0789 -0.1204 -1.2551
  263MPD2     N 4040   3.346   3.366  11.038  0.4242  0.4215 -0.1608
  263MPD2    H5 4041   3.290   3.423  10.974  0.4004  0.8083  0.2083
  263MPD2    N1 4042   3.424   3.219  11.502  0.7205  0.6927  0.5364
  263MPD2    H7 4043   3.395   3.240  11.597 -2.9234  2.8163 -1.0636
  264TMC3    C1 4044   3.469   3.367  10.850  0.0797  0.1034  0.3493
  264TMC3    C2 4045   3.439   3.496  10.844  0.0816  0.3034 -0.0436
  264TMC3    C3 4046   3.453   3.557  10.724 -0.4789 -0.2302 -0.2239
  264TMC3    C4 4047   3.524   3.295  10.744 -0.5675 -0.6796 -0.5183
  264TMC3    C5 4048   3.551   3.373  10.627 -0.0764 -0.8466  0.1627
  264TMC3    C6 4049   3.502   3.502  10.608  0.2443 -0.0789  0.2074
  264TMC3     C 4050   3.447   3.301  10.976  0.4684  0.2093 -0.4128
  264TMC3     O 4051   3.514   3.208  11.014  0.2188  0.2380 -0.2255
  264TMC3     H 4052   3.420   3.560  10.929 -0.1807  0.9446 -0.5767
  264TMC3    H1 4053   3.555   3.193  10.759  0.2086 -0.3891 -0.1183
  264TMC3    H2 4054   3.509   3.561  10.517 -0.3144  1.4787  1.1598
  264TMC3    C7 4055   3.626   3.322  10.520 -0.1156 -0.6461 -0.1150
  264TMC3    C8 4056   3.429   3.699  10.711 -0.3774  0.3337 -0.4969
  264TMC3    O1 4057   3.680   3.407  10.448 -0.7735 -0.2401  0.0373
  264TMC3    O2 4058   3.491   3.752  10.620 -0.2086  0.0706 -0.6208
  265MPD2     C 4059   4.723   3.406  15.664 -0.0101 -0.0271 -0.4692
  265MPD2    C1 4060   0.067   3.512  15.647  0.7234 -0.5031 -0.3099
  265MPD2    C2 4061   0.187   3.486  15.581  0.4733 -0.0571 -0.1755
  265MPD2    C3 4062   0.227   3.356  15.540  0.9126  0.6042 -0.0612
  265MPD2    C4 4063   0.146   3.250  15.568 -0.6752 -0.0135 -0.1427
  265MPD2    C5 4064   0.030   3.283  15.620  0.8214 -0.0442 -0.2036
  265MPD2     H 4065   0.261   3.562  15.559  2.0551 -0.7383  2.7289
  265MPD2    H1 4066   0.177   3.147  15.551 -0.1525  0.0994  0.1366
  265MPD2    H2 4067   4.625   3.409  15.709 -0.5082  1.1398 -1.6348
  265MPD2    H3 4068   4.694   3.206  15.635  0.6184  0.2280  0.1876
  265MPD2     N 4069   0.354   3.330  15.484 -0.3160  0.1611 -0.0630
  265MPD2    H5 4070   0.377   3.232  15.473 -1.3413  0.1488 -2.0192
  265MPD2    N1 4071   0.036   3.646  15.692 -0.0577 -0.1236 -0.0265
  265MPD2    H7 4072   0.104   3.720  15.682 -3.1996  3.0473  2.1120
  266TMC3    C1 4073   4.681   3.808  15.838  0.2986 -0.3369 -0.4886
  266TMC3    C2 4074   4.644   3.833  15.972  0.0056  0.2392 -0.0231
  266TMC3    C3 4075   4.657   3.965  16.023 -0.0842 -0.2176  0.0669
  266TMC3    C4 4076   4.735   3.906  15.757 -0.8513  0.4494  0.0801
  266TMC3    C5 4077   0.017   4.030  15.812 -0.5732 -0.0650 -0.4585
  266TMC3    C6 4078   4.720   4.057  15.943 -0.0639  0.0310 -0.1181
  266TMC3     C 4079   4.676   3.674  15.786  0.5631  0.5597  0.8002
  266TMC3     O 4080   4.601   3.590  15.836  0.4302 -0.0583 -0.0658
  266TMC3     H 4081   4.610   3.750  16.033 -0.1394  0.4190  0.1415
  266TMC3    H1 4082   0.023   3.889  15.653  1.4424 -0.4824  0.8169
  266TMC3    H2 4083   0.004   4.156  15.981 -3.0703  0.1562  1.3721
  266TMC3    C7 4084   0.039   4.136  15.718 -0.1144  0.4898 -0.4106
  266TMC3    C8 4085   4.705   3.971  16.162  0.0785 -0.0098 -0.5119
  266TMC3    O1 4086   4.722   4.122  15.610  0.5243  0.6489 -0.0171
  266TMC3    O2 4087   0.011   3.867  16.216  0.1890  0.3127 -0.1931
  267MPD2     C 4088   2.386   1.704   0.077  0.3848 -0.4212  0.3079
  267MPD2    C1 4089   2.322   1.579   0.088  0.0860 -0.3480 -0.3099
  267MPD2    C2 4090   2.194   1.552   0.037 -0.4543  0.4682 -0.1322
  267MPD2    C3 4091   2.141   1.659  17.711  0.0593 -0.7532  0.0398
  267MPD2    C4 4092   2.198   1.782  17.708  0.1902  0.2175 -0.1592
  267MPD2    C5 4093   2.319   1.804   0.020  0.4834 -0.0262 -0.0468
  267MPD2     H 4094   2.148   1.454   0.045  1.9821 -0.7157 -0.5288
  267MPD2    H1 4095   2.159   1.864  17.649  0.6125  1.5880  1.4662
  267MPD2    H2 4096   2.487   1.710   0.116  2.2925 -0.0356 -4.6250
  267MPD2    H3 4097   2.363   1.900  17.749 -1.2892  0.7542 -0.1725
  267MPD2     N 4098   2.027   1.639  17.627 -0.4602 -0.3361 -0.6215
  267MPD2    H5 4099   2.012   1.705  17.551  0.9947  0.0515 -0.5823
  267MPD2    N1 4100   2.397   1.471   0.144  0.3507  0.2346  0.6186
  267MPD2    H7 4101   2.496   1.488   0.156  0.2040  0.4324  1.5580
  268TMC3    C1 4102   2.451   1.249   0.216 -0.0875 -0.2342 -0.7283
  268TMC3    C2 4103   2.573   1.246   0.145 -0.3010  0.1958 -0.6914
  268TMC3    C3 4104   2.664   1.143   0.165  0.0356 -1.2944  0.0970
  268TMC3    C4 4105   2.420   1.157   0.310  0.4604 -0.8163  0.3292
  268TMC3    C5 4106   2.516   1.058   0.331  0.0430  0.1983  0.9369
  268TMC3    C6 4107   2.634   1.047   0.258  0.3444 -0.1116 -0.1408
  268TMC3     C 4108   2.348   1.349   0.183  0.0794 -0.7845 -0.1455
  268TMC3     O 4109   2.232   1.314   0.201  0.0207  0.4216  0.1923
  268TMC3     H 4110   2.597   1.310   0.060 -0.6217  2.1739  0.7206
  268TMC3    H1 4111   2.326   1.152   0.364 -1.0914  0.8411 -2.1655
  268TMC3    H2 4112   2.695   0.958   0.270  1.7581  0.8530 -0.2227
  268TMC3    C7 4113   2.521   0.976   0.451 -0.3663 -0.1178  0.1742
  268TMC3    C8 4114   2.773   1.115   0.068  0.5792  0.3899  0.6653
  268TMC3    O1 4115   2.601   0.882   0.458 -0.0772 -0.2371 -0.7705
  268TMC3    O2 4116   2.854   1.030   0.110 -0.0833  0.4206  0.7557
  269MPD2     C 4117   2.772   3.907  15.621  0.3658 -0.3712  0.1668
  269MPD2    C1 4118   2.638   3.920  15.646  0.2324 -0.9094  0.4162
  269MPD2    C2 4119   2.573   4.041  15.633  0.0795 -0.5611  0.1929
  269MPD2    C3 4120   2.646   4.158  15.603 -0.2201  0.3971  0.1552
  269MPD2    C4 4121   2.785   4.141  15.589  0.2589  0.9722  0.1072
  269MPD2    C5 4122   2.849   4.018  15.603 -0.4414 -0.8354 -0.5615
  269MPD2     H 4123   2.466   4.052  15.631  0.1994  0.4041 -0.9396
  269MPD2    H1 4124   2.847   4.222  15.556  0.1793  0.4322 -1.3624
  269MPD2    H2 4125   2.821   3.812  15.633 -1.9675 -1.2440  2.6872
  269MPD2    H3 4126   2.956   4.011  15.586 -0.0750 -1.1827  1.9048
  269MPD2     N 4127   2.579   4.279  15.590  0.1944  0.1451  0.2730
  269MPD2    H5 4128   2.478   4.275  15.598  0.1037 -0.0684 -0.9521
  269MPD2    N1 4129   2.565   3.800  15.676  0.2941 -0.3226 -0.6766
  269MPD2    H7 4130   2.628   3.720  15.678 -1.2170 -1.5830 -3.3653
  270TMC3    C1 4131   2.398   3.646  15.702 -0.4994 -0.3047 -0.6560
  270TMC3    C2 4132   2.274   3.606  15.662 -0.5074 -0.2276 -0.1470
  270TMC3    C3 4133   2.244   3.477  15.628  0.8610  0.1655 -0.4079
  270TMC3    C4 4134   2.494   3.554  15.730  0.4466  0.2411 -0.4543
  270TMC3    C5 4135   2.461   3.423  15.721  0.1809 -0.1165  0.0981
  270TMC3    C6 4136   2.341   3.384  15.657 -0.0551 -0.2981 -0.6745
  270TMC3     C 4137   2.428   3.782  15.679 -0.1461  0.5634 -0.8888
  270TMC3     O 4138   2.336   3.863  15.678 -0.0607 -0.2529 -0.0014
  270TMC3     H 4139   2.197   3.678  15.640 -0.2174 -0.0218 -0.4841
  270TMC3    H1 4140   2.589   3.577  15.776 -0.6882  1.6432  1.1699
  270TMC3    H2 4141   2.316   3.279  15.647  2.3450 -1.0401  0.9457
  270TMC3    C7 4142   2.565   3.320  15.740 -0.8190 -0.1803 -0.0558
  270TMC3    C8 4143   2.152   3.462  15.521  0.0121 -0.3470 -0.3113
  270TMC3    O1 4144   2.677   3.356  15.708  0.1047  0.1883 -0.0749
  270TMC3    O2 4145   2.057   3.540  15.508 -0.2240 -0.0361  0.2822
  271MPD2     C 4146   2.109   3.824  13.800  0.2066  0.7560 -0.3241
  271MPD2    C1 4147   2.027   3.762  13.894 -0.1514  0.1834 -0.2338
  271MPD2    C2 4148   1.891   3.794  13.896 -0.7079  0.7329 -0.2558
  271MPD2    C3 4149   1.834   3.852  13.785 -0.2587  0.5811  0.2773
  271MPD2    C4 4150   1.920   3.912  13.697  0.1155 -0.1030 -0.6454
  271MPD2    C5 4151   2.054   3.895  13.707 -0.6307  0.3286  0.5202
  271MPD2     H 4152   1.833   3.752  13.977  0.1658  1.7625  0.9012
  271MPD2    H1 4153   1.881   3.979  13.622  1.1437 -0.2875 -1.3429
  271MPD2    H2 4154   2.217   3.817  13.800  0.0171 -2.5607  1.0132
  271MPD2    H3 4155   2.121   3.942  13.637 -0.7705  1.5662  1.2231
  271MPD2     N 4156   1.694   3.876  13.770  0.1508  0.4081  0.0471
  271MPD2    H5 4157   1.672   3.948  13.703  1.8729  0.4835 -0.4318
  271MPD2    N1 4158   2.075   3.687  14.005 -0.4869 -0.3339  0.3901
  271MPD2    H7 4159   2.007   3.644  14.067 -0.7399 -0.9972 -0.3423
  272TMC3    C1 4160   2.238   3.596  14.161  0.1918 -0.5369 -0.5926
  272TMC3    C2 4161   2.363   3.537  14.179 -0.1151  0.6568  0.1312
  272TMC3    C3 4162   2.393   3.482  14.300 -0.3884 -0.3388 -0.0712
  272TMC3    C4 4163   2.144   3.597  14.257  0.4491 -0.3290  0.0820
  272TMC3    C5 4164   2.179   3.548  14.383 -0.7961  0.1421 -0.0964
  272TMC3    C6 4165   2.307   3.493  14.403 -0.2742  0.1701 -0.3437
  272TMC3     C 4166   2.210   3.653  14.028 -0.2199  0.1655  0.7374
  272TMC3     O 4167   2.306   3.689  13.962 -0.5420 -0.1486 -0.0626
  272TMC3     H 4168   2.434   3.526  14.098 -2.3853 -2.9296 -1.3411
  272TMC3    H1 4169   2.042   3.628  14.238  0.2540 -0.4790  0.8603
  272TMC3    H2 4170   2.327   3.467  14.506 -0.9417  1.0597  0.0114
  272TMC3    C7 4171   2.092   3.583  14.489  0.5669 -0.2589  0.2629
  272TMC3    C8 4172   2.536   3.487  14.327  0.8304 -0.1797  0.3144
  272TMC3    O1 4173   1.973   3.594  14.467  0.0700 -0.0093  0.2347
  272TMC3    O2 4174   2.601   3.580  14.286  0.0420  0.0564 -0.7336
  273MPD2     C 4175   3.814   2.109  11.818  0.4894  0.5231 -0.1297
  273MPD2    C1 4176   3.942   2.102  11.843 -0.2843 -0.9708 -0.0895
  273MPD2    C2 4177   4.037   2.171  11.764  0.2456 -0.3084 -0.1855
  273MPD2    C3 4178   4.006   2.226  11.639  0.0821 -0.4171 -0.0816
  273MPD2    C4 4179   3.871   2.218  11.606 -0.0774  0.3842  0.2523
  273MPD2    C5 4180   3.783   2.157  11.692  0.7882 -0.5608 -0.9244
  273MPD2     H 4181   4.140   2.185  11.795  0.2327 -0.9383  0.1539
  273MPD2    H1 4182   3.825   2.271  11.522 -1.7295 -1.9081 -0.2894
  273MPD2    H2 4183   3.730   2.070  11.874  0.8726 -0.8513 -0.5284
  273MPD2    H3 4184   3.678   2.155  11.664  0.3627 -0.7110  0.6490
  273MPD2     N 4185   4.097   2.293  11.560  0.0235  0.0739 -0.2352
  273MPD2    H5 4186   4.065   2.357  11.488 -0.5874 -0.1334 -0.1455
  273MPD2    N1 4187   3.974   2.035  11.961  0.0418  0.3494  0.1736
  273MPD2    H7 4188   3.901   1.992  12.019  1.1070  0.5437  1.6632
  274TMC3    C1 4189   4.294   2.380  11.462 -0.0436 -0.3131  0.0914
  274TMC3    C2 4190   4.251   2.347  11.336  0.4692 -0.4837  0.4920
  274TMC3    C3 4191   4.300   2.424  11.230  0.3840 -0.8614  0.9317
  274TMC3    C4 4192   4.383   2.478  11.484 -0.1644  0.3817  0.4043
  274TMC3    C5 4193   4.431   2.551  11.375  0.5270  0.3052  0.0756
  274TMC3    C6 4194   4.389   2.528  11.247  0.8627 -0.1402  0.0527
  274TMC3     C 4195   4.234   2.302  11.573  0.7162 -0.1211 -0.0986
  274TMC3     O 4196   4.303   2.259  11.662  0.0159  0.5351 -0.2207
  274TMC3     H 4197   4.160   2.288  11.326 -0.8098  1.1294  2.6650
  274TMC3    H1 4198   4.411   2.515  11.582  0.3959 -0.3356  0.5123
  274TMC3    H2 4199   4.403   2.608  11.175 -0.8858 -0.7144 -0.9187
  274TMC3    C7 4200   4.457   2.690  11.390 -0.2508  0.3424  0.5298
  274TMC3    C8 4201   4.220   2.418  11.117  0.4323  0.6352  0.8307
  274TMC3    O1 4202   4.517   2.751  11.303  0.0946  0.2623  0.8152
  274TMC3    O2 4203   4.109   2.366  11.125 -0.1480  0.0638  0.0539
  275MPD2     C 4204   3.588   4.626  14.512  0.3446 -0.1026  0.2043
  275MPD2    C1 4205   3.516   4.730  14.553 -0.1406 -0.1427 -0.4567
  275MPD2    C2 4206   3.391   4.708  14.586  0.9510 -0.0316 -0.0240
  275MPD2    C3 4207   3.332   4.578  14.571 -0.7005  0.2843 -0.6395
  275MPD2    C4 4208   3.411   4.478  14.515  0.8264  0.4925 -0.1925
  275MPD2    C5 4209   3.541   4.504  14.479  0.0813  0.5422  1.0273
  275MPD2     H 4210   3.341   0.055  14.629 -2.1116 -1.2677 -1.1571
  275MPD2    H1 4211   3.372   4.377  14.509 -0.5215  0.9242  1.4842
  275MPD2    H2 4212   3.695   4.645  14.503  0.1705  0.0151 -1.6386
  275MPD2    H3 4213   3.620   4.434  14.454  1.0865  1.0142  2.8321
  275MPD2     N 4214   3.202   4.541  14.606 -0.0062  0.3712 -0.0251
  275MPD2    H5 4215   3.171   4.445  14.610  1.8381 -0.2092  0.4573
  275MPD2    N1 4216   3.563   0.113  14.591  0.3814 -0.3078 -0.6809
  275MPD2    H7 4217   3.490   0.171  14.632  1.6790 -1.6908  3.5684
  276TMC3    C1 4218   3.702   0.277  14.686  0.3921 -0.0190  0.3113
  276TMC3    C2 4219   3.578   0.314  14.743  0.4411  0.1203 -0.2958
  276TMC3    C3 4220   3.560   0.299  14.878  0.2011 -0.1739  0.2315
  276TMC3    C4 4221   3.806   0.261  14.777 -0.3759  0.8068  0.2550
  276TMC3    C5 4222   3.780   0.257  14.910  0.2918 -0.0484 -0.3956
  276TMC3    C6 4223   3.654   0.274  14.964 -0.0090 -0.3478  0.6921
  276TMC3     C 4224   3.697   0.163  14.599  0.0465  0.4289  0.3057
  276TMC3     O 4225   3.801   0.115  14.558  0.2326  0.2436  0.1766
  276TMC3     H 4226   3.491   0.349  14.688  0.2894 -1.5630 -1.1179
  276TMC3    H1 4227   3.901   0.224  14.739 -0.8906  0.9234 -1.1250
  276TMC3    H2 4228   3.647   0.279  15.072 -0.2018 -2.6396  0.7782
  276TMC3    C7 4229   3.887   0.250  15.009  0.2783  0.8213 -0.3783
  276TMC3    C8 4230   3.445   0.230  14.912  0.1097 -0.1765 -0.1770
  276TMC3    O1 4231   3.853   0.219  15.123 -0.4745 -0.1130  0.5818
  276TMC3    O2 4232   3.349   0.245  14.839  0.2216 -0.7576  0.1146
  277MPD2     C 4233   0.679   3.812  13.326  0.1131 -0.4060 -0.0432
  277MPD2    C1 4234   0.540   3.801  13.328  0.1596 -0.3694 -0.4961
  277MPD2    C2 4235   0.481   3.711  13.424 -0.3882 -0.5428 -0.0771
  277MPD2    C3 4236   0.569   3.651  13.516 -1.0408  1.0472 -0.2789
  277MPD2    C4 4237   0.703   3.670  13.518 -0.1800 -0.2258  0.4537
  277MPD2    C5 4238   0.757   3.756  13.425 -0.3407  0.5191 -0.0020
  277MPD2     H 4239   0.378   3.680  13.434  0.0845 -2.4454 -0.9546
  277MPD2    H1 4240   0.768   3.620  13.589  0.4702  1.5828  1.1342
  277MPD2    H2 4241   0.736   3.871  13.255  1.8695 -2.7434 -0.6023
  277MPD2    H3 4242   0.865   3.752  13.424 -0.4481 -1.4405 -1.9597
  277MPD2     N 4243   0.507   3.566  13.608  0.4898  0.3442  0.3050
  277MPD2    H5 4244   0.415   3.530  13.587  1.6574 -1.3378 -1.7997
  277MPD2    N1 4245   0.467   3.874  13.228 -0.0981 -0.1583 -0.3135
  277MPD2    H7 4246   0.525   3.924  13.161  2.3250 -3.4083 -0.7046
  278TMC3    C1 4247   0.508   3.410  13.779 -0.0569 -0.4943 -0.1703
  278TMC3    C2 4248   0.456   3.318  13.690 -0.8994 -0.4449  0.1074
  278TMC3    C3 4249   0.413   3.200  13.748  0.2145 -0.0036 -0.2300
  278TMC3    C4 4250   0.500   3.398  13.909  1.0633 -0.0824  0.0009
  278TMC3    C5 4251   0.463   3.281  13.962  0.6415  0.2217  0.1853
  278TMC3    C6 4252   0.418   3.176  13.881  0.2355 -0.4641  0.5418
  278TMC3     C 4253   0.564   3.537  13.729 -0.3466  0.2405  0.0621
  278TMC3     O 4254   0.649   3.598  13.794  0.3950  0.7207  0.7548
  278TMC3     H 4255   0.479   3.310  13.585 -1.1248  1.5974 -0.1019
  278TMC3    H1 4256   0.532   3.476  13.977  0.7648 -0.2068  0.2826
  278TMC3    H2 4257   0.407   3.072  13.912  2.2005 -0.4222  1.3430
  278TMC3    C7 4258   0.377   3.304  14.073 -0.7540 -0.6697  0.9505
  278TMC3    C8 4259   0.392   3.082  13.658 -0.0265  0.2989  0.3294
  278TMC3    O1 4260   0.403   3.405  14.144 -0.1725 -0.0945 -0.1461
  278TMC3    O2 4261   0.381   2.967  13.700 -0.2932 -0.4587 -0.1643
  279MPD2     C 4262   4.133   3.550   0.485  0.0413 -0.0536 -0.4283
  279MPD2    C1 4263   4.117   3.688   0.504 -0.1993 -0.0512 -0.6481
  279MPD2    C2 4264   4.102   3.779   0.397 -0.3879  0.4585  0.0567
  279MPD2    C3 4265   4.085   3.728   0.268 -0.0056  0.6879 -0.9106
  279MPD2    C4 4266   4.090   3.588   0.251 -0.1970  0.6527 -0.2307
  279MPD2    C5 4267   4.119   3.504   0.358 -0.1828  0.3665 -0.2111
  279MPD2     H 4268   4.087   3.885   0.415 -1.1989  0.8400 -2.8967
  279MPD2    H1 4269   4.081   3.552   0.149  1.7132 -1.8575  0.4935
  279MPD2    H2 4270   4.145   3.481   0.567  1.2252  0.4962 -0.1470
  279MPD2    H3 4271   4.130   3.398   0.336 -1.1051  0.3151 -0.4391
  279MPD2     N 4272   4.063   3.808   0.157 -0.4388 -0.3214 -1.1757
  279MPD2    H5 4273   4.029   3.769   0.070  0.4130 -3.1094 -0.2673
  279MPD2    N1 4274   4.128   3.730   0.631 -0.7107  0.5997  0.0109
  279MPD2    H7 4275   4.181   3.672   0.696  0.6338  3.5238  1.5537
  280TMC3    C1 4276   3.951   3.890   0.618 -0.4865 -0.6179  0.0601
  280TMC3    C2 4277   3.858   3.791   0.599 -0.1441 -0.0496  0.2819
  280TMC3    C3 4278   3.728   3.828   0.567  0.2585 -0.7155  0.4545
  280TMC3    C4 4279   3.917   4.020   0.624  0.2405 -0.5361 -0.8787
  280TMC3    C5 4280   3.784   4.052   0.596 -0.5039  1.0804 -0.9057
  280TMC3    C6 4281   3.694   3.959   0.561  0.1960  0.2984 -0.0854
  280TMC3     C 4282   4.087   3.855   0.668 -0.6704  0.8261  0.3732
  280TMC3     O 4283   4.134   3.923   0.758  0.4433  0.1695  0.0326
  280TMC3     H 4284   3.876   3.685   0.614 -0.2199  0.0644  1.2082
  280TMC3    H1 4285   3.995   4.089   0.653  0.3269  0.1211 -2.6783
  280TMC3    H2 4286   3.592   3.994   0.550  2.0796  5.3606 -1.3932
  280TMC3    C7 4287   3.759   4.191   0.577  0.7696 -0.3056  0.2242
  280TMC3    C8 4288   3.666   3.762   0.448 -0.5028 -0.4917  0.2704
  280TMC3    O1 4289   3.854   4.262   0.611 -0.0751  0.4785  0.3890
  280TMC3    O2 4290   3.574   3.818   0.394  0.3335  0.0570 -0.3825
  281TMC3    C1 4291   3.468   4.059  13.862 -0.2812  0.4547  0.5445
  281TMC3    C2 4292   3.550   4.120  13.774  0.3728 -0.0643 -0.8753
  281TMC3    C3 4293   3.528   4.090  13.640 -0.1309  0.5678  0.4514
  281TMC3    C4 4294   3.392   3.949  13.818  0.1204  0.1766 -0.2059
  281TMC3    C5 4295   3.389   3.912  13.690 -0.1698 -0.2914 -0.4354
  281TMC3    C6 4296   3.454   3.982  13.598  0.0282 -0.5391  0.5735
  281TMC3     C 4297   3.408   4.127  13.972 -0.1916 -0.1373 -0.4106
  281TMC3     O 4298   3.348   4.062  14.056  0.0702 -0.4340 -0.5070
  281TMC3     H 4299   3.611   4.203  13.809  1.5016 -1.8739  1.4550
  281TMC3    H1 4300   3.336   3.887  13.888 -0.1932  0.5622 -0.1156
  281TMC3    H2 4301   3.465   3.958  13.492 -0.8963 -0.4809  0.4632
  281TMC3    C7 4302   3.286   3.826  13.639  1.0863 -0.7291  0.0388
  281TMC3    C8 4303   3.515   4.202  13.544 -1.1111 -0.4571 -0.4934
  281TMC3    O1 4304   3.232   3.861  13.533  0.3494 -0.3308 -0.2518
  281TMC3    O2 4305   3.466   4.176  13.438  0.0550  0.1192  0.3139
  282MPD2     C 4306   0.398   0.601  15.466 -0.2577 -0.3146  0.4052
  282MPD2    C1 4307   0.287   0.683  15.444 -0.1460 -0.0485 -0.0922
  282MPD2    C2 4308   0.248   0.718  15.312  0.4161  0.1668 -0.4609
  282MPD2    C3 4309   0.310   0.657  15.202 -0.6597 -0.0388  0.3740
  282MPD2    C4 4310   0.423   0.586  15.227 -0.2401  0.2241 -0.4156
  282MPD2    C5 4311   0.467   0.562  15.355  0.3675  0.0439  0.4603
  282MPD2     H 4312   0.151   0.764  15.297  1.2178  2.3330  1.0916
  282MPD2    H1 4313   0.482   0.559  15.140 -1.1621  0.8805 -1.2459
  282MPD2    H2 4314   0.434   0.577  15.566  0.8297 -2.9945 -0.6234
  282MPD2    H3 4315   0.558   0.505  15.371 -0.0768 -0.8010 -0.0136
  282MPD2     N 4316   0.257   0.678  15.066 -0.6242  0.8071 -0.0004
  282MPD2    H5 4317   0.184   0.749  15.064  0.1285  1.6847  3.4000
  282MPD2    N1 4318   0.219   0.732  15.558  0.4737  0.4173 -0.2610
  282MPD2    H7 4319   0.167   0.816  15.536  1.1983  0.8920 -0.1816
  283TMC3    C1 4320   0.156   0.765  15.791 -0.0263  0.0300  0.0972
  283TMC3    C2 4321   0.120   0.894  15.769 -0.4405 -0.2150  0.3837
  283TMC3    C3 4322   0.021   0.949  15.845  0.4992 -0.1129  0.6446
  283TMC3    C4 4323   0.107   0.686  15.888  0.4277  0.2376  0.0818
  283TMC3    C5 4324   0.002   0.740  15.956 -0.6506 -0.5996  0.0934
  283TMC3    C6 4325   4.697   0.870  15.937 -0.0914  0.4713  0.2783
  283TMC3     C 4326   0.240   0.696  15.693 -0.3356  0.3751  0.5380
  283TMC3     O 4327   0.286   0.588  15.726 -0.6803 -0.2400 -0.2138
  283TMC3     H 4328   0.163   0.953  15.689 -0.5472  0.6802  0.9856
  283TMC3    H1 4329   0.146   0.587  15.909 -1.7215 -0.4957  0.5953
  283TMC3    H2 4330   4.616   0.904  16.001 -0.4840 -3.4137  1.8278
  283TMC3    C7 4331   4.628   0.658  16.000  0.1725 -0.3565  0.0649
  283TMC3    C8 4332   0.003   1.090  15.857 -0.3484 -0.4444  0.0748
  283TMC3    O1 4333   4.549   0.697  16.086  0.4621 -0.1172  0.1833
  283TMC3    O2 4334   4.646   1.123  15.928 -0.0697  0.5733  0.4241
  284MPD2     C 4335   2.934   4.602  11.617  0.1209 -0.1531  0.2370
  284MPD2    C1 4336   3.029   4.589  11.513  0.3870 -0.0060  0.4020
  284MPD2    C2 4337   3.047   4.463  11.453 -0.1324  0.6448  0.6310
  284MPD2    C3 4338   2.967   4.355  11.492 -0.4539 -0.1803  0.4865
  284MPD2    C4 4339   2.867   4.373  11.583  0.3389 -0.1424  0.3354
  284MPD2    C5 4340   2.852   4.495  11.641 -0.2710  0.1475  0.4909
  284MPD2     H 4341   3.133   4.449  11.388 -1.6120 -0.3900 -1.1004
  284MPD2    H1 4342   2.797   4.301  11.622  2.1165 -1.5107  0.9789
  284MPD2    H2 4343   2.927   4.697  11.668  0.7101  0.4595 -0.8297
  284MPD2    H3 4344   2.764   4.519  11.701 -0.4948 -0.8795  0.5629
  284MPD2     N 4345   2.990   4.224  11.452 -0.5704 -0.1835 -0.0899
  284MPD2    H5 4346   2.936   4.148  11.493 -1.4721  0.0294 -0.8879
  284MPD2    N1 4347   3.140   4.681  11.482 -0.2342 -0.4730 -0.2436
  284MPD2    H7 4348   3.204   4.657  11.407  0.3617  2.6422 -0.7238
  285TMC3    C1 4349   3.273   0.141  11.506  0.0974 -0.0379  0.0999
  285TMC3    C2 4350   3.369   0.094  11.420 -0.4497  0.7763 -0.0580
  285TMC3    C3 4351   3.475   0.176  11.384  0.2679  0.2694 -0.2913
  285TMC3    C4 4352   3.281   0.274  11.546  1.0987  0.0288  0.5958
  285TMC3    C5 4353   3.396   0.342  11.515 -0.3373 -0.4903 -1.1628
  285TMC3    C6 4354   3.490   0.299  11.431 -0.1824  0.9024 -0.2123
  285TMC3     C 4355   3.157   0.064  11.544 -0.2859 -0.9776 -0.7953
  285TMC3     O 4356   3.096   0.113  11.635 -0.2750 -0.8941  0.1364
  285TMC3     H 4357   3.361   4.732  11.381  0.0919  0.2285  1.2083
  285TMC3    H1 4358   3.194   0.316  11.594 -1.5630  0.0064 -4.1758
  285TMC3    H2 4359   3.572   0.360  11.396 -0.4675  2.0764  1.1695
  285TMC3    C7 4360   3.415   0.469  11.575 -0.0809 -0.5481 -0.2579
  285TMC3    C8 4361   3.536   0.140  11.258  0.2894  0.3332 -0.3484
  285TMC3    O1 4362   3.321   0.550  11.585 -0.2403  0.3408  1.0783
  285TMC3    O2 4363   3.526   0.025  11.222  0.2018  0.0392 -0.4388
  286MPD2     C 4364   2.814   3.632   1.023 -0.0322  0.0678 -0.4337
  286MPD2    C1 4365   2.931   3.659   1.094 -0.0927  0.1334 -0.6593
  286MPD2    C2 4366   3.024   3.560   1.112  0.7128  0.2737 -0.2902
  286MPD2    C3 4367   2.994   3.430   1.068 -1.2030  0.0703  0.2295
  286MPD2    C4 4368   2.880   3.395   1.003 -0.2164 -0.1090  0.2690
  286MPD2    C5 4369   2.803   3.503   0.969 -0.0979 -0.4990 -0.1986
  286MPD2     H 4370   3.116   3.588   1.162  0.6123  0.6595 -0.3264
  286MPD2    H1 4371   2.858   3.303   0.950  2.2257  0.1032 -1.0817
  286MPD2    H2 4372   2.744   3.707   0.989  1.5938  1.6022 -0.4223
  286MPD2    H3 4373   2.722   3.491   0.899 -0.5184  0.4722  0.1283
  286MPD2     N 4374   3.086   3.317   1.085  0.2015  0.3677 -0.5842
  286MPD2    H5 4375   3.060   3.227   1.048  1.6071 -0.7989  1.2587
  286MPD2    N1 4376   2.980   3.792   1.126 -0.2361 -0.2115 -0.1363
  286MPD2    H7 4377   3.067   3.803   1.178 -1.3334 -0.0019  1.6682
  287TMC3    C1 4378   3.306   3.223   1.096 -0.1089 -0.1956 -0.9811
  287TMC3    C2 4379   3.278   3.166   0.971 -0.4577 -0.5696 -0.6601
  287TMC3    C3 4380   3.392   3.136   0.896 -0.3085 -0.0227 -0.5827
  287TMC3    C4 4381   3.428   3.245   1.153 -0.6426 -0.1327 -0.1394
  287TMC3    C5 4382   3.535   3.215   1.071  0.2789  0.0952  0.4725
  287TMC3    C6 4383   3.518   3.154   0.946  0.1070  0.3469 -0.1617
  287TMC3     C 4384   3.213   3.329   1.131  0.3375  0.0409 -0.3592
  287TMC3     O 4385   3.256   3.416   1.209  0.6123  0.2489  0.4006
  287TMC3     H 4386   3.172   3.163   0.947 -0.5584 -0.0880 -0.2850
  287TMC3    H1 4387   3.434   3.282   1.255 -1.1287 -4.0935  1.3300
  287TMC3    H2 4388   3.607   3.138   0.886  0.4133  0.4863  0.2511
  287TMC3    C7 4389   3.675   3.225   1.116 -0.7179 -0.6173 -0.0832
  287TMC3    C8 4390   3.377   3.040   0.791 -0.1491  0.0587 -0.5941
  287TMC3    O1 4391   3.757   3.151   1.069  0.7024  0.3847  0.3830
  287TMC3    O2 4392   3.474   2.981   0.754 -0.2799  0.3066 -0.3938
  288TMC3    C1 4393   0.558   3.491  14.485  0.2576 -0.3834 -0.0621
  288TMC3    C2 4394   0.541   3.486  14.621 -0.2151 -0.0459  0.3168
  288TMC3    C3 4395   0.441   3.558  14.674 -0.2644 -0.3785  0.0515
  288TMC3    C4 4396   0.480   3.567  14.406  0.3330  0.0954  0.7115
  288TMC3    C5 4397   0.390   3.649  14.465 -0.0754  0.0247  0.2971
  288TMC3    C6 4398   0.373   3.649  14.600  0.2060  0.5767  0.4869
  288TMC3     C 4399   0.663   3.415  14.431  0.1777  0.3129  0.3277
  288TMC3     O 4400   0.693   3.310  14.491  0.1159 -0.6753 -0.1367
  288TMC3     H 4401   0.599   3.421  14.687  0.9162  0.1742 -0.4493
  288TMC3    H1 4402   0.498   3.555  14.300  1.1760 -0.8276  0.9468
  288TMC3    H2 4403   0.298   3.712  14.646 -1.5344 -0.7823 -0.5355
  288TMC3    C7 4404   0.275   3.707  14.392 -0.4492  0.2013 -0.2895
  288TMC3    C8 4405   0.384   3.531  14.808 -0.1740 -0.8254  0.0079
  288TMC3    O1 4406   0.169   3.711  14.443  0.0103 -0.7707  0.1465
  288TMC3    O2 4407   0.315   3.621  14.854  0.2582 -0.8392  0.0533
  289MPD2     C 4408   0.656   2.218  15.134 -0.1915  0.1613  0.4354
  289MPD2    C1 4409   0.698   2.331  15.073 -0.6134 -0.5831 -0.6684
  289MPD2    C2 4410   0.638   2.357  14.955  1.0182 -0.2635 -0.2128
  289MPD2    C3 4411   0.528   2.286  14.904 -0.5419 -0.0634 -0.4645
  289MPD2    C4 4412   0.487   2.173  14.974  0.3818  0.2794 -0.4475
  289MPD2    C5 4413   0.564   2.132  15.080 -0.0033  0.5632  0.1433
  289MPD2     H 4414   0.676   2.437  14.892  0.9236  0.5075  0.7121
  289MPD2    H1 4415   0.402   2.120  14.935  1.0165 -1.1093  0.0737
  289MPD2    H2 4416   0.688   2.199  15.236 -1.3288 -0.9435  0.5894
  289MPD2    H3 4417   0.528   2.045  15.134 -1.9633  0.9139 -0.5804
  289MPD2     N 4418   0.455   2.320  14.795  0.3480  0.6122 -0.3523
  289MPD2    H5 4419   0.375   2.261  14.774  0.2102  0.8660 -0.5490
  289MPD2    N1 4420   0.807   2.406  15.124 -0.7196  0.7375 -0.3480
  289MPD2    H7 4421   0.824   2.381  15.220 -2.9355 -0.3757 -0.2432
  290TMC3    C1 4422   0.365   2.447  14.623  0.4144 -0.2981 -0.0606
  290TMC3    C2 4423   0.344   2.577  14.577  0.2171  0.1779  0.1698
  290TMC3    C3 4424   0.283   2.598  14.460  0.5239  0.0225 -0.2299
  290TMC3    C4 4425   0.319   2.340  14.552  0.7581  0.1256 -0.1924
  290TMC3    C5 4426   0.252   2.363  14.432  0.2989  0.2701  0.3643
  290TMC3    C6 4427   0.226   2.494  14.388  0.2554  0.0756 -0.3442
  290TMC3     C 4428   0.479   2.417  14.708 -0.2368  0.0105 -0.3912
  290TMC3     O 4429   0.575   2.492  14.694 -0.4743 -0.2779  0.4025
  290TMC3     H 4430   0.388   2.662  14.629  0.0902  0.4607 -0.1820
  290TMC3    H1 4431   0.354   2.242  14.584 -0.7643  0.0937  1.3991
  290TMC3    H2 4432   0.166   2.507  14.299 -1.3510 -0.2619  0.6713
  290TMC3    C7 4433   0.170   2.263  14.370 -1.0294  0.4490 -0.2269
  290TMC3    C8 4434   0.284   2.738  14.419 -0.5499 -0.6067 -0.2262
  290TMC3    O1 4435   0.108   2.298  14.270  0.0472  0.9116  0.7982
  290TMC3    O2 4436   0.310   2.766  14.300  0.6853  0.3913 -0.3793
  291MPD2     C 4437   3.766   2.617   0.130 -0.2471 -0.9528  0.8777
  291MPD2    C1 4438   3.879   2.540   0.166 -0.7854  0.6976  0.5545
  291MPD2    C2 4439   4.003   2.606   0.171  0.2881 -0.6582 -0.4472
  291MPD2    C3 4440   4.014   2.738   0.136 -0.0858  0.0009  0.2370
  291MPD2    C4 4441   3.899   2.807   0.106  0.1140  0.9727  0.0381
  291MPD2    C5 4442   3.776   2.749   0.105  0.4252 -0.3425  0.7367
  291MPD2     H 4443   4.087   2.551   0.210  0.4134  1.1523  1.8728
  291MPD2    H1 4444   3.900   2.915   0.098 -1.6656  1.0186  0.3393
  291MPD2    H2 4445   3.665   2.579   0.116 -1.2351  1.2088  2.1520
  291MPD2    H3 4446   3.690   2.811   0.087 -0.9622 -1.7236  2.6874
  291MPD2     N 4447   4.135   2.809   0.134  0.1669  0.3591 -0.7802
  291MPD2    H5 4448   4.127   2.902   0.095  3.4486  0.1656 -1.8903
  291MPD2    N1 4449   3.855   2.414   0.223  0.0069  0.4956 -0.5405
  291MPD2    H7 4450   3.928   2.376   0.282 -1.1524  0.2286  0.7193
  292TMC3    C1 4451   3.777   2.195   0.241  0.2914 -0.7430 -0.5475
  292TMC3    C2 4452   3.833   2.202   0.365 -0.2254 -0.5629  0.2462
  292TMC3    C3 4453   3.825   2.094   0.444  0.5810  0.9893  0.0644
  292TMC3    C4 4454   3.726   2.080   0.189 -0.6979  0.1610 -0.8391
  292TMC3    C5 4455   3.732   1.969   0.267  0.3218  0.2723 -0.0320
  292TMC3    C6 4456   3.786   1.974   0.392  0.1400  0.6680  0.0324
  292TMC3     C 4457   3.763   2.327   0.175  0.3108  0.5165 -0.2418
  292TMC3     O 4458   3.677   2.345   0.092  0.2024  0.0788 -0.5285
  292TMC3     H 4459   3.872   2.289   0.416 -0.6884 -0.2123  0.0044
  292TMC3    H1 4460   3.679   2.082   0.092  1.1062 -1.5315 -1.7545
  292TMC3    H2 4461   3.794   1.878   0.443 -1.1635  0.3763 -0.3169
  292TMC3    C7 4462   3.735   1.840   0.203  0.4718 -0.1652  0.0118
  292TMC3    C8 4463   3.841   2.105   0.584  0.1474  0.1327  1.0022
  292TMC3    O1 4464   3.815   1.754   0.249 -0.0075  0.3624  0.6726
  292TMC3    O2 4465   3.901   2.204   0.626 -0.8718 -0.4090 -0.8417
  293MPD2     C 4466   1.523   4.065  12.697 -0.3581  0.4891 -0.2875
  293MPD2    C1 4467   1.422   3.981  12.711 -1.4742  0.7577 -0.1097
  293MPD2    C2 4468   1.431   3.889  12.816  0.4583 -0.1472 -0.2220
  293MPD2    C3 4469   1.543   3.876  12.896  0.0996 -0.3172  0.3438
  293MPD2    C4 4470   1.647   3.954  12.869  0.5452  0.3637 -0.5502
  293MPD2    C5 4471   1.638   4.047  12.771 -0.1404 -0.2842  0.1532
  293MPD2     H 4472   1.356   3.813  12.828 -1.9376  2.1916 -0.3820
  293MPD2    H1 4473   1.740   3.948  12.925 -0.7172  1.3846  1.5979
  293MPD2    H2 4474   1.513   4.148  12.628 -0.1779 -0.5005 -1.4980
  293MPD2    H3 4475   1.726   4.110  12.762 -0.6657  0.3719 -0.3267
  293MPD2     N 4476   1.550   3.771  12.992  0.1893  0.5541  0.5166
  293MPD2    H5 4477   1.475   3.703  12.988  1.0739 -0.2949 -1.1379
  293MPD2    N1 4478   1.314   3.995  12.624  0.3466  0.1724 -0.0578
  293MPD2    H7 4479   1.314   4.074  12.561 -1.9794 -0.0327 -0.3054
  294TMC3    C1 4480   1.112   3.931  12.508  0.4765 -0.4425  0.3187
  294TMC3    C2 4481   0.994   3.856  12.509  0.1214 -0.3124 -0.1853
  294TMC3    C3 4482   0.928   3.846  12.387 -0.1961 -0.7903 -0.2767
  294TMC3    C4 4483   1.173   3.976  12.397  0.0171 -0.0247  0.2615
  294TMC3    C5 4484   1.100   3.953  12.281  0.1310 -0.8325  0.3674
  294TMC3    C6 4485   0.974   3.903  12.272 -0.2161  0.2650  0.4358
  294TMC3     C 4486   1.201   3.913  12.623 -1.1038  0.3804  0.3538
  294TMC3     O 4487   1.178   3.812  12.689 -0.0475  0.1170 -0.4821
  294TMC3     H 4488   0.957   3.805  12.597 -1.9510 -0.1156 -0.9347
  294TMC3    H1 4489   1.267   4.030  12.393  0.0759 -0.3370 -2.3347
  294TMC3    H2 4490   0.926   3.889  12.176  0.8362  0.8425 -0.1742
  294TMC3    C7 4491   1.159   3.988  12.152 -0.3425 -0.4137 -0.1991
  294TMC3    C8 4492   0.838   3.740  12.388 -0.1982 -0.5317  0.7027
  294TMC3    O1 4493   1.087   4.009  12.058 -0.1552 -0.4616  0.2283
  294TMC3    O2 4494   0.757   3.729  12.478  0.4370 -0.0508 -0.0027
  295MPD2     C 4495   2.658   2.671   1.121  0.0344 -0.4873  0.3604
  295MPD2    C1 4496   2.609   2.578   1.034  0.2750 -0.0475  0.1688
  295MPD2    C2 4497   2.653   2.448   1.046  0.1478  0.0553 -0.0760
  295MPD2    C3 4498   2.758   2.413   1.132  0.3962 -0.3705  0.3824
  295MPD2    C4 4499   2.818   2.515   1.201 -0.1991 -0.5721 -0.1049
  295MPD2    C5 4500   2.767   2.639   1.196 -0.0829 -0.0555 -0.0453
  295MPD2     H 4501   2.609   2.376   0.979  0.5871  0.5236 -0.8696
  295MPD2    H1 4502   2.903   2.489   1.264 -0.5272  0.7153  0.8583
  295MPD2    H2 4503   2.599   2.762   1.130 -0.8690 -1.0412 -0.0073
  295MPD2    H3 4504   2.799   2.719   1.261  0.4209 -0.0908 -0.2505
  295MPD2     N 4505   2.802   2.281   1.153 -0.2591 -0.6124 -0.0010
  295MPD2    H5 4506   2.859   2.275   1.237 -0.3339 -1.1675  0.0089
  295MPD2    N1 4507   2.496   2.600   0.960 -0.0462  0.4861  0.1054
  295MPD2    H7 4508   2.462   2.521   0.907  0.0897  0.8639 -0.5555
  296TMC3    C1 4509   2.817   2.043   1.137  0.1215  0.2530 -0.6456
  296TMC3    C2 4510   2.934   2.044   1.206  0.1667 -0.3951  0.3526
  296TMC3    C3 4511   2.969   1.929   1.272 -0.1047 -0.5194  0.7607
  296TMC3    C4 4512   2.730   1.940   1.137 -0.0863  0.3007  0.2064
  296TMC3    C5 4513   2.768   1.831   1.208  0.6792 -0.2661  0.4128
  296TMC3    C6 4514   2.888   1.822   1.279  0.1637  0.6269 -0.0839
  296TMC3     C 4515   2.765   2.167   1.082 -0.8767  0.0451 -0.1604
  296TMC3     O 4516   2.688   2.163   0.988  0.2490  0.5581  0.1237
  296TMC3     H 4517   3.009   2.118   1.181 -0.9833  0.4098 -0.7534
  296TMC3    H1 4518   2.636   1.945   1.082 -0.1958  0.1380  0.3775
  296TMC3    H2 4519   2.911   1.733   1.336 -0.3955  0.1765 -0.5745
  296TMC3    C7 4520   2.675   1.719   1.206  0.3910 -0.3463  0.3212
  296TMC3    C8 4521   3.105   1.918   1.331  0.1404  0.2198 -0.7763
  296TMC3    O1 4522   2.724   1.609   1.235 -0.3421 -0.0747 -0.3678
  296TMC3    O2 4523   3.150   1.807   1.354 -0.7139  0.1859 -0.3478
  297MPD2     C 4524   3.816   4.284  16.493  0.2929  0.5050  0.2024
  297MPD2    C1 4525   3.759   4.383  16.414 -0.0056  0.5726 -0.0791
  297MPD2    C2 4526   3.833   4.499  16.384 -0.6629 -0.2284 -0.0669
  297MPD2    C3 4527   3.954   4.526  16.444  0.3752  0.3118  0.4119
  297MPD2    C4 4528   3.999   4.423  16.527 -0.1897 -0.3909 -0.1553
  297MPD2    C5 4529   3.934   4.308  16.550 -0.0671 -0.2287 -0.6679
  297MPD2     H 4530   3.804   4.573  16.310  0.6901  0.1605 -0.2127
  297MPD2    H1 4531   4.086   4.439  16.591 -0.2642 -0.5690 -0.0075
  297MPD2    H2 4532   3.767   4.188  16.508  2.6195 -0.4032  2.0578
  297MPD2    H3 4533   3.983   4.231  16.609  0.6493  1.2367  0.6368
  297MPD2     N 4534   4.017   4.656  16.439 -0.5046  0.1698 -0.2165
  297MPD2    H5 4535   3.968   4.733  16.396 -2.3839 -2.2533 -2.4168
  297MPD2    N1 4536   3.632   4.359  16.364 -0.1761 -0.3539  0.2805
  297MPD2    H7 4537   3.600   4.431  16.300 -3.2775 -0.4236  1.7184
  298TMC3    C1 4538   3.431   4.263  16.301 -0.0686 -0.0324  0.5029
  298TMC3    C2 4539   3.429   4.327  16.176 -0.2111 -0.0890 -0.2579
  298TMC3    C3 4540   3.312   4.330  16.109  0.4923 -0.8402  0.2043
  298TMC3    C4 4541   3.321   4.193  16.349  0.0769 -0.0370 -0.3234
  298TMC3    C5 4542   3.202   4.216  16.278 -0.3038 -0.1212 -0.7313
  298TMC3    C6 4543   3.197   4.283  16.158 -0.0776 -0.4034 -0.2133
  298TMC3     C 4544   3.539   4.260  16.399 -1.0155 -0.7685  0.5697
  298TMC3     O 4545   3.544   4.176  16.492 -0.2812 -0.1508  0.0479
  298TMC3     H 4546   3.528   4.358  16.145  0.0171 -0.2064  0.3522
  298TMC3    H1 4547   3.321   4.154  16.450  0.1988  0.9727  0.0581
  298TMC3    H2 4548   3.118   4.265  16.086 -0.1185  2.2956 -0.8227
  298TMC3    C7 4549   3.075   4.225  16.352 -0.1489 -0.6194 -0.3178
  298TMC3    C8 4550   3.302   4.389  15.975 -0.5385  0.0742 -0.3559
  298TMC3    O1 4551   3.075   4.231  16.475  0.2653 -0.3565 -0.3306
  298TMC3    O2 4552   3.194   4.382  15.913 -0.3782 -0.4614 -0.0205
  299MPD2     C 4553   0.537   0.127  10.491 -0.5752  0.0161  0.0366
  299MPD2    C1 4554   0.410   0.085  10.537 -0.4597  0.4737  0.3164
  299MPD2    C2 4555   0.318   0.040  10.443 -0.1365  0.1937  0.0523
  299MPD2    C3 4556   0.361   0.030  10.311 -0.2500  0.2294  0.0108
  299MPD2    C4 4557   0.480   0.073  10.272 -0.7339  0.2012 -0.0511
  299MPD2    C5 4558   0.569   0.125  10.359  0.0400  0.5714 -0.3005
  299MPD2     H 4559   0.215   0.022  10.470 -0.2478 -1.3123 -1.3999
  299MPD2    H1 4560   0.505   0.061  10.167 -2.4870 -0.2100 -0.4278
  299MPD2    H2 4561   0.614   0.169  10.555 -0.0994  1.6027 -1.5879
  299MPD2    H3 4562   0.672   0.143  10.331  0.9576 -0.7011  2.1721
  299MPD2     N 4563   0.278   4.707  10.215  0.3832 -0.2384 -0.5290
  299MPD2    H5 4564   0.302   4.723  10.118  0.3469 -0.2491 -0.5400
  299MPD2    N1 4565   0.376   0.116  10.671  0.1716 -0.3249 -0.0265
  299MPD2    H7 4566   0.451   0.143  10.734  0.1850  0.6125 -0.4300
  300TMC3    C1 4567   0.062   4.637  10.147 -0.0500  0.6395  0.4240
  300TMC3    C2 4568   0.006   0.026  10.163 -0.7143  0.1516  0.0622
  300TMC3    C3 4569   4.611   0.027  10.170  0.1051  0.0117  0.2502
  300TMC3    C4 4570   4.730   4.523  10.135  0.6896  0.0103  0.5880
  300TMC3    C5 4571   4.593   4.534  10.131 -0.5907  0.3578  0.6124
  300TMC3    C6 4572   4.535   4.656  10.159  0.3632  0.4261  0.0579
  300TMC3     C 4573   0.166   4.626  10.242  0.4420 -0.2959 -0.7488
  300TMC3     O 4574   0.136   4.544  10.329 -0.3264 -0.4546 -0.1237
  300TMC3     H 4575   0.072   0.105  10.198 -3.3482  1.7739  1.3547
  300TMC3    H1 4576   0.027   4.423  10.114  1.9370  0.0053  2.7651
  300TMC3    H2 4577   4.428   4.671  10.156  0.1948 -1.2808 -2.2317
  300TMC3    C7 4578   4.508   4.418  10.143 -1.0736  0.0057 -0.1264
  300TMC3    C8 4579   4.552   0.157  10.174  0.1814  0.2013  0.2783
  300TMC3    O1 4580   4.557   4.318  10.096  0.5087  0.6102  0.0839
  300TMC3    O2 4581   4.607   0.242  10.242 -0.7590 -0.0875 -0.3994
  301MPD2     C 4582   2.120   0.924   1.274  0.4584 -0.8347 -0.0762
  301MPD2    C1 4583   2.072   0.898   1.147  0.2828  0.3594 -0.2294
  301MPD2    C2 4584   2.060   0.765   1.113  0.3779 -0.1434  0.0465
  301MPD2    C3 4585   2.084   0.661   1.205 -0.0910  0.0640  0.2113
  301MPD2    C4 4586   2.146   0.696   1.325  0.2147 -0.1767  0.1011
  301MPD2    C5 4587   2.160   0.826   1.358  0.7129  0.4889  0.6339
  301MPD2     H 4588   2.006   0.746   1.021 -1.8587 -1.0957  1.5572
  301MPD2    H1 4589   2.175   0.620   1.396  2.2516  0.0900 -0.4420
  301MPD2    H2 4590   2.122   1.024   1.318 -2.1625 -1.7485  2.1262
  301MPD2    H3 4591   2.192   0.847   1.460  1.0195  0.7339  0.4881
  301MPD2     N 4592   2.051   0.523   1.179 -0.5503  0.2120  0.5293
  301MPD2    H5 4593   2.071   0.455   1.251  1.1213 -2.4584 -2.4722
  301MPD2    N1 4594   2.014   0.993   1.060  0.5454 -0.2646  0.2506
  301MPD2    H7 4595   1.966   0.961   0.977  1.8434 -0.1724 -0.5331
  302TMC3    C1 4596   1.945   0.340   1.082  0.9128 -0.5262 -0.5559
  302TMC3    C2 4597   2.028   0.253   1.140 -0.4234  0.3570  0.0950
  302TMC3    C3 4598   1.997   0.120   1.133 -0.7715 -0.2555  0.4365
  302TMC3    C4 4599   1.834   0.301   1.010 -0.4465 -0.1807 -0.4487
  302TMC3    C5 4600   1.808   0.172   1.007 -0.0323  0.2813 -0.0485
  302TMC3    C6 4601   1.886   0.077   1.071  0.5544  0.7036  0.2311
  302TMC3     C 4602   1.969   0.480   1.078 -0.5272 -0.6454 -0.6881
  302TMC3     O 4603   1.915   0.549   0.988  0.3353 -0.5548  0.2358
  302TMC3     H 4604   2.114   0.291   1.194 -0.3084  0.2505 -0.0158
  302TMC3    H1 4605   1.782   0.374   0.949  2.8984  0.8450 -2.0729
  302TMC3    H2 4606   1.855   4.712   1.072 -0.4163  1.0117  2.3247
  302TMC3    C7 4607   1.690   0.129   0.939  0.2007 -0.0087  0.5863
  302TMC3    C8 4608   2.082   0.027   1.210  0.0909  0.0849 -0.4363
  302TMC3    O1 4609   1.678   0.009   0.911  0.3958 -0.2401 -0.0268
  302TMC3    O2 4610   2.197   0.071   1.233  0.0259 -0.0931  0.4855
  303MPD2     C 4611   0.630   4.406   9.580 -0.0855  0.0978 -0.5336
  303MPD2    C1 4612   0.670   4.309   9.667  0.6082  0.5134 -0.4839
  303MPD2    C2 4613   0.808   4.282   9.668  1.0059  0.0130 -0.2323
  303MPD2    C3 4614   0.905   4.361   9.604  0.2979 -0.1987  0.2813
  303MPD2    C4 4615   0.858   4.463   9.527  0.2631 -0.0786  0.3692
  303MPD2    C5 4616   0.724   4.486   9.516 -0.3349 -0.1310 -0.0825
  303MPD2     H 4617   0.848   4.212   9.740 -0.2221 -0.8358 -0.4002
  303MPD2    H1 4618   0.915   4.533   9.467 -0.8144  0.5420  0.0690
  303MPD2    H2 4619   0.527   4.432   9.561  0.2228 -0.0049 -2.3443
  303MPD2    H3 4620   0.699   4.567   9.448 -0.3873 -1.1594 -1.2725
  303MPD2     N 4621   1.042   4.326   9.589  0.4014  0.4564 -0.0698
  303MPD2    H5 4622   1.108   4.388   9.543  0.6744  0.1915 -0.0379
  303MPD2    N1 4623   0.569   4.243   9.747 -0.2537 -0.7385  0.0710
  303MPD2    H7 4624   0.470   4.258   9.731 -0.0606  2.1352  1.7361
  304TMC3    C1 4625   0.486   4.072   9.880  0.5383 -0.0876  0.4271
  304TMC3    C2 4626   0.408   4.021   9.779  0.2622 -0.7147 -0.4638
  304TMC3    C3 4627   0.336   3.907   9.804  0.6879  0.2852 -0.4224
  304TMC3    C4 4628   0.501   4.003  10.000 -0.2542 -0.0384  0.0973
  304TMC3    C5 4629   0.424   3.893  10.021 -0.1397 -0.3388 -0.5739
  304TMC3    C6 4630   0.334   3.850   9.925 -0.1508  0.6252 -0.3354
  304TMC3     C 4631   0.600   4.155   9.850  0.0547 -1.1163  0.3698
  304TMC3     O 4632   0.709   4.138   9.906 -0.1304  0.4735 -0.2465
  304TMC3     H 4633   0.385   4.076   9.688 -0.8548 -1.6255 -0.7290
  304TMC3    H1 4634   0.572   4.036  10.075  0.0595 -0.5584  0.0305
  304TMC3    H2 4635   0.284   3.757   9.946  0.6651  0.5020  1.0794
  304TMC3    C7 4636   0.482   3.770  10.089 -0.6576  0.2509  0.0411
  304TMC3    C8 4637   0.366   3.817   9.693  0.0645 -0.9153 -0.4655
  304TMC3    O1 4638   0.476   3.667  10.018 -0.3808 -0.1464  0.1818
  304TMC3    O2 4639   0.361   3.868   9.584  0.2324  0.3194  0.6442
  305MPD2     C 4640   0.341   0.966  13.971 -0.2903  0.1032  0.1940
  305MPD2    C1 4641   0.414   0.849  13.999  0.0038  0.1150 -0.4269
  305MPD2    C2 4642   0.414   0.744  13.913  0.3629  0.2510  0.1746
  305MPD2    C3 4643   0.337   0.752  13.799  0.7620  1.2349  0.0619
  305MPD2    C4 4644   0.278   0.874  13.762 -0.6761 -0.2439 -0.0483
  305MPD2    C5 4645   0.283   0.982  13.850  0.4766 -0.0056 -0.0475
  305MPD2     H 4646   0.465   0.652  13.937 -2.1779 -1.4699 -1.0728
  305MPD2    H1 4647   0.217   0.887  13.674  0.5057 -0.5810 -0.9101
  305MPD2    H2 4648   0.330   1.055  14.033 -2.0036 -0.0989  0.1747
  305MPD2    H3 4649   0.240   1.080  13.833  0.9204  0.2185  0.1351
  305MPD2     N 4650   0.330   0.650  13.707 -0.2195 -0.1577  0.2299
  305MPD2    H5 4651   0.308   0.683  13.614  1.8560  0.4382 -0.0490
  305MPD2    N1 4652   0.484   0.851  14.122  0.2064  0.1361  0.1117
  305MPD2    H7 4653   0.483   0.938  14.174 -1.3305  0.7323 -0.9159
  306TMC3    C1 4654   0.622   0.787  14.296  0.2792 -0.8040 -0.2315
  306TMC3    C2 4655   0.723   0.701  14.341  0.0852  0.2788  0.1830
  306TMC3    C3 4656   0.739   0.690  14.476  0.8471  0.5390  0.3233
  306TMC3    C4 4657   0.550   0.866  14.379  0.0335  0.2997  0.4247
  306TMC3    C5 4658   0.581   0.856  14.514 -0.3285  0.3112  0.3281
  306TMC3    C6 4659   0.674   0.771  14.567 -0.0422  0.2733 -0.5590
  306TMC3     C 4660   0.579   0.757  14.163 -0.1784  0.3889  0.1644
  306TMC3     O 4661   0.639   0.668  14.107  0.2883 -0.2731  0.1985
  306TMC3     H 4662   0.791   0.652  14.272 -0.9200 -0.0980 -0.5492
  306TMC3    H1 4663   0.471   0.932  14.344  0.9083  1.7467  1.1696
  306TMC3    H2 4664   0.698   0.779  14.672 -0.3800  2.0046 -0.6161
  306TMC3    C7 4665   0.486   0.929  14.595 -0.5015 -0.9416  0.3754
  306TMC3    C8 4666   0.793   0.557  14.519  0.3742 -0.5127  0.7855
  306TMC3    O1 4667   0.390   0.987  14.545 -0.2715  0.0738  0.6828
  306TMC3    O2 4668   0.856   0.498  14.431 -0.1002 -0.0643  0.1544
  307MPD2     C 4669   2.663   4.551   0.157 -0.1235  0.2188 -0.4046
  307MPD2    C1 4670   2.635   4.679   0.206  0.6662  0.5687 -0.4744
  307MPD2    C2 4671   2.574   4.683   0.329  0.3482  0.6539 -0.6647
  307MPD2    C3 4672   2.541   4.561   0.396 -0.4150  0.2944  0.0995
  307MPD2    C4 4673   2.563   4.436   0.334  0.5990 -0.1106  0.2212
  307MPD2    C5 4674   2.632   4.432   0.218 -0.4369 -0.3084  0.1652
  307MPD2     H 4675   2.547   0.039   0.374  0.4251  0.9235 -1.1758
  307MPD2    H1 4676   2.534   4.338   0.370 -0.8283 -0.9267 -3.0813
  307MPD2    H2 4677   2.701   4.535   0.057 -2.8691 -1.6714 -1.1296
  307MPD2    H3 4678   2.640   4.337   0.167 -1.0570 -0.6666  0.7346
  307MPD2     N 4679   2.482   4.569   0.519  0.0168 -0.1921  0.4262
  307MPD2    H5 4680   2.461   4.663   0.554 -1.3760 -0.3367 -0.0162
  307MPD2    N1 4681   2.669   0.060   0.140  0.1680 -0.0702 -0.5460
  307MPD2    H7 4682   2.651   0.146   0.191  0.8343  0.6326 -1.4936
  308TMC3    C1 4683   2.323   4.442   0.945 -0.4103  0.0658  0.2576
  308TMC3    C2 4684   2.340   4.567   0.993 -0.3419  0.5249 -0.0611
  308TMC3    C3 4685   2.402   4.658   0.914  0.9888  0.1711  0.3444
  308TMC3    C4 4686   2.362   4.409   0.817  0.2451  0.3863  0.6803
  308TMC3    C5 4687   2.408   4.510   0.743  0.4881  0.1468  0.6858
  308TMC3    C6 4688   2.431   4.638   0.786  1.0230  0.3835 -0.2537
  308TMC3     C 4689   2.224   4.357   1.010  0.4673  0.1993 -0.3256
  308TMC3     O 4690   2.248   4.236   1.022 -0.3938 -0.2014  0.4439
  308TMC3     H 4691   2.309   4.596   1.092  0.4036  0.4736  0.1843
  308TMC3    H1 4692   2.321   4.322   0.767  0.2254  1.3234 -0.9448
  308TMC3    H2 4693   2.492   4.707   0.729  2.9210 -0.7544  0.4216
  308TMC3    C7 4694   2.451   4.467   0.606  0.2591 -0.0202 -0.1808
  308TMC3    C8 4695   2.414   0.052   0.965 -0.4339 -0.0835 -0.4559
  308TMC3    O1 4696   2.467   4.349   0.590 -0.0368  0.0779 -0.0081
  308TMC3    O2 4697   2.427   0.071   1.083 -0.5000  0.4788  0.0501
  309MPD2     C 4698   1.754   4.508  17.628  0.9475  0.0778  0.5505
  309MPD2    C1 4699   1.676   4.448  17.536  0.1029 -0.4834 -0.8733
  309MPD2    C2 4700   1.542   4.466  17.522  0.2438  0.1981  0.7665
  309MPD2    C3 4701   1.482   4.548  17.616 -0.3386  0.5781  0.7765
  309MPD2    C4 4702   1.558   4.617  17.709 -0.0045 -0.1404 -0.4118
  309MPD2    C5 4703   1.690   4.585  17.727 -0.0676 -0.0365 -0.0089
  309MPD2     H 4704   1.491   4.411  17.443  0.4437  0.1544  0.6678
  309MPD2    H1 4705   1.513   4.684   0.031 -1.8679 -2.1616  0.2809
  309MPD2    H2 4706   1.860   4.489  17.629  0.4158 -3.0054 -1.9632
  309MPD2    H3 4707   1.744   4.637   0.053  0.2885  0.8277 -0.8373
  309MPD2     N 4708   1.341   4.568  17.625  0.4455  0.1847  0.3115
  309MPD2    H5 4709   1.317   4.653  17.674 -0.1046 -0.4567  1.1404
  309MPD2    N1 4710   1.738   4.373  17.429  0.2712 -0.4320  0.4591
  309MPD2    H7 4711   1.674   4.341  17.356  1.1372  0.7199 -0.7995
  310TMC3    C1 4712   1.892   4.316  17.269 -0.2137  0.6690  0.3232
  310TMC3    C2 4713   1.793   4.329  17.172  0.6593  0.2518 -0.3623
  310TMC3    C3 4714   1.819   4.304  17.045 -0.6046  0.3065 -0.2054
  310TMC3    C4 4715   2.000   4.238  17.243  0.7714 -0.1725  0.4284
  310TMC3    C5 4716   2.011   4.191  17.116  0.0763  0.3199 -0.3902
  310TMC3    C6 4717   1.924   4.232  17.014  0.4909  0.2409 -0.0118
  310TMC3     C 4718   1.872   4.359  17.407  0.0267  0.4927  0.1785
  310TMC3     O 4719   1.964   4.377  17.482  0.1406  0.4591  0.0782
  310TMC3     H 4720   1.706   4.391  17.187  0.7703  0.5659 -1.0598
  310TMC3    H1 4721   2.055   4.192  17.324 -1.3343  0.1913  2.0495
  310TMC3    H2 4722   1.936   4.200  16.911  0.9840  0.2080  0.0551
  310TMC3    C7 4723   2.105   4.082  17.083 -0.0944  0.0837 -0.1656
  310TMC3    C8 4724   1.728   4.336  16.937 -0.2246  0.1351 -0.1485
  310TMC3    O1 4725   2.055   3.997  17.011 -0.0963 -0.2185 -0.6152
  310TMC3    O2 4726   1.775   4.361  16.823 -0.3713 -0.4324 -0.0662
  311MPD2     C 4727   4.201   0.716  12.472  0.3374 -0.1051 -0.4261
  311MPD2    C1 4728   4.241   0.775  12.588 -0.2910  0.5286  0.4101
  311MPD2    C2 4729   4.154   0.766  12.694 -0.3439  0.7283 -0.6435
  311MPD2    C3 4730   4.046   0.675  12.686 -0.2104 -0.2732  0.5920
  311MPD2    C4 4731   4.016   0.613  12.571 -0.1183  0.1047 -0.5408
  311MPD2    C5 4732   4.093   0.633  12.466 -0.6738 -0.0822 -0.4171
  311MPD2     H 4733   4.177   0.810  12.790  0.4489  0.9610 -0.9440
  311MPD2    H1 4734   3.932   0.544  12.561  0.6773 -0.9132 -0.1998
  311MPD2    H2 4735   4.259   0.730  12.382  2.4814  1.1891  1.1708
  311MPD2    H3 4736   4.080   0.582  12.371  1.0547 -0.0291 -0.6866
  311MPD2     N 4737   3.969   0.651  12.801  0.2257  0.8209 -0.1905
  311MPD2    H5 4738   3.989   0.714  12.878  0.1288  0.3681  0.2027
  311MPD2    N1 4739   4.360   0.844  12.611  0.7416 -0.4159 -0.8223
  311MPD2    H7 4740   4.378   0.881  12.704 -0.0211 -1.7468 -0.1541
  312TMC3    C1 4741   3.836   0.543  12.971 -0.5291  0.2554 -0.1840
  312TMC3    C2 4742   3.724   0.473  13.000 -0.4500  0.2703 -0.0565
  312TMC3    C3 4743   3.670   0.491  13.122 -0.3364  0.8304 -0.3627
  312TMC3    C4 4744   3.900   0.626  13.060 -0.4992  0.2826  0.5086
  312TMC3    C5 4745   3.852   0.637  13.188  0.6428 -0.3179 -0.3688
  312TMC3    C6 4746   3.731   0.577  13.218  0.1799  0.2449  0.2326
  312TMC3     C 4747   3.875   0.555  12.827 -0.4764 -0.3971  0.0355
  312TMC3     O 4748   3.818   0.475  12.751  0.2908 -0.0880 -0.3495
  312TMC3     H 4749   3.661   0.431  12.922 -0.2311 -2.3051  1.1608
  312TMC3    H1 4750   4.000   0.659  13.033 -0.7272  0.2062 -0.4558
  312TMC3    H2 4751   3.687   0.569  13.317 -2.4157  2.7314 -0.7238
  312TMC3    C7 4752   3.920   0.719  13.281 -0.3347  1.1017 -0.2304
  312TMC3    C8 4753   3.523   0.492  13.113  0.0914  0.4482  0.3765
  312TMC3    O1 4754   4.008   0.791  13.235 -0.4555  0.3187  0.1263
  312TMC3    O2 4755   3.471   0.392  13.067  0.1773  0.1107 -0.0087
  313MPD2     C 4756   2.821   0.779  11.578  0.3408 -0.3985  0.0214
  313MPD2    C1 4757   2.877   0.767  11.455 -0.1348 -0.5627 -0.2671
  313MPD2    C2 4758   2.896   0.645  11.390  0.2869  0.1237 -0.3259
  313MPD2    C3 4759   2.852   0.529  11.460  0.4677 -0.7086 -0.6480
  313MPD2    C4 4760   2.796   0.539  11.587 -0.1233 -0.2925 -0.5012
  313MPD2    C5 4761   2.780   0.665  11.645 -0.6678  0.4993  0.0472
  313MPD2     H 4762   2.951   0.636  11.297 -1.2284  0.1618 -1.2154
  313MPD2    H1 4763   2.757   0.453  11.641  0.5280  0.6535  1.4424
  313MPD2    H2 4764   2.799   0.879  11.614 -2.2420 -0.9913  0.1116
  313MPD2    H3 4765   2.723   0.680  11.735  0.3653 -1.3992  1.0329
  313MPD2     N 4766   2.891   0.409  11.405 -0.1092 -0.0309  0.4246
  313MPD2    H5 4767   2.937   0.409  11.315  0.7604  1.2154  0.8768
  313MPD2    N1 4768   2.926   0.878  11.382 -0.8056 -0.4084  0.7098
  313MPD2    H7 4769   2.949   0.855  11.286 -2.4703 -0.1103  0.2463
  314TMC3    C1 4770   2.994   1.094  11.321 -0.0190 -1.1186 -0.4817
  314TMC3    C2 4771   3.116   1.163  11.343 -0.3803 -0.0236 -0.8002
  314TMC3    C3 4772   3.179   1.215  11.230  0.8946  0.6946 -0.3382
  314TMC3    C4 4773   2.942   1.068  11.196 -0.2290 -0.2673 -0.2712
  314TMC3    C5 4774   3.007   1.119  11.089  0.6666  0.2077  0.4225
  314TMC3    C6 4775   3.124   1.193  11.105 -0.3476  0.0170 -0.7194
  314TMC3     C 4776   2.957   1.004  11.425  0.1538 -0.2024 -0.6632
  314TMC3     O 4777   2.933   1.051  11.536  0.5198 -0.0404 -0.0913
  314TMC3     H 4778   3.155   1.169  11.444 -1.2340 -0.5918 -0.4327
  314TMC3    H1 4779   2.853   1.010  11.174 -0.4590  0.2474 -0.6632
  314TMC3    H2 4780   3.191   1.214  11.023 -1.4181  0.0955 -1.5826
  314TMC3    C7 4781   2.968   1.066  10.964  0.3612  0.5637  0.2745
  314TMC3    C8 4782   3.321   1.220  11.241  0.5092 -0.5417  0.3090
  314TMC3    O1 4783   2.849   1.052  10.947  0.4531 -0.1417 -0.3712
  314TMC3    O2 4784   3.378   1.306  11.176 -0.1401 -0.3321 -0.3024
  315MPD2     C 4785   2.725   3.932   0.276 -0.3111  0.0279 -0.0598
  315MPD2    C1 4786   2.840   3.961   0.338 -0.3984 -0.1074  0.0016
  315MPD2    C2 4787   2.913   4.074   0.296  1.1374  0.7970 -0.3596
  315MPD2    C3 4788   2.874   4.149   0.188  0.1198 -0.6445  0.1511
  315MPD2    C4 4789   2.768   4.103   0.114  0.0132 -0.2904 -0.2393
  315MPD2    C5 4790   2.697   3.996   0.159 -0.4783  0.0573 -0.4737
  315MPD2     H 4791   3.003   4.101   0.350  1.3476  2.7876 -1.6902
  315MPD2    H1 4792   2.727   4.144   0.022  0.8510 -0.1334 -0.5458
  315MPD2    H2 4793   2.671   3.843   0.305  1.7378 -0.6697  1.5948
  315MPD2    H3 4794   2.614   3.963   0.098 -1.6156  2.2275 -0.1154
  315MPD2     N 4795   2.958   4.258   0.155  0.2777  0.1101  0.5432
  315MPD2    H5 4796   3.033   4.275   0.221 -0.0613  0.8310  0.7380
  315MPD2    N1 4797   2.882   3.886   0.449  0.4167  0.0072  0.2124
  315MPD2    H7 4798   2.962   3.925   0.498  0.6981  0.5067 -0.6493
  316TMC3    C1 4799   3.020   4.459   0.028  0.5892 -0.2692 -0.3370
  316TMC3    C2 4800   3.126   4.483   0.113  0.6200 -0.4907 -0.0690
  316TMC3    C3 4801   3.208   4.600   0.093  0.1571  0.1994  0.3624
  316TMC3    C4 4802   2.994   4.549  17.679  0.0042 -0.3523  0.0428
  316TMC3    C5 4803   3.067   4.663  17.666  0.2190 -0.2865 -0.4417
  316TMC3    C6 4804   3.178   4.689  17.744 -0.4097  0.6328 -0.1298
  316TMC3     C 4805   2.943   4.338   0.036 -0.2585  0.4553 -0.0368
  316TMC3     O 4806   2.848   4.326  17.709  0.2169 -0.2272  0.4469
  316TMC3     H 4807   3.138   4.409   0.191 -1.1656  0.3137  0.9699
  316TMC3    H1 4808   2.916   4.524  17.607 -0.0659  1.0693 -0.3778
  316TMC3    H2 4809   3.247   0.031  17.723  0.1301  0.4651  1.0103
  316TMC3    C7 4810   3.060   0.005  17.550 -0.0016 -0.5479  0.1645
  316TMC3    C8 4811   3.325   4.614   0.172 -0.8249  0.1396  0.0702
  316TMC3    O1 4812   3.114   0.116  17.560 -0.0880 -0.4029 -0.1823
  316TMC3    O2 4813   3.373   4.726   0.169  0.1553 -0.6177  0.3984
  317MPD2     C 4814   0.723   2.801  12.955  0.0558  0.9245 -0.2791
  317MPD2    C1 4815   0.818   2.721  12.904  0.4410 -0.1742 -0.4197
  317MPD2    C2 4816   0.880   2.632  12.987  0.5157  0.0728 -0.0507
  317MPD2    C3 4817   0.851   2.620  13.123 -0.4010  0.1752  0.2791
  317MPD2    C4 4818   0.758   2.704  13.172 -0.0657 -0.1158  0.3690
  317MPD2    C5 4819   0.696   2.795  13.090 -0.8487 -0.0932  0.8449
  317MPD2     H 4820   0.952   2.570  12.935 -0.7981  0.3321 -2.1953
  317MPD2    H1 4821   0.730   2.716  13.276  2.2679 -1.6187  1.1810
  317MPD2    H2 4822   0.678   2.878  12.893  0.5331  1.2987 -0.1644
  317MPD2    H3 4823   0.632   2.872  13.133 -3.1339 -0.6927 -1.4554
  317MPD2     N 4824   0.923   2.528  13.202  0.3021  0.2651 -0.1850
  317MPD2    H5 4825   0.968   2.453  13.150 -0.2189 -0.9293  1.0759
  317MPD2    N1 4826   0.854   2.716  12.773  0.8339  0.2119 -0.4627
  317MPD2    H7 4827   0.928   2.651  12.745  0.5480 -0.0108 -0.6978
  318TMC3    C1 4828   0.975   2.392  13.381 -0.8823 -0.0966 -0.2510
  318TMC3    C2 4829   0.932   2.278  13.318  0.1596  0.0281 -0.0343
  318TMC3    C3 4830   0.939   2.160  13.382 -0.8150  0.5781  0.1686
  318TMC3    C4 4831   1.017   2.387  13.513  0.0179  0.3200 -0.0706
  318TMC3    C5 4832   1.024   2.266  13.577 -0.3038  0.4739 -0.0243
  318TMC3    C6 4833   0.988   2.152  13.511 -0.5078  0.8006  0.9405
  318TMC3     C 4834   0.915   2.518  13.338 -0.4316 -0.1715  0.0153
  318TMC3     O 4835   0.878   2.601  13.421  0.4639 -0.1257  0.2344
  318TMC3     H 4836   0.900   2.274  13.215 -1.9043  0.4983  0.5933
  318TMC3    H1 4837   1.044   2.478  13.566  1.2779  1.2832 -2.3408
  318TMC3    H2 4838   0.977   2.057  13.562 -2.9015 -0.0906 -1.2537
  318TMC3    C7 4839   1.075   2.268  13.713  0.6746 -0.5366 -0.1016
  318TMC3    C8 4840   0.867   2.049  13.331  0.5382 -0.7312 -0.5020
  318TMC3    O1 4841   1.087   2.379  13.764  0.1091 -0.0008 -0.5401
  318TMC3    O2 4842   0.895   1.939  13.378 -0.1917  0.0015 -0.2460
  319MPD2     C 4843   1.357   3.783  16.730  0.4646 -0.1437  0.0065
  319MPD2    C1 4844   1.253   3.707  16.789 -0.3587  1.0594  0.4371
  319MPD2    C2 4845   1.165   3.642  16.703 -0.2284  0.1215 -0.1103
  319MPD2    C3 4846   1.194   3.631  16.566 -0.1288 -0.5576  0.1055
  319MPD2    C4 4847   1.299   3.703  16.513 -0.1247  0.0727 -0.2249
  319MPD2    C5 4848   1.377   3.784  16.588 -0.0507 -0.3650  0.0408
  319MPD2     H 4849   1.075   3.597  16.744  0.4096 -1.7057 -0.7495
  319MPD2    H1 4850   1.319   3.712  16.407  1.2476  0.3220  0.0626
  319MPD2    H2 4851   1.418   3.851  16.788  1.9580 -2.0971  0.7119
  319MPD2    H3 4852   1.460   3.839  16.546 -0.8004  0.6186 -0.1552
  319MPD2     N 4853   1.101   3.569  16.477  0.7825  0.1346 -0.3047
  319MPD2    H5 4854   1.118   3.569  16.377  1.0074 -3.2923 -0.2581
  319MPD2    N1 4855   1.227   3.697  16.926  0.7061  0.3065 -0.3374
  319MPD2    H7 4856   1.148   3.642  16.957  0.0338  0.4076 -1.8733
  320TMC3    C1 4857   0.942   3.430  16.395  0.3532  0.3226  0.0047
  320TMC3    C2 4858   0.907   3.518  16.294 -0.8535  0.2808 -0.0636
  320TMC3    C3 4859   0.806   3.481  16.206 -0.2158  0.3217 -0.1310
  320TMC3    C4 4860   0.898   3.301  16.397  0.6233 -0.4726  0.4806
  320TMC3    C5 4861   0.819   3.272  16.295 -0.5470  0.5469  0.2741
  320TMC3    C6 4862   0.767   3.350  16.201  0.0917 -0.8755 -0.2237
  320TMC3     C 4863   1.008   3.475  16.513  0.0563  0.7070  0.2697
  320TMC3     O 4864   1.002   3.407  16.619  0.2276 -0.7254  0.0843
  320TMC3     H 4865   0.956   3.615  16.291 -2.7214  1.2033 -0.1469
  320TMC3    H1 4866   0.941   3.235  16.470  1.4659 -0.9527 -0.4428
  320TMC3    H2 4867   0.696   3.318  16.126 -1.1507 -1.0470  1.0243
  320TMC3    C7 4868   0.774   3.142  16.278  0.1215  0.6287 -0.1319
  320TMC3    C8 4869   0.718   3.592  16.153 -0.2452  0.0110  0.7519
  320TMC3    O1 4870   0.728   3.102  16.169  0.2464 -0.5151 -0.1318
  320TMC3    O2 4871   0.781   3.690  16.116  0.0843 -0.2258  0.2657
  321TMC3    C1 4872   1.236   3.759  17.150 -0.2476  0.1506 -0.4335
  321TMC3    C2 4873   1.191   3.638  17.185 -0.2760  0.0345 -0.3269
  321TMC3    C3 4874   1.140   3.625  17.311 -0.0216 -0.1724  0.3325
  321TMC3    C4 4875   1.243   3.862  17.239 -0.1426 -0.1921 -0.1840
  321TMC3    C5 4876   1.186   3.848  17.360 -0.1702  0.6245  0.5310
  321TMC3    C6 4877   1.121   3.732  17.391 -0.3391  0.2617  0.4745
  321TMC3     C 4878   1.291   3.774  17.022  0.7805  0.4791  0.2245
  321TMC3     O 4879   1.362   3.878  17.011 -0.0086  0.7136  0.3555
  321TMC3     H 4880   1.220   3.545  17.137 -0.1046  0.2742 -0.6812
  321TMC3    H1 4881   1.301   3.951  17.215 -0.3764  0.8024  2.8904
  321TMC3    H2 4882   1.080   3.707  17.488 -1.9912 -1.1912 -0.6019
  321TMC3    C7 4883   1.274   3.873  17.471  0.4903 -0.9888 -0.5862
  321TMC3    C8 4884   1.150   3.497  17.372 -0.3732  0.2252 -0.5401
  321TMC3    O1 4885   1.289   3.771  17.534 -0.2776  0.1010  0.3664
  321TMC3    O2 4886   1.139   3.401  17.301 -0.9005 -0.3329  0.9216
  322MPD2     C 4887   0.130   0.167  13.753  0.0904 -0.5984 -0.1913
  322MPD2    C1 4888   0.166   0.098  13.867 -0.3576 -0.5512  0.0182
  322MPD2    C2 4889   0.174   4.701  13.869  0.6606 -0.0340 -0.2225
  322MPD2    C3 4890   0.146   4.631  13.755  0.5615 -0.2206 -0.9256
  322MPD2    C4 4891   0.112   4.700  13.644  0.2158 -0.2424  0.3824
  322MPD2    C5 4892   0.099   0.099  13.638  0.5375 -0.8804  0.3379
  322MPD2     H 4893   0.194   4.646  13.959 -0.8577  0.3056  0.3285
  322MPD2    H1 4894   0.084   4.646  13.554 -1.2797  1.0352  0.0739
  322MPD2    H2 4895   0.132   0.276  13.751  1.9025 -0.6536 -1.0993
  322MPD2    H3 4896   0.086   0.147  13.542 -0.8736 -0.8825  0.5242
  322MPD2     N 4897   0.147   4.490  13.758  0.0269  0.9468  0.2355
  322MPD2    H5 4898   0.193   4.451  13.839 -0.6354 -1.0614 -0.3419
  322MPD2    N1 4899   0.206   0.181  13.975  0.2286  0.1520 -0.4297
  322MPD2    H7 4900   0.210   0.281  13.957  0.3669  0.1501 -0.4030
  323TMC3    C1 4901   0.313   0.226  14.174 -0.0294  0.3302 -0.3702
  323TMC3    C2 4902   0.398   0.304  14.101  0.5439  0.5036 -0.9066
  323TMC3    C3 4903   0.498   0.367  14.164 -0.6560  0.6950 -0.9468
  323TMC3    C4 4904   0.332   0.203  14.310 -0.5081  0.1500  0.5267
  323TMC3    C5 4905   0.432   0.272  14.375 -0.1444 -0.2431 -0.1112
  323TMC3    C6 4906   0.522   0.354  14.298 -0.5845  0.6403  0.2740
  323TMC3     C 4907   0.228   0.137  14.101 -0.1507 -0.3180  0.7656
  323TMC3     O 4908   0.199   0.032  14.157  0.3920 -0.4798 -0.5661
  323TMC3     H 4909   0.393   0.314  13.993  0.7329 -1.0275 -1.0581
  323TMC3    H1 4910   0.272   0.127  14.360 -2.0887  1.3593  0.4780
  323TMC3    H2 4911   0.605   0.396  14.353  1.4550 -3.1981  0.1683
  323TMC3    C7 4912   0.495   0.185  14.466  0.0145  0.1881 -0.3017
  323TMC3    C8 4913   0.628   0.333  14.103 -0.0037 -0.7358  0.6112
  323TMC3    O1 4914   0.428   0.108  14.539 -0.0187 -0.4466  0.1328
  323TMC3    O2 4915   0.710   0.304  14.193 -0.0136 -0.0765 -0.1366
  324MPD2     C 4916   1.559   0.972  14.537 -0.7543 -0.0981  0.3856
  324MPD2    C1 4917   1.590   1.104  14.506 -0.2845  0.1733  0.1648
  324MPD2    C2 4918   1.485   1.178  14.452  0.3165 -0.0737  0.4446
  324MPD2    C3 4919   1.355   1.126  14.435  0.5156 -0.3539  0.5642
  324MPD2    C4 4920   1.321   1.003  14.484 -0.1664 -0.0935  1.0845
  324MPD2    C5 4921   1.428   0.932  14.540  0.1100 -0.2467  0.0049
  324MPD2     H 4922   1.500   1.278  14.415 -0.7561  0.2976  0.9924
  324MPD2    H1 4923   1.219   0.968  14.493 -0.3899  0.5177  0.9602
  324MPD2    H2 4924   1.632   0.902  14.575  0.8028  0.4373 -1.6145
  324MPD2    H3 4925   1.396   0.840  14.587  1.5067 -0.2110  1.0199
  324MPD2     N 4926   1.252   1.198  14.374 -0.0650  0.6338  0.5130
  324MPD2    H5 4927   1.161   1.153  14.375  0.2698 -0.0159  0.8584
  324MPD2    N1 4928   1.719   1.167  14.511  0.1336  0.6059  0.2789
  324MPD2    H7 4929   1.739   1.266  14.502  1.7191  0.3659  1.1187
  325TMC3    C1 4930   1.131   1.352  14.240  0.3891  0.2424  0.7417
  325TMC3    C2 4931   1.040   1.256  14.200 -0.1650 -0.0183  0.2254
  325TMC3    C3 4932   0.942   1.287  14.112 -0.2029 -0.2095  0.1322
  325TMC3    C4 4933   1.124   1.480  14.199  0.4723  0.5411  0.0215
  325TMC3    C5 4934   1.026   1.510  14.109  0.0286  0.5997  0.3768
  325TMC3    C6 4935   0.936   1.416  14.064  0.0623 -0.5343  0.6978
  325TMC3     C 4936   1.260   1.314  14.306 -0.4909 -0.7184 -0.0506
  325TMC3     O 4937   1.353   1.385  14.280  0.1532  0.1900  0.2047
  325TMC3     H 4938   1.053   1.152  14.230 -0.6755 -0.6081 -1.5480
  325TMC3    H1 4939   1.201   1.553  14.219  1.1705 -0.5032  1.1209
  325TMC3    H2 4940   0.851   1.449  14.006  0.1906 -3.0437 -0.9478
  325TMC3    C7 4941   0.990   1.649  14.087 -0.3329 -0.1883 -0.1277
  325TMC3    C8 4942   0.847   1.192  14.076  0.7084 -0.9131 -0.4735
  325TMC3    O1 4943   0.926   1.675  13.987  0.4219 -0.1638  0.2352
  325TMC3    O2 4944   0.834   1.091  14.139  0.0621  0.1523 -0.1726
  326MPD2     C 4945   3.541   2.707  11.315 -1.0344  0.4909 -0.1685
  326MPD2    C1 4946   3.621   2.695  11.202  0.4766 -0.2408  0.3597
  326MPD2    C2 4947   3.753   2.724  11.213 -0.0109 -0.4798  0.2271
  326MPD2    C3 4948   3.801   2.801  11.322 -0.0041 -0.0648  0.4812
  326MPD2    C4 4949   3.720   2.824  11.422 -0.4636 -0.8466  0.3257
  326MPD2    C5 4950   3.590   2.775  11.418 -0.6555 -0.3330  0.0852
  326MPD2     H 4951   3.821   2.704  11.131  2.5007  0.3122  2.1139
  326MPD2    H1 4952   3.760   2.868  11.513 -1.8219  0.2952  0.3643
  326MPD2    H2 4953   3.437   2.677  11.304 -0.8868 -0.1248  0.1108
  326MPD2    H3 4954   3.528   2.787  11.506  1.2962  0.0232  1.4138
  326MPD2     N 4955   3.933   2.845  11.331 -0.4409  0.3293 -0.4361
  326MPD2    H5 4956   3.940   2.925  11.393 -0.0801 -0.6457  0.7776
  326MPD2    N1 4957   3.578   2.651  11.077 -0.0157 -0.2536  0.6893
  326MPD2    H7 4958   3.641   2.658  10.997 -1.4800  1.3102 -0.2989
  327TMC3    C1 4959   3.437   2.625  10.898  0.6782 -0.7887  0.2227
  327TMC3    C2 4960   3.363   2.733  10.851 -0.0676 -0.0679 -1.0475
  327TMC3    C3 4961   3.414   2.811  10.755 -0.8856 -0.3994  0.0047
  327TMC3    C4 4962   3.558   2.598  10.838  0.3685 -0.0490 -0.4747
  327TMC3    C5 4963   3.613   2.685  10.752  0.8898 -0.3730 -0.7223
  327TMC3    C6 4964   3.537   2.788  10.702 -0.2037 -0.3560  0.2745
  327TMC3     C 4965   3.447   2.624  11.043  0.1842  0.8914  0.8591
  327TMC3     O 4966   3.341   2.617  11.105  0.3324 -0.5782 -0.1722
  327TMC3     H 4967   3.269   2.746  10.903  1.3635 -1.5168  1.8972
  327TMC3    H1 4968   3.621   2.513  10.862 -0.6300 -0.1827  1.7284
  327TMC3    H2 4969   3.598   2.866  10.656  1.0488 -2.7720 -2.1622
  327TMC3    C7 4970   3.762   2.692  10.723 -0.0445 -0.4573 -0.0316
  327TMC3    C8 4971   3.368   2.948  10.751 -0.2845 -0.3444  0.0027
  327TMC3    O1 4972   3.796   2.755  10.626  0.5073  0.2942 -0.2949
  327TMC3    O2 4973   3.435   3.022  10.687  0.7343  0.1697  0.6444
  328MPD2     C 4974   0.558   2.563  17.547  0.2902  0.3557 -0.7070
  328MPD2    C1 4975   0.572   2.468  17.447  0.4685  0.5952  0.8171
  328MPD2    C2 4976   0.580   2.506  17.314 -0.6801  0.1186  0.1519
  328MPD2    C3 4977   0.588   2.636  17.281 -0.5833 -0.6463 -0.9023
  328MPD2    C4 4978   0.581   2.734  17.378 -0.1834  0.9787  0.1241
  328MPD2    C5 4979   0.559   2.702  17.514 -0.4132  0.1800 -0.3156
  328MPD2     H 4980   0.592   2.431  17.237  1.6124 -1.0014  1.5978
  328MPD2    H1 4981   0.562   2.833  17.339  0.9704  1.3802  0.5697
  328MPD2    H2 4982   0.540   2.516  17.643  0.2009  2.0710  0.1243
  328MPD2    H3 4983   0.553   2.771  17.598  4.0652  0.7406 -0.4621
  328MPD2     N 4984   0.579   2.693  17.152  0.4627  0.1702  0.1608
  328MPD2    H5 4985   0.571   2.794  17.157  2.3552  0.2509  1.5816
  328MPD2    N1 4986   0.552   2.331  17.489  0.1277 -0.0440  0.2105
  328MPD2    H7 4987   0.544   2.321  17.590  0.2324 -4.1258 -0.1724
  329TMC3    C1 4988   0.442   2.127  17.490 -0.3970 -0.5495  0.6296
  329TMC3    C2 4989   0.330   2.188  17.543 -0.1593 -0.2869  0.4377
  329TMC3    C3 4990   0.223   2.099  17.565  0.5113  0.2590 -1.0406
  329TMC3    C4 4991   0.445   1.994  17.465 -0.1424  0.0065 -0.8505
  329TMC3    C5 4992   0.342   1.914  17.491 -0.2003 -0.0969  0.3301
  329TMC3    C6 4993   0.225   1.962  17.538  0.0454 -0.2147  0.1276
  329TMC3     C 4994   0.531   2.218  17.415 -0.5012  0.0605 -0.6977
  329TMC3     O 4995   0.536   2.201  17.291 -1.0315  0.0529  0.0465
  329TMC3     H 4996   0.323   2.296  17.534  2.8193 -0.0902  0.4238
  329TMC3    H1 4997   0.540   1.955  17.432  0.7450  0.7472  0.8168
  329TMC3    H2 4998   0.132   1.906  17.544  0.1618 -0.3499  0.6867
  329TMC3    C7 4999   0.340   1.770  17.482  0.0206  0.5452  0.7175
  329TMC3    C8 5000   0.091   2.155  17.531 -0.0691  0.6034  0.6700
  329TMC3    O1 5001   0.255   1.715  17.550 -0.1515  0.3696 -0.7810
  329TMC3    O2 5002   0.013   2.088  17.458  0.3903  0.7715  0.6572
  330TMC3    C1 5003   3.085   2.377   9.370 -0.3018  0.4600  0.8572
  330TMC3    C2 5004   3.038   2.254   9.343 -0.4052  0.5682  0.0630
  330TMC3    C3 5005   3.117   2.151   9.398  0.5201  0.3891 -0.3310
  330TMC3    C4 5006   3.213   2.398   9.410  0.3474 -0.1541 -0.2659
  330TMC3    C5 5007   3.290   2.289   9.451  0.0945 -0.0053  0.7071
  330TMC3    C6 5008   3.242   2.162   9.454  0.4401 -0.3717  0.3421
  330TMC3     C 5009   3.007   2.483   9.315  0.3306  0.0098 -0.4593
  330TMC3     O 5010   2.923   2.455   9.231  0.1977 -0.1187 -0.1139
  330TMC3     H 5011   2.938   2.238   9.305 -1.0643 -1.3789  2.6379
  330TMC3    H1 5012   3.264   2.492   9.387 -2.5290  1.4791  0.0525
  330TMC3    H2 5013   3.292   2.078   9.501 -2.1670 -2.9329 -1.4540
  330TMC3    C7 5014   3.425   2.317   9.476  0.3527 -0.3583  0.8315
  330TMC3    C8 5015   3.056   2.015   9.386 -0.3161  0.2882 -0.0668
  330TMC3    O1 5016   3.444   2.435   9.499 -0.0520 -0.4093 -0.3247
  330TMC3    O2 5017   2.962   2.001   9.307  0.1075  0.1117  0.1627
  331MPD2     C 5018   1.577   0.465  13.546  0.1462  0.4837  0.2542
  331MPD2    C1 5019   1.703   0.452  13.497 -0.6948 -0.5391  0.7311
  331MPD2    C2 5020   1.737   0.331  13.435 -0.5518 -0.2846  0.7178
  331MPD2    C3 5021   1.652   0.225  13.414 -0.1626  0.3960  1.0546
  331MPD2    C4 5022   1.524   0.247  13.462 -0.1444 -0.3591 -0.2615
  331MPD2    C5 5023   1.487   0.365  13.517 -0.1031 -0.1237 -0.0061
  331MPD2     H 5024   1.838   0.325  13.397 -0.5787  0.3343  0.5448
  331MPD2    H1 5025   1.437   0.183  13.449 -0.2433 -0.3327  0.2948
  331MPD2    H2 5026   1.539   0.559  13.586  2.0117  0.4895  1.9990
  331MPD2    H3 5027   1.383   0.380  13.542  0.0086  0.8150 -0.1021
  331MPD2     N 5028   1.691   0.117  13.336 -0.8953  0.0339 -0.1362
  331MPD2    H5 5029   1.788   0.112  13.308 -0.1728  3.1811  1.7518
  331MPD2    N1 5030   1.787   0.575  13.483  0.1600  0.2036  0.1118
  331MPD2    H7 5031   1.747   0.661  13.521  0.5536 -0.0394  1.0776
  332TMC3    C1 5032   1.675   4.699  13.159 -0.1615 -0.8335  0.1160
  332TMC3    C2 5033   1.619   4.722  13.036 -0.1276 -0.2115 -0.3672
  332TMC3    C3 5034   1.703   0.001  12.926  0.2144  0.4961  0.2564
  332TMC3    C4 5035   1.806   4.677  13.171 -0.6858  0.5807  0.7822
  332TMC3    C5 5036   1.888   4.696  13.062  0.4704  0.5662  0.2708
  332TMC3    C6 5037   1.837   4.729  12.939 -0.2835  0.5315 -0.0099
  332TMC3     C 5038   1.606   0.030  13.270 -0.1701 -0.4762 -0.0739
  332TMC3     O 5039   1.487   0.016  13.286  0.5818 -0.1448  0.5122
  332TMC3     H 5040   1.516   0.017  13.032  0.0604  0.3324 -0.7006
  332TMC3    H1 5041   1.844   4.654  13.271 -0.0588 -1.2070  0.1317
  332TMC3    H2 5042   1.900   0.003  12.851  1.6292  0.3131  1.3421
  332TMC3    C7 5043   2.019   4.636  13.060 -0.2960 -0.3564  0.5232
  332TMC3    C8 5044   1.668   0.106  12.831 -0.0921  0.0528  0.2971
  332TMC3    O1 5045   2.030   4.537  13.131  0.5152  0.1669 -0.4027
  332TMC3    O2 5046   1.765   0.167  12.785  0.0333  0.3306  0.2280
  333MPD2     C 5047   2.157   0.924  10.992 -0.2526  0.4488 -0.3998
  333MPD2    C1 5048   2.105   0.850  10.886 -0.2484 -0.2307  0.2438
  333MPD2    C2 5049   2.039   0.737  10.917 -0.0597  0.7452  0.6010
  333MPD2    C3 5050   2.021   0.692  11.043 -0.0494 -0.2550 -1.0034
  333MPD2    C4 5051   2.077   0.762  11.148 -0.4708 -0.1591 -0.3948
  333MPD2    C5 5052   2.149   0.879  11.119  0.6912 -0.7517  0.6207
  333MPD2     H 5053   2.002   0.674  10.838  1.9558 -2.4767  2.2235
  333MPD2    H1 5054   2.068   0.743  11.254 -0.4800 -0.2038 -0.4036
  333MPD2    H2 5055   2.207   1.018  10.972  2.8355 -1.1482 -0.2113
  333MPD2    H3 5056   2.186   0.942  11.199 -0.6274  1.2240 -0.3167
  333MPD2     N 5057   1.949   0.576  11.059 -0.0857 -0.3601  0.7692
  333MPD2    H5 5058   1.933   0.522  10.975 -0.7125  0.8068  0.1378
  333MPD2    N1 5059   2.121   0.908  10.756  0.2288 -0.0390  0.2358
  333MPD2    H7 5060   2.177   0.992  10.748  0.5316 -0.0636  2.0161
  334TMC3    C1 5061   2.131   0.924  10.525 -0.2098 -0.1162  0.6501
  334TMC3    C2 5062   2.222   0.869  10.436  0.1280  0.4128  0.0934
  334TMC3    C3 5063   2.302   0.962  10.363  0.7508  0.4147 -0.8266
  334TMC3    C4 5064   2.117   1.065  10.549  0.0908 -0.0229  0.0520
  334TMC3    C5 5065   2.184   1.144  10.465  0.3191 -0.2380 -0.6384
  334TMC3    C6 5066   2.283   1.103  10.376 -0.0089 -0.1943 -0.5960
  334TMC3     C 5067   2.089   0.845  10.636 -0.9125 -0.4499 -0.5779
  334TMC3     O 5068   2.037   0.735  10.618  0.4199 -0.4887 -0.4956
  334TMC3     H 5069   2.224   0.762  10.421 -1.1658  0.3354  0.4465
  334TMC3    H1 5070   2.044   1.113  10.613  0.0934 -1.1489  0.9077
  334TMC3    H2 5071   2.339   1.167  10.309 -0.5737  1.7895  0.8283
  334TMC3    C7 5072   2.193   1.287  10.501 -0.3675  0.0959  0.5455
  334TMC3    C8 5073   2.422   0.906  10.303  0.9830  0.2494 -0.2484
  334TMC3    O1 5074   2.178   1.303  10.621  0.1282  0.3356 -0.0459
  334TMC3    O2 5075   2.419   0.785  10.278 -0.2655  0.1097 -0.3322
  335TMC3    C1 5076   1.381   2.778  17.196  0.3145 -0.3107  0.1185
  335TMC3    C2 5077   1.363   2.709  17.080 -0.2154  0.0299  0.4112
  335TMC3    C3 5078   1.467   2.665  17.007 -0.2131  0.3792  0.5592
  335TMC3    C4 5079   1.510   2.803  17.239  0.0069  0.3972 -0.6211
  335TMC3    C5 5080   1.611   2.773  17.154  0.3347  0.1977  0.1130
  335TMC3    C6 5081   1.593   2.697  17.043  0.2132  0.0211 -0.3393
  335TMC3     C 5082   1.266   2.817  17.273  0.4546  0.2819 -0.8173
  335TMC3     O 5083   1.158   2.829  17.220 -0.2056  0.2144  0.8692
  335TMC3     H 5084   1.265   2.677  17.048  0.9772 -1.5513 -1.6218
  335TMC3    H1 5085   1.529   2.869  17.323  0.6673  0.5802 -0.9169
  335TMC3    H2 5086   1.677   2.671  16.979  0.4837 -2.5716  1.0549
  335TMC3    C7 5087   1.753   2.803  17.182  0.2768  0.0397  0.5780
  335TMC3    C8 5088   1.439   2.583  16.897 -0.7554  0.0454 -1.0647
  335TMC3    O1 5089   1.831   2.803  17.087  0.3566  0.4481 -0.1948
  335TMC3    O2 5090   1.513   2.594  16.795  0.3087 -0.4854  0.7632
  336MPD2     C 5091   0.868   0.073  16.639  0.1346 -0.0686 -0.0958
  336MPD2    C1 5092   0.897   0.019  16.513 -0.0998 -0.4061 -0.2881
  336MPD2    C2 5093   0.926   4.618  16.509 -0.9257  0.2452  0.5647
  336MPD2    C3 5094   0.912   4.541  16.625 -0.5421  0.1576 -0.1140
  336MPD2    C4 5095   0.870   4.596  16.743 -0.0145 -0.0082 -0.9227
  336MPD2    C5 5096   0.864   4.734  16.748 -0.7023 -0.0828  0.0292
  336MPD2     H 5097   0.956   4.569  16.417  1.2944 -0.2409  1.5433
  336MPD2    H1 5098   0.849   4.534  16.829  2.7302  1.7974  1.0544
  336MPD2    H2 5099   0.854   0.179  16.653  0.2275  0.1843 -1.8607
  336MPD2    H3 5100   0.847   0.032  16.849 -0.2826  0.7182 -0.1863
  336MPD2     N 5101   0.942   4.401  16.634 -0.2543 -0.2466  0.1845
  336MPD2    H5 5102   0.933   4.348  16.719  0.8813 -0.4208  0.1967
  336MPD2    N1 5103   0.893   0.100  16.394  0.5785  0.1651  0.2264
  336MPD2    H7 5104   0.934   0.055  16.313 -1.2141 -2.0295  0.5311
  337TMC3    C1 5105   0.812   0.268  16.253 -0.2134 -0.4408 -1.5379
  337TMC3    C2 5106   0.780   0.180  16.156 -0.5917  0.3918  0.5473
  337TMC3    C3 5107   0.727   0.230  16.039 -0.1679  0.2559 -0.1696
  337TMC3    C4 5108   0.800   0.405  16.248 -0.4083  0.6425 -0.0157
  337TMC3    C5 5109   0.745   0.448  16.136  0.1927 -0.4698  0.8887
  337TMC3    C6 5110   0.713   0.361  16.037  0.3882  1.1339 -0.1182
  337TMC3     C 5111   0.837   0.223  16.382 -0.4640 -0.2886 -0.6533
  337TMC3     O 5112   0.794   0.295  16.473  0.7761 -0.7396  0.0071
  337TMC3     H 5113   0.773   0.076  16.185  0.9986  0.2394  0.3833
  337TMC3    H1 5114   0.835   0.467  16.330  1.7758 -0.0069 -0.4507
  337TMC3    H2 5115   0.666   0.409  15.953  0.3603  0.9673 -0.1979
  337TMC3    C7 5116   0.773   0.585  16.101  0.0841  0.1794  0.7060
  337TMC3    C8 5117   0.618   0.154  15.986  0.3273  0.2999  0.3726
  337TMC3    O1 5118   0.808   0.597  15.986  0.1570  0.5043 -0.5186
  337TMC3    O2 5119   0.575   0.072  16.065  0.1363 -0.1838  0.3982
  338MPD2     C 5120   1.111   0.156   1.338  0.2134 -0.2016 -0.2610
  338MPD2    C1 5121   1.085   0.182   1.208  0.8880 -0.3059  0.1799
  338MPD2    C2 5122   0.977   0.255   1.176 -0.8754  0.1841 -0.4255
  338MPD2    C3 5123   0.895   0.322   1.270  0.2284  0.2108 -0.3866
  338MPD2    C4 5124   0.928   0.302   1.405  0.1150 -0.5454  0.1583
  338MPD2    C5 5125   1.037   0.220   1.435 -0.2136  0.4069  0.2168
  338MPD2     H 5126   0.955   0.265   1.071  1.5091  1.6596 -0.7808
  338MPD2    H1 5127   0.883   0.356   1.487 -0.4597 -0.9460  0.1069
  338MPD2    H2 5128   1.188   0.084   1.365  1.1935  1.3473  1.0758
  338MPD2    H3 5129   1.060   0.207   1.540 -0.6549  0.1527  0.2804
  338MPD2     N 5130   0.787   0.401   1.225  0.0779  0.1866 -0.3876
  338MPD2    H5 5131   0.769   0.396   1.125 -0.1844 -1.4298 -0.2550
  338MPD2    N1 5132   1.161   0.123   1.104 -0.5990  0.6405 -0.1195
  338MPD2    H7 5133   1.123   0.145   1.012 -0.5297 -0.4191 -0.4006
  339TMC3    C1 5134   0.593   0.521   1.214 -0.4201  1.0017  1.2804
  339TMC3    C2 5135   0.473   0.521   1.275 -0.2613  0.6186 -0.7292
  339TMC3    C3 5136   0.366   0.504   1.192  0.1552 -0.8277  0.0752
  339TMC3    C4 5137   0.614   0.518   1.079  0.4223  0.1573 -0.6562
  339TMC3    C5 5138   0.510   0.500   1.001  0.2337 -0.7358  0.2298
  339TMC3    C6 5139   0.387   0.496   1.057 -0.2653  0.9360  0.3882
  339TMC3     C 5140   0.699   0.470   1.304  0.4360 -0.4554 -0.1180
  339TMC3     O 5141   0.691   0.477   1.424  0.1494  0.0055  0.2281
  339TMC3     H 5142   0.461   0.503   1.382  1.5827  0.1265 -0.6133
  339TMC3    H1 5143   0.709   0.532   1.029  0.7334 -2.8966 -0.9054
  339TMC3    H2 5144   0.297   0.473   1.001 -0.3259  0.5037  0.6575
  339TMC3    C7 5145   0.517   0.480   0.857 -0.0298  0.1855  0.4786
  339TMC3    C8 5146   0.244   0.438   1.248  0.9362 -0.0448  0.4512
  339TMC3    O1 5147   0.602   0.539   0.789  0.6415  0.0545 -0.2270
  339TMC3    O2 5148   0.197   0.359   1.172 -0.3975  0.2848  0.5511
  340MPD2     C 5149   1.657   2.293  11.068 -0.0186 -0.3397  0.2543
  340MPD2    C1 5150   1.694   2.311  10.941  0.2852  0.3595 -0.1408
  340MPD2    C2 5151   1.819   2.365  10.932  0.3692 -0.3443 -0.0817
  340MPD2    C3 5152   1.896   2.389  11.046 -0.5715  0.9218 -0.9791
  340MPD2    C4 5153   1.842   2.377  11.170  0.4090 -0.0709 -0.5581
  340MPD2    C5 5154   1.719   2.326  11.182 -0.3204  0.1217 -0.0430
  340MPD2     H 5155   1.853   2.384  10.831  0.4849 -0.4902 -0.0707
  340MPD2    H1 5156   1.897   2.396  11.261  0.8456  0.0883 -0.8563
  340MPD2    H2 5157   1.564   2.244  11.093  0.8659 -2.3205 -0.3844
  340MPD2    H3 5158   1.679   2.308  11.281  1.1671 -0.3407  0.4745
  340MPD2     N 5159   2.033   2.425  11.029  0.3396 -0.2248 -0.4085
  340MPD2    H5 5160   2.082   2.425  10.940  0.3525  1.5577 -0.3903
  340MPD2    N1 5161   1.616   2.266  10.832 -0.2062 -0.3661 -0.1706
  340MPD2    H7 5162   1.526   2.231  10.864  0.1846 -1.3705 -0.1470
  341TMC3    C1 5163   1.564   2.220  10.613  0.2584 -0.1968 -1.0107
  341TMC3    C2 5164   1.534   2.093  10.638 -0.5550  0.6033  0.5729
  341TMC3    C3 5165   1.498   2.007  10.536 -0.3687  0.1732  0.3923
  341TMC3    C4 5166   1.553   2.264  10.485  1.2209 -0.5997 -0.3482
  341TMC3    C5 5167   1.507   2.179  10.382 -0.3382  0.3910 -0.1449
  341TMC3    C6 5168   1.493   2.049  10.413 -0.7036 -0.3260  1.0148
  341TMC3     C 5169   1.637   2.301  10.706  0.6238  0.4421  0.1122
  341TMC3     O 5170   1.709   2.386  10.659 -0.6063  0.3759 -0.0522
  341TMC3     H 5171   1.531   2.064  10.742  0.3347  0.4897  0.5671
  341TMC3    H1 5172   1.562   2.370  10.461 -2.1865 -0.9957 -3.3614
  341TMC3    H2 5173   1.463   1.974  10.340  0.9368 -0.2327  0.2297
  341TMC3    C7 5174   1.518   2.210  10.237  0.0883  0.0139 -0.1682
  341TMC3    C8 5175   1.479   1.866  10.555 -0.8069 -0.4812 -0.3552
  341TMC3    O1 5176   1.507   2.327  10.200  0.0971 -0.3508 -0.2392
  341TMC3    O2 5177   1.418   1.804  10.468 -0.3634 -0.3524 -0.6820
  342MPD2     C 5178   3.898   0.491   0.075 -0.0447  0.3831 -0.2845
  342MPD2    C1 5179   3.999   0.497  17.730 -1.1172  0.0553  0.0715
  342MPD2    C2 5180   4.027   0.622  17.667  0.0262 -0.5613  0.8870
  342MPD2    C3 5181   3.967   0.737  17.708 -0.3188 -0.8820 -0.2955
  342MPD2    C4 5182   3.879   0.728   0.064  0.2297 -0.1254  0.0612
  342MPD2    C5 5183   3.834   0.608   0.106  0.7778  0.2586  0.2910
  342MPD2     H 5184   4.090   0.627  17.579 -1.2617  1.8398  0.0764
  342MPD2    H1 5185   3.831   0.815   0.109  0.5220 -0.9258  1.9376
  342MPD2    H2 5186   3.857   0.399   0.115  3.1443 -0.5198  0.8244
  342MPD2    H3 5187   3.744   0.600   0.167 -0.7301  0.2661 -1.9413
  342MPD2     N 5188   3.982   0.863  17.649 -0.6128 -0.1093  0.3281
  342MPD2    H5 5189   3.944   0.947  17.692  1.2500  0.6928  0.4192
  342MPD2    N1 5190   4.047   0.378  17.667  0.5612 -0.1763 -0.6139
  342MPD2    H7 5191   4.083   0.381  17.572  0.2951 -1.8277 -0.7734
  343TMC3    C1 5192   4.115   0.153  17.644 -0.0568 -0.1852 -0.3794
  343TMC3    C2 5193   4.223   0.192  17.572  0.3397 -0.2851  0.4697
  343TMC3    C3 5194   4.287   0.086  17.517  0.2670 -0.3833 -0.3455
  343TMC3    C4 5195   4.069   0.031  17.670  0.3700 -0.8204  0.1175
  343TMC3    C5 5196   4.141   4.665  17.616  0.1154 -0.2422 -0.3053
  343TMC3    C6 5197   4.248   4.691  17.528 -0.5710 -0.2027  0.1396
  343TMC3     C 5198   4.037   0.249  17.723 -0.1771 -0.2304  0.2646
  343TMC3     O 5199   3.996   0.218   0.084 -0.8101  0.3163 -0.2805
  343TMC3     H 5200   4.269   0.290  17.572 -0.6223  0.1607 -0.8845
  343TMC3    H1 5201   3.982   0.014  17.732 -0.3899  0.7046 -0.5527
  343TMC3    H2 5202   4.294   4.602  17.485 -0.7071  0.5629 -1.5844
  343TMC3    C7 5203   4.074   4.544  17.613  0.1504  0.7519  0.3015
  343TMC3    C8 5204   4.396   0.113  17.418  0.5775  0.4301 -0.5906
  343TMC3    O1 5205   4.089   4.471  17.516  0.1039  0.3274 -0.3936
  343TMC3    O2 5206   4.462   0.216  17.445 -0.4340 -0.3510 -0.7867
  344MPD2     C 5207   0.654   0.512  11.198  0.0310  0.5648 -0.1933
  344MPD2    C1 5208   0.610   0.487  11.073  0.0143  0.9460  0.0749
  344MPD2    C2 5209   0.667   0.563  10.969 -0.5144  0.5240  0.2789
  344MPD2    C3 5210   0.753   0.669  10.999  0.3584  0.5273 -0.3230
  344MPD2    C4 5211   0.781   0.696  11.132  0.0085  0.0074  0.1431
  344MPD2    C5 5212   0.741   0.608  11.232  1.0051  0.0404 -0.3605
  344MPD2     H 5213   0.647   0.530  10.867 -1.7958  0.9478  0.3863
  344MPD2    H1 5214   0.844   0.780  11.161 -3.5021  2.3062  1.1132
  344MPD2    H2 5215   0.621   0.452  11.282  0.7018 -1.2732 -1.2275
  344MPD2    H3 5216   0.771   0.621  11.335  0.1846  1.4405 -0.2924
  344MPD2     N 5217   0.812   0.746  10.893  0.9225  0.3154  0.4292
  344MPD2    H5 5218   0.863   0.827  10.928  0.1074  0.5145  1.1406
  344MPD2    N1 5219   0.518   0.389  11.039  0.0604  0.1986  0.4968
  344MPD2    H7 5220   0.496   0.379  10.940  1.7182 -0.9915  0.2533
  345TMC3    C1 5221   0.865   0.811  10.670  0.0465 -0.1743 -0.0368
  345TMC3    C2 5222   0.961   0.896  10.729 -0.2721 -0.4090  0.3488
  345TMC3    C3 5223   1.026   0.981  10.651  0.4254 -0.4964 -0.2176
  345TMC3    C4 5224   0.819   0.831  10.547  0.6758 -0.3050  0.7635
  345TMC3    C5 5225   0.887   0.921  10.470  0.4810  0.2919 -0.2278
  345TMC3    C6 5226   0.999   0.985  10.515  0.9117 -0.2541 -0.5828
  345TMC3     C 5227   0.795   0.720  10.755 -0.1696 -0.1308 -0.1325
  345TMC3     O 5228   0.727   0.636  10.695 -0.5294 -0.9224  0.6986
  345TMC3     H 5229   0.997   0.868  10.827  1.7993 -3.2243 -1.2072
  345TMC3    H1 5230   0.757   0.752  10.507 -1.1101 -0.0027  2.8827
  345TMC3    H2 5231   1.042   1.056  10.445  0.9284 -2.0813 -2.4323
  345TMC3    C7 5232   0.806   1.009  10.376 -0.8785  0.3424  0.0644
  345TMC3    C8 5233   1.079   1.099  10.702  0.5640 -0.2476  0.7431
  345TMC3    O1 5234   0.873   1.083  10.302 -0.0239 -0.0162  0.5396
  345TMC3    O2 5235   1.088   1.189  10.617  0.1439  0.6015 -0.1132
  346MPD2     C 5236   0.540   1.557  14.256  0.7636 -0.3342  0.4378
  346MPD2    C1 5237   0.607   1.664  14.210 -0.0296 -0.3936 -0.1789
  346MPD2    C2 5238   0.651   1.766  14.300 -0.0688  0.4331 -0.3768
  346MPD2    C3 5239   0.613   1.753  14.435 -0.4167  0.0610  0.3887
  346MPD2    C4 5240   0.536   1.644  14.482 -0.3379 -0.6526  0.0752
  346MPD2    C5 5241   0.492   1.551  14.390  0.5352  0.2984 -0.2354
  346MPD2     H 5242   0.707   1.856  14.276 -0.0808 -0.1429 -2.5977
  346MPD2    H1 5243   0.515   1.633  14.588 -0.3537  0.1741  0.1566
  346MPD2    H2 5244   0.500   1.478  14.194  0.7645  0.9916 -1.2605
  346MPD2    H3 5245   0.425   1.471  14.420  0.3116  0.4261 -0.3925
  346MPD2     N 5246   0.661   1.853  14.524 -0.0437  0.1536  0.5970
  346MPD2    H5 5247   0.746   1.902  14.499 -0.3253  1.2541  1.7951
  346MPD2    N1 5248   0.641   1.686  14.080  0.0417 -0.3070 -0.3286
  346MPD2    H7 5249   0.680   1.778  14.063 -0.6975 -0.0389 -0.5694
  347TMC3    C1 5250   0.689   1.973  14.728  0.3884  0.3994 -0.3214
  347TMC3    C2 5251   0.766   2.049  14.651  0.7910 -0.3229 -0.1208
  347TMC3    C3 5252   0.898   2.052  14.685  0.3814 -0.1359  0.1785
  347TMC3    C4 5253   0.722   1.917  14.849  0.6527 -0.4949 -0.2298
  347TMC3    C5 5254   0.857   1.912  14.870  0.0431  0.2309  0.6005
  347TMC3    C6 5255   0.946   1.989  14.796  1.2545  0.6192  0.0173
  347TMC3     C 5256   0.610   1.875  14.650  0.5582 -0.6725  0.0655
  347TMC3     O 5257   0.537   1.805  14.718 -0.0971  0.3664 -0.0920
  347TMC3     H 5258   0.728   2.083  14.556 -1.9555  0.7992  1.3733
  347TMC3    H1 5259   0.660   1.843  14.898  0.5662  0.0422  0.4824
  347TMC3    H2 5260   1.053   1.994  14.817  0.6229 -1.5369  3.7102
  347TMC3    C7 5261   0.905   1.842  14.985  0.5524 -0.0355  0.3103
  347TMC3    C8 5262   0.992   2.048  14.569 -0.1430  0.2340 -0.1531
  347TMC3    O1 5263   0.836   1.846  15.088 -0.2203 -0.6228 -0.9050
  347TMC3    O2 5264   1.095   1.984  14.579 -0.3347  0.7826 -0.0566
  348MPD2     C 5265   4.020   1.456  12.041  0.2811 -0.8471 -0.7435
  348MPD2    C1 5266   4.105   1.557  12.003  0.3137 -0.0168  0.5143
  348MPD2    C2 5267   4.061   1.660  11.920  0.3074 -0.3528  0.4580
  348MPD2    C3 5268   3.933   1.656  11.867 -0.2620  0.7543 -0.2471
  348MPD2    C4 5269   3.845   1.556  11.909 -0.4030  0.6014  0.1157
  348MPD2    C5 5270   3.888   1.460  11.992  0.1367  0.4065 -0.6673
  348MPD2     H 5271   4.138   1.725  11.880  0.0618 -0.0962  0.3966
  348MPD2    H1 5272   3.745   1.550  11.867  0.1884  1.5722 -1.4406
  348MPD2    H2 5273   4.055   1.374  12.104  1.0734 -1.4608 -1.9836
  348MPD2    H3 5274   3.818   1.378  12.000  2.4371 -1.4592  0.5358
  348MPD2     N 5275   3.899   1.762  11.771 -0.4056  0.3387  0.3838
  348MPD2    H5 5276   3.964   1.840  11.760 -1.3703  1.0809 -0.0184
  348MPD2    N1 5277   4.246   1.548  12.020  0.2976  0.0305  0.5200
  348MPD2    H7 5278   4.303   1.616  11.970  0.2855  0.6161  1.3106
  349TMC3    C1 5279   4.426   1.400  11.994  0.3864  0.8389  0.1152
  349TMC3    C2 5280   4.471   1.282  12.046 -0.1531  0.5821  0.2005
  349TMC3    C3 5281   4.463   1.175  11.960 -0.5993  0.9377  0.3923
  349TMC3    C4 5282   4.392   1.415  11.863  0.2157  0.6268 -0.2869
  349TMC3    C5 5283   4.369   1.300  11.790 -0.2913  0.1212 -0.7045
  349TMC3    C6 5284   4.402   1.183  11.841 -0.3080  0.7560  0.2042
  349TMC3     C 5285   4.317   1.450  12.083 -0.3068  0.4881 -0.1757
  349TMC3     O 5286   4.288   1.383  12.183  0.0748  0.5336 -0.0619
  349TMC3     H 5287   4.503   1.274  12.149  0.0334  2.3859  0.2875
  349TMC3    H1 5288   4.373   1.516  11.829  1.3836  1.6459  2.0782
  349TMC3    H2 5289   4.358   1.095  11.794  0.1078  0.1428  0.9621
  349TMC3    C7 5290   4.245   1.307  11.713  0.0570 -0.1698 -1.1149
  349TMC3    C8 5291   4.486   1.050  12.022  0.6232  0.6583 -0.5317
  349TMC3    O1 5292   4.162   1.222  11.732  0.1876 -0.4259  0.3392
  349TMC3    O2 5293   4.446   1.033  12.135  0.0768  0.0440  0.2149
  350MPD2     C 5294   3.370   4.649  10.667  0.2902  0.6687 -0.4183
  350MPD2    C1 5295   3.243   4.597  10.673 -0.0223 -0.3002 -0.1114
  350MPD2    C2 5296   3.156   4.642  10.774  0.3598  0.5994  0.3146
  350MPD2    C3 5297   3.181   4.735  10.871 -0.9484  0.3394 -0.2877
  350MPD2    C4 5298   3.314   0.039  10.868  0.4053  0.1584  0.3876
  350MPD2    C5 5299   3.403   0.002  10.768  0.6070  0.0528  0.7933
  350MPD2     H 5300   3.060   4.593  10.776  1.0565 -0.7334  1.4569
  350MPD2    H1 5301   3.348   0.123  10.928 -0.7708  2.0348 -1.5467
  350MPD2    H2 5302   3.447   4.612  10.599  2.4331 -0.2594  2.5269
  350MPD2    H3 5303   3.500   0.050  10.773  0.7416 -0.2257  0.8177
  350MPD2     N 5304   3.101   0.010  10.987 -0.4404 -0.2881  0.0398
  350MPD2    H5 5305   3.016   4.693  10.986 -1.3446  1.1100 -0.5531
  350MPD2    N1 5306   3.188   4.507  10.583 -0.5892 -0.0794 -0.4546
  350MPD2    H7 5307   3.087   4.498  10.583 -0.6164  0.2087 -0.5467
  351TMC3    C1 5308   3.162   4.369  10.406 -0.2629 -0.3652 -0.3295
  351TMC3    C2 5309   3.200   4.253  10.345  0.2432  0.0108  0.0101
  351TMC3    C3 5310   3.125   4.212  10.234  0.4567  0.2712  0.1151
  351TMC3    C4 5311   3.037   4.432  10.369  0.5686 -1.1179  0.5725
  351TMC3    C5 5312   2.966   4.367  10.274 -0.0705 -0.0200 -0.1892
  351TMC3    C6 5313   3.003   4.264  10.198 -0.1135 -0.0761 -1.0019
  351TMC3     C 5314   3.255   4.430  10.497 -1.1539  1.0160  0.1340
  351TMC3     O 5315   3.372   4.409  10.490  0.3493  0.2534  0.0532
  351TMC3     H 5316   3.293   4.206  10.372  0.4285  1.3444  1.6435
  351TMC3    H1 5317   3.007   4.527  10.411  1.3312 -1.0140  0.8720
  351TMC3    H2 5318   2.958   4.237  10.104 -0.5866  2.2890 -1.4532
  351TMC3    C7 5319   2.874   4.457  10.210  0.2583 -0.2513  0.0132
  351TMC3    C8 5320   3.214   4.158  10.135 -0.2443 -0.1922 -0.0802
  351TMC3    O1 5321   2.759   4.418  10.188 -0.3823 -0.0536 -0.5441
  351TMC3    O2 5322   3.326   4.208  10.132  0.0918  0.4692 -0.4056
  352MPD2     C 5323   1.941   2.010   0.966 -0.5628 -0.5819 -0.1913
  352MPD2    C1 5324   1.827   1.964   0.914 -0.1714 -0.3252  0.4058
  352MPD2    C2 5325   1.808   1.828   0.912 -0.0471 -1.0017  0.9633
  352MPD2    C3 5326   1.903   1.745   0.960  0.4882  0.3565 -0.9344
  352MPD2    C4 5327   2.027   1.795   0.996 -0.2074  0.1186  0.0846
  352MPD2    C5 5328   2.049   1.932   0.998  0.0120  0.4025 -0.5494
  352MPD2     H 5329   1.719   1.793   0.862  0.5376  1.1517 -1.5579
  352MPD2    H1 5330   2.113   1.732   1.017 -1.3874 -0.3005  3.6008
  352MPD2    H2 5331   1.956   2.117   0.973  0.5653 -0.5903 -2.5093
  352MPD2    H3 5332   2.140   1.978   1.033 -0.0644  0.0462  0.1130
  352MPD2     N 5333   1.888   1.606   0.983 -0.1005  0.0479  0.5707
  352MPD2    H5 5334   1.967   1.549   1.012 -0.2919 -0.6776 -0.3183
  352MPD2    N1 5335   1.737   2.060   0.872  0.0296  0.6044 -0.1099
  352MPD2    H7 5336   1.752   2.153   0.910 -1.7524  1.3956 -1.3391
  353TMC3    C1 5337   1.781   1.397   1.019 -0.4575  0.1028  0.3580
  353TMC3    C2 5338   1.902   1.338   1.034  1.0124 -0.6398 -0.1713
  353TMC3    C3 5339   1.907   1.202   1.029  0.0790  0.1635 -0.4084
  353TMC3    C4 5340   1.662   1.323   1.013  0.0761 -0.1180  0.1875
  353TMC3    C5 5341   1.667   1.189   1.018  0.2039  0.0573  0.1024
  353TMC3    C6 5342   1.791   1.125   1.013 -0.8384 -0.5187 -0.4744
  353TMC3     C 5343   1.766   1.540   0.982  0.2232 -0.0504 -0.5420
  353TMC3     O 5344   1.661   1.585   0.939 -0.3193  0.4234  0.1112
  353TMC3     H 5345   1.993   1.391   1.059  0.2385  1.0859 -1.0107
  353TMC3    H1 5346   1.569   1.378   1.019 -1.7941 -3.1304 -0.8878
  353TMC3    H2 5347   1.781   1.018   1.032  3.7104 -0.9454 -0.5649
  353TMC3    C7 5348   1.543   1.114   0.993  0.0350  0.5563  0.5523
  353TMC3    C8 5349   2.019   1.126   1.080  0.0816  0.1014  0.5192
  353TMC3    O1 5350   1.548   1.000   0.947 -0.1728 -1.0962 -0.5575
  353TMC3    O2 5351   2.105   1.189   1.144 -0.0351 -0.2612  0.2505
  354TMC3    C1 5352   3.242   2.433  13.398 -0.0908  0.0926  0.0627
  354TMC3    C2 5353   3.195   2.552  13.343  0.1963  0.1960  0.1523
  354TMC3    C3 5354   3.219   2.574  13.210 -0.0276 -0.1112 -0.5547
  354TMC3    C4 5355   3.337   2.356  13.328 -1.0226  0.5135 -0.3041
  354TMC3    C5 5356   3.363   2.390  13.194 -0.4280 -0.2824  0.8037
  354TMC3    C6 5357   3.304   2.500  13.134 -0.3132  0.3389 -0.0315
  354TMC3     C 5358   3.190   2.373  13.518 -0.4170  0.6919  0.1920
  354TMC3     O 5359   3.184   2.254  13.527 -0.5045 -0.2399 -0.2837
  354TMC3     H 5360   3.111   2.595  13.397  0.2739  1.5957 -0.8381
  354TMC3    H1 5361   3.379   2.268  13.376  2.6792  0.8351 -2.9218
  354TMC3    H2 5362   3.315   2.524  13.029 -0.5325  1.0054  0.0972
  354TMC3    C7 5363   3.467   2.313  13.130  0.2571 -0.7621  0.1404
  354TMC3    C8 5364   3.216   2.712  13.164  0.5668 -0.1472  0.6948
  354TMC3    O1 5365   3.465   2.194  13.133  0.2661 -0.6408  0.1363
  354TMC3    O2 5366   3.270   2.732  13.052 -0.3098  0.3001  0.2060
  355MPD2     C 5367   3.428   3.673  11.388 -0.0928  0.3589  0.1999
  355MPD2    C1 5368   3.506   3.791  11.385  0.3937  0.3879  0.0029
  355MPD2    C2 5369   3.546   3.854  11.503  0.3838 -0.4384  0.3859
  355MPD2    C3 5370   3.503   3.805  11.623  0.1548  0.4508  0.2558
  355MPD2    C4 5371   3.424   3.693  11.620 -0.0657  0.2076  0.0130
  355MPD2    C5 5372   3.384   3.626  11.509 -0.2434 -0.1358  0.0986
  355MPD2     H 5373   3.600   3.948  11.499  1.4264 -1.0250  0.7046
  355MPD2    H1 5374   3.387   3.651  11.713  0.0674  1.1052  0.4718
  355MPD2    H2 5375   3.402   3.610  11.304  1.5275  0.4747 -0.3681
  355MPD2    H3 5376   3.322   3.537  11.516  0.0790 -0.3328  0.4273
  355MPD2     N 5377   3.539   3.871  11.743 -0.4368  0.2353 -0.1097
  355MPD2    H5 5378   3.519   3.826  11.832 -0.1541  0.2270 -0.0504
  355MPD2    N1 5379   3.567   3.846  11.270  0.0651  0.1049 -0.0067
  355MPD2    H7 5380   3.643   3.910  11.288  0.0732 -0.4170  1.7621
  356TMC3    C1 5381   3.600   4.031  11.896  0.4188  0.7812 -0.0384
  356TMC3    C2 5382   3.616   4.168  11.916 -0.1478  0.4665 -0.4799
  356TMC3    C3 5383   3.617   4.214  12.043 -0.1761 -0.1387  0.5223
  356TMC3    C4 5384   3.597   3.941  11.997  0.1984 -0.5117 -0.1958
  356TMC3    C5 5385   3.629   3.993  12.116 -0.7776 -0.4540 -0.2133
  356TMC3    C6 5386   3.628   4.129  12.144 -0.1960  0.1617  0.1615
  356TMC3     C 5387   3.599   3.994  11.754 -0.2594 -0.2466 -0.5325
  356TMC3     O 5388   3.611   4.088  11.676  0.1153 -0.1318 -0.1052
  356TMC3     H 5389   3.614   4.244  11.839  0.9485  1.1085  0.1280
  356TMC3    H1 5390   3.598   3.833  11.985 -0.4051 -0.5528  0.0780
  356TMC3    H2 5391   3.627   4.166  12.246  1.8921  0.5236  0.0564
  356TMC3    C7 5392   3.686   3.907  12.223  0.3910 -0.6678  0.2551
  356TMC3    C8 5393   3.575   4.348  12.077  1.3360 -0.0397 -0.1680
  356TMC3    O1 5394   3.647   3.793  12.224 -1.4488  0.5813  0.1690
  356TMC3    O2 5395   3.501   4.369  12.174  0.0897 -0.6016  0.3381
  357MPD2     C 5396   2.557   3.103   1.150 -0.2398  0.4170  0.1335
  357MPD2    C1 5397   2.690   3.090   1.135 -0.0161 -0.5756  0.8278
  357MPD2    C2 5398   2.769   3.147   1.224 -0.2800  0.5232 -0.1474
  357MPD2    C3 5399   2.710   3.231   1.321 -0.0635 -0.1025 -0.0017
  357MPD2    C4 5400   2.576   3.259   1.327  0.4198 -0.4817 -0.3629
  357MPD2    C5 5401   2.497   3.191   1.241 -0.3461 -0.1326  0.2201
  357MPD2     H 5402   2.874   3.124   1.228 -0.5160 -0.8473 -1.7505
  357MPD2    H1 5403   2.524   3.322   1.398 -0.7156 -1.1394 -0.6015
  357MPD2    H2 5404   2.485   3.051   1.087 -0.0019 -1.2931  1.2807
  357MPD2    H3 5405   2.389   3.197   1.253 -0.3123  0.7555  0.1196
  357MPD2     N 5406   2.783   3.297   1.419 -0.1432  0.1583  0.5608
  357MPD2    H5 5407   2.736   3.376   1.464  2.8561  0.7071  2.6745
  357MPD2    N1 5408   2.746   3.005   1.028 -0.1698  0.4118  0.4157
  357MPD2    H7 5409   2.680   2.957   0.967 -0.9800  0.0654  1.5586
  358TMC3    C1 5410   2.924   2.874   0.931  0.1702 -0.2417 -0.1541
  358TMC3    C2 5411   2.841   2.833   0.827  0.7100  0.3740 -0.4453
  358TMC3    C3 5412   2.898   2.745   0.736  0.1209  0.0878  0.4056
  358TMC3    C4 5413   3.048   2.824   0.950 -0.3023 -0.1700 -0.0043
  358TMC3    C5 5414   3.081   2.715   0.874  0.3174  0.0847 -1.1003
  358TMC3    C6 5415   3.009   2.667   0.772  0.3090 -0.4624 -0.0019
  358TMC3     C 5416   2.881   2.983   1.007  0.0523  0.2949 -0.5689
  358TMC3     O 5417   2.979   3.045   1.050 -0.0223  0.0851  0.1878
  358TMC3     H 5418   2.762   2.896   0.789  0.0972 -0.3494 -0.3840
  358TMC3    H1 5419   3.117   2.871   1.019 -1.1399  3.2144 -1.4646
  358TMC3    H2 5420   3.059   2.610   0.695 -1.2635  1.1216 -2.1776
  358TMC3    C7 5421   3.221   2.663   0.881 -0.0514 -0.0539  0.9996
  358TMC3    C8 5422   2.797   2.679   0.656  0.7066 -0.7809  0.6913
  358TMC3    O1 5423   3.254   2.573   0.811 -0.7510  0.3650 -0.2504
  358TMC3    O2 5424   2.702   2.744   0.616 -0.4869 -1.1981  0.3081
  359MPD2     C 5425   3.794   1.359  12.350 -0.4355 -0.2372  0.0799
  359MPD2    C1 5426   3.755   1.491  12.362  0.0083  0.3860  0.1455
  359MPD2    C2 5427   3.621   1.516  12.369 -0.2776  0.7179 -0.2331
  359MPD2    C3 5428   3.527   1.411  12.380 -0.3476  0.3701 -0.2713
  359MPD2    C4 5429   3.572   1.285  12.362  0.5947  0.1315  0.3631
  359MPD2    C5 5430   3.704   1.262  12.345 -0.5176  0.0440 -0.1046
  359MPD2     H 5431   3.587   1.618  12.362  1.7521  1.3960 -0.1697
  359MPD2    H1 5432   3.507   1.199  12.364  3.8923 -2.3108  1.9067
  359MPD2    H2 5433   3.896   1.328  12.332 -0.7355 -0.0004 -1.9712
  359MPD2    H3 5434   3.737   1.159  12.337 -1.1687 -0.0429 -1.6642
  359MPD2     N 5435   3.389   1.425  12.401 -0.5029  0.1107 -0.1725
  359MPD2    H5 5436   3.343   1.335  12.409 -1.2634  0.4616 -0.6712
  359MPD2    N1 5437   3.851   1.594  12.344 -0.3460  0.0798 -0.0642
  359MPD2    H7 5438   3.944   1.571  12.376  0.0487  2.4748  0.4671
  360TMC3    C1 5439   3.955   1.794  12.275  0.0211 -0.8090 -1.1252
  360TMC3    C2 5440   4.072   1.747  12.335 -0.4496 -0.8452 -0.3183
  360TMC3    C3 5441   4.193   1.803  12.298 -0.2670 -0.4764  1.4398
  360TMC3    C4 5442   3.956   1.897  12.185  0.2002 -0.1111 -0.5927
  360TMC3    C5 5443   4.080   1.944  12.145  0.6496 -0.0128 -0.0932
  360TMC3    C6 5444   4.194   1.897  12.203  0.1836  0.0068  0.6904
  360TMC3     C 5445   3.826   1.724  12.303  0.3183 -0.1701  0.2941
  360TMC3     O 5446   3.722   1.781  12.264  0.3317 -0.1883  0.1753
  360TMC3     H 5447   4.062   1.677  12.417  2.5429  0.0963  0.8590
  360TMC3    H1 5448   3.866   1.904  12.124 -0.9037 -0.2188  1.0322
  360TMC3    H2 5449   4.285   1.934  12.158 -0.7228  0.4640 -0.7873
  360TMC3    C7 5450   4.093   2.023  12.023  0.4762  0.0525  0.1791
  360TMC3    C8 5451   4.316   1.733  12.341 -0.4316  0.2811  0.7314
  360TMC3    O1 5452   4.203   2.044  11.979  0.4476 -0.1185 -0.2507
  360TMC3    O2 5453   4.303   1.638  12.415  0.4232  0.6101 -0.5638
  361MPD2     C 5454   0.162   0.952  16.562  0.1741  0.5468  0.2870
  361MPD2    C1 5455   0.165   1.015  16.689  0.3145 -0.8576  0.9028
  361MPD2    C2 5456   0.271   1.012  16.772 -0.5176  0.8743 -0.1501
  361MPD2    C3 5457   0.383   0.948  16.727  1.0473 -0.4797  0.0504
  361MPD2    C4 5458   0.387   0.888  16.603  0.7706 -0.2147  0.5615
  361MPD2    C5 5459   0.276   0.881  16.519 -0.0499  1.1244  0.3175
  361MPD2     H 5460   0.284   1.069  16.863 -1.5302  0.0697  0.4834
  361MPD2    H1 5461   0.475   0.832  16.574  0.6350 -1.0600  1.7698
  361MPD2    H2 5462   0.077   0.960  16.495  2.0468  0.4416 -2.0595
  361MPD2    H3 5463   0.279   0.832  16.422 -1.3011  0.7905  0.4557
  361MPD2     N 5464   0.502   0.928  16.797  0.7200 -0.1252  0.2317
  361MPD2    H5 5465   0.571   0.864  16.757  1.0260  0.5785 -0.3496
  361MPD2    N1 5466   0.048   1.090  16.727  0.1106  0.3422  0.0810
  361MPD2    H7 5467   4.718   1.113  16.656  0.6461  0.6248 -0.3423
  362TMC3    C1 5468   4.621   1.176  16.872 -0.0334 -0.0248  0.4288
  362TMC3    C2 5469   4.549   1.170  16.988 -0.2463  0.1953 -0.5169
  362TMC3    C3 5470   4.442   1.253  16.998 -0.7720 -0.6385 -0.6773
  362TMC3    C4 5471   4.600   1.271  16.772  0.4438 -0.2987  0.3935
  362TMC3    C5 5472   4.494   1.351  16.786 -0.0900 -0.4438 -0.1344
  362TMC3    C6 5473   4.421   1.352  16.905 -1.0826  0.3296  0.4303
  362TMC3     C 5474   0.005   1.100  16.857  0.0199  0.4508  0.3377
  362TMC3     O 5475   0.055   1.050  16.957 -0.7130 -0.4553 -0.0077
  362TMC3     H 5476   4.565   1.097  17.067  4.0143  0.0937 -1.4611
  362TMC3    H1 5477   4.653   1.290  16.679 -1.1820 -1.0443 -0.6908
  362TMC3    H2 5478   4.331   1.413  16.908 -2.2439 -1.3759  0.6780
  362TMC3    C7 5479   4.467   1.450  16.681 -0.1113  0.5188  0.6450
  362TMC3    C8 5480   4.329   1.200  17.070 -0.0108  0.1822 -0.3942
  362TMC3    O1 5481   4.446   1.567  16.694 -0.5617 -0.6163  0.1244
  362TMC3    O2 5482   4.336   1.081  17.107 -0.2545  0.1070 -0.8001
  363TMC3    C1 5483   4.299   4.300   9.830 -0.1288 -0.1075  0.2619
  363TMC3    C2 5484   4.301   4.163   9.824 -0.1805  0.5335 -0.2290
  363TMC3    C3 5485   4.183   4.100   9.856  0.3373  0.0376  0.0711
  363TMC3    C4 5486   4.179   4.373   9.863 -0.8945  0.1830 -0.5895
  363TMC3    C5 5487   4.062   4.305   9.890 -0.3121 -0.7069 -0.1431
  363TMC3    C6 5488   4.066   4.169   9.890 -0.0255  0.1531 -0.6663
  363TMC3     C 5489   4.426   4.363   9.819 -0.7783  0.4624  0.4607
  363TMC3     O 5490   4.525   4.295   9.797 -0.0582  0.0498  0.4459
  363TMC3     H 5491   4.390   4.104   9.801 -1.0061 -0.5157 -0.7254
  363TMC3    H1 5492   4.171   4.481   9.863  1.3320  0.3401  0.4022
  363TMC3    H2 5493   3.975   4.113   9.909  1.3972 -1.2174  2.0467
  363TMC3    C7 5494   3.965   4.389   9.963  0.5409 -0.4826 -0.0375
  363TMC3    C8 5495   4.171   3.954   9.864  0.6799  0.3000 -0.2275
  363TMC3    O1 5496   3.971   4.512   9.944  0.6448 -0.0540 -0.2257
  363TMC3    O2 5497   4.065   3.900   9.838  0.8663  0.1104 -0.3069
  364MPD2     C 5498   3.014   3.309  10.773  0.1879 -0.1213  0.4935
  364MPD2    C1 5499   3.119   3.283  10.691 -0.2333 -0.2915  0.2872
  364MPD2    C2 5500   3.193   3.171  10.706  0.0299  0.3045  0.2306
  364MPD2    C3 5501   3.163   3.076  10.800 -0.6642 -0.5275 -0.0348
  364MPD2    C4 5502   3.052   3.091  10.875  0.1121  0.4953  0.2769
  364MPD2    C5 5503   2.976   3.211  10.860  0.1803  0.0561 -0.1105
  364MPD2     H 5504   3.264   3.160  10.624 -0.3558 -0.3462 -0.0165
  364MPD2    H1 5505   3.030   3.026  10.960  0.5571 -2.1493 -1.6279
  364MPD2    H2 5506   2.951   3.395  10.753 -0.6088 -1.0393 -0.9911
  364MPD2    H3 5507   2.884   3.227  10.915  0.2550 -1.3948  0.4331
  364MPD2     N 5508   3.245   2.963  10.811 -0.4034 -0.3931 -0.7303
  364MPD2    H5 5509   3.224   2.889  10.877  2.0908 -0.8508 -0.4607
  364MPD2    N1 5510   3.140   3.392  10.592  0.1849 -0.3054  0.5345
  364MPD2    H7 5511   3.089   3.477  10.614 -1.4483 -0.5898 -2.0644
  365TMC3    C1 5512   3.234   3.502  10.413  0.1630 -0.2411 -0.2472
  365TMC3    C2 5513   3.332   3.497  10.316 -0.6305  0.2580 -0.2052
  365TMC3    C3 5514   3.357   3.610  10.245 -0.6718 -0.4609 -0.2615
  365TMC3    C4 5515   3.163   3.617  10.432 -0.1893 -0.1180 -0.2026
  365TMC3    C5 5516   3.194   3.729  10.353  0.6465  0.5447  0.6709
  365TMC3    C6 5517   3.291   3.728  10.259 -0.4081  0.4700  0.0045
  365TMC3     C 5518   3.219   3.380  10.484 -0.0152 -0.3782 -0.3879
  365TMC3     O 5519   3.282   3.283  10.443 -0.0950  0.4394  0.1184
  365TMC3     H 5520   3.404   3.416  10.316  0.3092  1.0916  0.5802
  365TMC3    H1 5521   3.108   3.638  10.523  1.8262 -0.2054  1.0308
  365TMC3    H2 5522   3.318   3.818  10.203 -1.1506  0.0092 -1.0987
  365TMC3    C7 5523   3.143   3.858  10.399  0.8070 -0.3168 -0.4419
  365TMC3    C8 5524   3.443   3.599  10.126  0.3027 -0.3320 -0.5297
  365TMC3    O1 5525   3.219   3.954  10.394 -0.6224 -0.2651  0.0007
  365TMC3    O2 5526   3.505   3.695  10.085 -0.4100 -0.9383 -0.0477
  366MPD2     C 5527   0.436   3.615  15.733 -0.0581  0.3501 -0.3151
  366MPD2    C1 5528   0.532   3.699  15.678 -0.3050  0.0313 -0.1599
  366MPD2    C2 5529   0.657   3.657  15.656  0.2796 -0.1233 -0.2284
  366MPD2    C3 5530   0.683   3.529  15.694  0.1636  0.1123 -0.0551
  366MPD2    C4 5531   0.599   3.441  15.746  0.4170  0.4990 -0.2215
  366MPD2    C5 5532   0.469   3.486  15.767 -0.1823 -0.0046 -0.1828
  366MPD2     H 5533   0.728   3.712  15.596  0.6743 -0.5615 -0.1663
  366MPD2    H1 5534   0.626   3.338  15.765  0.0596  0.4198 -0.1390
  366MPD2    H2 5535   0.334   3.644  15.757 -0.1966 -0.9718  0.6536
  366MPD2    H3 5536   0.390   3.429  15.815 -1.8007  0.9151 -1.7568
  366MPD2     N 5537   0.821   3.491  15.658 -0.0873 -0.6861 -0.4281
  366MPD2    H5 5538   0.871   3.564  15.609 -1.6436  1.9968  1.9563
  366MPD2    N1 5539   0.498   3.831  15.649 -0.9048  0.1616 -0.0875
  366MPD2    H7 5540   0.576   3.892  15.630 -1.7395  0.2127 -3.2098
  367TMC3    C1 5541   0.383   4.030  15.626 -0.3885 -0.1264  0.8174
  367TMC3    C2 5542   0.475   4.074  15.716 -0.2017 -0.7109 -0.1635
  367TMC3    C3 5543   0.559   4.180  15.678  0.4193  0.0345  0.5629
  367TMC3    C4 5544   0.381   4.076  15.498 -0.6199 -0.1195 -0.9514
  367TMC3    C5 5545   0.454   4.187  15.464  0.1631 -0.3198 -0.2565
  367TMC3    C6 5546   0.539   4.239  15.551  0.5290  0.3250 -0.8264
  367TMC3     C 5547   0.369   3.888  15.636  0.5030 -0.5339 -0.4925
  367TMC3     O 5548   0.258   3.838  15.630 -0.8416 -0.3514 -0.0512
  367TMC3     H 5549   0.510   4.020  15.804  0.1133 -1.5959 -0.8343
  367TMC3    H1 5550   0.311   4.040  15.423 -1.0473  1.7664 -1.4715
  367TMC3    H2 5551   0.611   4.317  15.529  0.6751  1.3789  3.4404
  367TMC3    C7 5552   0.433   4.260  15.342 -0.2608  0.0586  0.5112
  367TMC3    C8 5553   0.645   4.240  15.778  0.6052 -0.8574 -0.4737
  367TMC3    O1 5554   0.322   4.275  15.302 -0.2917 -1.1165 -0.2243
  367TMC3    O2 5555   0.691   4.164  15.863  0.2868  0.4481  0.0800
  368MPD2     C 5556   2.112   0.889  13.730 -0.1314 -0.3884 -0.1526
  368MPD2    C1 5557   2.106   1.019  13.690 -0.4916  0.4157 -0.6936
  368MPD2    C2 5558   2.208   1.074  13.620  0.1894 -0.6527 -0.1126
  368MPD2    C3 5559   2.329   1.000  13.592 -0.1721 -0.5849  0.5728
  368MPD2    C4 5560   2.339   0.879  13.648 -0.1134 -0.1385 -0.0859
  368MPD2    C5 5561   2.233   0.831  13.721  0.7010  0.2807 -0.0751
  368MPD2     H 5562   2.203   1.174  13.578  1.2340 -0.3019  0.6235
  368MPD2    H1 5563   2.418   0.807  13.637 -0.1475  0.1725 -2.4968
  368MPD2    H2 5564   2.030   0.836  13.777  1.1939 -0.8706  1.5667
  368MPD2    H3 5565   2.238   0.731  13.762  0.5028  1.1957  2.1550
  368MPD2     N 5566   2.441   1.061  13.533 -0.3895 -0.5029  0.2293
  368MPD2    H5 5567   2.531   1.016  13.545 -0.6911 -1.2227 -0.2164
  368MPD2    N1 5568   1.981   1.083  13.707  0.3028  0.2949  0.2928
  368MPD2    H7 5569   1.916   1.047  13.776  2.0537 -0.3333  1.6293
  369TMC3    C1 5570   1.809   1.249  13.682  0.8646  0.7024 -0.3272
  369TMC3    C2 5571   1.785   1.355  13.596  0.3255  0.5412 -0.0229
  369TMC3    C3 5572   1.696   1.337  13.488 -0.0824 -0.5071 -0.2682
  369TMC3    C4 5573   1.717   1.147  13.686 -0.1333  0.0328 -0.1408
  369TMC3    C5 5574   1.619   1.141  13.589  0.3130 -0.3008  0.1413
  369TMC3    C6 5575   1.614   1.226  13.482  0.1401 -0.2685 -0.5083
  369TMC3     C 5576   1.944   1.202  13.649 -0.6033 -0.1576 -0.5099
  369TMC3     O 5577   1.996   1.255  13.549  0.2932 -0.5001  0.0669
  369TMC3     H 5578   1.859   1.434  13.600 -0.5034  1.3366 -0.3352
  369TMC3    H1 5579   1.717   1.071  13.764 -2.7860 -0.2419 -0.3935
  369TMC3    H2 5580   1.545   1.219  13.399  0.5991 -0.2651 -0.8881
  369TMC3    C7 5581   1.545   1.021  13.591 -0.5770  0.3899  0.1136
  369TMC3    C8 5582   1.743   1.385  13.363  0.3768  0.1209 -0.2816
  369TMC3    O1 5583   1.509   0.979  13.703 -0.1743 -0.5704  0.1296
  369TMC3    O2 5584   1.658   1.425  13.284  0.0759 -0.4493 -0.0364
  370TMC3    C1 5585   1.437   1.700  16.259  0.2067  0.7869  0.3172
  370TMC3    C2 5586   1.349   1.656  16.349  0.4439 -0.1069 -0.2303
  370TMC3    C3 5587   1.304   1.524  16.349 -0.1828 -0.3913 -0.0494
  370TMC3    C4 5588   1.480   1.616  16.161 -0.0112  0.4663  0.4773
  370TMC3    C5 5589   1.440   1.486  16.165  0.6090  0.4558  0.6692
  370TMC3    C6 5590   1.363   1.432  16.266 -0.2984 -0.4162  0.1652
  370TMC3     C 5591   1.538   1.794  16.306  0.1192  0.4077 -0.0960
  370TMC3     O 5592   1.568   1.797  16.425 -0.8122  0.2765  0.1563
  370TMC3     H 5593   1.335   1.724  16.432  4.4312 -0.1129  0.4643
  370TMC3    H1 5594   1.554   1.644  16.088  2.9693  0.5527  3.5537
  370TMC3    H2 5595   1.345   1.325  16.271  1.6517 -0.7749 -0.6015
  370TMC3    C7 5596   1.481   1.407  16.050  0.1736 -0.1535  0.0188
  370TMC3    C8 5597   1.248   1.471  16.474 -0.1497  0.6040 -0.1398
  370TMC3    O1 5598   1.520   1.471  15.950  0.3424  0.1026  0.0833
  370TMC3    O2 5599   1.234   1.350  16.483  0.3448  0.2789  0.7279
  371TMC3    C1 5600   2.535   4.512  15.557  0.2829 -0.1311  0.6066
  371TMC3    C2 5601   2.405   4.489  15.580 -0.3959  0.3316  0.0155
  371TMC3    C3 5602   2.312   4.591  15.570  0.0424 -0.1068  0.0006
  371TMC3    C4 5603   2.576   4.638  15.525 -0.1453  0.6719  0.0232
  371TMC3    C5 5604   2.483   4.738  15.506 -0.2887  0.0009 -0.3793
  371TMC3    C6 5605   2.353   4.717  15.542 -0.0704  1.1342  0.5202
  371TMC3     C 5606   2.634   4.402  15.556  0.0742 -0.6625 -0.2906
  371TMC3     O 5607   2.748   4.438  15.523 -0.2317 -0.1867 -0.6646
  371TMC3     H 5608   2.369   4.387  15.593  2.2359 -0.6355 -0.2567
  371TMC3    H1 5609   2.676   4.646  15.484  0.7586 -2.4762  1.6969
  371TMC3    H2 5610   2.283   0.059  15.523  0.1379  1.1522 -0.1764
  371TMC3    C7 5611   2.526   0.132  15.499 -0.2651  0.5704 -0.3256
  371TMC3    C8 5612   2.188   4.567  15.643  1.0223  0.1789 -0.3603
  371TMC3    O1 5613   2.465   0.219  15.432 -0.2644  0.5508 -0.4135
  371TMC3    O2 5614   2.150   4.452  15.652 -0.1329  0.0736  0.4546
  372MPD2     C 5615   2.917   1.302  13.601 -0.2480 -0.7607  0.4563
  372MPD2    C1 5616   2.928   1.173  13.621  0.5505 -0.0064 -0.2317
  372MPD2    C2 5617   2.833   1.104  13.693  0.1210 -0.7257 -0.0464
  372MPD2    C3 5618   2.723   1.166  13.738 -0.4038  0.6015  0.3189
  372MPD2    C4 5619   2.707   1.306  13.720 -0.7684 -0.2532  1.0079
  372MPD2    C5 5620   2.807   1.372  13.655 -0.1218  0.2754  0.2283
  372MPD2     H 5621   2.850   0.998  13.709 -0.1203 -0.5951  1.0588
  372MPD2    H1 5622   2.618   1.366  13.737 -0.1972  0.4270  1.5956
  372MPD2    H2 5623   2.990   1.367  13.555 -0.9967 -1.5112 -1.7652
  372MPD2    H3 5624   2.794   1.473  13.618  0.8854 -1.0931 -3.9381
  372MPD2     N 5625   2.628   1.088  13.807  0.7437 -0.3033  0.4045
  372MPD2    H5 5626   2.660   0.991  13.811 -0.0617 -0.4342  3.2990
  372MPD2    N1 5627   3.044   1.102  13.583  0.3475  0.1017  0.1147
  372MPD2    H7 5628   3.051   1.002  13.598  2.0725  0.3145  0.7267
  373TMC3    C1 5629   2.458   1.027  13.950 -0.5157 -0.5795 -0.0216
  373TMC3    C2 5630   2.337   1.053  14.008  0.3041  0.4369  0.4719
  373TMC3    C3 5631   2.277   0.955  14.078  0.0257 -0.4510 -0.0732
  373TMC3    C4 5632   2.514   0.896  13.952  0.0434  0.2483 -0.1973
  373TMC3    C5 5633   2.432   0.802  14.012 -0.0182  0.5408 -0.6798
  373TMC3    C6 5634   2.314   0.824  14.080 -1.2614 -0.6516  0.3419
  373TMC3     C 5635   2.521   1.135  13.876 -0.5797 -0.0726 -0.5687
  373TMC3     O 5636   2.485   1.253  13.893 -0.3199  0.0559 -0.4651
  373TMC3     H 5637   2.288   1.150  14.019  1.7438  1.1549  0.4790
  373TMC3    H1 5638   2.618   0.873  13.935 -0.1415 -2.7338  2.6280
  373TMC3    H2 5639   2.266   0.746  14.138 -0.8578  0.5661  2.2957
  373TMC3    C7 5640   2.487   0.668  14.001 -0.3442 -0.4168 -0.0057
  373TMC3    C8 5641   2.150   0.984  14.148  0.4623 -0.8059 -0.6211
  373TMC3    O1 5642   2.561   0.659  13.904 -0.0380  0.0101 -0.4107
  373TMC3    O2 5643   2.076   1.038  14.070  0.2687 -0.2281 -0.3844
  374TMC3    C1 5644   2.899   2.017   9.814  0.3433  0.0241 -0.0895
  374TMC3    C2 5645   3.024   2.068   9.833  0.5057  0.5204 -0.1719
  374TMC3    C3 5646   3.052   2.190   9.783 -0.1128 -0.7851  0.5520
  374TMC3    C4 5647   2.813   2.080   9.732 -0.2883 -0.5699  0.0796
  374TMC3    C5 5648   2.845   2.206   9.682 -0.3021 -0.0948  0.2047
  374TMC3    C6 5649   2.962   2.269   9.720 -0.2614  0.5570  1.0883
  374TMC3     C 5650   2.858   1.882   9.856  0.0407 -0.4746 -0.3934
  374TMC3     O 5651   2.755   1.835   9.816 -0.5003  0.0070  0.5558
  374TMC3     H 5652   3.088   2.003   9.891 -1.5168 -0.3128  1.1640
  374TMC3    H1 5653   2.722   2.028   9.705  0.1103 -1.3055  0.1314
  374TMC3    H2 5654   2.987   2.370   9.692 -3.0354  1.2873  1.2188
  374TMC3    C7 5655   2.750   2.286   9.614  0.4034  0.7601 -0.2869
  374TMC3    C8 5656   3.171   2.260   9.814 -0.2594  0.0396 -0.0173
  374TMC3    O1 5657   2.788   2.401   9.597  0.4749  0.2143  0.0203
  374TMC3    O2 5658   3.205   2.366   9.770 -0.4621 -0.1958 -0.8086
  375MPD2     C 5659   2.895   2.146  17.061  0.2847 -0.1870  0.2558
  375MPD2    C1 5660   2.804   2.189  16.965  0.1062 -0.3197  0.1690
  375MPD2    C2 5661   2.816   2.124  16.844 -0.0392  0.2762 -0.3536
  375MPD2    C3 5662   2.912   2.021  16.821  0.1793  0.3922 -0.2467
  375MPD2    C4 5663   2.998   1.985  16.923 -0.6709 -0.3040 -0.4153
  375MPD2    C5 5664   2.994   2.049  17.037 -0.0749  0.6016  0.5671
  375MPD2     H 5665   2.757   2.157  16.759 -2.7186 -1.0047  1.0471
  375MPD2    H1 5666   3.067   1.902  16.908 -2.6729 -1.9014 -0.7981
  375MPD2    H2 5667   2.893   2.199  17.155 -3.0936 -1.3228  0.8162
  375MPD2    H3 5668   3.068   2.026  17.114  0.0856  1.7588  0.7507
  375MPD2     N 5669   2.933   1.957  16.697  0.1284 -0.0717  0.1590
  375MPD2    H5 5670   3.013   1.895  16.691  1.2092  1.2634  0.5122
  375MPD2    N1 5671   2.718   2.295  16.981  0.2099  0.4762 -0.2814
  375MPD2    H7 5672   2.672   2.330  16.898 -2.0348 -1.3149  0.2131
  376TMC3    C1 5673   2.943   1.945  16.461 -0.4754  0.5397 -0.6590
  376TMC3    C2 5674   3.078   1.936  16.468  0.1002 -0.1368 -0.5573
  376TMC3    C3 5675   3.146   1.925  16.352 -0.2920  0.4113 -0.3451
  376TMC3    C4 5676   2.868   1.926  16.351  0.3996  0.4537  0.5187
  376TMC3    C5 5677   2.944   1.921  16.232 -0.0521  0.4626  0.4455
  376TMC3    C6 5678   3.081   1.930  16.231 -0.3063  0.1890 -0.9242
  376TMC3     C 5679   2.865   1.979  16.575  0.0987 -0.0251 -0.4583
  376TMC3     O 5680   2.753   2.028  16.561  0.1398  0.0139 -0.0813
  376TMC3     H 5681   3.130   1.943  16.563  0.3653 -1.1125 -0.6393
  376TMC3    H1 5682   2.760   1.911  16.348  0.6534 -1.0712 -0.8508
  376TMC3    H2 5683   3.138   1.921  16.140  1.5921 -1.8793  0.4616
  376TMC3    C7 5684   2.877   1.907  16.103 -0.2842 -0.7477 -0.1716
  376TMC3    C8 5685   3.296   1.931  16.348 -0.2499 -0.2787 -0.6622
  376TMC3    O1 5686   2.951   1.893  16.005  0.5145 -0.0103 -0.0289
  376TMC3    O2 5687   3.358   1.940  16.242 -0.5025 -0.1309 -0.3780
  377MPD2     C 5688   1.422   1.420  12.723  0.0701  0.1301 -0.1647
  377MPD2    C1 5689   1.351   1.520  12.787 -0.5012 -0.1846  0.3945
  377MPD2    C2 5690   1.252   1.484  12.883 -0.1829 -0.3350 -0.1564
  377MPD2    C3 5691   1.223   1.355  12.913  0.5203  0.5588 -0.1049
  377MPD2    C4 5692   1.297   1.258  12.859 -0.7665  0.1089 -0.3595
  377MPD2    C5 5693   1.387   1.290  12.754 -0.4142 -0.0631 -0.6026
  377MPD2     H 5694   1.195   1.563  12.931 -1.2512 -0.8345 -0.6117
  377MPD2    H1 5695   1.282   1.151  12.872  2.8846 -0.4440 -0.4775
  377MPD2    H2 5696   1.504   1.439  12.654 -1.0690 -0.3990 -1.6308
  377MPD2    H3 5697   1.438   1.213  12.698 -0.4954 -0.7710  0.3005
  377MPD2     N 5698   1.121   1.306  13.004  0.4129  0.7807 -0.1102
  377MPD2    H5 5699   1.127   1.208  13.029  0.0586  0.8601  0.2963
  377MPD2    N1 5700   1.387   1.649  12.747  0.3044  0.3711  0.2604
  377MPD2    H7 5701   1.468   1.663  12.688 -0.4755 -0.3996 -1.0056
  378TMC3    C1 5702   1.308   2.065  12.607 -0.6619 -0.5170  0.0851
  378TMC3    C2 5703   1.277   1.967  12.700  0.9423 -0.2959 -0.3842
  378TMC3    C3 5704   1.375   1.873  12.727 -0.1096  0.2663 -0.7205
  378TMC3    C4 5705   1.442   2.083  12.563 -0.6814  0.1776 -0.7875
  378TMC3    C5 5706   1.531   1.986  12.596  0.6609  0.0564  0.9776
  378TMC3    C6 5707   1.500   1.874  12.669 -0.0596 -0.3145  0.3550
  378TMC3     C 5708   1.201   2.130  12.531  1.3151 -0.2995 -0.5112
  378TMC3     O 5709   1.084   2.125  12.569 -0.2762 -0.4898  0.7555
  378TMC3     H 5710   1.178   1.953  12.743  1.2338 -2.0745 -0.3009
  378TMC3    H1 5711   1.477   2.165  12.501  0.4869 -0.5501 -1.0961
  378TMC3    H2 5712   1.582   1.805  12.686  0.5318  1.1078  3.2131
  378TMC3    C7 5713   1.675   2.003  12.570 -0.1919  0.6200 -0.2924
  378TMC3    C8 5714   1.317   1.758  12.781 -0.3298  1.4308 -0.3446
  378TMC3    O1 5715   1.745   1.969  12.663  0.1438 -0.4095 -0.1147
  378TMC3    O2 5716   1.220   1.768  12.852 -0.0404 -0.1887 -0.7258
  379MPD2     C 5717   1.254   4.404  16.773  0.2466 -0.1426 -0.2676
  379MPD2    C1 5718   1.372   4.425  16.701 -0.0799 -0.3109 -0.1002
  379MPD2    C2 5719   1.489   4.401  16.771  0.4976  0.4188 -0.1134
  379MPD2    C3 5720   1.488   4.364  16.905  0.6676 -0.6283 -0.4053
  379MPD2    C4 5721   1.371   4.357  16.978  0.0124 -0.3201 -0.3901
  379MPD2    C5 5722   1.252   4.380  16.910 -0.3285 -0.2301  0.0800
  379MPD2     H 5723   1.580   4.396  16.712  0.6515  1.7858  0.0147
  379MPD2    H1 5724   1.372   4.314  17.077 -0.4909 -0.0381 -0.2614
  379MPD2    H2 5725   1.153   4.416  16.734  0.8293  1.8727 -1.1603
  379MPD2    H3 5726   1.152   4.375  16.953 -1.0891  0.4025 -1.6051
  379MPD2     N 5727   1.605   4.332  16.983  0.5369 -0.1739 -0.4616
  379MPD2    H5 5728   1.588   4.299  17.077  0.4011 -0.4078 -0.5666
  379MPD2    N1 5729   1.361   4.449  16.560  0.0578  0.6117 -0.0975
  379MPD2    H7 5730   1.266   4.456  16.527  0.0619  2.5658  0.3084
  380TMC3    C1 5731   1.410   4.474  16.326 -0.1427  0.4003 -0.7879
  380TMC3    C2 5732   1.491   4.421  16.228 -0.4075 -0.4928 -0.0723
  380TMC3    C3 5733   1.434   4.401  16.106  0.2622 -0.7254  0.6690
  380TMC3    C4 5734   1.277   4.497  16.311  0.0169 -0.2687 -0.4269
  380TMC3    C5 5735   1.218   4.453  16.191 -0.0909 -0.6373 -0.0695
  380TMC3    C6 5736   1.302   4.419  16.086 -0.2313  0.5621 -0.0060
  380TMC3     C 5737   1.461   4.452  16.462  0.0560 -0.7682  0.6152
  380TMC3     O 5738   1.581   4.420  16.476  0.5116 -0.4423  1.1439
  380TMC3     H 5739   1.600   4.420  16.230 -0.3796 -1.4970 -1.9689
  380TMC3    H1 5740   1.218   4.556  16.379  0.0604  0.9043 -1.4029
  380TMC3    H2 5741   1.254   4.394  15.993  1.8342  0.0161 -0.9309
  380TMC3    C7 5742   1.095   4.521  16.152 -0.1986  0.0743  0.5746
  380TMC3    C8 5743   1.507   4.372  15.987  0.5752 -0.0400  0.0797
  380TMC3    O1 5744   1.079   4.633  16.202  0.2985 -0.0669 -0.7755
  380TMC3    O2 5745   1.460   4.424  15.885 -0.7170  0.2548  0.5242
  381TMC3    C1 5746   1.223   0.758  16.458 -0.4198  0.6763 -0.5726
  381TMC3    C2 5747   1.328   0.811  16.527 -0.3633 -0.7507 -0.2572
  381TMC3    C3 5748   1.324   0.947  16.543  0.0012  0.2989  0.1153
  381TMC3    C4 5749   1.112   0.828  16.429 -1.0899  0.5720  0.6194
  381TMC3    C5 5750   1.106   0.958  16.461  0.0540  0.4206  0.0086
  381TMC3    C6 5751   1.213   1.020  16.519 -0.3936  0.5213  0.7576
  381TMC3     C 5752   1.244   0.626  16.402 -0.6385  0.3141  0.0224
  381TMC3     O 5753   1.325   0.550  16.449  0.4158  0.4631 -1.1866
  381TMC3     H 5754   1.421   0.763  16.552 -0.0058 -0.5161 -1.1548
  381TMC3    H1 5755   1.026   0.776  16.389  0.0521 -0.4799 -0.4754
  381TMC3    H2 5756   1.212   1.126  16.540 -3.4288  0.5244  0.7239
  381TMC3    C7 5757   0.976   0.997  16.500  0.2431 -0.4495  0.0292
  381TMC3    C8 5758   1.451   1.001  16.504  0.2894 -0.0596  0.0311
  381TMC3    O1 5759   0.906   0.904  16.534 -0.2144 -0.1722 -0.1036
  381TMC3    O2 5760   1.523   0.938  16.428 -0.1359  0.2704 -0.0552
  382MPD2     C 5761   0.683   3.763  17.207 -0.5433 -0.1674 -0.2537
  382MPD2    C1 5762   0.547   3.779  17.217 -0.1768 -0.3825  0.1016
  382MPD2    C2 5763   0.473   3.672  17.261 -0.3470 -0.2382 -0.1831
  382MPD2    C3 5764   0.530   3.550  17.297 -0.1526 -0.0305 -1.0069
  382MPD2    C4 5765   0.665   3.541  17.291 -0.2709 -0.0514 -0.5442
  382MPD2    C5 5766   0.736   3.643  17.244  0.1638  0.0264 -0.1356
  382MPD2     H 5767   0.365   3.678  17.266 -0.4550 -1.7714 -0.5408
  382MPD2    H1 5768   0.710   3.444  17.311 -1.4949 -0.7913 -1.3434
  382MPD2    H2 5769   0.745   3.848  17.177  0.0685 -0.2040  0.9216
  382MPD2    H3 5770   0.843   3.624  17.237 -0.0140 -1.3990  0.9408
  382MPD2     N 5771   0.459   3.438  17.342  1.1255  0.2293  0.2999
  382MPD2    H5 5772   0.510   3.351  17.346  2.1630  0.7868 -0.5335
  382MPD2    N1 5773   0.484   3.896  17.174 -1.0393 -0.2343  0.4988
  382MPD2    H7 5774   0.383   3.902  17.183 -0.8269  1.4710  1.9183
  383TMC3    C1 5775   0.283   3.304  17.422  0.1362  0.1488  0.1896
  383TMC3    C2 5776   0.296   3.195  17.343  0.8030  0.6348  0.4344
  383TMC3    C3 5777   0.241   3.079  17.391 -0.2902 -0.1275  0.1100
  383TMC3    C4 5778   0.209   3.307  17.540  0.3040 -0.4666  0.1150
  383TMC3    C5 5779   0.157   3.181  17.581 -0.6825  0.1421 -0.2208
  383TMC3    C6 5780   0.155   3.072  17.499 -0.5369 -0.5531  0.1865
  383TMC3     C 5781   0.326   3.433  17.365 -0.3775 -0.6930  0.2298
  383TMC3     O 5782   0.248   3.524  17.391 -0.2771  0.0557  0.3972
  383TMC3     H 5783   0.363   3.190  17.258 -0.1729 -2.6177 -0.1287
  383TMC3    H1 5784   0.195   3.403  17.589 -1.1967 -0.9454  0.6407
  383TMC3    H2 5785   0.099   2.985  17.532  0.6991 -1.5370 -0.3075
  383TMC3    C7 5786   0.094   3.160  17.710  0.1342 -0.1501 -0.0149
  383TMC3    C8 5787   0.252   2.963  17.312  0.0830 -0.3338  0.0610
  383TMC3    O1 5788   0.062   3.049  17.743 -0.0222  0.3843 -0.1024
  383TMC3    O2 5789   0.350   2.952  17.237  0.1953 -0.2511  0.5603
  384MPD2     C 5790   2.103   0.036  12.266  0.6765 -0.1449  0.0319
  384MPD2    C1 5791   2.162   4.663  12.327  0.2089 -0.0775  0.1167
  384MPD2    C2 5792   2.254   4.581  12.259 -0.4433 -0.5574 -0.1055
  384MPD2    C3 5793   2.290   4.621  12.131  0.5536 -0.0050 -0.0052
  384MPD2    C4 5794   2.237   4.735  12.067 -1.4710 -0.2303 -0.0581
  384MPD2    C5 5795   2.139   0.072  12.137  0.3104 -0.1403  0.3726
  384MPD2     H 5796   2.302   4.499  12.312 -3.5406 -1.3835  1.4583
  384MPD2    H1 5797   2.273   0.030  11.971 -0.8202  2.8026  1.2520
  384MPD2    H2 5798   2.027   0.095  12.317  2.0436  1.3567  0.3329
  384MPD2    H3 5799   2.091   0.158  12.091 -1.3560 -1.3650 -0.1519
  384MPD2     N 5800   2.392   4.545  12.070 -0.0336 -0.0905 -0.8350
  384MPD2    H5 5801   2.433   4.477  12.133 -0.9489 -1.6975 -1.9574
  384MPD2    N1 5802   2.118   4.637  12.460  0.3119  0.2069  1.1195
  384MPD2    H7 5803   2.059   4.703  12.510  1.0635  1.7511 -0.0238
  385TMC3    C1 5804   2.529   4.435  11.917 -0.2434  0.3031 -0.5790
  385TMC3    C2 5805   2.510   4.338  11.818  0.4292 -0.4469 -0.0549
  385TMC3    C3 5806   2.548   4.209  11.844 -0.0210 -0.5724  0.4986
  385TMC3    C4 5807   2.596   4.410  12.028  0.0773 -0.2812 -0.5424
  385TMC3    C5 5808   2.621   4.279  12.058  0.0405 -0.5981 -0.1801
  385TMC3    C6 5809   2.592   4.179  11.968 -0.6328  0.3578  0.8579
  385TMC3     C 5810   2.413   4.521  11.938  0.1362  0.1773  0.4051
  385TMC3     O 5811   2.333   4.556  11.853  1.4408 -0.7622 -0.3435
  385TMC3     H 5812   2.464   4.358  11.722 -0.2670  1.5551  0.6867
  385TMC3    H1 5813   2.623   4.493  12.093 -1.1972 -0.6787  0.4962
  385TMC3    H2 5814   2.614   4.077  11.999 -1.6634 -0.0188  0.3762
  385TMC3    C7 5815   2.570   4.265  12.195 -0.7354  0.0528  0.6302
  385TMC3    C8 5816   2.530   4.107  11.740 -0.0272  0.3284  0.4235
  385TMC3    O1 5817   2.511   4.363  12.235  0.6738 -0.2183  0.5501
  385TMC3    O2 5818   2.545   4.139  11.624 -0.5834 -1.4680 -0.1200
  386TMC3    C1 5819   2.842   1.404  12.010  0.2155 -0.1229  0.4221
  386TMC3    C2 5820   2.817   1.401  11.876 -0.2101 -0.6619 -0.0443
  386TMC3    C3 5821   2.695   1.454  11.836 -0.8207 -0.1834  0.2438
  386TMC3    C4 5822   2.759   1.463  12.098  0.3521 -0.1913 -0.7270
  386TMC3    C5 5823   2.633   1.494  12.054  0.8137  0.3467 -0.6777
  386TMC3    C6 5824   2.599   1.497  11.923  0.9212  0.1554  0.5377
  386TMC3     C 5825   2.989   1.402  12.051  0.1762  0.3813  0.5663
  386TMC3     O 5826   3.011   1.481  12.140  0.4541  0.1624 -0.5390
  386TMC3     H 5827   2.887   1.368  11.800 -0.6845 -1.3942 -0.1735
  386TMC3    H1 5828   2.786   1.468  12.203 -1.5917  1.8685 -0.3305
  386TMC3    H2 5829   2.503   1.532  11.885  1.7192 -0.0787 -1.6979
  386TMC3    C7 5830   2.546   1.577  12.132  0.4016  0.5197 -0.2280
  386TMC3    C8 5831   2.674   1.507  11.697 -0.0980  0.6194  0.4141
  386TMC3    O1 5832   2.429   1.591  12.098  0.4580  0.0491  0.1619
  386TMC3    O2 5833   2.602   1.608  11.683 -0.1114 -0.3843 -0.2343
  387MPD2     C 5834   0.438   2.431  10.024  0.2116 -0.0894 -0.2012
  387MPD2    C1 5835   0.562   2.382  10.006 -0.2749  0.6974 -0.5870
  387MPD2    C2 5836   0.570   2.250   9.971 -0.1008  0.3547 -0.3622
  387MPD2    C3 5837   0.462   2.163   9.975  0.7808  0.2635  0.1521
  387MPD2    C4 5838   0.334   2.217  10.001 -0.2301  0.9752 -0.1978
  387MPD2    C5 5839   0.332   2.345  10.022  0.5306  0.4264  0.0006
  387MPD2     H 5840   0.668   2.207   9.953  0.7234  1.2250  1.9381
  387MPD2    H1 5841   0.247   2.154   9.991  1.7291 -1.4829 -1.7293
  387MPD2    H2 5842   0.417   2.534  10.049  1.7029 -0.1319  1.2408
  387MPD2    H3 5843   0.227   2.372  10.033  0.7056  0.3675  1.7012
  387MPD2     N 5844   0.485   2.026   9.946  0.1764 -0.3312  0.3704
  387MPD2    H5 5845   0.575   2.011   9.901  0.6772 -0.5142  1.4491
  387MPD2    N1 5846   0.684   2.455   9.994 -0.3008 -0.2316  0.8468
  387MPD2    H7 5847   0.765   2.396   9.984 -1.4225 -1.2397 -2.1357
  388TMC3    C1 5848   0.847   2.608  10.050  0.6539  0.0448 -0.2969
  388TMC3    C2 5849   0.874   2.717  10.123  0.6143  0.4832 -0.5379
  388TMC3    C3 5850   0.989   2.714  10.194 -0.1250 -0.2715  0.3114
  388TMC3    C4 5851   0.929   2.500  10.061 -0.0480  0.2100  0.1613
  388TMC3    C5 5852   1.031   2.501  10.152 -0.2102 -0.1940 -0.3812
  388TMC3    C6 5853   1.064   2.607  10.223 -0.4247  0.8124 -0.6385
  388TMC3     C 5854   0.707   2.590  10.025 -0.1303  0.1179  0.4635
  388TMC3     O 5855   0.625   2.676  10.047  0.7089  0.2308  0.5295
  388TMC3     H 5856   0.809   2.804  10.130  1.4208  1.0288  0.0485
  388TMC3    H1 5857   0.943   2.441   9.971 -0.8174  0.9526 -0.4376
  388TMC3    H2 5858   1.145   2.609  10.295 -2.5151 -0.5378  1.8063
  388TMC3    C7 5859   1.101   2.379  10.183  0.4021  0.1913  0.3507
  388TMC3    C8 5860   1.009   2.830  10.279 -0.4700 -0.6352  0.4743
  388TMC3    O1 5861   1.202   2.391  10.255 -0.1086 -0.2653  0.0529
  388TMC3    O2 5862   0.990   2.943  10.241 -0.1178  0.1910  0.3273
  389MPD2     C 5863   4.123   0.881  11.144 -0.1370 -0.0148 -0.3175
  389MPD2    C1 5864   4.127   0.772  11.055  0.3814 -0.0347 -0.3560
  389MPD2    C2 5865   4.079   0.652  11.097  0.0195  0.1275 -0.1520
  389MPD2    C3 5866   4.037   0.621  11.225 -0.7490  0.1115  0.4906
  389MPD2    C4 5867   4.025   0.722  11.310 -0.3033 -0.2366  0.1282
  389MPD2    C5 5868   4.076   0.848  11.270  0.8089 -0.6176 -0.5661
  389MPD2     H 5869   4.086   0.578  11.018 -1.2540 -0.1307 -0.0212
  389MPD2    H1 5870   3.994   0.715  11.413 -0.8361  0.5109  0.0119
  389MPD2    H2 5871   4.156   0.982  11.123 -0.0476  0.0610  0.1735
  389MPD2    H3 5872   4.088   0.927  11.343  2.9310  0.5293 -2.1566
  389MPD2     N 5873   3.998   0.486  11.267 -0.1240  0.2674  0.5986
  389MPD2    H5 5874   3.958   0.477  11.360 -1.3645  0.5829  0.1053
  389MPD2    N1 5875   4.172   0.792  10.917 -0.1807 -0.9567  0.1970
  389MPD2    H7 5876   4.202   0.887  10.896 -0.6005 -0.9151 -0.2218
  390TMC3    C1 5877   3.994   0.249  11.252  0.2684 -0.5197 -0.0906
  390TMC3    C2 5878   4.013   0.139  11.165 -0.1737  0.0073 -0.2170
  390TMC3    C3 5879   3.975   0.018  11.213 -0.3177  0.4100  1.0260
  390TMC3    C4 5880   3.932   0.240  11.377 -0.2458 -0.5561 -0.4021
  390TMC3    C5 5881   3.887   0.119  11.419  0.2272 -0.4230  0.1577
  390TMC3    C6 5882   3.914   0.008  11.334 -0.1197 -0.1968 -0.1419
  390TMC3     C 5883   4.029   0.376  11.196  0.1552  0.1809 -0.4685
  390TMC3     O 5884   4.094   0.368  11.093 -0.3441 -0.8271  0.3038
  390TMC3     H 5885   4.073   0.152  11.075 -0.4218  0.5970 -0.2974
  390TMC3    H1 5886   3.934   0.321  11.448 -1.6707  1.0818 -2.2173
  390TMC3    H2 5887   3.880   4.649  11.367  2.1791 -0.7449  0.5882
  390TMC3    C7 5888   3.790   0.121  11.531 -0.3064 -0.2797  0.3760
  390TMC3    C8 5889   3.989   4.624  11.141  0.1238 -0.6157  1.3985
  390TMC3    O1 5890   3.749   0.233  11.558  0.3622 -0.1584  0.1542
  390TMC3    O2 5891   3.959   4.521  11.201  0.1937 -0.0746 -0.1240
  391MPD2     C 5892   3.546   1.557  11.091  0.6734 -0.3647  0.3750
  391MPD2    C1 5893   3.597   1.682  11.100  0.0963 -0.2294 -0.3761
  391MPD2    C2 5894   3.642   1.745  10.984  0.2209 -0.2568  0.0392
  391MPD2    C3 5895   3.634   1.669  10.866 -0.6627 -0.5439  0.1444
  391MPD2    C4 5896   3.579   1.543  10.868 -0.3245 -0.1014  0.4045
  391MPD2    C5 5897   3.528   1.487  10.979 -0.9524  0.3954 -0.3511
  391MPD2     H 5898   3.681   1.844  10.964  0.1886 -0.0412  1.0025
  391MPD2    H1 5899   3.574   1.482  10.779 -0.9447 -2.1194  1.8412
  391MPD2    H2 5900   3.509   1.501  11.177 -0.3254 -0.4449 -0.1169
  391MPD2    H3 5901   3.469   1.396  10.981  1.3344 -1.0235  1.9108
  391MPD2     N 5902   3.684   1.734  10.749 -0.9856 -0.4072  0.7518
  391MPD2    H5 5903   3.738   1.819  10.755 -3.6565  1.2994  0.4398
  391MPD2    N1 5904   3.625   1.739  11.229  0.3300  0.9910  0.1189
  391MPD2    H7 5905   3.613   1.669  11.302  1.7618 -1.3733 -1.9203
  392TMC3    C1 5906   3.687   1.809  10.525  0.0104  1.0203  0.0364
  392TMC3    C2 5907   3.598   1.861  10.438 -0.2072  0.2268 -1.0038
  392TMC3    C3 5908   3.649   1.956  10.352  0.1462  0.5460  0.4740
  392TMC3    C4 5909   3.819   1.836  10.534 -0.0377 -0.1129  0.0706
  392TMC3    C5 5910   3.865   1.930  10.447 -0.3563 -0.1304 -0.0738
  392TMC3    C6 5911   3.780   1.987  10.358 -0.0004 -0.5234  0.8778
  392TMC3     C 5912   3.647   1.704  10.622 -0.0596  0.9924  0.5366
  392TMC3     O 5913   3.562   1.624  10.589  0.1807  0.2538 -0.3041
  392TMC3     H 5914   3.494   1.832  10.439  0.0794 -0.8103  0.2890
  392TMC3    H1 5915   3.881   1.780  10.604 -0.4099 -0.9619 -0.2804
  392TMC3    H2 5916   3.816   2.081  10.318  0.5701 -1.3981 -0.6311
  392TMC3    C7 5917   4.001   1.978  10.466  0.2702  0.6355 -0.0177
  392TMC3    C8 5918   3.556   2.022  10.267 -0.4252 -0.1290  0.1564
  392TMC3    O1 5919   4.065   1.946  10.567  0.3146 -0.1189 -0.2424
  392TMC3    O2 5920   3.438   2.008  10.292  0.2618  0.1792  0.4068
  393TMC3    C1 5921   2.434   4.307  10.549  0.3244 -0.1578  0.1966
  393TMC3    C2 5922   2.304   4.303  10.520  0.0583 -0.3403 -0.4211
  393TMC3    C3 5923   2.229   4.212  10.577 -0.1442  0.6817  0.2239
  393TMC3    C4 5924   2.500   4.233  10.640  0.1354 -0.5515 -0.0594
  393TMC3    C5 5925   2.418   4.139  10.704 -0.3467 -0.1039  0.2308
  393TMC3    C6 5926   2.282   4.130  10.673 -0.2945  0.0472  0.4159
  393TMC3     C 5927   2.511   4.423  10.506 -0.1814 -0.0801  0.0076
  393TMC3     O 5928   2.615   4.447  10.569 -0.1656 -0.0007 -0.1254
  393TMC3     H 5929   2.254   4.369  10.450  2.1324  0.7875 -0.8374
  393TMC3    H1 5930   2.607   4.240  10.649  0.2597 -0.9332 -1.2809
  393TMC3    H2 5931   2.231   4.046  10.719  1.5176 -1.1843  0.1829
  393TMC3    C7 5932   2.447   4.111  10.840  0.6831 -0.0826 -0.6248
  393TMC3    C8 5933   2.095   4.208  10.528 -0.4384  1.0481  0.5931
  393TMC3    O1 5934   2.378   4.029  10.897  0.9697 -0.1631 -0.2983
  393TMC3    O2 5935   2.077   4.249  10.417  0.2161  0.3854 -0.3588
  394TMC3    C1 5936   4.192   0.761  10.686  0.4668  0.3329  0.5402
  394TMC3    C2 5937   4.126   0.735  10.570  0.0142  0.1760  0.0820
  394TMC3    C3 5938   4.196   0.742  10.455 -0.2614  0.5508  0.0567
  394TMC3    C4 5939   4.324   0.808  10.692  0.2560 -0.2330  0.0017
  394TMC3    C5 5940   4.390   0.824  10.568  0.1667  0.0575 -0.3346
  394TMC3    C6 5941   4.327   0.785  10.450 -0.6472 -0.4745 -0.4228
  394TMC3     C 5942   4.128   0.719  10.807  0.1685 -0.0555 -0.5859
  394TMC3     O 5943   4.050   0.624  10.795 -0.5350  0.1689  0.1629
  394TMC3     H 5944   4.020   0.711  10.572  0.9706 -4.0546  0.2676
  394TMC3    H1 5945   4.374   0.842  10.782  0.7116  1.5489 -0.9154
  394TMC3    H2 5946   4.381   0.799  10.357  0.9844 -2.8281  0.1600
  394TMC3    C7 5947   4.511   0.908  10.551 -1.1059  0.0609 -0.1258
  394TMC3    C8 5948   4.151   0.653  10.352 -0.3540 -0.0457  0.4456
  394TMC3    O1 5949   4.528   0.953  10.440  0.3570  0.3191 -0.2091
  394TMC3    O2 5950   4.028   0.644  10.338  0.0675 -0.9995  0.0941
  395TMC3    C1 5951   4.197   1.839  14.687  0.5067  0.3227 -0.1160
  395TMC3    C2 5952   4.084   1.851  14.617  0.4945  0.2630 -0.0320
  395TMC3    C3 5953   4.075   1.950  14.524 -0.1013 -0.1329  0.2694
  395TMC3    C4 5954   4.298   1.939  14.678 -0.3726 -0.3753 -1.0131
  395TMC3    C5 5955   4.267   2.051  14.606  0.5535  0.0762 -0.1109
  395TMC3    C6 5956   4.153   2.058  14.524  0.2648 -0.0259  0.6411
  395TMC3     C 5957   4.188   1.767  14.811  0.8103  0.5202 -0.2419
  395TMC3     O 5958   4.079   1.773  14.872 -0.2147  0.4771  0.4469
  395TMC3     H 5959   4.008   1.775  14.628  1.4513 -0.7204 -0.1920
  395TMC3    H1 5960   4.392   1.935  14.732 -0.5344  1.2094 -0.5927
  395TMC3    H2 5961   4.124   2.139  14.459  4.4817  1.8036  1.0573
  395TMC3    C7 5962   4.343   2.171  14.642 -0.2705 -0.7015  0.1405
  395TMC3    C8 5963   3.938   1.975  14.486 -0.4185 -0.2913 -0.1040
  395TMC3    O1 5964   4.384   2.179  14.759  0.1660  0.3197 -0.3674
  395TMC3    O2 5965   3.880   2.083  14.509  0.3689 -0.2450  0.1948
  396MPD2     C 5966   3.575   2.725  17.513 -0.1353  0.1000  0.1568
  396MPD2    C1 5967   3.620   2.718  17.386  0.3857  0.1342  0.0338
  396MPD2    C2 5968   3.607   2.833  17.305  0.0131 -0.5148 -0.5948
  396MPD2    C3 5969   3.552   2.953  17.350 -0.5522  0.5860 -0.3673
  396MPD2    C4 5970   3.503   2.952  17.483  0.3010 -0.2695  0.8332
  396MPD2    C5 5971   3.507   2.838  17.561  0.1135  0.2065 -0.2562
  396MPD2     H 5972   3.658   2.840  17.209 -2.5980 -0.9106 -1.9981
  396MPD2    H1 5973   3.450   3.039  17.520  0.6034 -0.2767  1.2730
  396MPD2    H2 5974   3.587   2.640  17.578  1.0415  0.4673  0.4161
  396MPD2    H3 5975   3.475   2.851  17.663 -0.2924  0.5683 -0.4287
  396MPD2     N 5976   3.536   3.054  17.257 -0.5095 -0.4515  0.1826
  396MPD2    H5 5977   3.563   3.035  17.161  0.8150 -0.5594  0.5725
  396MPD2    N1 5978   3.685   2.600  17.345  0.0461  0.5671 -0.3139
  396MPD2    H7 5979   3.705   2.531  17.417  0.8613 -0.2052 -1.2954
  397TMC3    C1 5980   3.757   2.443  17.180 -0.3069 -0.4496  0.6982
  397TMC3    C2 5981   3.783   2.447  17.046  0.2008  0.4469  0.4111
  397TMC3    C3 5982   3.691   2.385  16.965 -0.4093  0.0057 -0.4683
  397TMC3    C4 5983   3.659   2.360  17.226 -0.5663  0.4493 -0.2476
  397TMC3    C5 5984   3.581   2.287  17.145 -0.3171  0.1473 -1.0528
  397TMC3    C6 5985   3.597   2.303  17.012 -0.4361 -0.0142  0.1701
  397TMC3     C 5986   3.734   2.581  17.215 -0.1763 -0.2038  1.1894
  397TMC3     O 5987   3.738   2.656  17.115  0.3177  0.2610  0.1044
  397TMC3     H 5988   3.872   2.502  17.016 -0.3358  1.3029  0.4001
  397TMC3    H1 5989   3.642   2.344  17.332  1.8252  0.2842  0.1060
  397TMC3    H2 5990   3.524   2.258  16.946 -0.6825 -2.5666  2.1800
  397TMC3    C7 5991   3.464   2.211  17.193 -1.0333 -0.2585 -0.3427
  397TMC3    C8 5992   3.660   2.457  16.839  0.0977  1.1423 -0.4631
  397TMC3    O1 5993   3.441   2.107  17.138  0.1852  0.4475 -0.2570
  397TMC3    O2 5994   3.565   2.420  16.770  0.2455 -1.1921 -0.4409
  398MPD2     C 5995   1.348   0.161   0.293  0.3515  0.6976  0.0130
  398MPD2    C1 5996   1.474   0.102   0.306  1.0241 -0.0222 -0.5264
  398MPD2    C2 5997   1.588   0.177   0.326  1.1302  0.0147 -0.1916
  398MPD2    C3 5998   1.570   0.313   0.325 -0.2499 -0.3617  0.2994
  398MPD2    C4 5999   1.446   0.371   0.317 -0.2121  0.2584 -0.2974
  398MPD2    C5 6000   1.334   0.298   0.300  0.0739  0.1154  0.4457
  398MPD2     H 6001   1.678   0.118   0.342  0.4817  0.1061  3.9065
  398MPD2    H1 6002   1.437   0.479   0.326  0.8293  0.2527  0.7760
  398MPD2    H2 6003   1.255   0.107   0.283 -0.0290  1.5389 -1.0925
  398MPD2    H3 6004   1.235   0.341   0.298  0.2235  0.3144 -2.4587
  398MPD2     N 6005   1.684   0.390   0.328  0.4570 -0.6545 -0.0826
  398MPD2    H5 6006   1.772   0.339   0.325  1.4724  1.1325 -0.9871
  398MPD2    N1 6007   1.484   4.696   0.314  0.3364 -0.1167  0.0704
  398MPD2    H7 6008   1.575   4.663   0.344  0.3270  0.3995  0.6711
  399TMC3    C1 6009   1.403   4.478   0.315 -0.3256 -0.1341 -0.8816
  399TMC3    C2 6010   1.503   4.447   0.414 -0.0297 -0.4118 -0.0013
  399TMC3    C3 6011   1.528   4.315   0.438  0.0042  0.0766 -0.1254
  399TMC3    C4 6012   1.332   4.378   0.254 -0.7656  0.2533  0.2614
  399TMC3    C5 6013   1.365   4.249   0.280  0.4296  0.3619 -0.2027
  399TMC3    C6 6014   1.461   4.212   0.377 -0.4948 -0.2118  0.1274
  399TMC3     C 6015   1.387   4.616   0.274  0.7066 -0.1082  1.0823
  399TMC3     O 6016   1.292   4.645   0.204  0.0901  0.0353 -0.3422
  399TMC3     H 6017   1.550   4.520   0.479  0.6825 -0.9951  0.1412
  399TMC3    H1 6018   1.258   4.417   0.185 -1.5582 -1.5352  0.1033
  399TMC3    H2 6019   1.510   4.115   0.371  1.5939  0.8838 -0.6494
  399TMC3    C7 6020   1.296   4.143   0.204 -0.1155 -0.2162 -0.3645
  399TMC3    C8 6021   1.634   4.289   0.530 -0.3058  0.0597  0.4298
  399TMC3    O1 6022   1.220   4.195   0.125  0.0189  0.4945  0.3177
  399TMC3    O2 6023   1.659   4.377   0.615 -0.4756 -0.8957 -0.4379
  400TMC3    C1 6024   0.557   2.714  16.920 -0.4381 -0.3126  0.0803
  400TMC3    C2 6025   0.446   2.686  16.848  0.4985 -1.1276  0.4086
  400TMC3    C3 6026   0.359   2.788  16.811  0.9661  0.1916 -0.0648
  400TMC3    C4 6027   0.581   2.848  16.957  0.0111  0.3276  0.8292
  400TMC3    C5 6028   0.491   2.945  16.917  0.6995 -0.1368 -0.1456
  400TMC3    C6 6029   0.381   2.919  16.842 -0.5248  0.2915 -0.3226
  400TMC3     C 6030   0.562   2.620  17.034  0.2966  0.2359 -0.2823
  400TMC3     O 6031   0.537   2.501  17.017 -0.0570 -0.2253  0.1821
  400TMC3     H 6032   0.421   2.582  16.835  1.4079 -1.4028  0.8495
  400TMC3    H1 6033   0.671   2.875  17.012 -0.0868 -0.1707  1.2294
  400TMC3    H2 6034   0.307   2.994  16.819 -2.1437 -0.8425  1.1224
  400TMC3    C7 6035   0.522   3.083  16.945 -0.2854 -0.2851  0.3165
  400TMC3    C8 6036   0.220   2.746  16.781 -0.0118  0.3821  0.2093
  400TMC3    O1 6037   0.640   3.119  16.940 -0.0720 -0.2015 -0.2743
  400TMC3    O2 6038   0.136   2.827  16.804  0.1383 -0.2751 -0.2704
  401MPD2     C 6039   2.895   1.447   0.692 -0.5679  0.0507 -0.2874
  401MPD2    C1 6040   2.963   1.379   0.793  0.4455  0.5295 -0.3611
  401MPD2    C2 6041   2.976   1.245   0.790 -0.4670  0.3664  0.5138
  401MPD2    C3 6042   2.914   1.170   0.692 -0.9468 -0.2616 -0.1356
  401MPD2    C4 6043   2.851   1.235   0.591 -0.5319  0.3208 -0.6749
  401MPD2    C5 6044   2.840   1.370   0.591  0.2094 -0.0744 -0.2378
  401MPD2     H 6045   3.028   1.200   0.874  0.0581 -0.1190 -0.0685
  401MPD2    H1 6046   2.809   1.188   0.503 -0.6312  3.0617 -2.0962
  401MPD2    H2 6047   2.899   1.555   0.686  4.5037 -0.0806  0.4024
  401MPD2    H3 6048   2.794   1.416   0.503 -0.6357  0.7428  0.6199
  401MPD2     N 6049   2.912   1.029   0.694  0.1488  0.3360  0.5476
  401MPD2    H5 6050   2.947   0.985   0.778  3.7656  0.8659 -0.6676
  401MPD2    N1 6051   3.019   1.449   0.907 -0.5493 -0.0544 -0.1931
  401MPD2    H7 6052   3.078   1.395   0.970 -0.6927 -0.0176 -0.0284
  402TMC3    C1 6053   2.898   0.800   0.624  0.6883  0.0654  0.9175
  402TMC3    C2 6054   2.896   0.761   0.757 -0.0222  0.2962  0.2310
  402TMC3    C3 6055   2.955   0.641   0.786 -0.0561 -0.5763  0.2657
  402TMC3    C4 6056   2.954   0.724   0.527  0.4089  0.2804  0.3786
  402TMC3    C5 6057   3.013   0.603   0.559  0.8456  0.2978  0.0163
  402TMC3    C6 6058   3.008   0.563   0.693  0.1075 -0.4248  0.0292
  402TMC3     C 6059   2.880   0.942   0.590  0.6226  0.4645 -0.4597
  402TMC3     O 6060   2.878   0.966   0.471 -0.0176 -0.3478 -0.0080
  402TMC3     H 6061   2.835   0.820   0.825 -0.6730  0.4568 -0.5000
  402TMC3    H1 6062   2.952   0.757   0.424 -3.2672 -2.1117 -0.3169
  402TMC3    H2 6063   3.057   0.468   0.716 -0.0041 -1.1352 -2.6010
  402TMC3    C7 6064   3.032   0.507   0.458  0.1106 -0.2700  0.5852
  402TMC3    C8 6065   2.992   0.603   0.925  0.2358 -0.2472  0.4870
  402TMC3    O1 6066   3.007   0.392   0.480  0.1483 -0.3302  0.0559
  402TMC3    O2 6067   3.058   0.500   0.950 -0.4231 -0.0695  0.1086
  403MPD2     C 6068   2.031   3.283  13.481 -0.0167 -0.0069 -0.4085
  403MPD2    C1 6069   2.033   3.423  13.498  0.2244 -0.4792 -0.4401
  403MPD2    C2 6070   2.138   3.485  13.564 -0.3486  0.4253 -0.4305
  403MPD2    C3 6071   2.249   3.414  13.611 -0.0300  0.0776 -0.1091
  403MPD2    C4 6072   2.241   3.275  13.596 -0.0974  0.4194  0.0820
  403MPD2    C5 6073   2.134   3.213  13.537 -0.0620 -0.7104  0.7250
  403MPD2     H 6074   2.126   3.588  13.596 -0.6559  1.0440 -2.5344
  403MPD2    H1 6075   2.317   3.205  13.630 -1.8725 -1.2836  0.5398
  403MPD2    H2 6076   1.953   3.224  13.435 -0.2151  2.2879 -3.0416
  403MPD2    H3 6077   2.139   3.105  13.529 -1.3354 -0.7048 -0.1362
  403MPD2     N 6078   2.357   3.482  13.672  0.0711  0.6343  0.2455
  403MPD2    H5 6079   2.352   3.583  13.681  0.3820  0.6836 -0.1531
  403MPD2    N1 6080   1.926   3.503  13.454 -0.2654  0.9921  0.2302
  403MPD2    H7 6081   1.952   3.601  13.450  0.4582  0.8048  0.3400
  404TMC3    C1 6082   1.702   3.556  13.384  0.0397  0.3084  1.2051
  404TMC3    C2 6083   1.574   3.526  13.419 -0.7409  0.3583  0.6144
  404TMC3    C3 6084   1.475   3.588  13.351 -0.3956 -0.2988 -0.1031
  404TMC3    C4 6085   1.735   3.612  13.260 -0.0660  0.3942 -0.0670
  404TMC3    C5 6086   1.628   3.663  13.187 -0.2189  0.2695  0.0804
  404TMC3    C6 6087   1.499   3.643  13.229  0.7171  0.0334  0.0408
  404TMC3     C 6088   1.798   3.461  13.445  0.6455  0.2850  0.4094
  404TMC3     O 6089   1.748   3.352  13.472  0.2381  0.0160  0.0990
  404TMC3     H 6090   1.561   3.476  13.514  1.1533  1.4282  1.4492
  404TMC3    H1 6091   1.841   3.623  13.236 -0.3319  0.0676 -1.4208
  404TMC3    H2 6092   1.415   3.694  13.184  0.3194  2.1696  3.1871
  404TMC3    C7 6093   1.658   3.754  13.082  0.0682  0.2744  0.1934
  404TMC3    C8 6094   1.347   3.606  13.405  0.6260  0.0254  0.5683
  404TMC3    O1 6095   1.772   3.792  13.066  0.0751 -0.6070 -0.2901
  404TMC3    O2 6096   1.256   3.611  13.323  0.0767  0.7353  0.3195
  405MPD2     C 6097   2.413   4.687  14.838  0.2799  0.4881  0.2246
  405MPD2    C1 6098   2.367   4.590  14.755  0.7288  0.6255  0.1479
  405MPD2    C2 6099   2.340   4.625  14.624 -0.1128 -0.1366  0.7684
  405MPD2    C3 6100   2.340   0.015  14.576 -0.1988 -0.7667  0.1453
  405MPD2    C4 6101   2.373   0.116  14.669 -0.6995 -0.0316  0.5294
  405MPD2    C5 6102   2.419   0.079  14.795  0.1532  0.1229 -0.5894
  405MPD2     H 6103   2.290   4.561  14.552  0.9138 -0.5516  0.4196
  405MPD2    H1 6104   2.359   0.221  14.645  3.2254  0.0559 -1.3794
  405MPD2    H2 6105   2.446   4.664  14.938  3.7799  1.1993 -0.7775
  405MPD2    H3 6106   2.456   0.148  14.871  1.5786 -0.4933 -0.7162
  405MPD2     N 6107   2.317   0.035  14.438  0.3921  0.4693 -0.0131
  405MPD2    H5 6108   2.306   4.688  14.385  1.6857 -0.5709  1.3955
  405MPD2    N1 6109   2.375   4.456  14.794 -1.0834 -0.5414 -0.0571
  405MPD2    H7 6110   2.381   4.446  14.895  0.9299  2.3371  0.1037
  406TMC3    C1 6111   2.069   0.212  14.107 -0.5213  0.2046 -0.8157
  406TMC3    C2 6112   2.048   0.091  14.058 -0.0743 -0.3066  0.3307
  406TMC3    C3 6113   2.122   4.728  14.109 -0.2979  0.2004  0.8794
  406TMC3    C4 6114   2.184   0.233  14.179 -0.3220  0.2136  0.3435
  406TMC3    C5 6115   2.260   0.136  14.229 -0.3752  0.1245 -0.2991
  406TMC3    C6 6116   2.224   0.011  14.193 -0.4053  0.1579  0.6784
  406TMC3     C 6117   1.954   0.292  14.150 -0.3656  0.4043 -0.0609
  406TMC3     O 6118   1.973   0.409  14.177 -0.2614  0.6508  0.1805
  406TMC3     H 6119   1.957   0.068  14.003  1.1155 -1.3411 -1.2065
  406TMC3    H1 6120   2.189   0.331  14.225  0.5083  0.2279  0.2073
  406TMC3    H2 6121   2.288   4.667  14.223 -0.4240 -0.2611 -0.4248
  406TMC3    C7 6122   2.281   0.154  14.376  0.0172  0.0296  0.1255
  406TMC3    C8 6123   2.037   4.614  14.140 -0.4660 -0.2152 -0.1787
  406TMC3    O1 6124   2.260   0.264  14.431  0.6953  0.8211 -0.0293
  406TMC3    O2 6125   1.917   4.625  14.116  0.5522  0.1351  0.2061
  407MPD2     C 6126   4.700   2.136   9.912 -0.6211 -0.4448  0.3531
  407MPD2    C1 6127   0.006   2.043  10.008  0.1240  0.1993  0.2917
  407MPD2    C2 6128   0.011   2.092  10.133 -0.2752  0.1218  0.5309
  407MPD2    C3 6129   4.728   2.231  10.166 -0.1435  0.7342  0.5272
  407MPD2    C4 6130   4.681   2.318  10.069  0.1901 -0.0918  0.1319
  407MPD2    C5 6131   4.670   2.266   9.943  0.0547  0.2222 -0.2115
  407MPD2     H 6132   0.050   2.022  10.207 -0.0056 -1.5239 -1.1569
  407MPD2    H1 6133   4.664   2.421  10.098 -0.4904  0.2493 -1.4538
  407MPD2    H2 6134   4.680   2.106   9.810 -0.1734 -1.7756  0.6488
  407MPD2    H3 6135   4.640   2.331   9.861  2.1805  1.3988 -0.0624
  407MPD2     N 6136   0.029   2.291  10.287  0.0692 -0.0359  0.1631
  407MPD2    H5 6137   4.737   2.387  10.301  0.8212 -0.0060  1.6770
  407MPD2    N1 6138   0.028   1.905   9.978  0.3363  0.1139  0.4181
  407MPD2    H7 6139   0.038   1.841  10.056  0.6729 -0.3863 -0.0424
  408TMC3    C1 6140   0.079   1.712   9.853 -0.3042  0.3163 -1.0801
  408TMC3    C2 6141   0.168   1.655   9.767 -0.3930  0.6324  0.6672
  408TMC3    C3 6142   0.182   1.520   9.751 -1.0071  0.4094 -0.8164
  408TMC3    C4 6143   4.731   1.628   9.923  0.2567 -0.9475  0.0349
  408TMC3    C5 6144   0.013   1.490   9.922 -0.0873  0.4929  0.0881
  408TMC3    C6 6145   0.119   1.437   9.843 -0.6595  0.2861  0.0669
  408TMC3     C 6146   0.058   1.855   9.853 -1.1134  0.1032  0.5910
  408TMC3     O 6147   0.098   1.905   9.746 -0.6372 -0.2284 -0.3144
  408TMC3     H 6148   0.232   1.723   9.712 -2.2052  2.1275  0.4078
  408TMC3    H1 6149   4.652   1.675   9.980  2.2290  1.9377  0.4212
  408TMC3    H2 6150   0.135   1.330   9.842 -1.9005  0.0979  0.9761
  408TMC3    C7 6151   4.651   1.394   9.966  0.2602  0.8456 -0.1616
  408TMC3    C8 6152   0.297   1.457   9.702 -0.0575 -0.3197  0.4675
  408TMC3    O1 6153   4.678   1.276   9.973  0.1872  0.4148 -0.0834
  408TMC3    O2 6154   0.287   1.335   9.689 -0.1195 -0.3370 -0.2341
  409MPD2     C 6155   3.736   2.079  16.829  0.0485  0.6272  0.0997
  409MPD2    C1 6156   3.819   2.077  16.935  0.6354 -0.2076 -0.5249
  409MPD2    C2 6157   3.934   2.160  16.943  0.0731 -0.1005 -0.2189
  409MPD2    C3 6158   3.979   2.222  16.833  0.8271 -0.5340 -0.2918
  409MPD2    C4 6159   3.912   2.208  16.717 -0.4307 -0.0555  0.1438
  409MPD2    C5 6160   3.794   2.133  16.718 -0.5826 -0.4590 -0.0248
  409MPD2     H 6161   3.983   2.181  17.038 -0.1436 -0.1644 -0.0903
  409MPD2    H1 6162   3.940   2.250  16.621  0.8848 -0.0768  0.5248
  409MPD2    H2 6163   3.647   2.019  16.818  0.0209  0.9850 -1.6038
  409MPD2    H3 6164   3.733   2.127  16.628 -0.9220 -1.0969  0.2510
  409MPD2     N 6165   4.087   2.311  16.820  0.0727  0.3809 -0.0889
  409MPD2    H5 6166   4.086   2.352  16.727  0.6607 -1.4646 -0.9051
  409MPD2    N1 6167   3.787   2.007  17.057 -0.0596 -0.1393 -0.0253
  409MPD2    H7 6168   3.845   2.036  17.135  1.7638 -0.3875 -1.2797
  410TMC3    C1 6169   4.269   2.450  16.849 -0.1299 -0.5481  0.0300
  410TMC3    C2 6170   4.333   2.513  16.947 -0.1589 -0.0949  0.7057
  410TMC3    C3 6171   4.345   2.651  16.945 -0.3764  0.5786  0.1840
  410TMC3    C4 6172   4.237   2.517  16.737  0.0009 -0.2075 -0.4543
  410TMC3    C5 6173   4.256   2.653  16.732 -0.3223 -0.7392 -0.1090
  410TMC3    C6 6174   4.303   2.723  16.835 -0.2458  0.2280 -0.4474
  410TMC3     C 6175   4.181   2.349  16.908 -0.1305 -0.0027 -0.0182
  410TMC3     O 6176   4.192   2.312  17.027 -0.2060  0.7651  0.3010
  410TMC3     H 6177   4.365   2.457  17.033 -2.2357  1.1627  2.3199
  410TMC3    H1 6178   4.192   2.467  16.652 -1.6191 -0.8284  0.7857
  410TMC3    H2 6179   4.329   2.828  16.824 -1.6430  0.6856  0.6629
  410TMC3    C7 6180   4.260   2.704  16.594 -1.1231 -0.1108 -0.6644
  410TMC3    C8 6181   4.450   2.706  17.024 -0.3656  0.8685  0.0930
  410TMC3    O1 6182   4.284   2.616  16.506 -0.5109  0.3757 -0.9638
  410TMC3    O2 6183   4.432   2.819  17.063  0.0675  0.7150  0.1712
  411MPD2     C 6184   4.632   3.196  14.431 -0.2067 -0.9453  0.3496
  411MPD2    C1 6185   4.508   3.167  14.469  0.1685  0.0471  0.0481
  411MPD2    C2 6186   4.452   3.046  14.446 -0.4312  0.6493 -0.4982
  411MPD2    C3 6187   4.508   2.960  14.358  0.3267  0.8431 -0.1293
  411MPD2    C4 6188   4.631   2.978  14.317 -0.3196 -0.4152  0.3575
  411MPD2    C5 6189   4.695   3.102  14.349 -0.9137  0.3479  0.4380
  411MPD2     H 6190   4.348   3.036  14.477 -0.3754  0.7283 -0.2811
  411MPD2    H1 6191   4.669   2.904  14.248  1.5063 -0.0806  0.9872
  411MPD2    H2 6192   4.682   3.289  14.455  2.1188 -2.4534  1.3983
  411MPD2    H3 6193   0.056   3.122  14.312 -1.1579  2.1533  0.7442
  411MPD2     N 6194   4.439   2.848  14.325 -0.0035 -0.8173 -0.1354
  411MPD2    H5 6195   4.482   2.788  14.255 -0.3160  1.5258 -2.3172
  411MPD2    N1 6196   4.431   3.255  14.547 -0.1649  0.9025  0.1628
  411MPD2    H7 6197   4.336   3.222  14.561  0.6155 -1.0781  0.6979
  412TMC3    C1 6198   4.289   2.671  14.315  0.7068  0.7404 -0.4053
  412TMC3    C2 6199   4.227   2.572  14.386 -0.0667  0.8860  0.7559
  412TMC3    C3 6200   4.193   2.461  14.315  0.8618  0.5051 -0.2677
  412TMC3    C4 6201   4.326   2.662  14.184  0.0739  0.3293 -0.5772
  412TMC3    C5 6202   4.296   2.546  14.123  0.4918  0.6025  0.6125
  412TMC3    C6 6203   4.237   2.440  14.188  0.0890  0.2520  0.2870
  412TMC3     C 6204   4.324   2.793  14.382 -0.2361  0.4435 -0.4231
  412TMC3     O 6205   4.260   2.819  14.485 -0.6244 -0.0979  0.5289
  412TMC3     H 6206   4.186   2.592  14.485  1.5202  3.0531  0.9752
  412TMC3    H1 6207   4.358   2.750  14.129 -1.9806  0.7388 -1.1431
  412TMC3    H2 6208   4.220   2.348  14.134 -1.1663  0.6424  0.0201
  412TMC3    C7 6209   4.244   2.564  13.991  0.1762 -0.9525  0.6247
  412TMC3    C8 6210   4.052   2.428  14.324 -0.5944  0.9858  0.2993
  412TMC3    O1 6211   4.155   2.483  13.960 -0.0100  0.2910  0.6537
  412TMC3    O2 6212   3.992   2.409  14.430 -0.2616  0.4602  0.0023
  413MPD2     C 6213   1.239   0.874  15.657 -0.3323 -1.0588 -0.4148
  413MPD2    C1 6214   1.171   0.889  15.536 -0.1434  0.4438 -0.1958
  413MPD2    C2 6215   1.238   0.856  15.421 -0.7852 -0.6341 -0.0809
  413MPD2    C3 6216   1.369   0.815  15.430  0.1760  0.2007  0.6763
  413MPD2    C4 6217   1.439   0.817  15.544  0.0622  0.4907 -0.4183
  413MPD2    C5 6218   1.374   0.844  15.657 -0.6101  0.3866  0.4611
  413MPD2     H 6219   1.189   0.849  15.324  2.3475 -2.2631 -1.5619
  413MPD2    H1 6220   1.544   0.795  15.557  0.0231  0.3046 -0.4166
  413MPD2    H2 6221   1.184   0.903  15.746  2.5134  1.3322  0.5239
  413MPD2    H3 6222   1.430   0.838  15.750 -1.3018 -0.5731  0.8188
  413MPD2     N 6223   1.420   0.768  15.307  0.7926 -0.0404  0.5544
  413MPD2    H5 6224   1.360   0.761  15.226 -1.6201 -0.2932  2.3744
  413MPD2    N1 6225   1.031   0.920  15.514 -0.2143 -0.1777  0.2867
  413MPD2    H7 6226   1.008   0.924  15.415  2.0044 -0.1706 -0.2314
  414TMC3    C1 6227   1.530   0.607  15.180 -0.1484 -0.4917 -0.0663
  414TMC3    C2 6228   1.582   0.483  15.202 -0.0372 -0.0857 -0.9842
  414TMC3    C3 6229   1.612   0.418  15.087  0.9290 -0.4830  0.2563
  414TMC3    C4 6230   1.522   0.669  15.059 -0.0060  0.2361 -0.3296
  414TMC3    C5 6231   1.557   0.600  14.946  0.2559  0.0947  0.3286
  414TMC3    C6 6232   1.596   0.467  14.955 -0.0634 -0.2231  0.4844
  414TMC3     C 6233   1.531   0.686  15.298 -0.8762 -0.4816 -0.0465
  414TMC3     O 6234   1.609   0.649  15.384  0.6160  0.9185  0.3349
  414TMC3     H 6235   1.593   0.431  15.297 -1.3608 -0.4425 -1.0286
  414TMC3    H1 6236   1.507   0.776  15.063 -0.7493  0.0835  1.2826
  414TMC3    H2 6237   1.607   0.399  14.872 -0.9673  1.0730 -0.6950
  414TMC3    C7 6238   1.513   0.659  14.817  0.0907  0.1545  0.2818
  414TMC3    C8 6239   1.700   0.306  15.108 -0.3263  0.0001  0.1718
  414TMC3    O1 6240   1.404   0.722  14.831 -0.3406 -0.0557 -0.4708
  414TMC3    O2 6241   1.707   0.250  15.218 -0.3608 -0.3561  0.2026
  415TMC3    C1 6242   1.232   4.206   9.652  0.2097 -0.8786 -0.4851
  415TMC3    C2 6243   1.313   4.321   9.659 -0.9782 -0.0396 -0.2977
  415TMC3    C3 6244   1.446   4.306   9.656 -0.5110  0.4304 -0.2292
  415TMC3    C4 6245   1.290   4.084   9.638 -0.1940  0.4023 -0.5715
  415TMC3    C5 6246   1.426   4.075   9.631  0.0936  0.1411 -0.6362
  415TMC3    C6 6247   1.506   4.183   9.630 -0.8975 -0.4726 -0.0359
  415TMC3     C 6248   1.087   4.207   9.643 -0.5890 -0.5512 -0.2873
  415TMC3     O 6249   1.032   4.100   9.654 -0.5477 -0.1230  0.9057
  415TMC3     H 6250   1.270   4.417   9.685 -1.5399 -0.4465  0.2972
  415TMC3    H1 6251   1.234   3.997   9.608  1.5918 -0.2269 -2.0543
  415TMC3    H2 6252   1.612   4.178   9.608 -0.6058  0.0180  1.2660
  415TMC3    C7 6253   1.491   3.950   9.652 -0.3303 -0.7949 -0.1490
  415TMC3    C8 6254   1.520   4.428   9.648 -0.2119  0.7019  0.6426
  415TMC3    O1 6255   1.614   3.956   9.654 -0.2176  0.1863  0.5303
  415TMC3    O2 6256   1.460   4.528   9.615  0.6541 -0.0980 -0.4879
  416MPD2     C 6257   4.243   3.156  11.483  0.6266 -0.4875 -0.0192
  416MPD2    C1 6258   4.171   3.059  11.549  0.1454  0.1325  0.2118
  416MPD2    C2 6259   4.220   2.929  11.557  0.3553 -0.6132  0.1932
  416MPD2    C3 6260   4.338   2.892  11.490 -0.5179  0.5166 -0.3032
  416MPD2    C4 6261   4.412   2.990  11.430 -0.2452 -1.5270  0.0529
  416MPD2    C5 6262   4.361   3.118  11.421 -0.4793  0.3621 -0.4320
  416MPD2     H 6263   4.171   2.853  11.616 -2.1009  2.0496  1.5976
  416MPD2    H1 6264   4.504   2.970  11.376  0.7306 -1.1645  1.5642
  416MPD2    H2 6265   4.222   3.262  11.479  1.1262 -0.4379 -1.6017
  416MPD2    H3 6266   4.409   3.189  11.356  0.0331  2.6697  2.4559
  416MPD2     N 6267   4.366   2.750  11.475 -0.7378  0.2583 -0.2571
  416MPD2    H5 6268   4.287   2.697  11.512 -0.9933  1.2448  0.5924
  416MPD2    N1 6269   4.047   3.095  11.597 -0.5488 -0.2355  0.2433
  416MPD2    H7 6270   4.024   3.193  11.590 -2.0278 -0.5279  0.9493
  417TMC3    C1 6271   3.821   3.055  11.684 -0.3107 -0.0305 -0.7787
  417TMC3    C2 6272   3.756   2.999  11.786 -0.3237 -0.3571  0.5486
  417TMC3    C3 6273   3.618   3.015  11.803  1.1426 -0.5479 -0.6086
  417TMC3    C4 6274   3.751   3.142  11.604  0.3840  0.3710  0.2749
  417TMC3    C5 6275   3.623   3.153  11.621  0.2892 -0.4994  0.5619
  417TMC3    C6 6276   3.545   3.096  11.715 -0.7153 -0.3711 -0.1588
  417TMC3     C 6277   3.954   3.003  11.653 -0.1904 -0.1007 -0.1725
  417TMC3     O 6278   3.966   2.883  11.668  0.6489 -0.1360 -0.5165
  417TMC3     H 6279   3.820   2.933  11.845 -0.0012  0.0418  0.6441
  417TMC3    H1 6280   3.804   3.208  11.536  0.6730 -0.2898 -0.1334
  417TMC3    H2 6281   3.440   3.120  11.728 -0.2684  0.8177  1.2385
  417TMC3    C7 6282   3.561   3.189  11.493  0.5115  0.1558 -0.0500
  417TMC3    C8 6283   3.558   2.984  11.936 -0.4757  0.2054 -0.1305
  417TMC3    O1 6284   3.640   3.185  11.399  0.1709  0.0993  0.2207
  417TMC3    O2 6285   3.470   3.065  11.969  0.3961 -0.5087 -0.0130
  418TMC3    C1 6286   1.991   0.736   0.372 -0.6019  0.3179 -0.1650
  418TMC3    C2 6287   1.877   0.690   0.311 -0.8655  0.4720 -0.6125
  418TMC3    C3 6288   1.826   0.579   0.360  0.1138 -0.6192 -0.2207
  418TMC3    C4 6289   2.056   0.671   0.473 -0.4607 -0.0303  0.6152
  418TMC3    C5 6290   1.995   0.555   0.519 -0.0324  0.6004 -0.3841
  418TMC3    C6 6291   1.891   0.500   0.454 -0.0415  0.0401 -0.2952
  418TMC3     C 6292   2.073   0.799   0.277  0.2882  0.4260 -0.0685
  418TMC3     O 6293   2.015   0.863   0.187 -0.2565  0.0480  0.1845
  418TMC3     H 6294   1.815   0.747   0.243  0.2144 -0.4068 -2.3383
  418TMC3    H1 6295   2.148   0.715   0.509  0.0658  1.2216 -2.2004
  418TMC3    H2 6296   1.845   0.411   0.494  0.5223 -0.3625 -0.5440
  418TMC3    C7 6297   2.075   0.466   0.595  0.5989 -0.6633  0.7382
  418TMC3    C8 6298   1.689   0.531   0.328 -0.2931 -0.3450 -0.4374
  418TMC3    O1 6299   2.049   0.350   0.579  0.7205 -0.6117 -0.3806
  418TMC3    O2 6300   1.616   0.602   0.262 -0.3281 -0.6007 -0.2421
  419MPD2     C 6301   1.284   2.928  12.520 -0.9697  0.8926 -0.8162
  419MPD2    C1 6302   1.185   3.006  12.471 -0.4177  0.2208  0.9833
  419MPD2    C2 6303   1.088   3.049  12.560 -0.5151  0.3063  0.5689
  419MPD2    C3 6304   1.098   3.023  12.693 -0.0051  0.8096  0.0863
  419MPD2    C4 6305   1.199   2.943  12.741 -0.2692 -0.9990  1.2484
  419MPD2    C5 6306   1.283   2.891  12.649 -0.1787 -0.4470 -0.4371
  419MPD2     H 6307   1.005   3.110  12.527  0.0406  0.5261 -0.4295
  419MPD2    H1 6308   1.213   2.919  12.846 -1.5935  0.1340  1.6825
  419MPD2    H2 6309   1.371   2.891  12.467 -0.3575 -1.5156  1.8915
  419MPD2    H3 6310   1.363   2.830  12.687 -0.0409  0.3137  0.4884
  419MPD2     N 6311   1.003   3.082  12.774  0.3284  0.3846 -0.4285
  419MPD2    H5 6312   0.942   3.147  12.726  0.3869  0.9613  0.2889
  419MPD2    N1 6313   1.168   3.036  12.334 -0.0723  0.4744  0.8378
  419MPD2    H7 6314   1.086   3.096  12.324  0.2136  0.6961 -0.2045
  420TMC3    C1 6315   0.855   3.124  12.960  0.3433 -0.4414  0.7199
  420TMC3    C2 6316   0.758   3.151  12.875  0.1244 -0.2915 -0.0523
  420TMC3    C3 6317   0.628   3.173  12.922 -0.1583 -0.4322  1.5836
  420TMC3    C4 6318   0.827   3.102  13.090  0.0941 -0.4753  0.3894
  420TMC3    C5 6319   0.705   3.138  13.145 -0.6003 -0.2458 -0.5629
  420TMC3    C6 6320   0.600   3.181  13.058 -0.0968 -0.0123 -0.6976
  420TMC3     C 6321   0.971   3.054  12.906 -0.8460  0.9184 -0.1716
  420TMC3     O 6322   1.037   2.989  12.983 -0.6754  0.0586 -0.1728
  420TMC3     H 6323   0.782   3.161  12.770  0.7986  0.9145  0.2179
  420TMC3    H1 6324   0.914   3.086  13.153 -0.6388 -0.2601  1.4643
  420TMC3    H2 6325   0.507   3.217  13.100  0.5230 -1.4906  1.9183
  420TMC3    C7 6326   0.698   3.187  13.282 -0.4964  0.7241 -0.0018
  420TMC3    C8 6327   0.515   3.192  12.834  0.1605  0.3856  0.5772
  420TMC3    O1 6328   0.626   3.283  13.303  0.0773 -0.2348  0.1884
  420TMC3    O2 6329   0.427   3.275  12.866  0.2471 -0.3157 -0.3719
  421TMC3    C1 6330   2.575   3.525  13.769  0.6923 -0.2810 -0.0692
  421TMC3    C2 6331   2.551   3.658  13.762  0.3124  1.0507 -1.1698
  421TMC3    C3 6332   2.656   3.742  13.809 -0.3571 -1.1004  0.2729
  421TMC3    C4 6333   2.694   3.469  13.819  0.0588  0.4210  0.5553
  421TMC3    C5 6334   2.784   3.555  13.873 -0.1333  0.3934 -0.2304
  421TMC3    C6 6335   2.765   3.685  13.866 -0.6697 -0.7720 -0.3242
  421TMC3     C 6336   2.472   3.426  13.726 -0.7540  0.3406 -0.1812
  421TMC3     O 6337   2.507   3.311  13.739 -0.5762  0.5321 -0.9311
  421TMC3     H 6338   2.462   3.699  13.715 -0.7467  0.9370  0.7273
  421TMC3    H1 6339   2.709   3.362  13.810 -0.6935  0.2825  1.0303
  421TMC3    H2 6340   2.835   3.748  13.920  0.0792 -4.5102  3.0199
  421TMC3    C7 6341   2.889   3.509  13.960 -0.5333 -0.0557 -0.4265
  421TMC3    C8 6342   2.623   3.878  13.853  0.6980  0.0901 -0.0927
  421TMC3    O1 6343   2.981   3.579  13.986  0.8086  0.2627  0.7538
  421TMC3    O2 6344   2.720   3.949  13.876  0.2165 -0.6878  0.0787
  422TMC3    C1 6345   0.059   0.970  12.518  0.3943  0.8716  0.6278
  422TMC3    C2 6346   0.057   1.060  12.622  0.3322  0.3056  0.4833
  422TMC3    C3 6347   4.683   1.088  12.694  0.5721 -0.2018  0.2946
  422TMC3    C4 6348   4.687   0.900  12.481 -0.7152 -0.2059 -0.2635
  422TMC3    C5 6349   4.576   0.927  12.550 -0.0001  0.2469 -0.1007
  422TMC3    C6 6350   4.574   1.018  12.653 -0.1781 -0.3404 -0.3349
  422TMC3     C 6351   0.162   0.991  12.420 -0.4448  0.0049 -0.2953
  422TMC3     O 6352   0.247   1.077  12.444  0.0086  0.1866 -0.0615
  422TMC3     H 6353   0.147   1.113  12.653 -0.0867 -0.3828  2.8792
  422TMC3    H1 6354   4.672   0.823  12.405 -4.1131  1.0718 -0.8938
  422TMC3    H2 6355   4.481   1.024  12.708  1.3735 -3.1589  2.6245
  422TMC3    C7 6356   4.464   0.850  12.517  0.3436 -0.5663 -0.4456
  422TMC3    C8 6357   4.675   1.226  12.748 -0.0683  0.1223  0.1655
  422TMC3    O1 6358   4.466   0.798  12.408  0.0552 -0.0375 -0.0741
  422TMC3    O2 6359   0.035   1.297  12.765 -0.5208  0.0681  0.5342
  423MPD2     C 6360   1.145   2.327   0.311  0.1017  0.1497  0.7633
  423MPD2    C1 6361   1.190   2.205   0.364  0.3075  0.1477  0.3044
  423MPD2    C2 6362   1.170   2.095   0.286  0.2292  0.1295 -0.9989
  423MPD2    C3 6363   1.106   2.102   0.164  0.4865 -0.5245 -0.0635
  423MPD2    C4 6364   1.054   2.222   0.123 -0.1080  0.6606  0.6611
  423MPD2    C5 6365   1.089   2.340   0.187 -0.0097  0.1835 -0.3220
  423MPD2     H 6366   1.194   1.998   0.329 -2.9282 -0.6967 -1.1340
  423MPD2    H1 6367   1.004   2.232   0.027 -2.3471 -0.8066  1.6865
  423MPD2    H2 6368   1.171   2.419   0.362 -3.3525  1.8279 -0.5204
  423MPD2    H3 6369   1.068   2.439   0.149 -1.3469 -1.4025 -3.7399
  423MPD2     N 6370   1.080   1.991   0.083 -0.0099  0.0404 -0.4190
  423MPD2    H5 6371   1.031   2.005  17.747 -0.5494  0.0495 -0.1199
  423MPD2    N1 6372   1.251   2.191   0.495  0.4413  0.8072  0.6413
  423MPD2    H7 6373   1.281   2.098   0.524 -0.0769 -0.2556 -2.2767
  424TMC3    C1 6374   1.338   2.240   0.706  0.7677 -0.6594  0.3392
  424TMC3    C2 6375   1.456   2.168   0.693  0.1654 -0.3954 -0.6732
  424TMC3    C3 6376   1.533   2.151   0.807  0.7983  0.2059 -0.5268
  424TMC3    C4 6377   1.303   2.305   0.818 -0.0080  0.0608  0.5383
  424TMC3    C5 6378   1.376   2.282   0.930 -0.1427 -0.3324  0.1988
  424TMC3    C6 6379   1.492   2.200   0.930  0.0843  0.4278 -0.3343
  424TMC3     C 6380   1.261   2.281   0.592  0.0940 -0.0104 -0.3642
  424TMC3     O 6381   1.228   2.396   0.590  0.4820 -1.0317  0.1379
  424TMC3     H 6382   1.491   2.121   0.602 -2.3676 -0.7745 -1.4688
  424TMC3    H1 6383   1.218   2.373   0.817  0.4405  0.6423  1.5618
  424TMC3    H2 6384   1.552   2.194   1.019 -3.3735 -0.1078  1.9850
  424TMC3    C7 6385   1.351   2.348   1.059  0.5950  0.6436  0.7430
  424TMC3    C8 6386   1.626   2.040   0.799  0.1121  0.2286 -0.1859
  424TMC3    O1 6387   1.437   2.348   1.152 -0.4794 -0.6028 -0.1744
  424TMC3    O2 6388   1.592   1.950   0.724  0.2112  0.5358  0.8762
  425MPD2     C 6389   0.007   1.281  17.226  0.1563  0.5118 -0.0730
  425MPD2    C1 6390   4.736   1.159  17.294 -0.2120 -0.1266 -0.1843
  425MPD2    C2 6391   4.627   1.146  17.382 -0.1146  0.6494 -0.2118
  425MPD2    C3 6392   4.516   1.232  17.388  0.4794 -0.7658 -0.2814
  425MPD2    C4 6393   4.534   1.344  17.310 -0.0272  0.1397  0.5140
  425MPD2    C5 6394   4.643   1.370  17.229 -1.0945 -0.8562 -0.5914
  425MPD2     H 6395   4.620   1.060  17.449  0.4987  0.2052 -0.7184
  425MPD2    H1 6396   4.461   1.423  17.294  0.6949  1.0061  1.4868
  425MPD2    H2 6397   0.085   1.294  17.151 -0.2915 -0.9054 -0.7655
  425MPD2    H3 6398   4.642   1.454  17.159 -2.3747  0.4485  1.0021
  425MPD2     N 6399   4.398   1.210  17.466  0.0672 -0.0539  0.1795
  425MPD2    H5 6400   4.410   1.130  17.527  1.1800  0.7523  1.0251
  425MPD2    N1 6401   0.100   1.071  17.277  0.1715 -0.5691  0.0237
  425MPD2    H7 6402   0.172   1.097  17.209  1.0593  2.7441  2.2438
  426TMC3    C1 6403   0.220   0.872  17.300  0.2530  0.1694  0.3128
  426TMC3    C2 6404   0.240   0.864  17.162  0.4006 -0.5419  0.2073
  426TMC3    C3 6405   0.313   0.753  17.123  0.4311  0.1668 -0.3528
  426TMC3    C4 6406   0.255   0.773  17.383 -0.0465  0.0286  0.3876
  426TMC3    C5 6407   0.314   0.662  17.332  0.4354  0.2839  0.1516
  426TMC3    C6 6408   0.353   0.652  17.209 -0.0486  0.2672 -0.0457
  426TMC3     C 6409   0.119   0.953  17.354  0.0459  0.6417 -0.5287
  426TMC3     O 6410   0.041   0.892  17.428 -0.1219 -0.1255 -0.2898
  426TMC3     H 6411   0.200   0.933  17.089  0.9702  1.7154  2.0180
  426TMC3    H1 6412   0.224   0.780  17.487  1.0710 -4.4352  1.0181
  426TMC3    H2 6413   0.412   0.571  17.167 -2.5833 -0.8489 -1.4688
  426TMC3    C7 6414   0.274   0.537  17.386  0.2030  0.6732  0.1129
  426TMC3    C8 6415   0.284   0.702  16.990  0.2387 -0.0145 -0.4286
  426TMC3    O1 6416   0.311   0.437  17.322  0.2086  0.6681  0.4356
  426TMC3    O2 6417   0.354   0.621  16.932  0.5792 -0.4937  0.6834
  427MPD2     C 6418   3.364   2.931  15.282  0.3159  0.0421 -0.3557
  427MPD2    C1 6419   3.391   2.814  15.224 -0.1812  0.5639 -0.4072
  427MPD2    C2 6420   3.300   2.768  15.124  0.4343  0.2227  0.0749
  427MPD2    C3 6421   3.187   2.848  15.084 -0.3725  0.5723  0.6002
  427MPD2    C4 6422   3.168   2.965  15.157 -0.0841  0.4482  0.0147
  427MPD2    C5 6423   3.255   2.999  15.253 -0.2256  0.2683 -0.1332
  427MPD2     H 6424   3.328   2.688  15.057 -0.1067  1.2421 -1.3541
  427MPD2    H1 6425   3.093   3.039  15.132  0.2721  1.1231  0.9356
  427MPD2    H2 6426   3.438   2.978  15.346  0.4811 -0.8984  0.1282
  427MPD2    H3 6427   3.251   3.092  15.309 -0.8592  1.1238 -1.6078
  427MPD2     N 6428   3.092   2.824  14.981  0.1178 -0.1914  0.1758
  427MPD2    H5 6429   3.018   2.891  14.960 -2.2248 -2.3185  1.6311
  427MPD2    N1 6430   3.523   2.747  15.229 -0.2605  0.1758 -0.7253
  427MPD2    H7 6431   3.526   2.653  15.190  1.3967 -1.1537  2.6641
  428TMC3    C1 6432   3.739   2.706  15.317  1.0277  0.3205  0.4614
  428TMC3    C2 6433   3.704   2.587  15.380 -0.3782  0.2007 -0.4964
  428TMC3    C3 6434   3.802   2.523  15.457 -1.1162  0.5564  0.6574
  428TMC3    C4 6435   3.867   2.757  15.327 -0.3061  0.0632 -0.5050
  428TMC3    C5 6436   3.968   2.683  15.391  0.2319  0.1083  0.3289
  428TMC3    C6 6437   3.931   2.580  15.470  0.8550 -0.1224 -0.3519
  428TMC3     C 6438   3.633   2.802  15.290 -0.2736  0.2884 -0.9253
  428TMC3     O 6439   3.659   2.919  15.305 -0.1846  0.0011 -0.0503
  428TMC3     H 6440   3.603   2.548  15.376 -0.1010 -0.6890  0.9594
  428TMC3    H1 6441   3.896   2.845  15.271  0.8921 -1.7111 -2.6633
  428TMC3    H2 6442   4.011   2.525  15.518  1.2958 -1.9930 -3.2256
  428TMC3    C7 6443   4.098   2.733  15.402 -0.9769  0.7157  0.9820
  428TMC3    C8 6444   3.786   2.380  15.491 -0.2616  0.2279  0.1621
  428TMC3    O1 6445   4.156   2.735  15.508  0.0594  0.2780  0.5142
  428TMC3    O2 6446   3.890   2.315  15.497  0.5152 -0.1238 -0.2856
  429MPD2     C 6447   4.093   3.267  17.596 -0.3892  0.0010 -0.3259
  429MPD2    C1 6448   4.170   3.206  17.501  0.2930  0.2330 -0.2068
  429MPD2    C2 6449   4.266   3.274  17.425  0.3491 -0.0548 -0.3280
  429MPD2    C3 6450   4.273   3.410  17.453  0.9361 -0.1480  0.2121
  429MPD2    C4 6451   4.197   3.474  17.558  0.0076 -0.1387  0.0518
  429MPD2    C5 6452   4.111   3.400  17.632  0.3546  0.5847  0.2837
  429MPD2     H 6453   4.303   3.230  17.334 -0.7327 -3.1722  0.7326
  429MPD2    H1 6454   4.211   3.578  17.585  0.7164 -0.2838  0.2545
  429MPD2    H2 6455   4.017   3.216  17.654  0.3852 -3.1718 -2.1461
  429MPD2    H3 6456   4.061   3.446  17.717 -0.6111 -0.0749  0.0638
  429MPD2     N 6457   4.366   3.481  17.370  0.2094  0.5195 -0.6297
  429MPD2    H5 6458   4.414   3.428  17.297  0.2205 -1.0128  0.4796
  429MPD2    N1 6459   4.155   3.073  17.468 -0.5046 -0.2089  0.0826
  429MPD2    H7 6460   4.207   3.041  17.386 -1.8817  0.5099 -1.0807
  430TMC3    C1 6461   4.491   3.661  17.282 -0.4811 -0.3288 -0.2552
  430TMC3    C2 6462   4.456   3.756  17.184  0.9394  0.2172 -0.4178
  430TMC3    C3 6463   4.538   3.758  17.069 -0.5573 -0.2317  0.0081
  430TMC3    C4 6464   4.606   3.585  17.276 -0.3348  0.1645 -0.4557
  430TMC3    C5 6465   4.686   3.610  17.167 -0.1816 -0.5628 -0.1999
  430TMC3    C6 6466   4.655   3.685  17.057  0.1949 -0.0034  0.4331
  430TMC3     C 6467   4.374   3.618  17.368 -0.4919  0.6671 -0.5651
  430TMC3     O 6468   4.294   3.702  17.410 -0.0319  0.2353 -0.5229
  430TMC3     H 6469   4.372   3.822  17.203 -1.2014 -2.2828 -1.1906
  430TMC3    H1 6470   4.634   3.522  17.360 -1.0513 -2.7805 -2.4187
  430TMC3    H2 6471   4.715   3.686  16.967 -2.7379 -1.0434 -1.5371
  430TMC3    C7 6472   0.046   3.508  17.140  0.0343  0.2769 -0.1222
  430TMC3    C8 6473   4.472   3.784  16.944 -0.0257 -0.1928 -0.2316
  430TMC3    O1 6474   0.025   3.393  17.170  0.5424  0.6302  0.3501
  430TMC3    O2 6475   4.524   3.751  16.838 -0.4662  0.3075 -0.2673
  431MPD2     C 6476   0.742   3.464  12.372  0.1746 -1.3424 -0.5566
  431MPD2    C1 6477   0.824   3.524  12.273  0.1361 -0.2701 -0.4408
  431MPD2    C2 6478   0.863   3.451  12.162  0.1991 -0.4965 -0.0266
  431MPD2    C3 6479   0.822   3.316  12.159  0.2942 -0.1372  0.3413
  431MPD2    C4 6480   0.745   3.261  12.256 -0.3037  0.6311 -1.4425
  431MPD2    C5 6481   0.706   3.334  12.368 -0.1543  0.4564  0.3199
  431MPD2     H 6482   0.924   3.502  12.088  0.7160 -1.3986 -0.2234
  431MPD2    H1 6483   0.729   3.154  12.257  2.7045  0.1854  2.0411
  431MPD2    H2 6484   0.699   3.522  12.453  0.8827 -0.1453 -1.0336
  431MPD2    H3 6485   0.650   3.290  12.449  1.5888  0.3093  1.4396
  431MPD2     N 6486   0.874   3.228  12.071  0.5666  0.3731 -0.0166
  431MPD2    H5 6487   0.861   3.130  12.093  1.5224  0.0577 -0.8004
  431MPD2    N1 6488   0.875   3.656  12.284  0.5372 -0.2109 -0.6773
  431MPD2    H7 6489   0.943   3.691  12.218  1.5979 -0.5609  0.2413
  432TMC3    C1 6490   1.077   3.177  11.969 -0.2969  0.1998  0.0110
  432TMC3    C2 6491   1.132   3.134  11.851 -0.5148 -0.8167  0.9568
  432TMC3    C3 6492   1.236   3.049  11.865 -0.6065 -0.1917  1.0333
  432TMC3    C4 6493   1.121   3.135  12.089  0.5641  0.2186 -0.0339
  432TMC3    C5 6494   1.228   3.049  12.095 -0.1582 -0.4245 -0.2236
  432TMC3    C6 6495   1.293   3.010  11.982 -0.1518 -0.1751  0.3730
  432TMC3     C 6496   0.965   3.274  11.977 -0.2181 -0.0009 -0.1754
  432TMC3     O 6497   0.950   3.359  11.895  0.3466 -0.2412 -0.8686
  432TMC3     H 6498   1.079   3.160  11.760  0.4076 -1.8015  0.1362
  432TMC3    H1 6499   1.077   3.181  12.177  0.3644 -0.7371  0.3677
  432TMC3    H2 6500   1.384   2.953  11.991  0.3114  0.3447 -1.0364
  432TMC3    C7 6501   1.259   3.004  12.227  0.2769 -0.3402 -0.0572
  432TMC3    C8 6502   1.299   3.028  11.740 -0.4142  0.5140 -0.7614
  432TMC3    O1 6503   1.372   2.956  12.241  0.1772 -0.4125  0.6102
  432TMC3    O2 6504   1.230   3.001  11.644  0.4799 -0.4389  0.2611
  433MPD2     C 6505   0.233   2.084  11.133 -0.1901  0.6014  0.9124
  433MPD2    C1 6506   0.175   1.966  11.159 -0.3701  0.0131  0.0287
  433MPD2    C2 6507   0.170   1.912  11.287 -0.3498 -0.3852 -0.4507
  433MPD2    C3 6508   0.232   1.986  11.387  0.6343 -0.2236  0.2256
  433MPD2    C4 6509   0.307   2.094  11.351 -0.2294  0.4828 -0.6624
  433MPD2    C5 6510   0.298   2.155  11.225 -0.4722 -0.2549  0.6674
  433MPD2     H 6511   0.116   1.821  11.314  0.4368 -0.5012  0.7600
  433MPD2    H1 6512   0.374   2.143  11.420  1.1946  0.6304 -2.1574
  433MPD2    H2 6513   0.234   2.127  11.033  0.2224 -1.1935  0.1450
  433MPD2    H3 6514   0.360   2.242  11.209  0.4171 -1.3040 -1.4671
  433MPD2     N 6515   0.230   1.936  11.515 -0.2010  0.3444 -0.0904
  433MPD2    H5 6516   0.196   1.841  11.523 -0.7681  0.7254  2.1603
  433MPD2    N1 6517   0.111   1.899  11.049  0.7060  0.5978  0.2209
  433MPD2    H7 6518   0.127   1.939  10.957 -0.7979 -1.6425 -1.0433
  434TMC3    C1 6519   0.040   1.721  10.918  0.3014  0.3203 -0.1850
  434TMC3    C2 6520   0.105   1.599  10.918  0.3015  0.5650  0.3510
  434TMC3    C3 6521   0.203   1.561  10.838  0.7881  0.1715  0.2518
  434TMC3    C4 6522   0.081   1.810  10.826 -0.0058 -0.0400  0.0522
  434TMC3    C5 6523   0.182   1.772  10.744  0.9848  0.2223  0.4256
  434TMC3    C6 6524   0.244   1.652  10.743  0.7695 -0.0126 -0.5026
  434TMC3     C 6525   0.057   1.773  11.053  0.5134 -0.1529  0.7115
  434TMC3     O 6526   0.034   1.700  11.148 -0.0725 -0.3971  0.3685
  434TMC3     H 6527   0.078   1.528  10.995  0.8789 -1.2596 -1.1492
  434TMC3    H1 6528   0.029   1.906  10.826  2.3788  1.2118  2.8991
  434TMC3    H2 6529   0.325   1.639  10.672  0.4665 -0.1643 -0.8183
  434TMC3    C7 6530   0.199   1.862  10.635  0.3669  0.3747 -0.0990
  434TMC3    C8 6531   0.303   1.465  10.880 -0.0121  0.4495 -0.7700
  434TMC3    O1 6532   0.315   1.888  10.603 -0.3886  0.4352  0.1278
  434TMC3    O2 6533   0.261   1.370  10.939 -0.2473  0.2028 -0.1314
  435MPD2     C 6534   1.704   1.478  15.501 -0.2729  0.3687 -0.1233
  435MPD2    C1 6535   1.677   1.501  15.639 -0.5396 -0.2949 -0.5582
  435MPD2    C2 6536   1.761   1.455  15.735 -0.4763 -0.4981  0.0761
  435MPD2    C3 6537   1.886   1.405  15.707 -0.2466  0.2481 -0.5234
  435MPD2    C4 6538   1.913   1.386  15.571  0.1320  0.3690  0.2310
  435MPD2    C5 6539   1.826   1.432  15.474 -0.4439 -0.2535 -0.1222
  435MPD2     H 6540   1.727   1.461  15.838 -1.4777 -1.6069 -0.1843
  435MPD2    H1 6541   2.005   1.343  15.533 -0.6901 -0.3759 -0.8960
  435MPD2    H2 6542   1.631   1.486  15.422 -1.6773 -0.0159  1.1382
  435MPD2    H3 6543   1.849   1.409  15.370 -0.2590 -3.9813  0.7263
  435MPD2     N 6544   1.958   1.354  15.817  0.5062  0.4541 -0.0260
  435MPD2    H5 6545   1.922   1.377  15.909 -0.1974 -0.7234  0.0008
  435MPD2    N1 6546   1.548   1.537  15.682 -0.3151 -0.1089 -0.8283
  435MPD2    H7 6547   1.535   1.543  15.783  2.6587  1.0986 -0.5191
  436TMC3    C1 6548   1.257   1.723  15.875  0.0618 -0.0682  0.4895
  436TMC3    C2 6549   1.367   1.688  15.791  0.5214 -0.3654 -0.6130
  436TMC3    C3 6550   1.333   1.625  15.677 -0.1437  0.1982  0.2021
  436TMC3    C4 6551   1.135   1.704  15.831 -0.0797 -0.0907  0.0522
  436TMC3    C5 6552   1.110   1.630  15.721 -0.9046  0.4702 -0.2211
  436TMC3    C6 6553   1.206   1.589  15.638  0.1431  0.3904  0.3150
  436TMC3     C 6554   1.289   1.841  15.965 -0.0553 -0.2605  0.8069
  436TMC3     O 6555   1.406   1.872  15.967  0.1553 -0.7019 -0.1091
  436TMC3     H 6556   1.469   1.700  15.826  0.1560  0.6742  0.1250
  436TMC3    H1 6557   1.053   1.733  15.895  0.4902 -2.5597  1.9014
  436TMC3    H2 6558   1.180   1.530  15.551 -4.4270  1.4056  0.9611
  436TMC3    C7 6559   0.979   1.575  15.693 -1.2088 -0.2834 -0.1269
  436TMC3    C8 6560   1.438   1.566  15.599  0.5905 -0.8842  0.0067
  436TMC3    O1 6561   0.960   1.528  15.581  0.3543  0.4095  0.4701
  436TMC3    O2 6562   1.418   1.546  15.476  0.4790 -0.3731  0.0961
  437TMC3    C1 6563   0.194   4.043  12.286  0.5550  0.8921 -0.0147
  437TMC3    C2 6564   0.111   4.090  12.193  0.5971 -0.3147  0.2750
  437TMC3    C3 6565   0.157   4.152  12.086  0.1050  0.4202 -0.0661
  437TMC3    C4 6566   0.321   4.085  12.282  0.0898 -0.5445  0.9769
  437TMC3    C5 6567   0.366   4.158  12.170 -0.3843  0.1153 -0.0578
  437TMC3    C6 6568   0.291   4.188  12.069 -0.3477 -0.2506 -0.1886
  437TMC3     C 6569   0.125   4.033  12.420  0.4773 -0.6082 -0.3849
  437TMC3     O 6570   0.077   4.137  12.462  0.2801  0.1801 -0.0915
  437TMC3     H 6571   0.006   4.062  12.196  0.0006  2.0421  0.7321
  437TMC3    H1 6572   0.384   4.074  12.370  0.8148  0.6660  0.6159
  437TMC3    H2 6573   0.330   4.233  11.978 -0.5138  0.9316  0.3250
  437TMC3    C7 6574   0.506   4.194  12.153  0.4405 -0.0166 -0.4743
  437TMC3    C8 6575   0.091   4.148  11.951 -0.3972 -0.7666  0.2834
  437TMC3    O1 6576   0.540   4.239  12.044  0.1366  0.1269  1.2850
  437TMC3    O2 6577   0.141   4.207  11.851 -0.1578 -0.1000  0.0055
  438MPD2     C 6578   2.250   4.437  16.855 -0.3108  0.0541  0.4457
  438MPD2    C1 6579   2.332   4.365  16.942  0.0818 -0.6908 -0.9602
  438MPD2    C2 6580   2.321   4.397  17.078  0.5854 -0.6439 -0.3700
  438MPD2    C3 6581   2.230   4.489  17.127 -0.3654 -0.4103 -0.8176
  438MPD2    C4 6582   2.161   4.568  17.034 -0.1466  0.5819  0.7410
  438MPD2    C5 6583   2.170   4.539  16.900 -0.4429 -0.1587  0.3765
  438MPD2     H 6584   2.388   4.346  17.146  2.0318 -1.0018 -2.0621
  438MPD2    H1 6585   2.093   4.647  17.065 -0.1183  1.4373 -1.3646
  438MPD2    H2 6586   2.256   4.426  16.747 -1.5675  1.8816  0.1955
  438MPD2    H3 6587   2.129   4.604  16.824  1.9308  2.3791  1.2263
  438MPD2     N 6588   2.217   4.513  17.270  0.0786  0.6316  0.3196
  438MPD2    H5 6589   2.180   4.605  17.293  1.0740  1.0321  0.3103
  438MPD2    N1 6590   2.444   4.288  16.897  0.2827 -0.3942  0.0603
  438MPD2    H7 6591   2.511   4.273  16.972  0.0670  1.1316  0.5543
  439TMC3    C1 6592   2.586   4.172  16.751 -0.4646 -0.6757  0.2559
  439TMC3    C2 6593   2.589   4.103  16.630  0.2455 -0.1758  0.0764
  439TMC3    C3 6594   2.719   4.064  16.588  0.3518 -0.0970 -0.5337
  439TMC3    C4 6595   2.698   4.197  16.827  0.2574 -0.6198 -0.0991
  439TMC3    C5 6596   2.819   4.161  16.773  0.1649  0.3083  0.1646
  439TMC3    C6 6597   2.833   4.087  16.659  0.2224  0.1354 -0.4657
  439TMC3     C 6598   2.460   4.241  16.768 -0.1622 -0.5460 -0.2658
  439TMC3     O 6599   2.387   4.245  16.672  0.3273 -0.0913  0.0295
  439TMC3     H 6600   2.499   4.062  16.584  1.2893 -1.3267 -0.9248
  439TMC3    H1 6601   2.687   4.250  16.921 -3.3475 -1.0734 -0.2482
  439TMC3    H2 6602   2.933   4.070  16.620  1.2626  2.0338  1.3879
  439TMC3    C7 6603   2.936   4.185  16.858 -0.6491  0.1242  0.0162
  439TMC3    C8 6604   2.727   3.957  16.494  0.3040  0.0650 -0.0003
  439TMC3    O1 6605   2.914   4.189  16.979 -0.3862 -0.0295 -0.1497
  439TMC3    O2 6606   2.826   3.884  16.515 -0.0560  0.3523  0.5164
  440MPD2     C 6607   1.587   0.142  14.708 -0.0125 -0.7709  0.1627
  440MPD2    C1 6608   1.495   0.108  14.800 -0.3590  0.1183 -0.1809
  440MPD2    C2 6609   1.515   4.731  14.880  0.0701 -0.4035 -0.1250
  440MPD2    C3 6610   1.621   4.639  14.853  0.8528 -0.0186  0.2847
  440MPD2    C4 6611   1.703   4.679  14.754 -0.0174  0.1497  0.3635
  440MPD2    C5 6612   1.686   0.057  14.688 -0.3312  0.2537  0.2366
  440MPD2     H 6613   1.442   4.721  14.959  0.5717 -0.3881  0.3387
  440MPD2    H1 6614   1.780   4.607  14.728 -1.1593 -1.7603  2.2407
  440MPD2    H2 6615   1.590   0.232  14.648 -2.5494  0.1242  1.3871
  440MPD2    H3 6616   1.768   0.082  14.621 -0.8028  0.5426 -0.2332
  440MPD2     N 6617   1.639   4.522  14.930  0.1005  0.2750 -0.1300
  440MPD2    H5 6618   1.718   4.460  14.913 -2.2524 -2.8177  0.0393
  440MPD2    N1 6619   1.378   0.190  14.831  0.0064  0.3515 -0.0481
  440MPD2    H7 6620   1.336   0.157  14.917  1.6668  0.1457  0.6819
  441TMC3    C1 6621   1.620   4.381  15.118  0.1751  0.5211  0.2984
  441TMC3    C2 6622   1.743   4.354  15.070  0.9995 -0.2835  0.2557
  441TMC3    C3 6623   1.859   4.360  15.151 -0.6383  0.0041  0.0311
  441TMC3    C4 6624   1.609   4.408  15.254 -0.1657 -0.0802  0.0902
  441TMC3    C5 6625   1.720   4.423  15.330  0.6404 -0.5613  0.0789
  441TMC3    C6 6626   1.849   4.400  15.281 -0.0248 -0.4146  0.0426
  441TMC3     C 6627   1.554   4.475  15.029 -0.3006 -0.4184 -0.5427
  441TMC3     O 6628   1.444   4.520  15.065  0.3649 -0.1609  0.1471
  441TMC3     H 6629   1.767   4.322  14.969  0.5472  1.3583 -0.3768
  441TMC3    H1 6630   1.513   4.417  15.303 -0.4546 -2.1934 -0.0911
  441TMC3    H2 6631   1.938   4.420  15.341 -0.9239 -1.7177  1.8064
  441TMC3    C7 6632   1.702   4.394  15.472  0.3138  0.4071 -0.0315
  441TMC3    C8 6633   1.956   4.435  15.080 -0.4802  0.5052 -0.0975
  441TMC3    O1 6634   1.592   4.431  15.514  0.5845 -0.4143 -0.2315
  441TMC3    O2 6635   1.999   4.392  14.974  0.1324 -0.0804 -0.3667
  442MPD2     C 6636   4.112   0.893  16.517  0.2378  0.3264  0.5127
  442MPD2    C1 6637   4.091   0.807  16.623  0.2315 -0.5619  0.4025
  442MPD2    C2 6638   4.137   0.679  16.607 -0.5544  0.0781 -1.0335
  442MPD2    C3 6639   4.206   0.637  16.492 -0.6032 -0.5938  0.1738
  442MPD2    C4 6640   4.233   0.734  16.398  0.2448 -0.5072  0.2419
  442MPD2    C5 6641   4.190   0.864  16.407 -0.0878  0.3203 -1.0448
  442MPD2     H 6642   4.119   0.611  16.690 -0.2858 -0.0966 -1.1207
  442MPD2    H1 6643   4.297   0.690  16.322  0.9906  1.4168 -0.2288
  442MPD2    H2 6644   4.070   0.993  16.507 -2.3755 -0.8852 -0.4477
  442MPD2    H3 6645   4.204   0.939  16.330  1.2548 -0.5529 -1.6368
  442MPD2     N 6646   4.242   0.505  16.475 -0.9668 -1.1352 -0.1649
  442MPD2    H5 6647   4.293   0.488  16.389  0.9576  3.0538  0.1187
  442MPD2    N1 6648   4.020   0.850  16.742 -0.7929 -0.2782 -0.4940
  442MPD2    H7 6649   3.984   0.774  16.799 -0.8105  0.5940  0.6732
  443TMC3    C1 6650   3.889   1.018  16.859  0.3281  0.1690 -0.1764
  443TMC3    C2 6651   3.797   1.114  16.822 -0.3277  0.5306 -0.1466
  443TMC3    C3 6652   3.662   1.089  16.843 -0.6173  0.0330 -0.4227
  443TMC3    C4 6653   3.839   0.912  16.936 -1.0104  0.0470 -0.0521
  443TMC3    C5 6654   3.705   0.901  16.964  0.4029 -0.7955 -0.5359
  443TMC3    C6 6655   3.607   0.995  16.927  0.3938  0.4546  0.1303
  443TMC3     C 6656   3.993   0.984  16.769  0.0882 -0.2164 -0.1137
  443TMC3     O 6657   4.043   1.083  16.723 -0.0053  0.3386 -0.0890
  443TMC3     H 6658   3.835   1.193  16.758  0.9546  0.2246  0.2202
  443TMC3    H1 6659   3.903   0.829  16.964 -0.0953  0.4569 -0.9391
  443TMC3    H2 6660   3.500   0.983  16.925  0.2810  1.5003  0.1761
  443TMC3    C7 6661   3.661   0.789  17.048 -0.0482 -0.0461  0.4146
  443TMC3    C8 6662   3.594   1.080  16.716 -0.3192 -0.3205 -0.0215
  443TMC3    O1 6663   3.747   0.701  17.054 -0.3969 -0.3159  0.5479
  443TMC3    O2 6664   3.527   0.978  16.702 -0.3384  0.2531  0.3218
  444MPD2     C 6665   4.666   0.049  17.331 -0.4190 -0.1763 -0.2076
  444MPD2    C1 6666   4.551   4.722  17.281 -0.1050  1.1904 -0.1107
  444MPD2    C2 6667   4.571   4.621  17.192  0.3529  0.0992  0.7848
  444MPD2    C3 6668   4.695   4.586  17.148 -0.3203  0.0198 -0.6068
  444MPD2    C4 6669   0.074   4.647  17.199  0.2203 -0.5100  0.4996
  444MPD2    C5 6670   0.056   0.016  17.281 -0.5205  0.1217  0.4909
  444MPD2     H 6671   4.489   4.555  17.167  1.4409 -1.1757  0.5956
  444MPD2    H1 6672   0.175   4.615  17.178 -0.4320 -2.7108  0.7809
  444MPD2    H2 6673   4.670   0.129  17.403  2.5634 -0.5007 -0.0401
  444MPD2    H3 6674   0.147   0.073  17.299  0.5681 -1.6801  0.6785
  444MPD2     N 6675   4.692   4.481  17.050 -0.0885  0.4918 -0.0944
  444MPD2    H5 6676   4.601   4.444  17.025  0.9537 -3.8011  2.4611
  444MPD2    N1 6677   4.424   0.005  17.336  0.4535  0.3695 -0.3445
  444MPD2    H7 6678   4.348   4.678  17.327  1.2335 -0.3405 -1.6654
  445TMC3    C1 6679   0.036   4.301  16.912  0.2075 -0.4823  0.4278
  445TMC3    C2 6680   4.656   4.284  16.840  0.1932  0.4612  0.4308
  445TMC3    C3 6681   4.646   4.185  16.747  0.0106 -0.3205  0.9568
  445TMC3    C4 6682   0.145   4.224  16.884 -0.2382 -0.7589 -0.0081
  445TMC3    C5 6683   0.129   4.121  16.793 -0.4775 -0.8388 -0.6717
  445TMC3    C6 6684   0.014   4.104  16.724 -0.2931  0.0584 -0.4546
  445TMC3     C 6685   0.061   4.414  17.001  0.1352  0.3737  0.6535
  445TMC3     O 6686   0.173   4.438  17.034  0.1786  0.3839 -0.1738
  445TMC3     H 6687   4.588   4.368  16.845  0.1143  0.4629 -0.7889
  445TMC3    H1 6688   0.245   4.235  16.925 -1.3907  1.3664  2.2064
  445TMC3    H2 6689   0.024   4.045  16.634 -1.5459 -1.2068  0.2380
  445TMC3    C7 6690   0.246   4.036  16.773  0.0708  0.2451  0.2041
  445TMC3    C8 6691   4.537   4.175  16.656  0.3780 -0.3075  0.1394
  445TMC3    O1 6692   0.344   4.059  16.842  0.2025  0.2253  0.2757
  445TMC3    O2 6693   4.460   4.272  16.648  0.1596  0.8401 -0.3383
  446MPD2     C 6694   4.621   1.178  11.256 -0.2054  0.3649 -0.9475
  446MPD2    C1 6695   4.592   1.307  11.222 -0.0506  0.3027 -0.1681
  446MPD2    C2 6696   4.699   1.396  11.232 -0.0631 -0.3923 -0.0808
  446MPD2    C3 6697   0.091   1.361  11.257 -0.5489 -0.1279  0.0836
  446MPD2    C4 6698   0.111   1.228  11.278  0.0686 -0.1980 -0.2012
  446MPD2    C5 6699   0.010   1.137  11.271 -0.1361 -0.0900 -0.0653
  446MPD2     H 6700   4.680   1.500  11.209  2.6406  0.6014  2.1122
  446MPD2    H1 6701   0.210   1.184  11.281 -0.2173 -0.8467 -0.5029
  446MPD2    H2 6702   4.540   1.106  11.260  0.2225 -0.1766 -2.0304
  446MPD2    H3 6703   0.025   1.032  11.293  1.6603  0.7980  2.9181
  446MPD2     N 6704   0.190   1.461  11.252 -0.1673  0.4849  0.2469
  446MPD2    H5 6705   0.162   1.557  11.238  0.1418  0.1014 -2.9239
  446MPD2    N1 6706   4.456   1.340  11.189  0.4581 -0.5342 -0.3552
  446MPD2    H7 6707   4.442   1.435  11.154 -2.2383 -1.0304 -0.6534
  447TMC3    C1 6708   0.398   1.547  11.301  0.0806  0.6149 -0.0655
  447TMC3    C2 6709   0.389   1.639  11.199  0.2217 -0.3196 -0.2389
  447TMC3    C3 6710   0.491   1.725  11.187  0.3256  0.9396  0.5631
  447TMC3    C4 6711   0.503   1.541  11.381  0.3205 -0.0534  0.8554
  447TMC3    C5 6712   0.602   1.628  11.370  0.5494 -0.9797  0.7920
  447TMC3    C6 6713   0.599   1.727  11.273 -0.2994 -0.3642  0.6471
  447TMC3     C 6714   0.319   1.426  11.296  0.0866  0.0172  0.5413
  447TMC3     O 6715   0.361   1.324  11.351  0.1569  0.4139  0.7255
  447TMC3     H 6716   0.307   1.647  11.129  0.9884  1.0068 -0.9994
  447TMC3    H1 6717   0.512   1.475  11.466 -0.5131 -0.5479  0.5553
  447TMC3    H2 6718   0.678   1.801  11.278 -1.4903  0.9774 -0.3941
  447TMC3    C7 6719   0.696   1.635  11.483 -0.1722 -0.3476  0.5116
  447TMC3    C8 6720   0.489   1.815  11.077  0.5119 -0.7300 -0.1331
  447TMC3    O1 6721   0.797   1.697  11.456 -0.5672  0.0280 -0.3715
  447TMC3    O2 6722   0.395   1.812  10.996 -0.0700 -0.0904 -0.1729
  448TMC3    C1 6723   2.523   1.051  16.904 -0.5831 -0.2697  0.8818
  448TMC3    C2 6724   2.496   0.937  16.830  0.1537 -0.2078 -0.4414
  448TMC3    C3 6725   2.579   0.832  16.854  0.6437  0.3726 -0.8160
  448TMC3    C4 6726   2.621   1.061  17.005 -0.4295 -0.3026  0.9591
  448TMC3    C5 6727   2.702   0.951  17.020 -0.4669 -0.4027  0.5406
  448TMC3    C6 6728   2.685   0.837  16.945 -0.0900 -0.0276  0.3510
  448TMC3     C 6729   2.444   1.168  16.871 -0.1636 -0.0574  0.0120
  448TMC3     O 6730   2.344   1.143  16.800 -0.2979 -0.2807 -0.3719
  448TMC3     H 6731   2.410   0.938  16.765  0.6037  0.6564 -1.0168
  448TMC3    H1 6732   2.631   1.153  17.061  2.7155  0.1594 -0.4046
  448TMC3    H2 6733   2.737   0.746  16.973 -1.7391 -1.2259 -0.4995
  448TMC3    C7 6734   2.805   0.951  17.121 -0.1535 -0.0282  0.3043
  448TMC3    C8 6735   2.540   0.701  16.820  0.0384 -0.0096  0.0872
  448TMC3    O1 6736   2.896   0.866  17.123  0.0817 -0.1347  0.0548
  448TMC3    O2 6737   2.575   0.614  16.903  0.6788 -0.5890  0.2809
  449MPD2     C 6738   3.807   3.993  13.214  0.0807 -0.0393  0.1397
  449MPD2    C1 6739   3.806   4.061  13.334 -0.4224  0.6120 -0.1268
  449MPD2    C2 6740   3.771   3.997  13.450 -0.6449  0.2080  0.1350
  449MPD2    C3 6741   3.749   3.858  13.442 -0.5147  0.4040 -0.5249
  449MPD2    C4 6742   3.732   3.792  13.318 -0.6710 -0.3761  0.1118
  449MPD2    C5 6743   3.753   3.867  13.204  0.5282  0.0407  0.3390
  449MPD2     H 6744   3.774   4.050  13.544 -0.8236 -0.5178  0.5463
  449MPD2    H1 6745   3.699   3.688  13.313 -0.3536 -0.5481  1.6905
  449MPD2    H2 6746   3.822   4.047  13.121 -0.9534 -0.8393 -0.5056
  449MPD2    H3 6747   3.733   3.832  13.104 -0.8532 -0.1888  0.7020
  449MPD2     N 6748   3.732   3.781  13.560 -0.0531  0.9440  0.7904
  449MPD2    H5 6749   3.755   3.835  13.643  2.0126  1.4245 -0.1102
  449MPD2    N1 6750   3.852   4.193  13.347 -0.2150  0.6210  0.0957
  449MPD2    H7 6751   3.855   4.230  13.442  2.0899 -0.4325  0.4453
  450TMC3    C1 6752   3.962   4.390  13.306  0.1051 -1.2515 -0.2915
  450TMC3    C2 6753   4.100   4.399  13.299  0.3216 -0.1058 -0.0130
  450TMC3    C3 6754   4.161   4.463  13.405 -0.3484  0.5280 -0.1928
  450TMC3    C4 6755   3.901   4.424  13.425 -0.1297 -0.4192  0.3132
  450TMC3    C5 6756   3.969   4.469  13.536  0.9030  0.2791 -0.6815
  450TMC3    C6 6757   4.100   4.502  13.521 -0.3508 -0.0326 -0.8226
  450TMC3     C 6758   3.910   4.272  13.247 -0.2402 -0.0829  0.4649
  450TMC3     O 6759   3.951   4.240  13.135  0.3871  0.4424 -0.1455
  450TMC3     H 6760   4.147   4.387  13.202  1.3993 -0.1796  0.5272
  450TMC3    H1 6761   3.793   4.415  13.426 -0.1348 -0.2101  1.7415
  450TMC3    H2 6762   4.170   4.545  13.591  0.0162  0.2379 -1.3527
  450TMC3    C7 6763   3.946   4.374  13.647  0.2615 -0.2944  0.7873
  450TMC3    C8 6764   4.271   4.545  13.367 -0.4303 -0.3042  0.4318
  450TMC3    O1 6765   3.867   4.286  13.617 -0.4199  0.1958 -0.1065
  450TMC3    O2 6766   4.285   4.648  13.433 -0.0442 -0.2245  0.6096
  451MPD2     C 6767   4.683   3.169   1.225 -0.2890 -0.8331 -0.4746
  451MPD2    C1 6768   0.004   3.264   1.148 -0.2517  0.3149 -0.2547
  451MPD2    C2 6769   0.049   3.236   1.020  0.6652 -0.3894 -0.4092
  451MPD2    C3 6770   0.041   3.104   0.974 -0.4078  0.1626  0.2328
  451MPD2    C4 6771   0.004   3.005   1.060 -0.0468  0.4908  0.0377
  451MPD2    C5 6772   4.691   3.037   1.181 -0.1457  0.1725  0.0478
  451MPD2     H 6773   0.078   3.315   0.953  1.5616  0.2729  0.7718
  451MPD2    H1 6774   0.005   2.903   1.023 -0.2078 -0.0769  1.5544
  451MPD2    H2 6775   4.642   3.192   1.323 -0.2559  0.9004 -0.8638
  451MPD2    H3 6776   4.659   2.955   1.243  0.1189  0.4277  0.5213
  451MPD2     N 6777   0.092   3.080   0.843  0.0954 -0.0795 -0.4819
  451MPD2    H5 6778   0.119   2.984   0.821 -0.2664 -0.3860  0.4585
  451MPD2    N1 6779   0.002   3.397   1.197  0.0110 -0.1666  0.4997
  451MPD2    H7 6780   4.704   3.420   1.290  1.3676  1.4577  0.6334
  452TMC3    C1 6781   0.193   3.105   0.638  0.4208 -0.3113  0.6752
  452TMC3    C2 6782   0.221   2.969   0.647  0.0319 -0.2760 -0.3095
  452TMC3    C3 6783   0.266   2.904   0.530  0.4195 -0.7034 -0.4701
  452TMC3    C4 6784   0.222   3.176   0.525 -0.4394 -0.2277 -0.8963
  452TMC3    C5 6785   0.279   3.106   0.419  0.2244 -0.3746 -0.4304
  452TMC3    C6 6786   0.287   2.971   0.416 -0.0922 -0.0625  0.2976
  452TMC3     C 6787   0.122   3.169   0.743  0.3356  0.1116  0.2402
  452TMC3     O 6788   0.088   3.288   0.746  0.0841 -0.2622 -0.2367
  452TMC3     H 6789   0.243   2.916   0.739 -1.7656  1.5816  1.1889
  452TMC3    H1 6790   0.220   3.284   0.517  0.0966 -0.3032 -2.1528
  452TMC3    H2 6791   0.319   2.904   0.337  1.3521 -0.4084  1.1901
  452TMC3    C7 6792   0.334   3.183   0.307 -0.0820 -0.3823 -0.7035
  452TMC3    C8 6793   0.241   2.755   0.536  0.5530 -0.4857  0.2685
  452TMC3    O1 6794   0.319   3.304   0.303 -0.0740  0.4665 -0.1759
  452TMC3    O2 6795   0.162   2.718   0.623  0.3679  0.5156 -0.6310
  453TMC3    C1 6796   2.082   0.580  12.051 -0.0540  0.0655 -0.2849
  453TMC3    C2 6797   1.952   0.559  12.086 -0.2982 -0.4175 -0.0513
  453TMC3    C3 6798   1.876   0.482  12.000  0.7971 -0.4022 -0.7288
  453TMC3    C4 6799   2.137   0.551  11.929 -0.0623  0.2432  0.3616
  453TMC3    C5 6800   2.054   0.475  11.848  0.1812 -0.2768 -0.2713
  453TMC3    C6 6801   1.924   0.431  11.889 -0.7121 -0.5894 -0.2289
  453TMC3     C 6802   2.180   0.626  12.153 -0.0347  0.7444 -0.4523
  453TMC3     O 6803   2.289   0.666  12.117  0.5989  0.2584 -0.0637
  453TMC3     H 6804   1.911   0.587  12.182 -1.2786  1.7600 -1.1072
  453TMC3    H1 6805   2.230   0.590  11.890 -0.7891 -0.8743 -2.5053
  453TMC3    H2 6806   1.859   0.395  11.810 -1.4820 -0.0908  0.1835
  453TMC3    C7 6807   2.081   0.476  11.711  0.2606  0.0383  0.3109
  453TMC3    C8 6808   1.774   0.414  12.065 -0.9594  0.0146  0.3912
  453TMC3    O1 6809   2.128   0.580  11.669  0.1885 -0.1596  0.5641
  453TMC3    O2 6810   1.699   0.474  12.146  0.5648 -0.1738  0.1244
  454MPD2     C 6811   0.604   4.322  16.657  0.3804  0.1263  0.0039
  454MPD2    C1 6812   0.558   4.436  16.594 -0.8361  0.5346  0.0558
  454MPD2    C2 6813   0.493   4.530  16.677 -0.1489 -0.1897 -0.6696
  454MPD2    C3 6814   0.456   4.501  16.805 -0.5145  0.0439 -0.1424
  454MPD2    C4 6815   0.502   4.388  16.866 -0.3712  0.0050 -0.1585
  454MPD2    C5 6816   0.568   4.296  16.786 -0.6971  0.6344  0.3147
  454MPD2     H 6817   0.451   4.619  16.629  2.8396  0.9808 -1.1034
  454MPD2    H1 6818   0.473   4.368  16.969  1.0120  1.8540  0.5892
  454MPD2    H2 6819   0.654   4.242  16.603 -3.4802 -1.5864 -1.0390
  454MPD2    H3 6820   0.590   4.201  16.834 -1.6751  0.7877  1.0669
  454MPD2     N 6821   0.364   4.584  16.881  0.1648  0.2901  0.4150
  454MPD2    H5 6822   0.313   4.546  16.961  0.4117  0.2105  0.5358
  454MPD2    N1 6823   0.562   4.466  16.454  0.1390  0.2444 -0.5308
  454MPD2    H7 6824   0.528   4.556  16.421 -3.2391 -1.8020 -2.6410
  455TMC3    C1 6825   0.183   4.703  16.817  0.2585 -0.6124 -0.3116
  455TMC3    C2 6826   0.143   0.089  16.779  0.1550  0.6757  0.1936
  455TMC3    C3 6827   0.032   0.110  16.703 -0.0608 -0.1367 -0.5916
  455TMC3    C4 6828   0.134   4.596  16.746  0.0128  0.4859 -0.2309
  455TMC3    C5 6829   0.025   4.608  16.665  0.4534 -0.3790 -0.1363
  455TMC3    C6 6830   4.715   4.737  16.635 -0.2701  1.0073 -0.0909
  455TMC3     C 6831   0.323   4.702  16.837  0.0955  0.2670 -0.4696
  455TMC3     O 6832   0.384   0.044  16.768 -0.4060 -0.6424 -0.7821
  455TMC3     H 6833   0.186   0.176  16.829  2.0828  0.7629 -1.5910
  455TMC3    H1 6834   0.182   4.500  16.759 -1.0824 -0.1414 -0.8347
  455TMC3    H2 6835   4.623   0.001  16.577  0.1975  0.5744 -0.8452
  455TMC3    C7 6836   0.004   4.502  16.568  0.0263  0.2413  0.4421
  455TMC3    C8 6837   4.698   0.237  16.676 -0.0838  0.1676 -0.3591
  455TMC3    O1 6838   4.631   4.492  16.520 -0.0748  0.5712  0.2158
  455TMC3    O2 6839   4.584   0.239  16.631 -0.3242 -0.3028 -0.5718
  456MPD2     C 6840   2.738   4.228  16.199  0.1427 -0.1940  0.2730
  456MPD2    C1 6841   2.833   4.261  16.292  0.0437  0.5505 -0.6996
  456MPD2    C2 6842   2.803   4.334  16.402 -0.6386  0.0279  0.0756
  456MPD2    C3 6843   2.674   4.382  16.427 -0.2283 -0.0099  0.3716
  456MPD2    C4 6844   2.578   4.358  16.323 -0.3526  0.5056 -0.5170
  456MPD2    C5 6845   2.614   4.277  16.218 -0.6601  0.1158 -0.0899
  456MPD2     H 6846   2.871   4.340  16.487  1.7824  0.9638 -1.9060
  456MPD2    H1 6847   2.480   4.403  16.325  0.3463  2.0720 -2.0054
  456MPD2    H2 6848   2.765   4.164  16.116 -1.3647 -1.7798  1.0029
  456MPD2    H3 6849   2.540   4.259  16.140  0.2719 -0.0368 -0.9345
  456MPD2     N 6850   2.647   4.461  16.537 -0.3555 -0.2410 -0.4527
  456MPD2    H5 6851   2.720   4.471  16.607 -2.0132 -2.5632  1.5697
  456MPD2    N1 6852   2.967   4.219  16.265 -0.7550 -0.1404  0.3655
  456MPD2    H7 6853   2.988   4.186  16.172  0.0115  0.6136  0.2773
  457TMC3    C1 6854   2.523   4.600  16.687 -0.9099 -0.1051 -0.6475
  457TMC3    C2 6855   2.432   4.706  16.685 -0.3217 -0.6871  0.4408
  457TMC3    C3 6856   2.423   0.035  16.802 -0.3643  0.1662  0.6998
  457TMC3    C4 6857   2.593   4.562  16.790  0.2042  0.5097 -0.4278
  457TMC3    C5 6858   2.578   4.644  16.903  0.1376 -0.8702  0.4739
  457TMC3    C6 6859   2.491   0.006  16.918 -0.6534 -0.0228  0.0847
  457TMC3     C 6860   2.527   4.526  16.562 -0.0858 -0.3886 -0.9028
  457TMC3     O 6861   2.426   4.535  16.491  0.1036  0.3604 -0.4774
  457TMC3     H 6862   2.376   4.728  16.595 -2.2046  2.2355  2.3186
  457TMC3    H1 6863   2.661   4.478  16.796  1.2724  1.4539  0.9637
  457TMC3    H2 6864   2.496   0.073  17.003 -0.9038 -0.9371  0.8188
  457TMC3    C7 6865   2.671   4.637  17.017  0.5099  0.4199  0.5286
  457TMC3    C8 6866   2.384   0.172  16.789  0.1281 -0.1982 -0.1091
  457TMC3    O1 6867   2.658   4.536  17.087  0.3510  0.0750  0.2515
  457TMC3    O2 6868   2.416   0.235  16.888  0.0748  0.4727 -0.1633
  458MPD2     C 6869   0.977   4.286  12.338 -0.0564  0.3200  0.1934
  458MPD2    C1 6870   0.904   4.216  12.431  0.5033 -0.0060  0.4348
  458MPD2    C2 6871   0.772   4.183  12.408 -0.7664 -0.6986  0.0143
  458MPD2    C3 6872   0.722   4.199  12.283 -0.6265 -0.0237  0.8713
  458MPD2    C4 6873   0.798   4.265  12.188  0.5342  1.1529 -0.3123
  458MPD2    C5 6874   0.921   4.310  12.215  0.0762 -0.5687  0.2656
  458MPD2     H 6875   0.718   4.131  12.486  0.0646  0.1395  1.1540
  458MPD2    H1 6876   0.755   4.277  12.089 -0.7575  2.1097  0.3582
  458MPD2    H2 6877   1.074   4.331  12.353  0.2521 -0.2292 -0.1462
  458MPD2    H3 6878   0.971   4.369  12.140  1.5562 -1.2489  0.7184
  458MPD2     N 6879   0.587   4.167  12.266 -0.1534 -0.5140 -0.2419
  458MPD2    H5 6880   0.536   4.135  12.347 -1.4365 -0.5274 -1.0597
  458MPD2    N1 6881   0.968   4.207  12.554  0.0171 -0.1225  0.4246
  458MPD2    H7 6882   1.057   4.256  12.560 -0.1842  0.2576  0.3623
  459TMC3    C1 6883   1.015   4.147  12.783 -0.1455  0.3397 -0.1578
  459TMC3    C2 6884   1.117   4.242  12.799  0.0064  0.2025 -0.0791
  459TMC3    C3 6885   1.182   4.233  12.916  0.2778 -0.1579  0.2216
  459TMC3    C4 6886   0.984   4.041  12.870 -0.1138  0.4826 -0.3619
  459TMC3    C5 6887   1.059   4.034  12.983  0.3661 -0.1002 -0.2246
  459TMC3    C6 6888   1.151   4.129  13.004  0.2048 -0.9566 -0.3001
  459TMC3     C 6889   0.925   4.150  12.670 -0.6653 -0.0652 -0.6122
  459TMC3     O 6890   0.815   4.101  12.692 -0.3287 -0.4078  0.5100
  459TMC3     H 6891   1.137   4.322  12.728 -3.6025  1.0910 -0.0887
  459TMC3    H1 6892   0.912   3.964  12.844  1.0372 -0.2713 -1.3000
  459TMC3    H2 6893   1.218   4.105  13.086  0.8669  3.0796  0.3368
  459TMC3    C7 6894   1.075   3.902  13.047  0.5212  0.8457 -0.5341
  459TMC3    C8 6895   1.311   4.299  12.922  0.6667  0.1946 -0.2823
  459TMC3    O1 6896   1.159   3.883  13.134 -0.6977 -0.8360 -0.1929
  459TMC3    O2 6897   1.350   4.361  12.826  0.5470 -0.0993  0.3124
  460MPD2     C 6898   0.777   1.987  10.940 -0.2825 -0.6648 -0.1479
  460MPD2    C1 6899   0.639   1.966  10.951 -0.9836 -0.1418  0.2645
  460MPD2    C2 6900   0.555   2.034  10.868  0.2074 -0.1045 -0.0660
  460MPD2    C3 6901   0.603   2.121  10.769  0.1002 -0.4126 -0.5584
  460MPD2    C4 6902   0.744   2.139  10.754  0.0834  0.3931  0.0085
  460MPD2    C5 6903   0.830   2.071  10.844  0.1347 -0.1619 -0.0589
  460MPD2     H 6904   0.448   2.032  10.879  0.2752  1.0691  0.6942
  460MPD2    H1 6905   0.783   2.198  10.672 -0.9141  1.3376  0.2128
  460MPD2    H2 6906   0.851   1.945  11.007  1.9140  0.8261 -1.6385
  460MPD2    H3 6907   0.938   2.082  10.836 -0.0091  0.9358 -0.5744
  460MPD2     N 6908   0.506   2.194  10.692 -0.3003  0.0396 -0.3590
  460MPD2    H5 6909   0.412   2.174  10.726  1.1373 -0.9776  2.9960
  460MPD2    N1 6910   0.608   1.880  11.058  0.3563  1.0070 -0.5691
  460MPD2    H7 6911   0.691   1.847  11.106 -0.3384 -2.6410 -1.8821
  461TMC3    C1 6912   0.417   2.340  10.531  0.0920  0.5022  0.2531
  461TMC3    C2 6913   0.303   2.273  10.511  0.4149 -0.8534  0.0178
  461TMC3    C3 6914   0.195   2.337  10.461 -0.2078 -0.3090  0.7065
  461TMC3    C4 6915   0.430   2.468  10.489  0.1968 -0.2013  0.6650
  461TMC3    C5 6916   0.335   2.521  10.410  0.0022 -0.6418 -0.2883
  461TMC3    C6 6917   0.220   2.460  10.400 -1.1105  0.0127 -0.3943
  461TMC3     C 6918   0.535   2.286  10.593  0.1131  0.7474  0.8222
  461TMC3     O 6919   0.640   2.343  10.576 -0.5337 -0.7316  0.0579
  461TMC3     H 6920   0.291   2.173  10.549  1.1293 -1.1944 -0.6475
  461TMC3    H1 6921   0.518   2.525  10.518  0.4916 -2.1729  3.6749
  461TMC3    H2 6922   0.136   2.518  10.361  0.7707  2.7221 -0.3845
  461TMC3    C7 6923   0.353   2.656  10.355  0.0063  0.3660 -0.0083
  461TMC3    C8 6924   0.113   2.238  10.381 -0.3669 -1.0390 -0.8834
  461TMC3    O1 6925   0.254   2.694  10.294 -0.3274  0.0470 -0.0509
  461TMC3    O2 6926   0.110   2.127  10.426 -0.2011  0.0788 -0.0674
  462TMC3    C1 6927   4.377   3.073   0.028 -0.7662 -0.9473 -0.2040
  462TMC3    C2 6928   4.469   3.033  17.683 -0.0049 -0.2989  0.3188
  462TMC3    C3 6929   4.515   2.905  17.705 -0.7438  0.5575  0.7142
  462TMC3    C4 6930   4.304   2.987   0.110  0.0317  0.2810  0.0201
  462TMC3    C5 6931   4.350   2.858   0.112  0.2857  0.3063 -0.1819
  462TMC3    C6 6932   4.454   2.816   0.042 -0.2956  0.1669  0.1429
  462TMC3     C 6933   4.368   3.209   0.065  0.7340 -0.1907  0.1776
  462TMC3     O 6934   4.278   3.243   0.141 -0.5380 -0.5847  0.2134
  462TMC3     H 6935   4.502   3.094  17.600 -0.4125  0.9181  1.0576
  462TMC3    H1 6936   4.246   3.024   0.193 -1.9677  0.5090 -1.4652
  462TMC3    H2 6937   4.468   2.709   0.027 -1.3878 -0.4558  3.6623
  462TMC3    C7 6938   4.253   2.753   0.157  0.4240  0.6652 -0.4713
  462TMC3    C8 6939   4.559   2.840  17.580 -0.5029  0.0162  0.4132
  462TMC3    O1 6940   4.299   2.644   0.193 -0.5235  0.4075  0.5819
  462TMC3    O2 6941   4.514   2.888  17.480 -0.1540 -0.1817 -0.6341
  463MPD2     C 6942   1.260   1.370   1.681 -0.0749 -0.8423  0.3825
  463MPD2    C1 6943   1.220   1.503   1.662  0.7960  0.4465  0.3959
  463MPD2    C2 6944   1.319   1.606   1.631 -0.2053  0.5294  0.5653
  463MPD2    C3 6945   1.451   1.565   1.622 -0.1446 -1.1903  0.7242
  463MPD2    C4 6946   1.487   1.433   1.649  0.5716 -0.6509 -0.1269
  463MPD2    C5 6947   1.391   1.341   1.673 -0.0948  0.2339  0.4326
  463MPD2     H 6948   1.280   1.703   1.606  0.7151  0.8741  0.4832
  463MPD2    H1 6949   1.590   1.399   1.652  0.5735 -0.7291 -0.9335
  463MPD2    H2 6950   1.190   1.290   1.700 -1.1629 -0.2305 -0.9686
  463MPD2    H3 6951   1.411   1.238   1.700  0.4940 -0.5047 -2.7875
  463MPD2     N 6952   1.549   1.650   1.567  0.6173  1.0051 -0.4013
  463MPD2    H5 6953   1.640   1.611   1.548  0.8743  1.2890  0.2660
  463MPD2    N1 6954   1.084   1.540   1.676 -0.2024  0.3509  0.3838
  463MPD2    H7 6955   1.056   1.633   1.646  2.7449  0.4857 -1.8622
  464TMC3    C1 6956   0.849   1.528   1.699 -0.3717  0.3801 -0.3914
  464TMC3    C2 6957   0.839   1.638   1.611  0.6788 -0.9596  0.4409
  464TMC3    C3 6958   0.709   1.668   1.573  0.0183 -0.2031  1.0860
  464TMC3    C4 6959   0.742   1.455   1.745 -0.4316 -0.6940  0.1317
  464TMC3    C5 6960   0.620   1.492   1.690 -0.2411 -0.0354  0.1697
  464TMC3    C6 6961   0.595   1.607   1.615  0.1960  0.4930  0.2243
  464TMC3     C 6962   0.978   1.468   1.722 -0.2564 -0.0972  0.1410
  464TMC3     O 6963   0.985   1.357   1.776 -0.6579 -0.0954  1.0355
  464TMC3     H 6964   0.924   1.682   1.561 -0.9311  0.5943 -0.9069
  464TMC3    H1 6965   0.752   1.371   1.811  1.3777 -1.0794 -0.6387
  464TMC3    H2 6966   0.498   1.631   1.573  0.2780  1.5721  0.6630
  464TMC3    C7 6967   0.494   1.444   1.748  0.2628  0.2163  0.0155
  464TMC3    C8 6968   0.703   1.793   1.497  0.6151 -0.0324 -0.9036
  464TMC3    O1 6969   0.505   1.393   1.858 -0.2602 -0.0474 -0.8691
  464TMC3    O2 6970   0.594   1.807   1.439 -0.1368 -0.1765  0.3525
  465MPD2     C 6971   2.051   0.426  16.788  0.0898  0.6229  0.2528
  465MPD2    C1 6972   1.992   0.369  16.899 -0.5316 -0.8800 -0.0237
  465MPD2    C2 6973   1.907   0.265  16.889 -0.0645  0.0193 -0.8822
  465MPD2    C3 6974   1.866   0.222  16.766 -0.2326 -0.3423 -0.3925
  465MPD2    C4 6975   1.912   0.292  16.650 -0.5267  0.0219 -0.8163
  465MPD2    C5 6976   2.008   0.388  16.667  0.5295  0.2275  0.9777
  465MPD2     H 6977   1.865   0.230  16.982  1.1014  3.3358  0.8797
  465MPD2    H1 6978   1.876   0.271  16.550 -0.4005 -2.1186 -0.4182
  465MPD2    H2 6979   2.114   0.514  16.800  0.9073  0.3096 -1.6502
  465MPD2    H3 6980   2.044   0.443  16.580  1.1932 -0.9407  0.5156
  465MPD2     N 6981   1.757   0.132  16.763 -0.2294  0.0363 -0.3523
  465MPD2    H5 6982   1.703   0.132  16.849  3.9695  0.2870  2.2892
  465MPD2    N1 6983   2.031   0.408  17.031  0.4172  0.1384 -0.1865
  465MPD2    H7 6984   1.996   0.349  17.106 -2.1001  2.5186  0.5175
  466TMC3    C1 6985   1.448   4.699  16.899  0.2532 -0.2736 -0.3856
  466TMC3    C2 6986   1.337   0.011  16.838 -0.1212  1.2145 -0.3170
  466TMC3    C3 6987   1.350   0.051  16.706  0.0136 -0.1975  0.8633
  466TMC3    C4 6988   1.570   4.706  16.831 -0.9989 -0.5670  0.1188
  466TMC3    C5 6989   1.582   0.010  16.702 -0.1220 -0.2232  0.1373
  466TMC3    C6 6990   1.468   0.053  16.641  0.2488  0.3497  0.3939
  466TMC3     C 6991   1.451   4.685  17.044  0.6398  0.5315 -1.1796
  466TMC3     O 6992   1.560   4.663  17.092 -0.0446 -0.6116  0.3905
  466TMC3     H 6993   1.242   0.013  16.889 -1.2063  2.6177 -2.3714
  466TMC3    H1 6994   1.657   4.683  16.892 -0.8842 -0.1637  0.1081
  466TMC3    H2 6995   1.469   0.111  16.549 -0.4650 -0.6214 -0.2319
  466TMC3    C7 6996   1.704   0.065  16.658  0.5032  0.6713  0.1806
  466TMC3    C8 6997   1.256   0.150  16.650 -0.0972  0.4074 -0.2680
  466TMC3    O1 6998   1.744   0.066  16.539 -0.5415  0.2070  0.6261
  466TMC3    O2 6999   1.217   0.136  16.532  0.2748  0.0899  0.2799
  467TMC3    C1 7000   3.331   2.914  13.950 -0.0114 -0.2077 -0.5152
  467TMC3    C2 7001   3.297   2.998  13.842 -0.3033  0.1815  0.8110
  467TMC3    C3 7002   3.171   3.050  13.845 -0.3574 -0.4746 -0.2766
  467TMC3    C4 7003   3.243   2.863  14.035 -0.2113 -0.2612 -0.1415
  467TMC3    C5 7004   3.122   2.917  14.033  0.0825  0.0934  0.4792
  467TMC3    C6 7005   3.084   3.017  13.951 -0.5763  0.2192  0.0361
  467TMC3     C 7006   3.469   2.882  13.955 -0.2863  0.2026  0.5919
  467TMC3     O 7007   3.528   2.953  13.874  0.0818 -0.7087  0.0420
  467TMC3     H 7008   3.359   3.027  13.758 -2.6503 -1.0122 -1.3310
  467TMC3    H1 7009   3.269   2.790  14.111  0.1889  1.6413  1.5338
  467TMC3    H2 7010   2.996   3.079  13.968 -0.3593  0.5808 -0.1549
  467TMC3    C7 7011   3.029   2.871  14.132 -0.3731 -0.5538 -0.9091
  467TMC3    C8 7012   3.186   3.189  13.829 -0.0373 -0.6922  0.1736
  467TMC3    O1 7013   3.076   2.792  14.212  0.2651  0.1590 -0.5193
  467TMC3    O2 7014   3.281   3.244  13.875 -0.0301  0.4827  0.2484
  468MPD2     C 7015   2.274   1.795  10.430  0.9253  0.1566 -0.1852
  468MPD2    C1 7016   2.288   1.712  10.543 -0.5400  0.1298 -0.2075
  468MPD2    C2 7017   2.254   1.577  10.536 -0.1411 -0.0099  0.4705
  468MPD2    C3 7018   2.221   1.522  10.412 -0.5170  0.2881  0.0191
  468MPD2    C4 7019   2.221   1.602  10.301  0.3135  0.0316 -0.0403
  468MPD2    C5 7020   2.235   1.740  10.316 -0.5343 -0.2394 -0.0420
  468MPD2     H 7021   2.283   1.515  10.620 -1.8993 -0.2872  0.8671
  468MPD2    H1 7022   2.215   1.556  10.203 -0.1001  0.4588 -0.2161
  468MPD2    H2 7023   2.295   1.901  10.437  2.7943  0.0012 -3.6192
  468MPD2    H3 7024   2.222   1.800  10.227 -1.4129 -0.2283  0.0920
  468MPD2     N 7025   2.207   1.380  10.396 -0.6891  0.5290 -0.0963
  468MPD2    H5 7026   2.201   1.343  10.301  1.8045 -0.0103 -0.0408
  468MPD2    N1 7027   2.320   1.758  10.671  0.1817  0.7147 -0.0718
  468MPD2    H7 7028   2.307   1.702  10.755  1.3777  0.5344 -0.0128
  469TMC3    C1 7029   2.373   1.886  10.850 -0.1924 -0.4527 -0.0564
  469TMC3    C2 7030   2.450   1.783  10.885 -0.0961  0.2533 -0.1017
  469TMC3    C3 7031   2.471   1.766  11.021  0.5558  0.3592  0.1324
  469TMC3    C4 7032   2.324   1.978  10.929 -0.1168  0.0740 -0.5404
  469TMC3    C5 7033   2.349   1.958  11.061  0.4233 -0.4832  0.5201
  469TMC3    C6 7034   2.429   1.860  11.111  0.6338  0.2997 -0.2023
  469TMC3     C 7035   2.334   1.890  10.710 -0.0158 -0.2402  0.3824
  469TMC3     O 7036   2.338   1.994  10.647  0.2127  0.1659 -0.2374
  469TMC3     H 7037   2.494   1.716  10.813 -0.6087  0.5085 -0.6586
  469TMC3    H1 7038   2.266   2.063  10.895 -1.6554 -0.3302  1.0540
  469TMC3    H2 7039   2.468   1.859  11.212  0.8567 -1.1964 -0.2905
  469TMC3    C7 7040   2.270   2.042  11.154  0.4957  0.2297  1.0289
  469TMC3    C8 7041   2.574   1.669  11.057 -0.0625  0.2329  0.1072
  469TMC3    O1 7042   2.176   2.098  11.103 -0.3382 -0.1964 -0.2134
  469TMC3    O2 7043   2.651   1.639  10.966 -0.1715  0.3062  0.2683
  470TMC3    C1 7044   3.302   3.211   0.391  0.1543 -0.7127 -0.2901
  470TMC3    C2 7045   3.366   3.304   0.476 -0.1888  0.4022 -0.2391
  470TMC3    C3 7046   3.487   3.273   0.524 -1.1409 -0.0087  0.1780
  470TMC3    C4 7047   3.366   3.097   0.344  0.3119 -0.5052 -0.2427
  470TMC3    C5 7048   3.483   3.067   0.409  0.1983 -0.1836  0.1214
  470TMC3    C6 7049   3.547   3.154   0.494 -0.7915  0.7416 -0.4745
  470TMC3     C 7050   3.164   3.244   0.358 -0.1592  0.6480 -0.1272
  470TMC3     O 7051   3.116   3.338   0.419  0.2337 -0.1109  0.3703
  470TMC3     H 7052   3.328   3.402   0.500 -0.9097 -0.3131  1.5495
  470TMC3    H1 7053   3.314   3.017   0.293  1.2323 -1.9665  1.1275
  470TMC3    H2 7054   3.631   3.118   0.553 -0.2443  2.9141  0.0790
  470TMC3    C7 7055   3.533   2.936   0.385  0.2998 -0.5368  0.4236
  470TMC3    C8 7056   3.553   3.366   0.624  0.7105  0.1539  0.2669
  470TMC3    O1 7057   3.468   2.858   0.320 -0.1702 -0.3891 -0.1233
  470TMC3    O2 7058   3.506   3.471   0.667 -0.4244  0.1744 -0.1523
  471MPD2     C 7059   4.039   3.962  16.723 -0.2698  0.4497  0.2280
  471MPD2    C1 7060   4.119   3.853  16.687 -0.7762 -0.4100  0.1581
  471MPD2    C2 7061   4.225   3.810  16.774  0.4960  0.1279  1.1804
  471MPD2    C3 7062   4.253   3.892  16.884 -0.0496 -0.3589 -0.6556
  471MPD2    C4 7063   4.167   3.988  16.924  0.3648  0.2937 -0.3674
  471MPD2    C5 7064   4.062   4.029  16.844  0.0086  0.5168  0.4247
  471MPD2     H 7065   4.297   3.737  16.740  0.3335 -0.4451  2.0898
  471MPD2    H1 7066   4.186   4.053  17.008  2.1892  0.7668 -1.1312
  471MPD2    H2 7067   3.954   3.989  16.661 -0.7776 -0.1439  0.6547
  471MPD2    H3 7068   4.007   4.115  16.881  1.5704  1.9460 -0.5380
  471MPD2     N 7069   4.360   3.869  16.971  0.4496 -0.7123  0.3346
  471MPD2    H5 7070   4.354   3.925  17.055 -0.5466 -0.0441 -0.1802
  471MPD2    N1 7071   4.100   3.773  16.572  0.1764  1.2299  0.3383
  471MPD2    H7 7072   4.166   3.697  16.560 -2.2034 -1.0180  1.5220
  472TMC3    C1 7073   3.981   3.659  16.401  1.4458 -0.0009 -0.1206
  472TMC3    C2 7074   3.903   3.662  16.291 -0.1894 -0.6578 -0.1058
  472TMC3    C3 7075   3.877   3.547  16.226 -0.0040  0.5628 -0.0367
  472TMC3    C4 7076   4.031   3.538  16.452 -0.7999 -0.3650  0.0306
  472TMC3    C5 7077   4.003   3.426  16.379  0.6281 -0.6418 -0.0556
  472TMC3    C6 7078   3.937   3.425  16.254 -0.0811  0.3957 -0.0876
  472TMC3     C 7079   3.999   3.781  16.485  1.4218  0.0353  0.6083
  472TMC3     O 7080   3.916   3.869  16.466 -0.0969 -0.4924 -0.4445
  472TMC3     H 7081   3.860   3.753  16.252  2.2660  2.2538  3.9888
  472TMC3    H1 7082   4.065   3.530  16.555  0.3330 -2.5405 -0.5256
  472TMC3    H2 7083   3.917   3.330  16.205  0.4478  1.3676 -2.1887
  472TMC3    C7 7084   4.068   3.301  16.424 -0.4128 -0.6562 -0.6440
  472TMC3    C8 7085   3.765   3.543  16.135  0.4119 -0.1267 -0.0551
  472TMC3    O1 7086   4.080   3.289  16.547  1.0023 -0.0033 -0.1529
  472TMC3    O2 7087   3.760   3.633  16.050  0.6149  0.3066 -0.0734
  473MPD2     C 7088   0.204   0.611  14.168  0.1169  0.0032  0.2774
  473MPD2    C1 7089   0.125   0.702  14.109  0.5386  0.0200  0.4390
  473MPD2    C2 7090   0.109   0.832  14.170  0.4108 -0.4426  1.1082
  473MPD2    C3 7091   0.181   0.871  14.285  0.3059  0.3555 -0.2518
  473MPD2    C4 7092   0.246   0.767  14.350 -0.4100 -0.7668  0.5930
  473MPD2    C5 7093   0.255   0.646  14.290  0.3186  0.4816  0.3467
  473MPD2     H 7094   0.051   0.910  14.122  0.0185  0.7538  3.5374
  473MPD2    H1 7095   0.302   0.779  14.442  0.6999  0.9119 -0.3118
  473MPD2    H2 7096   0.214   0.513  14.123  1.1844  0.0947  0.3293
  473MPD2    H3 7097   0.325   0.579  14.337 -0.0734 -0.2609 -0.1223
  473MPD2     N 7098   0.190   0.999  14.343  0.5640 -0.2910  0.1604
  473MPD2    H5 7099   0.244   0.993  14.429 -1.5435  2.1124  1.6383
  473MPD2    N1 7100   0.043   0.684  13.996  0.3984  0.2409 -0.0129
  473MPD2    H7 7101   4.738   0.773  13.975 -1.5399 -0.2606  1.9055
  474TMC3    C1 7102   0.170   1.236  14.374  0.2116  0.9680  0.8000
  474TMC3    C2 7103   0.073   1.332  14.376 -0.9946 -0.7262  0.6197
  474TMC3    C3 7104   0.088   1.431  14.468  0.6941  0.2771  0.1060
  474TMC3    C4 7105   0.273   1.240  14.463  0.3531  0.5261  0.0050
  474TMC3    C5 7106   0.281   1.334  14.563  0.4049 -0.3711  0.2336
  474TMC3    C6 7107   0.185   1.434  14.564 -0.0724 -0.5413 -0.4252
  474TMC3     C 7108   0.132   1.117  14.300 -0.4046 -0.3382 -0.8671
  474TMC3     O 7109   0.051   1.133  14.207  0.1269  0.0819 -0.3435
  474TMC3     H 7110   4.729   1.339  14.305 -1.4327 -1.6108  1.0355
  474TMC3    H1 7111   0.359   1.176  14.449 -1.4488 -1.7084 -0.8937
  474TMC3    H2 7112   0.187   1.511  14.640  1.2979 -0.1790 -0.8197
  474TMC3    C7 7113   0.410   1.342  14.636  0.6995  0.0833  0.3139
  474TMC3    C8 7114   0.013   1.551  14.448 -0.0993 -0.2742  0.2992
  474TMC3    O1 7115   0.505   1.283  14.593 -0.0713 -0.1300 -0.6923
  474TMC3    O2 7116   4.655   1.532  14.375  0.3987 -1.1687 -0.1478
  475MPD2     C 7117   2.632   4.317  11.275  0.2314  0.3931 -0.2795
  475MPD2    C1 7118   2.678   4.393  11.166 -0.5890 -0.2810 -0.4482
  475MPD2    C2 7119   2.658   4.340  11.043 -0.1961  0.4263  0.2398
  475MPD2    C3 7120   2.573   4.233  11.018 -0.2744 -0.2621  0.6519
  475MPD2    C4 7121   2.522   4.167  11.126  0.1247 -0.2223 -0.3588
  475MPD2    C5 7122   2.558   4.208  11.254  0.7464 -0.2761 -0.0117
  475MPD2     H 7123   2.699   4.394  10.959 -0.5219  0.7626  0.2955
  475MPD2    H1 7124   2.452   4.084  11.118 -1.9715  1.3542  1.4924
  475MPD2    H2 7125   2.649   4.341  11.379  1.1595 -3.5357  0.4979
  475MPD2    H3 7126   2.522   4.147  11.336  0.4930 -0.8624 -0.5512
  475MPD2     N 7127   2.540   4.207  10.884 -0.0174 -0.0370 -0.0591
  475MPD2    H5 7128   2.562   4.270  10.808  3.5192  1.6209  2.3296
  475MPD2    N1 7129   2.745   4.519  11.180 -0.1007  0.6626  0.0640
  475MPD2    H7 7130   2.779   4.564  11.095  0.6659  0.7656  0.4243
  476TMC3    C1 7131   2.836   4.704  11.290 -0.3743 -0.2227 -0.1341
  476TMC3    C2 7132   2.947   4.705  11.204  0.3328 -0.4002  0.0729
  476TMC3    C3 7133   3.030   0.076  11.201 -0.0763  0.3316  0.3666
  476TMC3    C4 7134   2.810   0.068  11.374 -0.5388 -0.3530 -0.0242
  476TMC3    C5 7135   2.886   0.179  11.365 -0.1897 -0.5765  0.8850
  476TMC3    C6 7136   2.990   0.190  11.272 -0.1985  0.3473 -0.2946
  476TMC3     C 7137   2.750   4.587  11.299 -0.2178  0.6355  0.5074
  476TMC3     O 7138   2.662   4.592  11.387 -0.1856  0.3018  0.0247
  476TMC3     H 7139   2.968   4.615  11.147  0.4902 -0.9861  1.0636
  476TMC3    H1 7140   2.721   0.072  11.436 -0.8220  1.2897 -0.5202
  476TMC3    H2 7141   3.057   0.276  11.267 -0.7740  0.9308  2.3494
  476TMC3    C7 7142   2.855   0.281  11.453 -0.0030  0.0193 -0.2888
  476TMC3    C8 7143   3.118   0.095  11.095  0.4371  1.0335  0.1290
  476TMC3    O1 7144   2.780   0.250  11.543 -0.1671  0.2884  0.0297
  476TMC3    O2 7145   3.208   0.178  11.113 -0.2037 -0.0365 -0.3040
  477MPD2     C 7146   1.150   0.986  11.717  0.0779  0.3795  0.1963
  477MPD2    C1 7147   1.049   0.883  11.713  0.0726 -0.6929 -0.5173
  477MPD2    C2 7148   1.057   0.770  11.800 -0.5631  0.6426 -0.3133
  477MPD2    C3 7149   1.159   0.753  11.894  0.2020  0.2306 -0.1528
  477MPD2    C4 7150   1.248   0.866  11.906  0.1882  0.0137 -0.3578
  477MPD2    C5 7151   1.241   0.970  11.819 -1.4551  0.1853  0.1668
  477MPD2     H 7152   0.992   0.686  11.779 -0.2622  0.5455 -0.8679
  477MPD2    H1 7153   1.324   0.866  11.984 -0.0354 -0.7765 -0.1382
  477MPD2    H2 7154   1.154   1.068  11.645 -0.8093  0.3504  0.1127
  477MPD2    H3 7155   1.317   1.047  11.829 -1.4057  0.1518  0.0530
  477MPD2     N 7156   1.164   0.633  11.972 -0.3982 -0.0377  1.1904
  477MPD2    H5 7157   1.078   0.579  11.976 -0.0881 -0.6024 -0.0348
  477MPD2    N1 7158   0.943   0.914  11.619 -0.1426 -0.4724  0.2537
  477MPD2    H7 7159   0.955   0.998  11.564  1.7165 -2.7553 -2.7918
  478TMC3    C1 7160   0.727   0.891  11.515  0.2252 -0.5099  0.1762
  478TMC3    C2 7161   0.599   0.858  11.535  0.3962 -0.3148 -0.6525
  478TMC3    C3 7162   0.507   0.932  11.463  0.4780  0.8848 -0.2157
  478TMC3    C4 7163   0.770   0.977  11.418  0.7191  0.0190  0.4769
  478TMC3    C5 7164   0.678   1.045  11.351  0.2255  0.5115  0.8502
  478TMC3    C6 7165   0.542   1.026  11.368  0.1310 -0.5992 -0.1473
  478TMC3     C 7166   0.826   0.844  11.619  0.4266  0.6525 -0.6897
  478TMC3     O 7167   0.786   0.768  11.710  0.1133 -0.6953 -0.3873
  478TMC3     H 7168   0.570   0.793  11.617  3.7488  0.6184  1.2526
  478TMC3    H1 7169   0.877   0.989  11.409  0.6905 -1.8991 -2.4463
  478TMC3    H2 7170   0.466   1.090  11.325  0.0446 -1.5221 -1.3797
  478TMC3    C7 7171   0.733   1.149  11.263 -0.4977 -0.1960  0.4646
  478TMC3    C8 7172   0.380   0.951  11.523 -0.1048  0.0033 -0.6307
  478TMC3    O1 7173   0.856   1.160  11.249 -0.2808 -0.4311 -0.0177
  478TMC3    O2 7174   0.325   0.847  11.559  0.0770 -0.4737  0.6258
  479MPD2     C 7175   4.282   2.824  15.100 -0.6350  0.9429 -0.0783
  479MPD2    C1 7176   4.262   2.805  15.231 -0.1130  0.6406 -0.1591
  479MPD2    C2 7177   4.364   2.831  15.319 -0.8477 -0.1344 -0.8281
  479MPD2    C3 7178   4.476   2.903  15.286 -1.3017  0.1227  0.3174
  479MPD2    C4 7179   4.499   2.925  15.150 -0.3602  0.3359 -0.2957
  479MPD2    C5 7180   4.401   2.884  15.063 -0.1342 -0.8276 -1.0804
  479MPD2     H 7181   4.354   2.803  15.423 -0.9297  1.0683 -0.5033
  479MPD2    H1 7182   4.589   2.969  15.110 -0.5001  0.4905 -0.4397
  479MPD2    H2 7183   4.209   2.790  15.028 -1.3328  0.5124  0.8264
  479MPD2    H3 7184   4.421   2.880  14.957  1.9058  3.4574 -0.8765
  479MPD2     N 7185   4.580   2.942  15.371  0.4785 -0.0917 -0.5119
  479MPD2    H5 7186   4.672   2.935  15.329  0.0048  2.8144 -2.0273
  479MPD2    N1 7187   4.136   2.750  15.276  0.4337 -0.7346 -0.3077
  479MPD2    H7 7188   4.076   2.713  15.202  0.6169 -2.8700  0.6027
  480TMC3    C1 7189   4.299   2.971  15.736 -0.2313 -0.3278  0.3789
  480TMC3    C2 7190   4.216   3.061  15.678 -0.2335 -0.5386 -0.2217
  480TMC3    C3 7191   4.247   3.123  15.561  0.6841 -1.1134 -1.0755
  480TMC3    C4 7192   4.416   2.938  15.678  0.2657  0.7452 -0.0633
  480TMC3    C5 7193   4.448   3.012  15.564  1.0688  0.1867 -0.2132
  480TMC3    C6 7194   4.365   3.099  15.496  0.0412  0.4137  0.4031
  480TMC3     C 7195   4.265   2.895  15.853 -0.4459  0.2429  0.3353
  480TMC3     O 7196   4.311   2.782  15.863  0.3609  0.0991 -0.0385
  480TMC3     H 7197   4.119   3.084  15.722  0.8904  0.4581  1.7756
  480TMC3    H1 7198   4.476   2.856  15.716  0.8917  2.4496  2.6351
  480TMC3    H2 7199   4.402   3.133  15.400  1.9787  0.1593  1.0558
  480TMC3    C7 7200   4.565   2.948  15.508  0.4468  0.3408 -0.0782
  480TMC3    C8 7201   4.141   3.199  15.499 -0.3145  0.3683 -0.6546
  480TMC3    O1 7202   4.645   2.910  15.595 -0.3666  0.1266 -0.2949
  480TMC3    O2 7203   4.026   3.192  15.548  0.0679  0.1423  0.1460
  481MPD2     C 7204   1.318   2.817  14.304 -0.6571 -0.2855  0.4904
  481MPD2    C1 7205   1.204   2.749  14.344 -0.5213  0.2185 -0.4244
  481MPD2    C2 7206   1.212   2.656  14.448 -0.6662  0.6715 -0.4348
  481MPD2    C3 7207   1.332   2.640  14.516 -0.1205 -0.2058  0.1568
  481MPD2    C4 7208   1.442   2.708  14.471  0.8536 -0.0129 -0.2653
  481MPD2    C5 7209   1.435   2.794  14.366 -0.5228  0.3561  0.1264
  481MPD2     H 7210   1.125   2.601  14.484 -0.1391  0.5859  0.6770
  481MPD2    H1 7211   1.540   2.684  14.511  1.2588  2.8054  0.4754
  481MPD2    H2 7212   1.306   2.884  14.219  0.8616  0.4039  0.8047
  481MPD2    H3 7213   1.524   2.852  14.341  1.6875 -2.6509  1.0268
  481MPD2     N 7214   1.349   2.536  14.614 -0.8891 -0.4759  0.0114
  481MPD2    H5 7215   1.444   2.515  14.642 -1.5162 -3.0317  0.2180
  481MPD2    N1 7216   1.083   2.772  14.266 -0.2790  0.2221 -0.2346
  481MPD2    H7 7217   1.078   2.858  14.212  2.3609  0.6323  0.2016
  482TMC3    C1 7218   0.866   2.710  14.190 -0.2828  0.2357 -0.0347
  482TMC3    C2 7219   0.832   2.599  14.118  0.5434  0.5170  0.0652
  482TMC3    C3 7220   0.773   2.618  13.995 -0.6188 -0.1401  0.5187
  482TMC3    C4 7221   0.862   2.835  14.138  0.4383  0.0095  0.0668
  482TMC3    C5 7222   0.805   2.846  14.013 -0.3883  0.0703  0.2404
  482TMC3    C6 7223   0.749   2.742  13.946 -0.0546 -0.3364 -0.3939
  482TMC3     C 7224   0.978   2.688  14.282  0.5308  0.0938  0.3230
  482TMC3     O 7225   0.967   2.577  14.338  0.8306 -0.3016  0.0188
  482TMC3     H 7226   0.833   2.504  14.169 -0.0732 -0.5063 -1.8310
  482TMC3    H1 7227   0.888   2.924  14.194 -1.4317 -0.5791  1.8776
  482TMC3    H2 7228   0.700   2.752  13.850 -0.7688 -1.4496 -0.1398
  482TMC3    C7 7229   0.802   2.980  13.955  0.0975  0.1137  0.5735
  482TMC3    C8 7230   0.737   2.499  13.923  0.7200  1.1045  0.5380
  482TMC3    O1 7231   0.793   3.072  14.035 -0.3523 -0.4814  0.2853
  482TMC3    O2 7232   0.734   2.396  13.991  0.4748 -0.2885 -0.1401
  483TMC3    C1 7233   3.135   1.608   1.029 -0.3028  0.5489  0.3428
  483TMC3    C2 7234   3.207   1.723   0.997 -0.4070  0.5144  0.1804
  483TMC3    C3 7235   3.318   1.756   1.068 -0.2917  0.4114 -0.0289
  483TMC3    C4 7236   3.174   1.528   1.135 -0.0224 -0.3131 -0.3077
  483TMC3    C5 7237   3.293   1.563   1.195 -0.5653  0.0591 -0.1550
  483TMC3    C6 7238   3.358   1.675   1.170 -0.3697 -0.2849 -0.4777
  483TMC3     C 7239   3.029   1.583   0.931 -0.3848  0.1376  0.0917
  483TMC3     O 7240   2.978   1.677   0.869  0.3493 -0.1607 -0.0913
  483TMC3     H 7241   3.174   1.788   0.918  1.6834 -0.4035 -1.4468
  483TMC3    H1 7242   3.124   1.434   1.153 -2.3194  0.9783  0.0030
  483TMC3    H2 7243   3.450   1.697   1.223 -0.4721 -1.5826  0.2328
  483TMC3    C7 7244   3.374   1.448   1.247 -0.7481 -0.1386 -0.6296
  483TMC3    C8 7245   3.422   1.791   0.972 -0.0351 -0.1657 -0.4752
  483TMC3    O1 7246   3.303   1.353   1.268  0.6881  0.3596  0.1155
  483TMC3    O2 7247   3.410   1.742   0.857 -0.0844 -0.1322 -0.0559
  484MPD2     C 7248   1.531   4.327  13.225 -0.6275 -0.4485  0.5518
  484MPD2    C1 7249   1.499   4.321  13.090  0.3261  0.0441 -0.0081
  484MPD2    C2 7250   1.606   4.328  12.996 -0.1594 -0.0922  0.9402
  484MPD2    C3 7251   1.737   4.341  13.040 -0.3273 -0.2270  0.0202
  484MPD2    C4 7252   1.762   4.344  13.181 -0.2941 -0.5819 -0.0444
  484MPD2    C5 7253   1.658   4.335  13.273  0.2125  0.4016  0.1468
  484MPD2     H 7254   1.585   4.337  12.890  1.5432  0.5295  0.6545
  484MPD2    H1 7255   1.864   4.343  13.218  0.2988 -0.3083 -1.6660
  484MPD2    H2 7256   1.452   4.329  13.299 -0.9311  3.3218  0.1645
  484MPD2    H3 7257   1.676   4.341  13.380 -0.7908 -0.5644  0.3769
  484MPD2     N 7258   1.848   4.355  12.964 -0.1329  0.2904 -0.6910
  484MPD2    H5 7259   1.938   4.352  13.011 -0.5432 -3.4528 -0.1303
  484MPD2    N1 7260   1.366   4.296  13.054  0.2318  0.3692  0.2775
  484MPD2    H7 7261   1.301   4.284  13.131  1.4769  1.1606  1.4584
  485TMC3    C1 7262   1.981   4.387  12.773 -0.4925 -0.3035  1.3530
  485TMC3    C2 7263   2.091   4.319  12.833  0.1773  0.4818 -0.1959
  485TMC3    C3 7264   2.217   4.360  12.811 -0.2451  0.1264  0.2045
  485TMC3    C4 7265   2.006   4.501  12.697  0.1533  0.5129 -0.8035
  485TMC3    C5 7266   2.135   4.533  12.678 -1.1588  0.0863  0.2111
  485TMC3    C6 7267   2.243   4.469  12.742  0.0661  0.4180  0.0135
  485TMC3     C 7268   1.847   4.377  12.831 -0.1613 -0.3171 -0.3392
  485TMC3     O 7269   1.751   4.399  12.761  0.1621 -0.2885  0.6095
  485TMC3     H 7270   2.066   4.221  12.874 -0.4636  1.4867  1.8002
  485TMC3    H1 7271   1.922   4.548  12.646 -1.4937 -0.5741  0.9004
  485TMC3    H2 7272   2.340   4.515  12.727  1.0995 -2.3819 -1.8414
  485TMC3    C7 7273   2.159   4.526  12.537  0.5200 -0.9200  0.1356
  485TMC3    C8 7274   2.317   4.257  12.792  0.1443  0.0990  0.0184
  485TMC3    O1 7275   2.230   4.429  12.507  0.4400  0.0069 -0.0965
  485TMC3    O2 7276   2.328   4.153  12.860 -0.3310 -0.1864  0.0738
  486MPD2     C 7277   3.818   3.252  12.957  0.3302 -0.0789  0.1470
  486MPD2    C1 7278   3.801   3.217  12.824  0.5365 -0.0107 -0.0537
  486MPD2    C2 7279   3.766   3.312  12.728 -0.9030  0.0046  0.2954
  486MPD2    C3 7280   3.735   3.439  12.767 -0.1749 -0.1480  1.3136
  486MPD2    C4 7281   3.737   3.468  12.899  0.2872  0.2453 -0.9638
  486MPD2    C5 7282   3.774   3.375  12.994  0.0452 -0.9478  0.4668
  486MPD2     H 7283   3.760   3.290  12.622  1.0829 -2.4360  0.6709
  486MPD2    H1 7284   3.702   3.564  12.936  1.2751 -0.0929  0.8525
  486MPD2    H2 7285   3.836   3.194  13.047  0.1835  1.2620  1.0408
  486MPD2    H3 7286   3.780   3.399  13.100  0.7267 -1.0208  0.4446
  486MPD2     N 7287   3.675   3.530  12.673 -0.6618 -0.6706  0.1246
  486MPD2    H5 7288   3.659   3.492  12.580  0.0747  0.7329 -0.5747
  486MPD2    N1 7289   3.827   3.085  12.793 -0.6114  0.0379 -0.0333
  486MPD2    H7 7290   3.858   3.026  12.870  0.5672 -0.3754 -0.8126
  487TMC3    C1 7291   3.902   2.895  12.670  0.3310 -0.0114  0.0441
  487TMC3    C2 7292   3.861   2.799  12.582  0.3621  0.3489 -0.0621
  487TMC3    C3 7293   3.932   2.687  12.574  0.1669 -0.0177  0.2191
  487TMC3    C4 7294   4.015   2.887  12.746 -0.4253  0.3125  0.0449
  487TMC3    C5 7295   4.085   2.767  12.737 -0.1614  0.5424  0.5253
  487TMC3    C6 7296   4.051   2.675  12.640 -0.0902 -0.1539 -0.1462
  487TMC3     C 7297   3.842   3.030  12.671  0.1632 -0.0661 -0.5461
  487TMC3     O 7298   3.807   3.077  12.563  0.2463 -0.3681  0.1646
  487TMC3     H 7299   3.767   2.807  12.528 -0.1525 -0.4780  0.7017
  487TMC3    H1 7300   4.042   2.961  12.820  0.7084  2.0272 -2.0537
  487TMC3    H2 7301   4.102   2.580  12.632  1.1579  0.6442 -1.5870
  487TMC3    C7 7302   4.112   2.720  12.871 -0.4258  0.1727 -0.4379
  487TMC3    C8 7303   3.878   2.557  12.580 -0.5703  0.5861  0.3355
  487TMC3    O1 7304   4.092   2.787  12.972 -0.4514 -0.2645 -0.1757
  487TMC3    O2 7305   3.922   2.462  12.517  0.2059 -0.3012  0.5652
  488MPD2     C 7306   3.642   4.725  16.535 -0.9330  0.2445  0.0907
  488MPD2    C1 7307   3.699   0.095  16.607 -0.2894  0.3912  0.4408
  488MPD2    C2 7308   3.667   0.111  16.739  0.4370  0.2039 -0.3750
  488MPD2    C3 7309   3.594   0.015  16.810  0.6362  0.4021 -0.0632
  488MPD2    C4 7310   3.543   4.644  16.741  0.4343 -0.1162  0.1232
  488MPD2    C5 7311   3.566   4.632  16.604 -0.0960 -0.0285  0.3661
  488MPD2     H 7312   3.704   0.197  16.794 -1.1412  0.0474  0.9234
  488MPD2    H1 7313   3.483   4.565  16.784  1.1006 -0.2605  0.7935
  488MPD2    H2 7314   3.644   4.723  16.426 -1.8481  1.9533  0.0331
  488MPD2    H3 7315   3.525   4.546  16.552  0.9348 -0.8950  0.9794
  488MPD2     N 7316   3.563   0.040  16.944 -0.2056 -0.2791 -0.6665
  488MPD2    H5 7317   3.594   0.130  16.980  0.8062 -1.4096  1.3280
  488MPD2    N1 7318   3.758   0.214  16.546 -0.0353 -0.4996  0.1478
  488MPD2    H7 7319   3.774   0.300  16.598 -1.1671 -0.8385  1.0630
  489TMC3    C1 7320   3.495   4.724  17.172 -0.1393 -0.8511 -0.2003
  489TMC3    C2 7321   3.473   0.120  17.195 -1.1743  0.0470 -0.5849
  489TMC3    C3 7322   3.439   0.151  17.325 -0.0611  0.4387 -0.2541
  489TMC3    C4 7323   3.475   4.625  17.267 -0.2160 -0.5079  0.0667
  489TMC3    C5 7324   3.446   4.675  17.393 -0.1865  0.1005 -0.1861
  489TMC3    C6 7325   3.433   0.067  17.425 -0.2098 -0.1515 -0.6950
  489TMC3     C 7326   3.528   4.678  17.033  0.2813 -0.3015  0.8614
  489TMC3     O 7327   3.521   4.556  17.017 -0.1135 -0.3128 -0.2112
  489TMC3     H 7328   3.461   0.194  17.117 -0.8490  1.7020  0.9476
  489TMC3    H1 7329   3.490   4.520  17.244 -0.7978 -1.1796  2.7872
  489TMC3    H2 7330   3.416   0.095  17.528 -1.9096 -2.3898 -0.3641
  489TMC3    C7 7331   3.448   4.575  17.502 -0.5037 -0.2794 -0.5729
  489TMC3    C8 7332   3.407   0.287  17.358  0.1082 -0.3789  0.0943
  489TMC3    O1 7333   3.514   4.602  17.601 -0.8168  0.9193  0.7386
  489TMC3    O2 7334   3.377   0.315  17.474 -0.4182 -0.1043  0.6362
  490MPD2     C 7335   4.513   4.384  17.505  0.6987  0.4518  0.6527
  490MPD2    C1 7336   4.441   4.388  17.625 -0.5405 -0.5924 -1.0109
  490MPD2    C2 7337   4.491   4.462  17.731  0.0082  0.0047  0.3729
  490MPD2    C3 7338   4.605   4.527  17.716 -0.8169 -0.2826 -0.1785
  490MPD2    C4 7339   4.679   4.529  17.598  0.7697  0.4844  0.4096
  490MPD2    C5 7340   4.633   4.452  17.495  0.3660  0.4479  0.3333
  490MPD2     H 7341   4.445   4.461   0.077  0.9182 -1.8034  0.7683
  490MPD2    H1 7342   0.039   4.575  17.595  1.0356 -0.0670  0.6225
  490MPD2    H2 7343   4.489   4.315  17.425  0.6236  1.4286 -0.1540
  490MPD2    H3 7344   4.698   4.429  17.411  1.0061  0.2788  0.8831
  490MPD2     N 7345   4.655   4.601   0.074  0.2647 -0.4386 -0.3582
  490MPD2    H5 7346   0.010   4.638   0.060  0.2725 -0.5664 -0.6393
  490MPD2    N1 7347   4.338   4.301  17.654  0.0422  0.0520  0.1140
  490MPD2    H7 7348   4.303   4.292  17.749  0.6138 -3.2188  0.0147
  491TMC3    C1 7349   4.140   4.174  17.612 -0.5131 -0.0760 -0.5442
  491TMC3    C2 7350   4.138   4.124  17.739  0.3054 -0.5425 -0.4189
  491TMC3    C3 7351   4.060   4.013   0.019  0.1005 -0.0125 -0.5946
  491TMC3    C4 7352   4.073   4.110  17.509 -0.4593 -0.0423  0.4216
  491TMC3    C5 7353   4.001   4.005  17.538 -0.4622 -0.1315 -0.0663
  491TMC3    C6 7354   3.998   3.955  17.664 -0.2470 -0.4000  0.1377
  491TMC3     C 7355   4.255   4.246  17.561  0.0111 -0.7545 -0.4242
  491TMC3     O 7356   4.274   4.260  17.438  0.0124 -0.3175  0.0974
  491TMC3     H 7357   4.185   4.179   0.068 -3.2741  1.2195  0.4714
  491TMC3    H1 7358   4.075   4.163  17.414 -0.7972  3.1980  2.2445
  491TMC3    H2 7359   3.928   3.875  17.684 -0.1920  0.2367  2.9414
  491TMC3    C7 7360   3.924   3.942  17.438  0.0477  0.0128  0.1661
  491TMC3    C8 7361   4.090   3.946   0.148  0.1231 -0.7223  1.4519
  491TMC3    O1 7362   3.899   3.821  17.453 -0.1368  0.1128 -0.1261
  491TMC3    O2 7363   4.152   4.010   0.232 -0.4693 -0.4113 -0.6661
  492MPD2     C 7364   0.254   4.527  11.458 -0.0782  0.4483  0.5361
  492MPD2    C1 7365   0.147   4.576  11.386  0.3042  0.7406  0.1662
  492MPD2    C2 7366   0.019   4.532  11.421 -0.9519 -0.1377  0.0467
  492MPD2    C3 7367   0.007   4.465  11.540  0.5520  1.0196  0.7705
  492MPD2    C4 7368   0.112   4.423  11.612  0.7409  0.4653  0.0486
  492MPD2    C5 7369   0.235   4.439  11.562 -0.4226 -0.0291  0.7220
  492MPD2     H 7370   4.672   4.569  11.366  1.5215  3.2424 -1.4875
  492MPD2    H1 7371   0.102   4.372  11.707  0.3884  0.7166  0.1487
  492MPD2    H2 7372   0.353   4.559  11.427  0.1150  0.4060  1.1061
  492MPD2    H3 7373   0.315   4.384  11.612 -0.3537  0.3356  1.0143
  492MPD2     N 7374   4.621   4.434  11.592  0.4127 -0.3663  0.2458
  492MPD2    H5 7375   4.619   4.375  11.675 -2.8560  0.4172  0.7274
  492MPD2    N1 7376   0.179   4.659  11.275  0.1471  0.1035  0.2991
  492MPD2    H7 7377   0.279   4.665  11.255  0.2974 -1.6445  0.5251
  493TMC3    C1 7378   0.175   0.061  11.093  0.3970  0.1151 -0.7004
  493TMC3    C2 7379   0.274   0.133  11.144  0.7889 -0.1528 -0.6482
  493TMC3    C3 7380   0.368   0.202  11.062  0.3714 -0.1279  0.2801
  493TMC3    C4 7381   0.163   0.044  10.954 -1.3136  0.3064 -0.1694
  493TMC3    C5 7382   0.252   0.113  10.878  0.1410 -0.4695 -0.7085
  493TMC3    C6 7383   0.342   0.208  10.932  0.0221 -0.0044  0.1445
  493TMC3     C 7384   0.100   4.722  11.185  0.8536 -0.3355 -0.2177
  493TMC3     O 7385   4.719   4.729  11.184  0.0453  0.3173  0.0841
  493TMC3     H 7386   0.279   0.145  11.252  0.6521 -0.1112 -0.6464
  493TMC3    H1 7387   0.093   4.708  10.919  0.4133 -1.4104  0.0470
  493TMC3    H2 7388   0.403   0.270  10.867  0.7626 -1.1047 -0.2174
  493TMC3    C7 7389   0.248   0.093  10.734  0.4694 -0.1153 -0.0686
  493TMC3    C8 7390   0.453   0.302  11.124 -0.4068  0.0635 -0.0126
  493TMC3    O1 7391   0.143   0.053  10.682  0.1363 -0.0247  0.0844
  493TMC3    O2 7392   0.451   0.301  11.245  0.2764 -0.1750  0.1065
  494TMC3    C1 7393   0.501   1.612   0.260  0.2116  0.6526 -0.1361
  494TMC3    C2 7394   0.494   1.471   0.253  1.3176 -0.4546 -0.3510
  494TMC3    C3 7395   0.565   1.413   0.152  0.3445 -0.1995  0.0981
  494TMC3    C4 7396   0.568   1.680   0.156 -0.1187  0.6689  0.0370
  494TMC3    C5 7397   0.629   1.613   0.053  0.8800 -0.1250 -0.5952
  494TMC3    C6 7398   0.640   1.480   0.062  0.5286 -0.5330  0.8342
  494TMC3     C 7399   0.427   1.694   0.363 -0.0207  0.9004 -0.5690
  494TMC3     O 7400   0.419   1.817   0.343 -0.3223  1.1052  0.0842
  494TMC3     H 7401   0.444   1.410   0.327 -0.2619 -0.6662 -1.5952
  494TMC3    H1 7402   0.556   1.787   0.152 -2.7851  0.3550 -0.4071
  494TMC3    H2 7403   0.693   1.430  17.734 -0.8793 -2.2814  1.0204
  494TMC3    C7 7404   0.703   1.673  17.697 -0.8647 -0.2595  0.4647
  494TMC3    C8 7405   0.594   1.273   0.159  0.2135 -0.0162 -0.3867
  494TMC3    O1 7406   0.731   1.605  17.599 -0.5988 -0.0185  0.1839
  494TMC3    O2 7407   0.704   1.224   0.127  0.2929 -0.7226  0.8718
  495TMC3    C1 7408   4.352   3.463  14.620 -0.8458  0.3241  0.2244
  495TMC3    C2 7409   4.240   3.453  14.542  0.3734  0.1885  0.4986
  495TMC3    C3 7410   4.127   3.496  14.599  0.5840 -0.7957 -0.0139
  495TMC3    C4 7411   4.347   3.516  14.738  0.4420 -0.4328  0.2534
  495TMC3    C5 7412   4.237   3.551  14.798 -0.4924  0.0477  0.1682
  495TMC3    C6 7413   4.117   3.541  14.727  0.6296  0.0388 -1.2682
  495TMC3     C 7414   4.468   3.381  14.589 -0.8542 -0.2184 -0.3638
  495TMC3     O 7415   4.579   3.435  14.589  0.1448  0.0263 -0.3794
  495TMC3     H 7416   4.251   3.402  14.447 -1.7528  2.8298 -1.1795
  495TMC3    H1 7417   4.433   3.526  14.802  1.1853 -0.0557 -0.7939
  495TMC3    H2 7418   4.017   3.542  14.769  0.9727 -2.0836 -0.4282
  495TMC3    C7 7419   4.227   3.518  14.947 -0.7174 -0.2128 -0.3961
  495TMC3    C8 7420   4.006   3.447  14.537 -0.0366  0.0058  0.0936
  495TMC3    O1 7421   4.308   3.431  14.974  0.1011 -0.0146  0.2504
  495TMC3    O2 7422   3.917   3.417  14.612  0.1235  0.0294 -0.0966
  496MPD2     C 7423   1.883   3.142  15.698 -0.0625  0.0504  0.3032
  496MPD2    C1 7424   1.812   3.133  15.575 -0.5027  0.2691  0.0994
  496MPD2    C2 7425   1.676   3.164  15.578 -0.0949 -0.2301 -0.2824
  496MPD2    C3 7426   1.607   3.184  15.703  0.1592  0.5617  0.8064
  496MPD2    C4 7427   1.686   3.191  15.819  0.2953  0.4737  0.1918
  496MPD2    C5 7428   1.820   3.170  15.813  0.1449  0.2613  0.4149
  496MPD2     H 7429   1.617   3.144  15.489 -2.7588  0.0815  1.4187
  496MPD2    H1 7430   1.639   3.207  15.915 -1.3285  0.7422 -0.6465
  496MPD2    H2 7431   1.977   3.090  15.708  0.8968  1.4384 -1.7566
  496MPD2    H3 7432   1.869   3.146  15.906  1.5359  0.0125 -0.3897
  496MPD2     N 7433   1.469   3.175  15.718 -0.7368  0.1269 -0.4769
  496MPD2    H5 7434   1.426   3.194  15.808  2.4253 -0.3803  1.1106
  496MPD2    N1 7435   1.883   3.077  15.472  0.0316 -0.7058 -0.7284
  496MPD2    H7 7436   1.971   3.030  15.491  0.7175  0.5329 -0.8378
  497TMC3    C1 7437   1.244   3.118  15.674 -0.2086 -0.4995  0.6311
  497TMC3    C2 7438   1.141   3.124  15.582  0.4069 -0.2930  0.8985
  497TMC3    C3 7439   1.023   3.060  15.608 -0.0619  0.1962  0.7810
  497TMC3    C4 7440   1.225   3.053  15.791  0.5336  0.1251  0.2943
  497TMC3    C5 7441   1.104   2.993  15.809 -0.0952  0.1012  0.2655
  497TMC3    C6 7442   1.003   2.991  15.720  0.3343 -0.0435 -0.1188
  497TMC3     C 7443   1.377   3.147  15.623 -0.2455 -0.1276 -0.3320
  497TMC3     O 7444   1.391   3.144  15.501 -0.0321  0.0662  0.3460
  497TMC3     H 7445   1.162   3.160  15.482  2.0994  1.1550  1.7687
  497TMC3    H1 7446   1.311   3.032  15.855 -0.0115 -1.5062  0.4965
  497TMC3    H2 7447   0.925   2.918  15.734 -1.1009  1.1715 -1.7965
  497TMC3    C7 7448   1.083   2.944  15.947  0.2683  0.3792  0.0551
  497TMC3    C8 7449   0.941   2.999  15.501 -0.0146  0.0711  0.8706
  497TMC3    O1 7450   0.986   2.869  15.960  0.0898  0.1923 -0.2124
  497TMC3    O2 7451   0.851   2.920  15.526  0.1985  0.0665 -0.0439
  498MPD2     C 7452   1.988   4.661   9.616 -0.0974  0.1253  0.2635
  498MPD2    C1 7453   2.004   4.545   9.677 -0.2420 -0.1914 -0.6843
  498MPD2    C2 7454   1.888   4.475   9.706 -0.3292  0.5635 -0.5305
  498MPD2    C3 7455   1.763   4.505   9.667  0.4257 -0.2872 -0.3069
  498MPD2    C4 7456   1.747   4.627   9.606 -0.5219  0.1976 -0.0373
  498MPD2    C5 7457   1.861   4.700   9.585  0.4656  0.0053  0.0986
  498MPD2     H 7458   1.906   4.376   9.746 -0.0455  0.6558 -0.4311
  498MPD2    H1 7459   1.650   4.654   9.567 -0.4863 -1.6680 -1.4098
  498MPD2    H2 7460   2.072   4.724   9.588 -0.1071  0.9597  2.1206
  498MPD2    H3 7461   1.849   0.057   9.536 -1.4708 -0.3453 -0.0912
  498MPD2     N 7462   1.653   4.414   9.687  0.0818 -0.5247 -0.3016
  498MPD2    H5 7463   1.676   4.319   9.712 -1.1849 -0.4745  1.0427
  498MPD2    N1 7464   2.125   4.485   9.718  0.0957  0.0159 -0.7191
  498MPD2    H7 7465   2.116   4.408   9.783 -2.4524  1.8790  1.1213
  499TMC3    C1 7466   2.359   4.469   9.759  0.8966 -0.1440 -0.0760
  499TMC3    C2 7467   2.342   4.437   9.892  0.7149 -0.1910  0.0615
  499TMC3    C3 7468   2.452   4.392   9.968  0.0297 -0.2646  0.1921
  499TMC3    C4 7469   2.481   4.481   9.701 -0.7029 -0.5455  0.0072
  499TMC3    C5 7470   2.584   4.441   9.778  0.5382 -0.0351 -0.9908
  499TMC3    C6 7471   2.573   4.397   9.910 -0.4780  0.0202 -0.8694
  499TMC3     C 7472   2.251   4.522   9.682 -0.3745 -0.3213 -0.3851
  499TMC3     O 7473   2.288   4.609   9.601  0.1935  0.0148 -1.0476
  499TMC3     H 7474   2.245   4.436   9.939  0.0979  0.1012 -1.2285
  499TMC3    H1 7475   2.497   4.518   9.600  1.5075  2.8902  1.6260
  499TMC3    H2 7476   2.658   4.380   9.974 -0.0885  2.1360 -0.8073
  499TMC3    C7 7477   2.717   4.459   9.715 -0.1600 -0.2299 -0.1523
  499TMC3    C8 7478   2.419   4.303  10.075 -0.2741  0.1207 -0.4632
  499TMC3    O1 7479   2.715   4.512   9.604  0.0359 -0.7053  0.4960
  499TMC3    O2 7480   2.304   4.294  10.115 -0.0904  0.1750 -0.5077
  500MPD2     C 7481   3.991   1.083  10.859  0.2731  0.2783  0.1845
  500MPD2    C1 7482   4.044   1.101  10.738 -0.4529 -0.0987 -0.4112
  500MPD2    C2 7483   3.956   1.070  10.628 -0.3790  0.2054  0.2981
  500MPD2    C3 7484   3.838   1.007  10.653 -0.0710  0.3603 -0.2114
  500MPD2    C4 7485   3.800   0.971  10.782  1.0546  0.3637  0.7365
  500MPD2    C5 7486   3.877   1.014  10.882 -0.1691  0.5128  0.5791
  500MPD2     H 7487   4.003   1.090  10.532 -2.0383 -0.8992 -0.7407
  500MPD2    H1 7488   3.709   0.919  10.811  1.2187  0.7088  1.8590
  500MPD2    H2 7489   4.041   1.115  10.949  0.5385  0.7698 -0.1435
  500MPD2    H3 7490   3.835   1.000  10.981 -0.6723 -0.7895  0.1850
  500MPD2     N 7491   3.752   0.963  10.552 -0.5521  0.1135  0.3692
  500MPD2    H5 7492   3.667   0.914  10.577 -1.3873  0.4430 -1.7517
  500MPD2    N1 7493   4.175   1.145  10.728  0.3268  0.5686 -0.5836
  500MPD2    H7 7494   4.215   1.161  10.636 -1.1667  3.8571 -0.6726
  501TMC3    C1 7495   4.409   1.147  10.810 -0.7827 -0.1614  0.1066
  501TMC3    C2 7496   4.435   1.263  10.744  0.0386  0.2875 -0.5298
  501TMC3    C3 7497   4.559   1.308  10.755 -0.1546 -0.2909 -0.2732
  501TMC3    C4 7498   4.507   1.082  10.887 -0.5938 -0.2146  0.5834
  501TMC3    C5 7499   4.638   1.130  10.891  0.7637  0.0629 -0.6762
  501TMC3    C6 7500   4.664   1.243  10.817 -0.1711  0.0563  0.3353
  501TMC3     C 7501   4.271   1.104  10.824  0.1765 -0.3615 -0.5564
  501TMC3     O 7502   4.261   1.059  10.937 -0.0576  0.1450 -0.3919
  501TMC3     H 7503   4.362   1.320  10.687 -1.5979  0.1660  1.4405
  501TMC3    H1 7504   4.474   0.997  10.946  0.6956  1.5135  3.7755
  501TMC3    H2 7505   0.025   1.286  10.817  0.7203 -2.0087  0.3235
  501TMC3    C7 7506   4.729   1.042  10.961  0.5633 -0.0223 -0.4978
  501TMC3    C8 7507   4.608   1.430  10.679  0.3977  0.9398 -0.1124
  501TMC3    O1 7508   4.683   0.944  11.020  0.2775  0.3345 -0.0430
  501TMC3    O2 7509   4.726   1.426  10.643 -0.3096 -0.5949  0.4953
  502TMC3    C1 7510   3.585   4.252  15.643 -0.2013 -0.0192  0.6056
  502TMC3    C2 7511   3.567   4.371  15.580 -0.7190  0.0035 -0.3986
  502TMC3    C3 7512   3.480   4.373  15.478  0.3693 -0.7908 -0.0097
  502TMC3    C4 7513   3.536   4.135  15.597 -0.0150  0.3585  0.0948
  502TMC3    C5 7514   3.445   4.135  15.491  0.2533  0.0364  0.3700
  502TMC3    C6 7515   3.415   4.256  15.429 -0.3366 -0.5629 -0.0442
  502TMC3     C 7516   3.609   4.259  15.780 -0.1526 -0.7748 -0.5675
  502TMC3     O 7517   3.682   4.353  15.818  0.1521 -0.6627 -0.6028
  502TMC3     H 7518   3.611   4.462  15.621  0.7122 -0.7098 -0.3581
  502TMC3    H1 7519   3.567   4.038  15.632  2.1340  1.3895  1.0552
  502TMC3    H2 7520   3.374   4.247  15.329 -1.7173  1.6905  0.3346
  502TMC3    C7 7521   3.385   4.009  15.464 -0.2386  0.9397 -0.1332
  502TMC3    C8 7522   3.475   4.497  15.401 -0.3550  0.1125 -0.3095
  502TMC3    O1 7523   3.430   3.913  15.526  0.6255  0.4782  0.4637
  502TMC3    O2 7524   3.562   4.583  15.412  0.3089 -0.7316  0.0657
  503MPD2     C 7525   0.648   0.210  16.998 -0.0733 -0.1931 -0.4313
  503MPD2    C1 7526   0.684   0.288  17.101 -0.0234 -0.2882  0.0161
  503MPD2    C2 7527   0.729   0.230  17.221  0.6729 -0.5826 -0.2317
  503MPD2    C3 7528   0.739   0.093  17.232  0.3912 -0.0225 -0.3185
  503MPD2    C4 7529   0.691   0.013  17.131 -0.1599  0.0627  1.7634
  503MPD2    C5 7530   0.644   0.071  17.017 -0.4413  0.4141 -0.5522
  503MPD2     H 7531   0.755   0.289  17.308 -0.7218 -0.5609  0.1714
  503MPD2    H1 7532   0.702   4.644  17.139  2.0860  0.0514 -1.2219
  503MPD2    H2 7533   0.607   0.245  16.904 -0.7511 -1.0305 -0.4505
  503MPD2    H3 7534   0.604   0.009  16.936  0.2599 -0.7423 -0.0114
  503MPD2     N 7535   0.813   0.041  17.345  0.0457 -0.0709  0.9499
  503MPD2    H5 7536   0.827   0.103  17.424 -3.4005 -0.6109  1.9854
  503MPD2    N1 7537   0.690   0.432  17.094  0.2167  0.6370  0.0679
  503MPD2    H7 7538   0.682   0.485  17.180  1.0423 -0.7875  1.0220
  504TMC3    C1 7539   0.914   4.615  17.478  0.1891 -0.5811 -0.2219
  504TMC3    C2 7540   0.861   4.661  17.590 -0.4101 -0.4118 -0.1914
  504TMC3    C3 7541   0.939   4.646  17.707  0.1447 -0.7579  0.6911
  504TMC3    C4 7542   1.032   4.544  17.468  0.8575 -0.2840 -0.1915
  504TMC3    C5 7543   1.111   4.555  17.577 -0.6306  0.4306 -0.0927
  504TMC3    C6 7544   1.074   4.601  17.699 -0.0054 -0.7337  0.8416
  504TMC3     C 7545   0.855   4.651  17.350 -0.0394  0.4464  0.7986
  504TMC3     O 7546   0.890   4.590  17.246  0.0171 -0.3085 -0.4122
  504TMC3     H 7547   0.769   4.718  17.585 -0.6355 -0.6837  0.7910
  504TMC3    H1 7548   1.067   4.527  17.367  1.0162  0.3528 -0.2432
  504TMC3    H2 7549   1.141   4.606   0.032  1.7457  1.6129 -0.6849
  504TMC3    C7 7550   1.240   4.499  17.551 -0.1678 -0.1059 -0.5818
  504TMC3    C8 7551   0.881   4.720   0.071  0.4510  0.1300 -0.1396
  504TMC3    O1 7552   1.247   4.413  17.463 -0.4926  0.7406 -0.4846
  504TMC3    O2 7553   0.781   0.056   0.048 -0.1776 -0.1810 -0.4489
  505MPD2     C 7554   0.661   3.419   9.535  0.3023  0.3393 -0.3639
  505MPD2    C1 7555   0.656   3.426   9.669  0.2100 -0.0454 -0.3520
  505MPD2    C2 7556   0.569   3.513   9.734  0.2421  0.0006  0.2879
  505MPD2    C3 7557   0.498   3.607   9.662 -0.3705 -0.0121  0.5860
  505MPD2    C4 7558   0.504   3.600   9.526  0.0643  0.0330 -0.0815
  505MPD2    C5 7559   0.580   3.502   9.460  0.1100  0.4802 -0.8170
  505MPD2     H 7560   0.573   3.521   9.843 -3.1328 -1.2162  0.4892
  505MPD2    H1 7561   0.441   3.667   9.468 -1.3902 -3.4053 -2.5003
  505MPD2    H2 7562   0.729   3.355   9.481 -0.2186 -0.6185  0.1128
  505MPD2    H3 7563   0.599   3.510   9.354  0.2596 -0.2901 -0.8552
  505MPD2     N 7564   0.427   3.700   9.739 -0.4458 -0.0175 -0.0177
  505MPD2    H5 7565   0.430   3.680   9.838 -0.3245 -1.2964 -0.2726
  505MPD2    N1 7566   0.752   3.349   9.738 -0.5181 -0.7548 -0.0517
  505MPD2    H7 7567   0.822   3.302   9.682 -0.5140  0.5831 -1.1419
  506TMC3    C1 7568   0.869   3.251   9.917 -0.7259 -0.0301 -0.4762
  506TMC3    C2 7569   0.993   3.290   9.879 -0.3987 -0.0494 -0.8061
  506TMC3    C3 7570   1.089   3.301   9.976  0.4804  0.2084 -0.6171
  506TMC3    C4 7571   0.836   3.219  10.048  0.3928 -0.6446  0.6175
  506TMC3    C5 7572   0.939   3.227  10.137 -0.1015  0.3760  0.4993
  506TMC3    C6 7573   1.065   3.255  10.103 -0.5388 -0.1544 -0.7084
  506TMC3     C 7574   0.758   3.333   9.873 -0.2574  0.5751  0.4064
  506TMC3     O 7575   0.679   3.358   9.965  0.4140  0.2784 -0.2122
  506TMC3     H 7576   1.012   3.316   9.776  0.3473 -0.4783 -0.7739
  506TMC3    H1 7577   0.740   3.185  10.086  0.3555 -0.5965  0.5664
  506TMC3    H2 7578   1.146   3.237  10.172 -1.9040 -0.0422  0.9052
  506TMC3    C7 7579   0.902   3.307  10.252  0.3755 -0.2185 -0.1593
  506TMC3    C8 7580   1.229   3.342   9.947  0.2332  0.3445  0.1992
  506TMC3    O1 7581   0.991   3.325  10.334 -0.4672  0.2549 -0.2035
  506TMC3    O2 7582   1.326   3.291  10.004 -0.1009 -0.0093 -0.2599
  507TMC3    C1 7583   2.198   4.096  14.892 -0.1749 -0.3667 -0.0573
  507TMC3    C2 7584   2.177   4.008  14.792 -1.1296 -0.3562  0.0376
  507TMC3    C3 7585   2.246   4.019  14.677 -0.1469 -0.4859  0.5587
  507TMC3    C4 7586   2.287   4.201  14.890 -0.0292  0.1871 -0.5694
  507TMC3    C5 7587   2.356   4.214  14.771 -0.4044  0.5808 -0.6093
  507TMC3    C6 7588   2.338   4.121  14.669 -0.3699  0.4429 -0.0868
  507TMC3     C 7589   2.121   4.076  15.016  0.8132 -0.1732 -0.5233
  507TMC3     O 7590   2.173   4.110  15.120  0.3664 -0.2405  0.2926
  507TMC3     H 7591   2.100   3.932  14.789 -0.9956 -0.4890 -0.0386
  507TMC3    H1 7592   2.297   4.279  14.965  4.0718  1.2049 -2.1797
  507TMC3    H2 7593   2.409   4.123  14.587 -0.0663  1.0225  0.1929
  507TMC3    C7 7594   2.362   4.350  14.710 -0.1150  0.6243 -0.3981
  507TMC3    C8 7595   2.164   4.021  14.560  0.0039  0.0305  0.3183
  507TMC3    O1 7596   2.372   4.352  14.588  0.0681 -0.5489 -0.4166
  507TMC3    O2 7597   2.087   3.933  14.540 -0.0545  0.4138 -0.5294
  508MPD2     C 7598   2.530   1.954  16.026  0.5597 -0.8119  0.6658
  508MPD2    C1 7599   2.658   1.921  15.996 -0.1824 -0.4843 -0.1298
  508MPD2    C2 7600   2.692   1.896  15.862  0.0933 -0.2795  0.0702
  508MPD2    C3 7601   2.593   1.903  15.762 -0.3129 -0.5018 -0.1950
  508MPD2    C4 7602   2.463   1.930  15.796 -0.2388 -0.1682  0.5089
  508MPD2    C5 7603   2.432   1.950  15.927 -0.4098 -0.1671  0.2655
  508MPD2     H 7604   2.797   1.891  15.835  0.1512 -1.7771  0.6081
  508MPD2    H1 7605   2.378   1.933  15.729  0.0656 -0.1167  0.1196
  508MPD2    H2 7606   2.500   1.967  16.129 -0.5509  0.4582  0.1934
  508MPD2    H3 7607   2.332   1.963  15.965 -0.1531  0.0705  0.8599
  508MPD2     N 7608   2.639   1.887  15.627 -0.4763 -0.3224 -0.4442
  508MPD2    H5 7609   2.739   1.882  15.609 -0.2970 -1.0201  0.7096
  508MPD2    N1 7610   2.742   1.921  16.106 -0.2194  0.1469 -0.1868
  508MPD2    H7 7611   2.700   1.935  16.197 -0.5161  1.1158 -0.4721
  509TMC3    C1 7612   2.624   1.849  15.167 -0.2629 -0.7801 -0.0946
  509TMC3    C2 7613   2.757   1.825  15.157  0.0534  0.0747 -0.2137
  509TMC3    C3 7614   2.836   1.829  15.269 -0.3865  0.0848 -0.3321
  509TMC3    C4 7615   2.558   1.868  15.282  0.0678  0.0986  0.5552
  509TMC3    C5 7616   2.634   1.872  15.392 -0.2195 -0.1396 -0.2109
  509TMC3    C6 7617   2.770   1.848  15.391  0.6405  0.1873 -0.5064
  509TMC3     C 7618   2.567   1.914  15.049  0.2515 -0.3469 -0.0154
  509TMC3     O 7619   2.443   1.904  15.034 -0.1456 -0.3106  0.2803
  509TMC3     H 7620   2.804   1.816  15.060 -0.4567 -1.9644 -0.2721
  509TMC3    H1 7621   2.449   1.869  15.279  0.0738  1.7092  0.8533
  509TMC3    H2 7622   2.824   1.850  15.485 -1.7515  3.2630  0.7812
  509TMC3    C7 7623   2.560   1.891  15.513 -0.1114  0.0920 -0.0288
  509TMC3    C8 7624   2.979   1.867  15.258 -0.9866  0.3982 -0.7297
  509TMC3    O1 7625   2.441   1.916  15.503 -0.4681 -0.7006 -0.0034
  509TMC3    O2 7626   3.047   1.825  15.167  0.2426  0.1735 -0.1905
  510MPD2     C 7627   0.584   3.744  14.953 -0.0848 -0.3800  0.0271
  510MPD2    C1 7628   0.671   3.632  14.968  0.2624  0.1175 -0.3049
  510MPD2    C2 7629   0.760   3.607  14.862 -0.1366 -0.0762  0.1739
  510MPD2    C3 7630   0.762   3.684  14.746  0.3780  0.4209 -0.4506
  510MPD2    C4 7631   0.667   3.786  14.734 -0.1811  0.0001  0.5809
  510MPD2    C5 7632   0.574   3.807  14.833  0.0559  0.0054 -0.0807
  510MPD2     H 7633   0.813   3.512  14.868 -0.7144 -0.2471  2.6241
  510MPD2    H1 7634   0.667   3.850  14.646 -0.2566  0.8015  1.1699
  510MPD2    H2 7635   0.510   3.776  15.026  0.0971  0.0583  0.0205
  510MPD2    H3 7636   0.499   3.885  14.825  0.9462  0.8650 -0.0765
  510MPD2     N 7637   0.844   3.647  14.640  0.0097 -0.0433  0.2408
  510MPD2    H5 7638   0.908   3.573  14.667  0.3536  0.3638  0.5382
  510MPD2    N1 7639   0.678   3.573  15.096  0.1033 -0.0294 -0.5413
  510MPD2    H7 7640   0.616   3.595  15.173 -2.3712  0.5411 -2.7251
  511TMC3    C1 7641   0.745   3.406  15.247 -0.0828  0.1712 -0.1236
  511TMC3    C2 7642   0.648   3.453  15.328 -0.0378 -0.7190  0.1938
  511TMC3    C3 7643   0.560   3.358  15.379 -0.5294  0.3152 -0.7734
  511TMC3    C4 7644   0.743   3.269  15.207  0.0510 -0.3103 -0.1659
  511TMC3    C5 7645   0.651   3.182  15.254 -0.7603  0.2246 -0.4380
  511TMC3    C6 7646   0.556   3.223  15.347 -0.4066 -0.5778  0.5163
  511TMC3     C 7647   0.781   3.484  15.134  0.3805 -0.0387  0.1230
  511TMC3     O 7648   0.879   3.442  15.071 -0.0318  0.1112  0.3242
  511TMC3     H 7649   0.638   3.556  15.359 -0.9985 -0.6167 -0.4475
  511TMC3    H1 7650   0.806   3.227  15.129  1.0124 -0.2312  0.5703
  511TMC3    H2 7651   0.471   3.158  15.367  0.2716 -1.6038  0.0120
  511TMC3    C7 7652   0.605   3.103  15.142 -0.9806 -0.5599  0.3813
  511TMC3    C8 7653   0.440   3.417  15.433 -0.7927 -0.6981  0.6389
  511TMC3    O1 7654   0.610   3.159  15.035 -0.5073  0.6107  0.0013
  511TMC3    O2 7655   0.419   3.531  15.402  0.1586 -0.3474  0.2448
  512TMC3    C1 7656   0.013   3.162  12.777  0.2737  0.3626  0.0382
  512TMC3    C2 7657   0.097   3.116  12.873 -0.3340  0.0096 -0.6045
  512TMC3    C3 7658   0.166   2.997  12.857 -0.2347  0.3954 -0.8135
  512TMC3    C4 7659   4.727   3.091  12.662  0.6332 -0.6373 -0.8463
  512TMC3    C5 7660   0.049   2.972  12.649 -0.3033 -0.2275 -0.3127
  512TMC3    C6 7661   0.144   2.926  12.742  0.9328  0.5012  0.1250
  512TMC3     C 7662   4.647   3.257  12.809  0.2741 -0.2807  0.1553
  512TMC3     O 7663   4.553   3.256  12.737  0.0457 -0.1578  0.4591
  512TMC3     H 7664   0.115   3.173  12.963  0.0818 -0.6821 -0.2527
  512TMC3    H1 7665   4.656   3.128  12.589 -0.1225 -2.1248 -0.8506
  512TMC3    H2 7666   0.215   2.847  12.723  0.3971  0.1833 -0.5978
  512TMC3    C7 7667   4.729   2.871  12.563 -0.2013  0.6565 -0.4487
  512TMC3    C8 7668   0.261   2.946  12.955  0.0405  0.1726 -0.1231
  512TMC3    O1 7669   4.658   2.901  12.467  0.1973  0.7525 -0.2784
  512TMC3    O2 7670   0.325   2.845  12.921 -0.0541 -0.1091  0.0041
  513MPD2     C 7671   2.557   3.088  12.635 -0.0684  0.5684  0.2441
  513MPD2    C1 7672   2.499   3.155  12.738  0.2585 -0.5686  0.4592
  513MPD2    C2 7673   2.550   3.134  12.862  0.1393  0.6020 -0.4888
  513MPD2    C3 7674   2.647   3.046  12.882 -1.0792  0.3745  0.2240
  513MPD2    C4 7675   2.714   2.981  12.778 -0.9086  0.6365 -0.4616
  513MPD2    C5 7676   2.657   2.998  12.654  0.1630  0.1453  0.4686
  513MPD2     H 7677   2.502   3.184  12.945  2.3321  0.7687  0.6988
  513MPD2    H1 7678   2.793   2.909  12.793 -1.1806  0.7717  1.5892
  513MPD2    H2 7679   2.525   3.092  12.531  0.8019 -2.2476 -0.1356
  513MPD2    H3 7680   2.694   2.948  12.565 -1.1734  0.7324 -0.4207
  513MPD2     N 7681   2.696   3.038  13.018  0.2944 -0.2987 -0.3915
  513MPD2    H5 7682   2.641   3.075  13.095  0.9540 -0.4314  0.1392
  513MPD2    N1 7683   2.387   3.233  12.703  0.4052  0.3456 -0.5877
  513MPD2    H7 7684   2.340   3.210  12.616  0.1807 -2.8039  0.3932
  514TMC3    C1 7685   2.188   3.345  12.752  0.3322 -0.8280 -0.3830
  514TMC3    C2 7686   2.129   3.254  12.666  0.0429  0.8593  0.2377
  514TMC3    C3 7687   2.011   3.195  12.700 -0.1158  0.4767  0.3627
  514TMC3    C4 7688   2.122   3.390  12.860  0.2825  0.0568  0.0191
  514TMC3    C5 7689   2.023   3.312  12.910  0.3257  0.3285 -0.4954
  514TMC3    C6 7690   1.965   3.215  12.831  0.3191  0.0875  0.1926
  514TMC3     C 7691   2.323   3.319  12.783  0.0014  0.2263 -0.1271
  514TMC3     O 7692   2.370   3.364  12.886  0.4691  0.4312 -0.4857
  514TMC3     H 7693   2.170   3.246  12.566 -1.8395 -1.4658 -0.3471
  514TMC3    H1 7694   2.168   3.472  12.915  2.5148 -0.4663 -1.0773
  514TMC3    H2 7695   1.866   3.186  12.863  1.3458 -0.8302  2.5161
  514TMC3    C7 7696   2.053   3.265  13.050 -0.2705 -0.0040  0.3960
  514TMC3    C8 7697   1.972   3.065  12.642  0.0517 -0.1009  0.0293
  514TMC3    O1 7698   2.118   3.337  13.127 -0.5779  0.0621 -0.1657
  514TMC3    O2 7699   1.936   2.975  12.711 -0.1286  0.2189 -0.7047
  515MPD2     C 7700   4.211   0.076  15.589  0.0081  0.7932 -0.0913
  515MPD2    C1 7701   4.219   0.046  15.451 -0.2313 -0.3293  0.0323
  515MPD2    C2 7702   4.333   0.071  15.381  0.3005 -0.5611  0.1392
  515MPD2    C3 7703   4.446   0.122  15.441  0.3473  0.6256 -0.0526
  515MPD2    C4 7704   4.435   0.160  15.575  0.1975 -0.8518 -0.1089
  515MPD2    C5 7705   4.325   0.132  15.643  0.4826 -0.3563  0.2061
  515MPD2     H 7706   4.334   0.057  15.273  2.4637 -0.3809  0.1441
  515MPD2    H1 7707   4.515   0.223  15.613 -0.4830 -1.8408  2.9695
  515MPD2    H2 7708   4.119   0.079  15.646  0.4765 -0.3228  0.7127
  515MPD2    H3 7709   4.323   0.160  15.748 -3.8187 -0.7628  0.2062
  515MPD2     N 7710   4.561   0.161  15.369  0.0801  0.1671 -0.1324
  515MPD2    H5 7711   4.633   0.217  15.413 -1.6063  1.0944  1.4309
  515MPD2    N1 7712   4.115   4.722  15.378  0.1342 -0.2681  0.6679
  515MPD2    H7 7713   4.127   4.708  15.278 -1.9673  1.1178  0.2185
  516TMC3    C1 7714   3.930   4.604  15.339  0.0320  0.6849  0.4798
  516TMC3    C2 7715   3.924   4.638  15.208 -0.6380  0.8168  0.0217
  516TMC3    C3 7716   3.858   4.557  15.122 -0.2354 -0.3237 -0.2285
  516TMC3    C4 7717   3.880   4.488  15.387 -0.2395 -0.0611  0.5418
  516TMC3    C5 7718   3.825   4.404  15.293 -0.0453  0.8229  0.3232
  516TMC3    C6 7719   3.808   4.437  15.164 -0.2528  0.2156  0.0325
  516TMC3     C 7720   3.997   4.678  15.438 -0.5324 -0.4974  0.0684
  516TMC3     O 7721   3.974   4.646  15.552  0.3523  0.6382  0.8680
  516TMC3     H 7722   3.948   0.002  15.184 -2.5180  0.7978 -1.9231
  516TMC3    H1 7723   3.882   4.444  15.486 -0.5917  1.1672  1.0964
  516TMC3    H2 7724   3.763   4.376  15.087 -1.1948 -1.2329  1.7230
  516TMC3    C7 7725   3.816   4.259  15.328  0.0040 -0.4244  0.7337
  516TMC3    C8 7726   3.871   4.568  14.978  0.4279  0.2169 -0.3677
  516TMC3    O1 7727   3.907   4.220  15.404  0.3922 -0.1770  0.1326
  516TMC3    O2 7728   3.788   4.506  14.922  0.5842 -0.1365 -0.5073
  517MPD2     C 7729   3.601   1.502  17.611 -0.1443  0.0996 -0.1229
  517MPD2    C1 7730   3.716   1.518  17.687 -0.6249  0.4308  0.5429
  517MPD2    C2 7731   3.723   1.628   0.011  0.1558 -0.2519 -0.7560
  517MPD2    C3 7732   3.625   1.719   0.024  0.1200 -0.2797  0.3315
  517MPD2    C4 7733   3.511   1.701  17.708  0.2814  0.8763 -0.9015
  517MPD2    C5 7734   3.512   1.601  17.611  0.4181  0.0439 -0.4855
  517MPD2     H 7735   3.821   1.639   0.056  0.2383 -0.8006 -0.8066
  517MPD2    H1 7736   3.448   1.788  17.697 -2.4545 -1.0649 -0.6078
  517MPD2    H2 7737   3.586   1.424  17.538  1.3937 -0.1631 -0.1699
  517MPD2    H3 7738   3.427   1.600  17.543  1.7639 -0.2613 -2.1528
  517MPD2     N 7739   3.639   1.836   0.102  0.2553 -0.5907 -0.3617
  517MPD2    H5 7740   3.573   1.912   0.103  1.1688  0.1959  0.1159
  517MPD2    N1 7741   3.827   1.424  17.687  0.6036 -0.1088  0.9670
  517MPD2    H7 7742   3.908   1.459  17.737  0.7743  1.3497 -0.3272
  518TMC3    C1 7743   3.949   1.235  17.607  0.0385 -0.0628 -0.1711
  518TMC3    C2 7744   3.938   1.105  17.583  0.4382  0.1400  0.5599
  518TMC3    C3 7745   4.044   1.042  17.523  0.0950 -0.7196 -0.2750
  518TMC3    C4 7746   4.066   1.306  17.574  0.2283 -0.1162 -0.5582
  518TMC3    C5 7747   4.168   1.230  17.529 -0.0673 -0.8113  0.0629
  518TMC3    C6 7748   4.163   1.098  17.496 -0.5028 -0.2813  0.5738
  518TMC3     C 7749   3.823   1.311  17.607 -0.3398 -0.0739  0.0028
  518TMC3     O 7750   3.725   1.255  17.561 -0.2106  0.8730  0.0623
  518TMC3     H 7751   3.848   1.057  17.619  1.2133 -2.7947 -1.3696
  518TMC3    H1 7752   4.070   1.414  17.581 -0.2033 -0.1175 -0.2803
  518TMC3    H2 7753   4.240   1.039  17.448 -0.9939 -0.2643 -0.2228
  518TMC3    C7 7754   4.289   1.287  17.458  0.3425 -0.3571  0.4633
  518TMC3    C8 7755   4.062   0.900  17.549 -1.0323 -0.3576 -0.3038
  518TMC3    O1 7756   4.276   1.406  17.435 -0.4423  0.1210  0.1029
  518TMC3    O2 7757   4.133   0.825  17.480  0.4409 -0.1055  0.2712
  519MPD2     C 7758   1.137   3.961  14.605 -0.1464 -0.2569 -0.1262
  519MPD2    C1 7759   1.067   4.029  14.509  0.3005 -0.0258 -0.2909
  519MPD2    C2 7760   1.119   4.014  14.379  0.3436 -0.4045 -0.1577
  519MPD2    C3 7761   1.250   3.962  14.356 -0.1258 -0.3823  0.2883
  519MPD2    C4 7762   1.319   3.905  14.462  0.0457 -0.0394  0.4106
  519MPD2    C5 7763   1.265   3.905  14.587  0.3255 -0.2703  0.0136
  519MPD2     H 7764   1.065   4.057  14.296 -0.3490  1.0874  1.0727
  519MPD2    H1 7765   1.414   3.853  14.448 -0.0590  0.1867 -1.1423
  519MPD2    H2 7766   1.095   3.961  14.705 -1.2780  0.7871 -0.5950
  519MPD2    H3 7767   1.318   3.862  14.671  1.8741  0.0907 -0.7778
  519MPD2     N 7768   1.301   3.951  14.223  0.6312 -0.1438  0.1832
  519MPD2    H5 7769   1.395   3.915  14.211  0.6995  0.0736  0.0637
  519MPD2    N1 7770   0.945   4.089  14.528  0.0253  0.0707  1.0389
  519MPD2    H7 7771   0.910   4.088  14.623 -0.7526  2.9957  0.7566
  520TMC3    C1 7772   1.302   3.979  13.994  0.1160  0.6150  0.5139
  520TMC3    C2 7773   1.252   4.049  13.888  0.0061 -0.3696  0.1545
  520TMC3    C3 7774   1.299   4.023  13.764 -0.0194 -0.0597  0.8677
  520TMC3    C4 7775   1.406   3.895  13.974 -0.1139 -0.7529  0.3725
  520TMC3    C5 7776   1.463   3.885  13.851 -0.2484  0.1288  0.0696
  520TMC3    C6 7777   1.405   3.940  13.743  0.3600 -0.0628  0.0044
  520TMC3     C 7778   1.242   4.013  14.120  0.2281 -0.2554  0.1226
  520TMC3     O 7779   1.166   4.109  14.122 -0.1248 -0.4168 -0.5608
  520TMC3     H 7780   1.174   4.121  13.910 -0.3856 -0.1783 -1.8514
  520TMC3    H1 7781   1.460   3.851  14.058 -2.5046 -0.4227  2.1087
  520TMC3    H2 7782   1.449   3.922  13.646  1.9919 -0.5238  0.8280
  520TMC3    C7 7783   1.595   3.815  13.846  0.7093  0.0908 -1.0834
  520TMC3    C8 7784   1.207   4.045  13.652  0.3741 -0.5352 -0.5464
  520TMC3    O1 7785   1.604   3.714  13.920  0.9579 -0.4169 -0.6896
  520TMC3    O2 7786   1.259   4.047  13.542  0.4148 -0.2291 -0.3764
  521MPD2     C 7787   1.917   2.794  17.497  0.7579  0.1554 -0.2939
  521MPD2    C1 7788   1.900   2.770  17.368 -0.6675 -0.0890 -0.0892
  521MPD2    C2 7789   2.003   2.713  17.297 -0.1582 -0.3727 -0.6208
  521MPD2    C3 7790   2.123   2.686  17.352  0.5165  0.4754 -0.2970
  521MPD2    C4 7791   2.141   2.713  17.480  0.0927  0.0683 -0.0087
  521MPD2    C5 7792   2.040   2.773  17.557  0.2923  0.4340 -0.2493
  521MPD2     H 7793   1.997   2.675  17.196  1.0023 -1.0931 -0.4168
  521MPD2    H1 7794   2.235   2.702  17.533  1.1571 -2.2001 -2.4047
  521MPD2    H2 7795   1.837   2.838  17.556  2.1854  0.2779  1.5314
  521MPD2    H3 7796   2.052   2.777  17.664  1.9011 -1.7439 -0.3332
  521MPD2     N 7797   2.217   2.628  17.271  1.0390 -0.1571  0.8068
  521MPD2    H5 7798   2.180   2.605  17.179  0.6292  0.7853  0.7316
  521MPD2    N1 7799   1.775   2.798  17.312 -0.5762 -0.8106  0.1378
  521MPD2    H7 7800   1.701   2.815  17.379  0.2219 -0.1999  0.8666
  522TMC3    C1 7801   2.421   2.581  17.181  0.0166  0.4560 -0.9696
  522TMC3    C2 7802   2.524   2.496  17.198 -0.8173  0.0437 -0.0624
  522TMC3    C3 7803   2.597   2.466  17.088  0.2091 -0.1119  0.6705
  522TMC3    C4 7804   2.382   2.634  17.062 -0.4276 -0.0848  0.1011
  522TMC3    C5 7805   2.452   2.596  16.954  0.2853 -0.6852 -0.0576
  522TMC3    C6 7806   2.567   2.518  16.964  0.4474  0.3265 -0.2305
  522TMC3     C 7807   2.348   2.627  17.297 -0.4669  0.3561  0.5954
  522TMC3     O 7808   2.403   2.635  17.410  0.0924 -0.3930 -0.2267
  522TMC3     H 7809   2.541   2.462  17.300 -0.1515 -1.1359 -0.5762
  522TMC3    H1 7810   2.294   2.697  17.058 -1.1010 -1.0638 -0.7142
  522TMC3    H2 7811   2.615   2.496  16.869 -0.3939 -1.6784 -0.1768
  522TMC3    C7 7812   2.441   2.663  16.828 -0.8434 -0.2754 -0.6616
  522TMC3    C8 7813   2.685   2.353  17.102 -0.2269  0.2446  0.0168
  522TMC3    O1 7814   2.550   2.691  16.773  0.4466  0.4520  0.7321
  522TMC3    O2 7815   2.716   2.326  17.217 -1.0968  0.1587  0.2061
  523MPD2     C 7816   0.641   2.869  10.368 -0.0196 -0.1307 -0.2718
  523MPD2    C1 7817   0.508   2.849  10.367 -0.6075 -0.3610  0.3049
  523MPD2    C2 7818   0.407   2.943  10.354  0.1570 -0.3816 -0.5014
  523MPD2    C3 7819   0.446   3.075  10.343 -0.5891 -0.2915 -0.6677
  523MPD2    C4 7820   0.582   3.103  10.347  0.4644 -0.4293 -0.4500
  523MPD2    C5 7821   0.676   3.002  10.357  0.6401  0.2245  0.1983
  523MPD2     H 7822   0.302   2.920  10.363  0.6678 -1.5387  2.6461
  523MPD2    H1 7823   0.606   3.209  10.342 -0.9929 -0.0970 -0.4791
  523MPD2    H2 7824   0.716   2.792  10.380 -0.1178  0.0259  1.2969
  523MPD2    H3 7825   0.783   3.019  10.358  0.7100 -0.2119 -0.1691
  523MPD2     N 7826   0.357   3.186  10.334 -0.1529  0.5137 -0.0534
  523MPD2    H5 7827   0.394   3.279  10.347 -0.3845  0.8931 -2.2252
  523MPD2    N1 7828   0.477   2.713  10.391  0.1204 -0.3131 -0.6226
  523MPD2    H7 7829   0.554   2.649  10.405 -0.1118 -0.9579 -2.3089
  524TMC3    C1 7830   0.170   3.315  10.289 -0.3519 -0.6031 -0.5279
  524TMC3    C2 7831   0.225   3.422  10.358  0.7687 -0.2663 -0.2736
  524TMC3    C3 7832   0.154   3.537  10.343 -0.0090  0.1361  0.3815
  524TMC3    C4 7833   0.067   3.325  10.206  0.4670 -0.5968  0.2989
  524TMC3    C5 7834   0.022   3.448  10.169 -0.0282  0.3154  0.0413
  524TMC3    C6 7835   0.061   3.557  10.245  0.4059  0.0613 -0.8339
  524TMC3     C 7836   0.223   3.182  10.310  0.3913 -0.6751 -0.3214
  524TMC3     O 7837   0.151   3.083  10.288 -0.2525 -0.1430  0.6159
  524TMC3     H 7838   0.269   3.388  10.452  1.2019 -1.4391 -0.8939
  524TMC3    H1 7839   0.044   3.231  10.157 -2.6611  0.3766 -0.0667
  524TMC3    H2 7840   4.733   3.643  10.250  0.2737 -0.1115  0.5506
  524TMC3    C7 7841   4.640   3.445  10.092  0.3662 -0.6895  0.5728
  524TMC3    C8 7842   0.206   3.656  10.405  0.1759  0.6462  0.2963
  524TMC3    O1 7843   4.598   3.337  10.050 -0.0658 -0.0204 -0.2775
  524TMC3    O2 7844   0.160   3.766  10.367  0.4078 -0.1757  0.3982
  525MPD2     C 7845   2.515   3.878  14.457  0.3651 -0.4635  0.2576
  525MPD2    C1 7846   2.600   3.898  14.564  0.6564 -0.3530  0.7780
  525MPD2    C2 7847   2.663   4.024  14.581  0.2516  0.8178 -0.0126
  525MPD2    C3 7848   2.655   4.119  14.476 -0.3735 -0.7797  1.3656
  525MPD2    C4 7849   2.574   4.092  14.372  0.7520  0.0123 -1.0610
  525MPD2    C5 7850   2.514   3.969  14.356 -0.0652 -0.7143  0.0636
  525MPD2     H 7851   2.718   4.036  14.673  3.5221 -1.8070 -1.6310
  525MPD2    H1 7852   2.563   4.164  14.291  0.0499  1.0985 -0.0011
  525MPD2    H2 7853   2.458   3.789  14.434 -1.1725  0.7709 -0.7335
  525MPD2    H3 7854   2.444   3.950  14.275 -0.7039 -0.8549  0.6493
  525MPD2     N 7855   2.717   4.246  14.486  0.1954  0.6717  0.0221
  525MPD2    H5 7856   2.695   4.310  14.411 -0.3854  1.5701  0.9770
  525MPD2    N1 7857   2.620   3.801  14.662 -0.1498 -1.0393  0.3472
  525MPD2    H7 7858   2.692   3.820  14.731 -0.2213  1.8493 -0.3799
  526TMC3    C1 7859   2.598   3.586  14.773 -0.9357 -0.7701  0.3165
  526TMC3    C2 7860   2.510   3.496  14.820  0.5867  0.0059  0.3752
  526TMC3    C3 7861   2.556   3.400  14.904  0.1274 -0.3286  0.1067
  526TMC3    C4 7862   2.729   3.603  14.816  0.2543  0.2689 -0.6318
  526TMC3    C5 7863   2.765   3.499  14.891  0.3105  0.3643 -0.2878
  526TMC3    C6 7864   2.685   3.402  14.938  0.2906  0.0614  0.0153
  526TMC3     C 7865   2.544   3.686  14.672 -0.3549  0.4705  0.0961
  526TMC3     O 7866   2.448   3.646  14.610  0.0511  0.0328 -0.4488
  526TMC3     H 7867   2.403   3.507  14.809  0.6872  0.5269 -0.0664
  526TMC3    H1 7868   2.801   3.672  14.773 -0.8190 -0.2796 -3.2837
  526TMC3    H2 7869   2.719   3.332  15.013  0.4890 -0.1779 -0.2988
  526TMC3    C7 7870   2.899   3.499  14.937  0.5600 -0.5280  0.0612
  526TMC3    C8 7871   2.478   3.357  15.013  0.8667 -0.1752 -0.5946
  526TMC3    O1 7872   2.958   3.607  14.930  0.2137 -0.3582  0.1300
  526TMC3    O2 7873   2.530   3.375  15.120  0.0703 -0.4795  0.3673
  527MPD2     C 7874   1.044   2.681   1.332 -0.3625  0.7764 -0.4075
  527MPD2    C1 7875   0.971   2.621   1.233 -0.3210 -0.6261 -0.3385
  527MPD2    C2 7876   1.034   2.525   1.159 -0.2924 -0.8055 -0.0762
  527MPD2    C3 7877   1.169   2.496   1.168 -1.0375 -0.4056  0.4769
  527MPD2    C4 7878   1.238   2.553   1.272 -0.6986  0.5905 -0.2309
  527MPD2    C5 7879   1.176   2.649   1.346  0.9858  0.0449  0.7528
  527MPD2     H 7880   0.977   2.478   1.079 -1.2434  0.2672 -0.0197
  527MPD2    H1 7881   1.346   2.550   1.269 -0.6702  0.1261  1.4053
  527MPD2    H2 7882   1.013   2.755   1.405 -0.2673  0.2294  0.1860
  527MPD2    H3 7883   1.238   2.704   1.416  0.3837 -0.0461  1.3541
  527MPD2     N 7884   1.223   2.412   1.071  0.0704 -0.1308  0.4984
  527MPD2    H5 7885   1.151   2.375   1.009  0.8318 -0.4229 -0.2218
  527MPD2    N1 7886   0.831   2.649   1.213 -0.4758 -0.6409 -0.2340
  527MPD2    H7 7887   0.779   2.581   1.158  1.7524 -1.4389 -1.3882
  528TMC3    C1 7888   0.625   2.757   1.222  0.0652 -0.2166 -0.8239
  528TMC3    C2 7889   0.557   2.646   1.199 -0.0378 -0.0862  0.3404
  528TMC3    C3 7890   0.427   2.654   1.155 -0.8877  0.0133  0.5634
  528TMC3    C4 7891   0.567   2.878   1.200  0.4350  0.9978  0.8809
  528TMC3    C5 7892   0.447   2.888   1.141  0.6286  0.3208 -0.1735
  528TMC3    C6 7893   0.370   2.775   1.122  0.5993  0.6011  0.6848
  528TMC3     C 7894   0.763   2.755   1.265  0.7213  0.3085 -0.4063
  528TMC3     O 7895   0.794   2.847   1.338  0.5763 -0.4624  0.0065
  528TMC3     H 7896   0.599   2.550   1.226  1.8604  0.1945 -1.5785
  528TMC3    H1 7897   0.636   2.961   1.212 -0.4310  1.8483 -0.0091
  528TMC3    H2 7898   0.267   2.786   1.090  1.5066 -2.2440 -3.2895
  528TMC3    C7 7899   0.427   2.992   1.050  0.0595  1.3600 -0.5920
  528TMC3    C8 7900   0.353   2.539   1.119  0.2584  0.2217  0.4190
  528TMC3    O1 7901   0.370   2.961   0.946  0.1115 -0.4365 -0.1561
  528TMC3    O2 7902   0.264   2.552   1.038  0.0643  0.5863 -0.4372
  529MPD2     C 7903   2.416   0.913   0.949 -0.0427 -0.3463 -0.1394
  529MPD2    C1 7904   2.496   0.834   0.867 -0.4562  0.3993  0.0863
  529MPD2    C2 7905   2.505   0.873   0.733 -1.1975  0.0771  0.1640
  529MPD2    C3 7906   2.435   0.985   0.688 -0.0547  0.5277  0.1405
  529MPD2    C4 7907   2.367   1.066   0.777 -0.4198 -0.6368 -0.7852
  529MPD2    C5 7908   2.355   1.031   0.906 -0.9847  0.4756 -0.1939
  529MPD2     H 7909   2.550   0.810   0.657 -2.9757 -1.7536  0.6286
  529MPD2    H1 7910   2.312   1.153   0.743 -0.0555  0.7785  2.2829
  529MPD2    H2 7911   2.409   0.902   1.056 -0.3474 -0.6135 -0.1866
  529MPD2    H3 7912   2.304   1.088   0.983 -1.9192 -1.7538  0.8510
  529MPD2     N 7913   2.441   1.025   0.551 -0.5185 -0.9831  0.2021
  529MPD2    H5 7914   2.383   1.106   0.527  1.0183 -0.3101 -1.2333
  529MPD2    N1 7915   2.565   0.725   0.928 -0.2274 -0.0395 -0.6364
  529MPD2    H7 7916   2.607   0.661   0.862 -0.7000  1.4192 -2.3496
  530TMC3    C1 7917   2.628   0.555   1.094  0.9300  0.5278  0.3109
  530TMC3    C2 7918   2.681   0.539   1.222  0.3207  0.2091 -0.2263
  530TMC3    C3 7919   2.756   0.435   1.249  0.4337  0.8514  0.2244
  530TMC3    C4 7920   2.670   0.471   0.994  0.3752 -0.0134  0.2143
  530TMC3    C5 7921   2.756   0.370   1.024 -0.2141  0.4757  0.4756
  530TMC3    C6 7922   2.804   0.358   1.153  0.2570 -0.0296  0.2162
  530TMC3     C 7923   2.565   0.681   1.062 -0.4424 -0.2380 -0.0580
  530TMC3     O 7924   2.516   0.735   1.164  0.0424  0.0082  0.0400
  530TMC3     H 7925   2.644   0.602   1.302 -0.3762  0.5046 -0.7865
  530TMC3    H1 7926   2.623   0.480   0.897  1.8761  4.0508 -0.0981
  530TMC3    H2 7927   2.880   0.281   1.159  2.7992  2.4468  0.1026
  530TMC3    C7 7928   2.760   0.268   0.926 -0.3874 -0.7058 -0.2926
  530TMC3    C8 7929   2.795   0.433   1.386 -0.1306  0.0545  0.8156
  530TMC3    O1 7930   2.730   0.296   0.809 -0.0313 -0.1981  0.6739
  530TMC3    O2 7931   2.720   0.490   1.466  0.0591 -0.0712  0.6308
  531MPD2     C 7932   2.168   2.870  13.346  0.0720 -0.0392  0.0805
  531MPD2    C1 7933   2.251   2.983  13.316 -0.1217 -0.1310 -0.4198
  531MPD2    C2 7934   2.188   3.070  13.228 -1.0369  0.1397  0.1720
  531MPD2    C3 7935   2.059   3.047  13.168 -0.1414 -0.4359  0.2862
  531MPD2    C4 7936   1.992   2.934  13.194  0.1653  0.1045 -0.1068
  531MPD2    C5 7937   2.050   2.848  13.288  0.6557  0.0745  0.0320
  531MPD2     H 7938   2.244   3.158  13.199  0.9513 -1.4541 -0.8335
  531MPD2    H1 7939   1.905   2.906  13.135  0.8042  1.6795 -1.7749
  531MPD2    H2 7940   2.219   2.789  13.396 -0.0785  0.8852  1.7466
  531MPD2    H3 7941   2.000   2.752  13.303  1.5361  0.2751  4.2915
  531MPD2     N 7942   2.012   3.133  13.066  0.2324 -0.2747 -0.4561
  531MPD2    H5 7943   1.947   3.095  12.997 -0.5994  0.4562 -0.0755
  531MPD2    N1 7944   2.386   2.983  13.362  0.7532  0.2438 -0.2645
  531MPD2    H7 7945   2.415   2.902  13.416  0.4874  0.1739 -0.2286
  532TMC3    C1 7946   2.621   2.993  13.345  0.0943 -0.5990  0.3412
  532TMC3    C2 7947   2.717   3.048  13.262 -0.1940 -0.6815  0.7745
  532TMC3    C3 7948   2.807   2.966  13.215  0.1602  0.0913 -0.2568
  532TMC3    C4 7949   2.630   2.866  13.398  0.3365 -0.3886 -0.6611
  532TMC3    C5 7950   2.734   2.789  13.359  0.3531  0.1380 -0.1058
  532TMC3    C6 7951   2.816   2.839  13.264 -0.6695  0.6119 -0.2129
  532TMC3     C 7952   2.490   3.051  13.307 -0.9152 -0.0774  0.0809
  532TMC3     O 7953   2.493   3.141  13.223  0.1313  0.2813 -0.3590
  532TMC3     H 7954   2.717   3.153  13.233 -1.2009 -1.2085 -1.1274
  532TMC3    H1 7955   2.547   2.829  13.459 -0.2869  1.9235 -0.1068
  532TMC3    H2 7956   2.894   2.782  13.216 -2.0795 -1.6841  0.2458
  532TMC3    C7 7957   2.780   2.678  13.441  0.3387 -0.3156 -1.0251
  532TMC3    C8 7958   2.806   2.970  13.070 -0.4400 -0.7358  0.2248
  532TMC3    O1 7959   2.906   2.677  13.441 -0.3028 -0.3137  0.3394
  532TMC3    O2 7960   2.877   2.881  13.015  0.7064 -0.2783 -0.2183
  533TMC3    C1 7961   2.816   4.424  14.605 -1.0564 -0.2054  0.1618
  533TMC3    C2 7962   2.938   4.472  14.591 -0.9035 -0.2882  0.0248
  533TMC3    C3 7963   2.984   4.565  14.682 -0.0945 -0.2078  0.1913
  533TMC3    C4 7964   2.737   4.466  14.712  0.2529 -0.5131 -0.5775
  533TMC3    C5 7965   2.783   4.573  14.784 -0.0954 -0.3060 -0.7111
  533TMC3    C6 7966   2.905   4.629  14.774  0.1825 -0.1080 -0.3584
  533TMC3     C 7967   2.808   4.282  14.582  0.1639  0.0378  0.1881
  533TMC3     O 7968   2.880   4.214  14.654  0.2547 -0.6201  0.2599
  533TMC3     H 7969   2.992   4.432  14.506  2.4398 -0.6682  2.3640
  533TMC3    H1 7970   2.652   4.403  14.735  0.4329 -0.2199  0.9074
  533TMC3    H2 7971   2.943   4.689  14.856 -1.0263  0.1626 -0.0036
  533TMC3    C7 7972   2.720   4.585  14.908  0.4362  0.2878  0.0761
  533TMC3    C8 7973   3.113   4.627  14.662  0.8356 -0.0678 -0.3135
  533TMC3    O1 7974   2.718   4.698  14.952  0.1706 -0.6525  1.1542
  533TMC3    O2 7975   3.128   0.007  14.697  0.1318 -0.0560 -0.6883
  534MPD2     C 7976   0.216   1.407   1.823  0.5852 -0.3560 -0.3640
  534MPD2    C1 7977   0.259   1.402   1.693 -0.2654  0.0005 -0.1887
  534MPD2    C2 7978   0.169   1.393   1.588 -0.5509  0.4471  0.6068
  534MPD2    C3 7979   0.033   1.387   1.615  0.1306  0.5454  0.1706
  534MPD2    C4 7980   4.732   1.379   1.744 -0.0119  0.3337  0.4542
  534MPD2    C5 7981   0.084   1.387   1.852  0.2220 -0.0167  0.8387
  534MPD2     H 7982   0.201   1.426   1.490  1.3553 -1.2251  0.6707
  534MPD2    H1 7983   4.629   1.396   1.773 -1.0577 -1.6579 -2.0894
  534MPD2    H2 7984   0.285   1.439   1.899 -1.2913 -0.2065  1.2820
  534MPD2    H3 7985   0.040   1.389   1.951 -0.8044  0.0267  0.3835
  534MPD2     N 7986   4.673   1.386   1.517  0.5368  0.3676 -0.0666
  534MPD2    H5 7987   4.578   1.370   1.548 -0.4068  2.2231 -2.0118
  534MPD2    N1 7988   0.392   1.438   1.659 -0.7764  0.2271 -0.6570
  534MPD2    H7 7989   0.420   1.437   1.561  2.1372 -2.7093  0.2117
  535TMC3    C1 7990   4.572   1.379   1.296  0.1404 -0.7836 -0.5938
  535TMC3    C2 7991   4.463   1.310   1.343 -0.6999  0.5070 -0.1517
  535TMC3    C3 7992   4.372   1.247   1.256  0.2702  0.2492 -0.0399
  535TMC3    C4 7993   4.592   1.375   1.163  0.0251  0.1505  0.7447
  535TMC3    C5 7994   4.508   1.311   1.078 -0.2253 -0.0951  0.4498
  535TMC3    C6 7995   4.395   1.247   1.117  0.2323 -0.7081  0.4210
  535TMC3     C 7996   4.698   1.386   1.376  0.2350 -0.3921  0.4568
  535TMC3     O 7997   0.056   1.405   1.308 -1.1050 -0.0296 -0.3774
  535TMC3     H 7998   4.461   1.287   1.449  2.6781  1.4468  0.1180
  535TMC3    H1 7999   4.669   1.436   1.117 -0.8890  0.2595 -0.6659
  535TMC3    H2 8000   4.329   1.199   1.045  0.5971 -1.7796  0.7919
  535TMC3    C7 8001   4.534   1.311   0.931  0.1479  0.2563  0.1521
  535TMC3    C8 8002   4.248   1.193   1.307 -0.0436 -0.8820  0.4403
  535TMC3    O1 8003   4.459   1.236   0.870 -0.5468  0.4231  0.1650
  535TMC3    O2 8004   4.175   1.140   1.226  0.0559 -0.1020  0.0725
  536MPD2     C 8005   3.446   2.974  16.653  0.1949  0.1512 -0.6021
  536MPD2    C1 8006   3.459   3.108  16.679  0.2452  0.2643  0.3663
  536MPD2    C2 8007   3.412   3.195  16.588  0.6054  0.4084  0.7990
  536MPD2    C3 8008   3.347   3.159  16.467 -0.1838  0.4065  0.4194
  536MPD2    C4 8009   3.343   3.022  16.439  0.1522 -0.3332 -0.3018
  536MPD2    C5 8010   3.400   2.932  16.527  0.0228  0.3011  0.1434
  536MPD2     H 8011   3.419   3.301  16.605 -1.8244  0.4885  1.3275
  536MPD2    H1 8012   3.292   2.992  16.348 -1.0228  3.0927 -0.7883
  536MPD2    H2 8013   3.477   2.893  16.718 -2.9764 -1.8052 -1.5444
  536MPD2    H3 8014   3.393   2.827  16.500 -3.1728  0.4493  0.3038
  536MPD2     N 8015   3.307   3.259  16.373 -0.0515  0.1183 -0.0106
  536MPD2    H5 8016   3.247   3.220  16.301 -0.9712  1.3364  0.0898
  536MPD2    N1 8017   3.515   3.150  16.801 -0.0812  0.8550  0.1858
  536MPD2    H7 8018   3.529   3.085  16.877 -1.3573 -1.1935 -1.2988
  537TMC3    C1 8019   3.554   3.308  16.974 -0.7723 -0.1359  0.9232
  537TMC3    C2 8020   3.612   3.425  17.009 -0.0944  0.0950  0.3717
  537TMC3    C3 8021   3.581   3.474  17.131 -0.2347 -0.3503 -0.0448
  537TMC3    C4 8022   3.488   3.230  17.063  0.6913  0.3118  0.2502
  537TMC3    C5 8023   3.485   3.277  17.185  0.1530  0.2212  0.3233
  537TMC3    C6 8024   3.528   3.402  17.232  0.5888 -0.0919 -0.0259
  537TMC3     C 8025   3.535   3.283  16.831  0.6878  0.6171  0.3104
  537TMC3     O 8026   3.554   3.387  16.766 -0.9061 -0.1187  0.3473
  537TMC3     H 8027   3.665   3.481  16.932 -0.5642  0.2325  0.1449
  537TMC3    H1 8028   3.430   3.143  17.036  0.8900  0.6470 -1.2316
  537TMC3    H2 8029   3.513   3.443  17.331  0.2302 -1.2175  0.3837
  537TMC3    C7 8030   3.502   3.187  17.287  0.9373  0.0462  0.2017
  537TMC3    C8 8031   3.644   3.596  17.172 -0.2471 -0.2555 -0.5891
  537TMC3    O1 8032   3.526   3.239  17.394  0.3512  0.0852  0.3891
  537TMC3    O2 8033   3.684   3.600  17.287  0.0493 -0.0969 -0.7562
  538TMC3    C1 8034   0.722   2.250  11.238  0.4487  0.3609  1.2299
  538TMC3    C2 8035   0.836   2.229  11.162  0.0037 -0.4624 -0.2563
  538TMC3    C3 8036   0.860   2.317  11.063  0.8472 -0.2819  0.0454
  538TMC3    C4 8037   0.642   2.355  11.228  0.1377  0.2248  0.5637
  538TMC3    C5 8038   0.664   2.439  11.121  0.4221 -0.2569  0.0868
  538TMC3    C6 8039   0.774   2.421  11.044  0.3973 -0.1360  0.5243
  538TMC3     C 8040   0.700   2.146  11.337 -0.0681  0.6020 -0.1663
  538TMC3     O 8041   0.762   2.045  11.319  0.2201  0.4956 -0.0879
  538TMC3     H 8042   0.911   2.152  11.178 -2.0983 -1.8728  2.6553
  538TMC3    H1 8043   0.550   2.369  11.284  0.3419 -0.1884  1.0006
  538TMC3    H2 8044   0.796   2.483  10.958  2.2981 -2.9384 -1.0255
  538TMC3    C7 8045   0.544   2.495  11.057 -0.2092 -0.0220  0.4420
  538TMC3    C8 8046   1.000   2.347  11.067  0.2639 -0.2703 -0.5308
  538TMC3    O1 8047   0.435   2.467  11.110  0.8040  0.4498  0.1884
  538TMC3    O2 8048   1.059   2.332  11.175  0.1354 -0.4302  0.4863
  539MPD2     C 8049   0.162   1.068  11.692  0.0093  0.7831 -0.3531
  539MPD2    C1 8050   0.266   1.140  11.646  0.1839  0.1346  0.0363
  539MPD2    C2 8051   0.285   1.267  11.691 -0.0511 -0.2400  0.0098
  539MPD2    C3 8052   0.211   1.327  11.794  0.7665  0.0145  0.4866
  539MPD2    C4 8053   0.103   1.250  11.845  0.6897 -0.3817  0.0793
  539MPD2    C5 8054   0.089   1.121  11.796 -0.1754 -0.5223  0.4821
  539MPD2     H 8055   0.359   1.320  11.631 -0.0188  0.2072  0.4417
  539MPD2    H1 8056   0.041   1.281  11.929  1.6654 -2.2369  1.4732
  539MPD2    H2 8057   0.138   0.969  11.654  0.5604  0.0870  1.1063
  539MPD2    H3 8058   0.018   1.048  11.833 -2.1132  0.1607 -1.8769
  539MPD2     N 8059   0.231   1.466  11.833  0.5359 -0.3285  0.3773
  539MPD2    H5 8060   0.166   1.489  11.908  1.9017  1.4924  1.0056
  539MPD2    N1 8061   0.357   1.085  11.556 -0.3257  0.3762  0.4439
  539MPD2    H7 8062   0.423   1.153  11.521  0.3508 -0.7389 -0.4601
  540TMC3    C1 8063   0.299   1.691  11.807  0.4962  0.3732  0.1784
  540TMC3    C2 8064   0.321   1.777  11.703  0.3194 -0.1507  0.2587
  540TMC3    C3 8065   0.301   1.911  11.732 -0.5059 -0.1429 -0.2573
  540TMC3    C4 8066   0.279   1.733  11.937  0.0186 -0.0528 -0.2795
  540TMC3    C5 8067   0.261   1.867  11.964 -0.5855  0.0998  0.6077
  540TMC3    C6 8068   0.267   1.958  11.860 -1.2294  0.0265  0.5010
  540TMC3     C 8069   0.328   1.555  11.781  0.0619 -0.5409  0.2501
  540TMC3     O 8070   0.394   1.538  11.678  0.1039  0.1494 -0.4807
  540TMC3     H 8071   0.344   1.741  11.604 -2.5025  2.0879 -1.1803
  540TMC3    H1 8072   0.266   1.666  12.021 -0.5895 -0.2191 -0.4999
  540TMC3    H2 8073   0.229   2.057  11.882  3.1504  1.9166 -0.4147
  540TMC3    C7 8074   0.146   1.894  12.056  0.3196 -0.1310 -0.3976
  540TMC3    C8 8075   0.286   1.998  11.622 -0.2970 -0.5330 -0.4094
  540TMC3    O1 8076   0.055   1.967  12.018 -0.4890  0.6086  0.7490
  540TMC3    O2 8077   0.282   2.117  11.649 -0.0060  0.1294 -0.2493
  541MPD2     C 8078   3.120   3.010  13.345  0.4061  0.4386 -0.3003
  541MPD2    C1 8079   3.169   2.940  13.238 -0.1459  0.0146  0.5593
  541MPD2    C2 8080   3.239   3.000  13.131 -0.3480  0.0695 -0.3592
  541MPD2    C3 8081   3.253   3.139  13.127 -0.1237  0.0311 -0.4031
  541MPD2    C4 8082   3.184   3.213  13.228  0.6237  0.0951 -0.4761
  541MPD2    C5 8083   3.125   3.151  13.335  0.3635  0.3438 -0.3038
  541MPD2     H 8084   3.278   2.941  13.049 -1.1388 -0.5557 -0.2762
  541MPD2    H1 8085   3.190   3.321  13.235 -0.2808 -0.0083  1.6204
  541MPD2    H2 8086   3.089   2.975  13.442 -2.4473 -0.2744 -1.4802
  541MPD2    H3 8087   3.074   3.207  13.412  2.2973 -1.0702  2.0114
  541MPD2     N 8088   3.316   3.210  13.019  0.0310 -0.0571 -0.7910
  541MPD2    H5 8089   3.302   3.310  13.010  0.3420 -0.0089 -0.6978
  541MPD2    N1 8090   3.148   2.799  13.239  0.3357  0.7255 -0.1713
  541MPD2    H7 8091   3.090   2.764  13.315  1.2188  1.6875  0.9552
  542TMC3    C1 8092   3.411   3.236  12.800  1.4157 -0.4661 -0.4386
  542TMC3    C2 8093   3.450   3.157  12.690  0.0231  0.0158  0.3338
  542TMC3    C3 8094   3.411   3.191  12.561  1.0555 -0.1565  0.3419
  542TMC3    C4 8095   3.318   3.331  12.771 -0.6111  0.2223 -0.3838
  542TMC3    C5 8096   3.282   3.372  12.642  0.1152 -0.5596  0.0284
  542TMC3    C6 8097   3.332   3.301  12.533  0.0788  0.7705  0.4265
  542TMC3     C 8098   3.400   3.155  12.925 -0.0832 -0.5905  0.4837
  542TMC3     O 8099   3.447   3.044  12.932  0.0575  0.3683 -0.2288
  542TMC3     H 8100   3.530   3.084  12.700  2.4016  2.6413  0.3631
  542TMC3    H1 8101   3.276   3.387  12.854 -0.6179  1.6296 -1.3273
  542TMC3    H2 8102   3.304   3.311  12.429 -0.0987  1.6698  0.5594
  542TMC3    C7 8103   3.181   3.476  12.630  0.8378  0.2217 -0.1389
  542TMC3    C8 8104   3.461   3.116  12.444 -0.2021 -0.0309 -0.9768
  542TMC3    O1 8105   3.149   3.553  12.726 -0.2655  0.1936  0.2043
  542TMC3    O2 8106   3.482   3.186  12.343 -0.3857  0.1301  0.3653
  543TMC3    C1 8107   2.245   4.490  17.507 -0.3312  0.5300  0.2098
  543TMC3    C2 8108   2.260   4.410  17.613 -0.1931  0.6213 -0.8569
  543TMC3    C3 8109   2.306   4.467  17.728  0.2550  0.2652  0.2509
  543TMC3    C4 8110   2.270   4.623  17.517 -0.1810  0.1305 -0.3151
  543TMC3    C5 8111   2.308   4.679  17.634 -0.2770 -0.0061  0.1401
  543TMC3    C6 8112   2.329   4.596  17.743  0.8680 -0.9482  0.6650
  543TMC3     C 8113   2.248   4.428  17.375 -0.6850 -0.1509  0.0737
  543TMC3     O 8114   2.281   4.311  17.370  0.1097  0.6461 -0.1297
  543TMC3     H 8115   2.220   4.309  17.602 -1.8190  0.8931  2.5114
  543TMC3    H1 8116   2.229   4.697  17.450  0.1328 -0.1654 -0.8352
  543TMC3    H2 8117   2.342   4.629   0.093  0.8382  0.2551  0.2761
  543TMC3    C7 8118   2.363   0.078  17.628 -1.2441 -0.4843 -0.0495
  543TMC3    C8 8119   2.284   4.398   0.103 -0.1478  0.0409 -0.2377
  543TMC3    O1 8120   2.372   0.140  17.731 -0.0134  0.2494 -1.1348
  543TMC3    O2 8121   2.228   4.463   0.194 -0.5045 -0.5222 -0.1158
  544MPD2     C 8122   2.229   3.950   0.338  0.7307 -0.5438 -0.4357
  544MPD2    C1 8123   2.280   3.924   0.216  0.3120  0.6522  0.6447
  544MPD2    C2 8124   2.308   4.031   0.133  0.0131 -0.0717  0.6505
  544MPD2    C3 8125   2.281   4.160   0.175 -1.1608  0.0511  0.1973
  544MPD2    C4 8126   2.221   4.183   0.297  0.1288 -0.1035 -0.1774
  544MPD2    C5 8127   2.200   4.079   0.377 -0.5511 -0.8372  0.3709
  544MPD2     H 8128   2.369   4.020   0.044 -0.6539  0.3202  0.1373
  544MPD2    H1 8129   2.214   4.278   0.348  1.6409  0.4123 -0.9216
  544MPD2    H2 8130   2.211   3.865   0.403  0.5247  0.8384  1.3191
  544MPD2    H3 8131   2.146   4.088   0.471  0.9071  0.2951  1.0936
  544MPD2     N 8132   2.327   4.265   0.091  0.4211 -0.2427 -0.1356
  544MPD2    H5 8133   2.399   4.255   0.021  0.3878  0.5130 -0.2815
  544MPD2    N1 8134   2.300   3.787   0.184 -0.0576  0.0098  0.4280
  544MPD2    H7 8135   2.259   3.723   0.251  0.5189 -1.1008 -0.2936
  545TMC3    C1 8136   2.365   3.600   0.066 -0.3997  0.4405  0.5029
  545TMC3    C2 8137   2.461   3.544  17.741  0.1007 -0.2734 -0.4256
  545TMC3    C3 8138   2.448   3.410  17.709  0.1421  0.6485  0.4024
  545TMC3    C4 8139   2.257   3.525   0.105  0.8017  0.4590  0.4934
  545TMC3    C5 8140   2.253   3.392   0.077 -0.8758 -0.9182  0.7371
  545TMC3    C6 8141   2.342   3.332  17.750 -0.0825 -0.8301  0.1557
  545TMC3     C 8142   2.359   3.739   0.070 -0.8953 -0.4052  0.6257
  545TMC3     O 8143   2.417   3.801  17.736  0.1421 -0.5045 -0.6078
  545TMC3     H 8144   2.530   3.618  17.704 -2.5535  1.9230 -0.9259
  545TMC3    H1 8145   2.193   3.565   0.183  1.6642  0.2604  1.3118
  545TMC3    H2 8146   2.323   3.234  17.710  3.7318 -1.4973 -0.0230
  545TMC3    C7 8147   2.120   3.333   0.093 -0.4290  0.2369  0.1387
  545TMC3    C8 8148   2.527   3.354  17.602 -0.5839 -0.2283  0.1815
  545TMC3    O1 8149   2.023   3.408   0.076  0.3013  0.0364  0.6470
  545TMC3    O2 8150   2.482   3.257  17.544 -0.3589  0.0590 -0.5479
  546MPD2     C 8151   3.809   4.195   0.129 -0.0161  0.4848 -0.0545
  546MPD2    C1 8152   3.793   4.224  17.745 -0.4680 -0.1223  0.2761
  546MPD2    C2 8153   3.864   4.334  17.695 -0.3586 -0.2929 -0.0816
  546MPD2    C3 8154   3.947   4.408   0.030  0.1878  0.8221  0.5583
  546MPD2    C4 8155   3.959   4.377   0.165 -0.0817 -0.9245  0.0023
  546MPD2    C5 8156   3.886   4.274   0.211 -0.0249  0.1934 -0.1239
  546MPD2     H 8157   3.864   4.370  17.593  0.7177  0.1294  0.0750
  546MPD2    H1 8158   4.007   4.443   0.235  2.1774 -0.3002 -2.1451
  546MPD2    H2 8159   3.754   4.118   0.181  1.7568  0.7124  2.1942
  546MPD2    H3 8160   3.885   4.256   0.318 -2.2403 -2.9501 -0.6653
  546MPD2     N 8161   4.034   4.510  17.740 -0.1254  0.1862  0.3885
  546MPD2    H5 8162   4.075   4.564   0.064  0.3934 -1.2590  1.1461
  546MPD2    N1 8163   3.703   4.152  17.671  0.5733  0.3117 -0.4857
  546MPD2    H7 8164   3.656   4.074  17.716 -0.9851  0.4332 -1.8878
  547TMC3    C1 8165   3.587   4.081  17.476  0.6704  0.1071 -0.0965
  547TMC3    C2 8166   3.520   4.123  17.359 -0.2701  0.6450  0.0895
  547TMC3    C3 8167   3.404   4.056  17.331 -0.0904 -0.6410 -0.2897
  547TMC3    C4 8168   3.546   3.974  17.550 -0.2068  0.3368 -0.3953
  547TMC3    C5 8169   3.431   3.912  17.517 -0.7301 -0.0500  0.2614
  547TMC3    C6 8170   3.355   3.952  17.413  0.1266  0.0822  1.0429
  547TMC3     C 8171   3.686   4.171  17.538 -0.3152  0.1629  0.1123
  547TMC3     O 8172   3.721   4.253  17.461 -0.0816  0.1111  0.8001
  547TMC3     H 8173   3.549   4.213  17.305 -3.6492  1.1811 -0.7808
  547TMC3    H1 8174   3.611   3.936  17.627  0.4318  1.0094 -0.6019
  547TMC3    H2 8175   3.268   3.893  17.385  1.4286  0.1783 -3.2210
  547TMC3    C7 8176   3.382   3.825  17.619  0.6863 -0.0773  0.2312
  547TMC3    C8 8177   3.322   4.098  17.219  0.4426  1.4136 -0.6384
  547TMC3    O1 8178   3.415   3.850  17.732  0.0185 -0.3981  0.3169
  547TMC3    O2 8179   3.205   4.056  17.206 -0.4067  0.1423 -0.9263
  548MPD2     C 8180   3.758   0.097  13.109  0.3927  0.4516  0.9490
  548MPD2    C1 8181   3.716   0.006  13.022 -1.4363  0.4458 -0.0512
  548MPD2    C2 8182   3.805   4.645  12.986 -0.5439  0.2386  0.1005
  548MPD2    C3 8183   3.937   4.642  13.036 -0.1576 -0.2651 -0.1011
  548MPD2    C4 8184   3.974   4.730  13.126 -0.1536  0.1734 -0.8046
  548MPD2    C5 8185   3.884   0.085  13.162 -0.2755  0.2425 -1.2741
  548MPD2     H 8186   3.765   4.570  12.919  0.1873  0.8028 -0.9803
  548MPD2    H1 8187   4.070   4.728  13.177 -1.1496 -0.4887  1.0593
  548MPD2    H2 8188   3.694   0.178  13.143 -1.1438 -0.3596  0.0250
  548MPD2    H3 8189   3.918   0.162  13.230  1.9755 -1.9589  0.1132
  548MPD2     N 8190   4.012   4.539  12.979 -0.2565 -0.1021  0.9656
  548MPD2    H5 8191   3.976   4.458  12.930 -0.8448 -0.1522  1.4773
  548MPD2    N1 8192   3.590   0.030  12.962 -0.6671 -0.4082  0.6013
  548MPD2    H7 8193   3.537   0.112  12.989 -1.8991 -0.4616 -1.6163
  549TMC3    C1 8194   3.427   0.023  12.796 -0.3310  0.4577  0.4268
  549TMC3    C2 8195   3.376   0.152  12.833  0.3431  0.6602  0.4423
  549TMC3    C3 8196   3.258   0.188  12.774 -0.4262  0.4884  0.7510
  549TMC3    C4 8197   3.351   4.678  12.710 -0.3802  0.5142  0.0184
  549TMC3    C5 8198   3.234   4.726  12.661 -0.0387  0.9146  0.2928
  549TMC3    C6 8199   3.187   0.107  12.689 -0.3434 -0.1252 -0.5146
  549TMC3     C 8200   3.552   4.706  12.843 -0.2996 -0.0321  0.9176
  549TMC3     O 8201   3.597   4.612  12.780 -0.0544 -0.2543 -0.2667
  549TMC3     H 8202   3.431   0.224  12.893 -0.6276  0.7778  1.1844
  549TMC3    H1 8203   3.393   4.586  12.672  1.7279  1.0657  1.0116
  549TMC3    H2 8204   3.099   0.133  12.632 -0.4421 -0.3213 -0.4520
  549TMC3    C7 8205   3.134   4.625  12.625 -0.3175  0.8873 -0.4591
  549TMC3    C8 8206   3.222   0.329  12.770 -0.1108 -0.2078 -0.3688
  549TMC3    O1 8207   3.020   4.658  12.650 -0.3532 -0.7750  0.4176
  549TMC3    O2 8208   3.110   0.365  12.806  0.8753  0.0803  0.5752
  550TMC3    C1 8209   3.168   2.870  12.018 -0.4514  0.6926  0.6161
  550TMC3    C2 8210   3.184   2.914  12.146 -0.3455 -0.1854  0.2511
  550TMC3    C3 8211   3.184   3.048  12.173 -1.1475 -0.0275  0.0862
  550TMC3    C4 8212   3.159   2.956  11.917 -0.2946  0.4922  0.5948
  550TMC3    C5 8213   3.166   3.090  11.940 -0.9605 -0.2345  0.1844
  550TMC3    C6 8214   3.176   3.142  12.065 -0.8060 -0.1782 -0.5266
  550TMC3     C 8215   3.119   2.738  11.998  0.2881 -0.6023  0.5248
  550TMC3     O 8216   3.169   2.640  12.053  0.3104  0.0248  0.0076
  550TMC3     H 8217   3.160   2.836  12.217 -1.0142 -1.2301 -1.1303
  550TMC3    H1 8218   3.123   2.920  11.821  0.2881 -1.0673  0.9776
  550TMC3    H2 8219   3.163   3.249  12.078 -0.8369 -0.4522  1.6155
  550TMC3    C7 8220   3.115   3.174  11.837 -0.1180 -0.5732 -0.7524
  550TMC3    C8 8221   3.119   3.095  12.293 -0.0691  0.1608 -0.1975
  550TMC3    O1 8222   3.192   3.221  11.753 -0.2678 -0.0006 -0.0042
  550TMC3    O2 8223   3.076   3.208  12.291 -0.0882 -0.5110 -0.2212
  551TMC3    C1 8224   0.269   0.400  13.398  0.3149  0.3484 -0.5362
  551TMC3    C2 8225   0.386   0.354  13.348  0.6069 -0.1053  0.1292
  551TMC3    C3 8226   0.496   0.360  13.429  0.0339 -0.6106 -0.0776
  551TMC3    C4 8227   0.240   0.453  13.520  0.1322  0.2046 -0.1151
  551TMC3    C5 8228   0.358   0.453  13.593 -0.0575  0.3495  0.4946
  551TMC3    C6 8229   0.483   0.415  13.551  0.8961  0.2588  0.3564
  551TMC3     C 8230   0.167   0.386  13.299 -0.1790 -0.0672  0.9156
  551TMC3     O 8231   0.180   0.295  13.217 -0.1116  0.1399  0.4064
  551TMC3     H 8232   0.401   0.323  13.245 -1.0485 -0.0531 -0.1320
  551TMC3    H1 8233   0.147   0.479  13.568 -0.9506  0.6952 -2.5055
  551TMC3    H2 8234   0.567   0.425  13.618  1.3754 -2.0492  0.1237
  551TMC3    C7 8235   0.364   0.513  13.723  0.3459  0.2997 -0.2505
  551TMC3    C8 8236   0.619   0.375  13.354 -0.2014 -0.2377  0.1376
  551TMC3    O1 8237   0.421   0.452  13.815  0.2895 -0.2362  0.3651
  551TMC3    O2 8238   0.629   0.304  13.259 -0.5627 -0.3932  0.6230
  552MPD2     C 8239   2.264   2.403  13.997 -0.2349 -0.6922 -0.8734
  552MPD2    C1 8240   2.209   2.321  14.092 -0.0440  0.3669  0.2562
  552MPD2    C2 8241   2.295   2.242  14.177  0.3493 -1.3337 -0.2235
  552MPD2    C3 8242   2.432   2.252  14.165 -0.3776 -0.9297 -0.3572
  552MPD2    C4 8243   2.480   2.335  14.072  0.4075 -0.3477  0.1137
  552MPD2    C5 8244   2.398   2.405  13.981  0.5829  0.0714  0.1706
  552MPD2     H 8245   2.251   2.176  14.251 -0.6528  0.6713  0.9552
  552MPD2    H1 8246   2.587   2.343  14.054  0.7984 -1.4709  1.8899
  552MPD2    H2 8247   2.200   2.466  13.936 -2.9771 -1.7272  0.9348
  552MPD2    H3 8248   2.442   2.466  13.903 -1.2394  0.3999 -0.5953
  552MPD2     N 8249   2.530   2.191  14.248 -0.1398 -0.9613 -0.2417
  552MPD2    H5 8250   2.626   2.193  14.216  0.3777  0.2617  1.3767
  552MPD2    N1 8251   2.071   2.300  14.110 -0.5782 -0.8137  0.3014
  552MPD2    H7 8252   2.045   2.225  14.172  1.7153 -2.4940 -0.7577
  553TMC3    C1 8253   1.836   2.335  14.084 -0.1505  0.2214 -0.1207
  553TMC3    C2 8254   1.736   2.392  14.010 -0.3496  0.6507  0.2212
  553TMC3    C3 8255   1.637   2.305  13.964 -0.1696  0.4877 -0.1524
  553TMC3    C4 8256   1.823   2.212  14.144  0.7529 -0.4895  0.4385
  553TMC3    C5 8257   1.728   2.130  14.088 -0.3790 -0.2139  0.2296
  553TMC3    C6 8258   1.627   2.175  14.009  0.7483  0.3493 -0.2807
  553TMC3     C 8259   1.973   2.376  14.053 -0.5316 -0.7820 -0.1393
  553TMC3     O 8260   1.973   2.477  13.986 -0.5984  0.8943 -0.0375
  553TMC3     H 8261   1.741   2.494  13.974 -1.4662 -0.2669 -2.4876
  553TMC3    H1 8262   1.900   2.154  14.194 -0.5347 -1.8331  0.8592
  553TMC3    H2 8263   1.562   2.102  13.961  0.3046  0.4749  0.1344
  553TMC3    C7 8264   1.736   1.986  14.096 -0.4513 -0.0798 -0.2823
  553TMC3    C8 8265   1.618   2.321  13.817  0.5541 -0.6904 -0.4200
  553TMC3    O1 8266   1.629   1.935  14.132 -0.2656  0.0783  0.6412
  553TMC3    O2 8267   1.707   2.377  13.755  0.1572  0.6394  0.3492
  554TMC3    C1 8268   3.801   1.851  11.579  0.5422 -0.6460 -0.2006
  554TMC3    C2 8269   3.705   1.842  11.478 -0.2700 -0.4209 -0.2727
  554TMC3    C3 8270   3.727   1.905  11.361  0.5188  0.5471 -0.4864
  554TMC3    C4 8271   3.922   1.909  11.552  0.6325  0.0533  0.5205
  554TMC3    C5 8272   3.942   1.956  11.424  0.1508  0.6170  0.1649
  554TMC3    C6 8273   3.842   1.964  11.339  0.8038 -0.1694 -0.3040
  554TMC3     C 8274   3.783   1.771  11.698  0.1619 -0.4799  0.2490
  554TMC3     O 8275   3.676   1.719  11.729  0.5410  1.1319  0.0023
  554TMC3     H 8276   3.624   1.770  11.486  0.8603 -1.4428  2.0602
  554TMC3    H1 8277   3.994   1.934  11.630  0.1095  0.7483  0.7760
  554TMC3    H2 8278   3.865   1.994  11.237 -2.5552 -0.3378 -1.1276
  554TMC3    C7 8279   4.078   1.980  11.376 -0.5227  1.0937 -0.5994
  554TMC3    C8 8280   3.650   1.872  11.242 -0.1457  0.5281 -0.3931
  554TMC3    O1 8281   4.087   2.008  11.257 -0.0457 -0.0311 -0.4464
  554TMC3    O2 8282   3.654   1.963  11.162 -0.2446 -0.1337 -0.7381
  555TMC3    C1 8283   2.679   0.945  15.221 -0.5155  0.0127  0.2169
  555TMC3    C2 8284   2.767   1.035  15.280  0.1889  0.0097 -0.0690
  555TMC3    C3 8285   2.804   1.014  15.407 -0.5370 -0.0090 -0.1697
  555TMC3    C4 8286   2.635   0.829  15.277  0.1463 -0.3330  0.4098
  555TMC3    C5 8287   2.668   0.810  15.407 -0.2236 -0.5037  0.0881
  555TMC3    C6 8288   2.754   0.899  15.472  0.3532 -0.8759 -0.2103
  555TMC3     C 8289   2.622   0.979  15.092 -0.4492  0.5452  0.3113
  555TMC3     O 8290   2.503   0.953  15.068  0.7407  0.1105  0.3237
  555TMC3     H 8291   2.792   1.130  15.233 -1.0769  0.9276  1.0995
  555TMC3    H1 8292   2.574   0.758  15.222  1.0657  0.0086 -1.0581
  555TMC3    H2 8293   2.759   0.894  15.580 -0.8044 -0.8523 -0.1563
  555TMC3    C7 8294   2.641   0.680  15.463  0.4966  0.2665 -0.0435
  555TMC3    C8 8295   2.881   1.113  15.476  0.4304  0.3442 -0.1400
  555TMC3    O1 8296   2.576   0.610  15.384  0.1404  0.2387 -0.0474
  555TMC3    O2 8297   2.892   1.224  15.426 -0.6720  0.4231 -0.3802
  556MPD2     C 8298   1.411   3.430  10.776 -0.2572 -0.1528 -0.6135
  556MPD2    C1 8299   1.355   3.314  10.836  0.0508  0.7009  0.0646
  556MPD2    C2 8300   1.325   3.205  10.758  0.6141  0.0281 -0.0635
  556MPD2    C3 8301   1.356   3.200  10.625  1.2688  0.2316 -0.2993
  556MPD2    C4 8302   1.401   3.313  10.565 -0.3217  0.1155 -0.3517
  556MPD2    C5 8303   1.424   3.426  10.637  0.3009 -0.1642  0.8966
  556MPD2     H 8304   1.276   3.118  10.799  0.7732  0.1133  0.3078
  556MPD2    H1 8305   1.434   3.321  10.463 -1.1077  0.9377 -0.5421
  556MPD2    H2 8306   1.434   3.521  10.831 -2.8038 -1.0159  1.8655
  556MPD2    H3 8307   1.477   3.511  10.596  1.0351 -0.7610  0.6304
  556MPD2     N 8308   1.339   3.079  10.553  0.6465  0.1951  0.5878
  556MPD2    H5 8309   1.295   3.006  10.608  0.1285  1.4848  1.8653
  556MPD2    N1 8310   1.339   3.305  10.973 -0.2309  0.3435 -0.1381
  556MPD2    H7 8311   1.285   3.223  11.001 -1.7635  1.1686 -0.6730
  557TMC3    C1 8312   1.373   2.909  10.394  0.4842  0.7650 -0.2714
  557TMC3    C2 8313   1.397   2.879  10.261  0.1616 -0.0664 -0.2350
  557TMC3    C3 8314   1.403   2.748  10.224 -0.3376  0.7785  0.1997
  557TMC3    C4 8315   1.370   2.820  10.490  0.3040 -0.1016 -0.0232
  557TMC3    C5 8316   1.389   2.691  10.447  0.6193 -0.2452 -0.4579
  557TMC3    C6 8317   1.399   2.647  10.321  0.2312  0.2304  0.5688
  557TMC3     C 8318   1.377   3.050  10.429  0.1088 -0.5046 -0.1970
  557TMC3     O 8319   1.434   3.122  10.348 -0.7395 -0.7616 -0.2951
  557TMC3     H 8320   1.401   2.959  10.188 -2.3976  1.0387  0.8257
  557TMC3    H1 8321   1.362   2.849  10.594 -0.8540 -1.6386  0.3147
  557TMC3    H2 8322   1.395   2.542  10.296 -1.9125  0.1957  1.0606
  557TMC3    C7 8323   1.335   2.596  10.538  0.2051 -0.2988 -0.2617
  557TMC3    C8 8324   1.370   2.722  10.087 -0.4133  0.6360  0.0484
  557TMC3    O1 8325   1.222   2.545  10.510  0.0283 -0.6465 -0.7613
  557TMC3    O2 8326   1.346   2.822  10.023  0.0111 -0.4781 -0.7236
  558TMC3    C1 8327   3.629   0.956  10.361 -0.1967  0.1051 -0.0340
  558TMC3    C2 8328   3.548   0.866  10.424  0.6276 -0.3946 -0.2851
  558TMC3    C3 8329   3.467   0.789  10.351 -0.8284  0.7779  0.6695
  558TMC3    C4 8330   3.626   0.960  10.224 -0.5266 -0.0507  0.3160
  558TMC3    C5 8331   3.547   0.871  10.158 -0.9147 -0.0430 -0.8404
  558TMC3    C6 8332   3.470   0.779  10.220 -0.6605 -0.1300 -0.5678
  558TMC3     C 8333   3.759   0.992  10.419 -0.2354  0.3200 -0.6831
  558TMC3     O 8334   3.833   1.064  10.356  0.4432 -0.0885  0.2877
  558TMC3     H 8335   3.543   0.854  10.532  0.9112  0.6040 -0.1624
  558TMC3    H1 8336   3.697   1.021  10.168 -0.8527 -1.1220 -1.2642
  558TMC3    H2 8337   3.387   0.731  10.169 -0.7376  0.3740 -0.9181
  558TMC3    C7 8338   3.536   0.896  10.012  0.4085 -0.1315 -0.0252
  558TMC3    C8 8339   3.337   0.756  10.420  0.8447  0.3645 -0.6116
  558TMC3    O1 8340   3.578   1.001   9.965  0.2969  0.6205  0.5763
  558TMC3    O2 8341   3.278   0.668  10.363  0.0082  0.2367  0.4095
  559MPD2     C 8342   3.827   1.421  10.396 -0.4809 -0.1386 -0.2373
  559MPD2    C1 8343   3.751   1.372  10.496 -0.3963 -1.0357 -0.3088
  559MPD2    C2 8344   3.809   1.377  10.623 -0.0441 -0.3806 -0.6276
  559MPD2    C3 8345   3.932   1.430  10.645 -0.2327  0.4810  0.3945
  559MPD2    C4 8346   4.014   1.460  10.544 -0.2097 -0.2484  0.8451
  559MPD2    C5 8347   3.961   1.454  10.418 -0.3782  0.2490  0.0423
  559MPD2     H 8348   3.752   1.351  10.711 -0.8394  2.2749 -0.3762
  559MPD2    H1 8349   4.113   1.503  10.552 -1.4231  2.4090  1.6952
  559MPD2    H2 8350   3.804   1.412  10.290 -0.7865  0.7569 -0.2481
  559MPD2    H3 8351   4.020   1.491  10.335 -1.3857  0.6449 -0.5083
  559MPD2     N 8352   3.979   1.445  10.778 -0.1312 -0.4915 -0.1547
  559MPD2    H5 8353   3.914   1.415  10.849 -0.4360  0.9964  0.1938
  559MPD2    N1 8354   3.618   1.327  10.469  0.5830 -0.5029  0.5006
  559MPD2    H7 8355   3.576   1.347  10.378  1.2265  0.1499  0.3461
  560TMC3    C1 8356   4.114   1.457  10.967 -0.4304 -0.3297  0.6777
  560TMC3    C2 8357   3.992   1.433  11.026  0.0999 -0.2299  0.5820
  560TMC3    C3 8358   3.986   1.348  11.137  0.6307  1.1109  0.0062
  560TMC3    C4 8359   4.230   1.406  11.021  0.2379 -0.1831  0.5495
  560TMC3    C5 8360   4.222   1.338  11.142  0.3681  0.4368 -0.8824
  560TMC3    C6 8361   4.096   1.294  11.193 -0.2303  0.3055  0.2666
  560TMC3     C 8362   4.113   1.475  10.827 -0.4430  0.4937 -0.3073
  560TMC3     O 8363   4.217   1.501  10.769 -0.3350 -0.0351  0.0856
  560TMC3     H 8364   3.903   1.486  10.993  0.3432  0.9725  1.8512
  560TMC3    H1 8365   4.321   1.422  10.965 -1.0091 -0.2662 -1.5136
  560TMC3    H2 8366   4.099   1.248  11.291  2.6511 -0.7386 -0.2958
  560TMC3    C7 8367   4.341   1.265  11.196 -0.5139 -0.1485  0.0242
  560TMC3    C8 8368   3.857   1.284  11.154  0.2425 -0.0145  0.3474
  560TMC3    O1 8369   4.321   1.156  11.242  0.0374 -0.3507 -0.3206
  560TMC3    O2 8370   3.768   1.311  11.073 -0.0686 -0.4975 -0.0508
  561TMC3    C1 8371   1.866   0.181  11.033  0.5271 -0.4400  0.0378
  561TMC3    C2 8372   1.779   0.125  11.124 -0.6488 -0.2227  0.4927
  561TMC3    C3 8373   1.765   0.190  11.245  0.4429  0.4305 -0.5705
  561TMC3    C4 8374   1.911   0.312  11.048  0.4511  0.5446  0.0994
  561TMC3    C5 8375   1.869   0.381  11.156  0.2705 -0.5287 -0.4640
  561TMC3    C6 8376   1.812   0.313  11.268 -0.3912  0.0310  0.1624
  561TMC3     C 8377   1.889   0.102  10.914 -0.1851  0.3310  0.4791
  561TMC3     O 8378   1.814   0.010  10.887 -0.4030  0.2681 -0.5252
  561TMC3     H 8379   1.745   0.022  11.124  0.3975 -0.5879 -5.0402
  561TMC3    H1 8380   1.958   0.357  10.961 -0.8354  0.9687 -0.3729
  561TMC3    H2 8381   1.801   0.366  11.362  1.9376  0.6295  0.1037
  561TMC3    C7 8382   1.901   0.522  11.175  0.3065  0.3203 -0.0880
  561TMC3    C8 8383   1.758   0.095  11.353 -0.3037 -0.5503 -0.4465
  561TMC3    O1 8384   1.878   0.579  11.281 -0.1259  0.1463  0.0690
  561TMC3    O2 8385   1.812   4.725  11.338 -0.1553 -0.1097 -0.1111
  562TMC3    C1 8386   2.755   1.426  16.317  0.7923  0.0305  0.5572
  562TMC3    C2 8387   2.657   1.513  16.266  1.2068  0.2383  0.4405
  562TMC3    C3 8388   2.621   1.512  16.135 -0.6481 -0.6001  0.0637
  562TMC3    C4 8389   2.810   1.332  16.231 -0.4732  0.0809 -0.1564
  562TMC3    C5 8390   2.762   1.332  16.103  0.1126  0.2338  0.1606
  562TMC3    C6 8391   2.671   1.418  16.049  0.1849  1.2281 -0.6071
  562TMC3     C 8392   2.807   1.432  16.451  0.1598 -0.1530 -0.5846
  562TMC3     O 8393   2.910   1.366  16.461  0.5933  0.0018  0.4515
  562TMC3     H 8394   2.618   1.592  16.330  3.3429  1.4767  0.2386
  562TMC3    H1 8395   2.889   1.263  16.258 -0.6103  0.2975  0.7832
  562TMC3    H2 8396   2.609   1.389  15.965  1.7185 -1.0701 -0.9283
  562TMC3    C7 8397   2.772   1.216  16.020 -0.4380  0.0184  0.3440
  562TMC3    C8 8398   2.506   1.582  16.091  0.2268 -0.4594  0.4301
  562TMC3    O1 8399   2.734   1.224  15.904 -0.1700  0.0451  0.2907
  562TMC3    O2 8400   2.427   1.619  16.175  0.5433 -0.2459 -0.6588
  563MPD2     C 8401   0.224   2.776  15.538 -0.3016  0.2410 -0.2377
  563MPD2    C1 8402   0.253   2.841  15.657  0.5066 -0.3928 -0.7015
  563MPD2    C2 8403   0.373   2.812  15.720  0.5189 -0.7204 -0.0588
  563MPD2    C3 8404   0.461   2.711  15.670  0.2591  0.3196  0.3309
  563MPD2    C4 8405   0.428   2.641  15.557  0.1941  0.7812 -0.8054
  563MPD2    C5 8406   0.314   2.684  15.496  0.3800  0.1551 -0.5604
  563MPD2     H 8407   0.426   2.874  15.792  2.2639 -1.6557 -0.5235
  563MPD2    H1 8408   0.498   2.580  15.503 -0.6937 -0.7283 -0.2355
  563MPD2    H2 8409   0.130   2.793  15.488 -0.9067 -2.4057  0.0077
  563MPD2    H3 8410   0.291   2.642  15.399 -0.1409 -1.3101  0.2044
  563MPD2     N 8411   0.584   2.693  15.736 -0.8017  0.2488  0.0304
  563MPD2    H5 8412   0.602   2.737  15.826 -1.0134 -0.7878  0.5698
  563MPD2    N1 8413   0.152   2.931  15.715  0.3075  0.6796 -0.0015
  563MPD2    H7 8414   0.059   2.925  15.675 -0.4047 -0.1586  1.7422
  564TMC3    C1 8415   0.104   2.993  15.938 -0.7828  0.5670  0.2920
  564TMC3    C2 8416   4.721   2.946  15.915  0.5857 -0.9582 -0.3810
  564TMC3    C3 8417   4.652   2.875  16.015 -0.4416  0.7695 -0.6628
  564TMC3    C4 8418   0.164   2.977  16.067 -0.4763  0.2954  0.5515
  564TMC3    C5 8419   0.099   2.912  16.166 -0.5114 -0.5014 -0.2932
  564TMC3    C6 8420   4.713   2.864  16.140 -0.7064 -0.1684 -0.4215
  564TMC3     C 8421   0.189   3.015  15.819 -0.1710 -0.0420  0.4470
  564TMC3     O 8422   0.302   3.058  15.842 -0.2566  0.6238  0.3428
  564TMC3     H 8423   4.678   2.977  15.821  1.7712  1.2082 -0.2025
  564TMC3    H1 8424   0.263   3.016  16.086 -0.2303  0.4856 -1.1898
  564TMC3    H2 8425   4.658   2.815  16.220  3.3123 -2.8896  0.6836
  564TMC3    C7 8426   0.191   2.810  16.216 -0.0821 -0.1691  0.3687
  564TMC3    C8 8427   4.611   2.744  15.970  0.6351  0.1437 -0.2850
  564TMC3    O1 8428   0.168   2.772  16.331  0.1041 -0.2283  0.1505
  564TMC3    O2 8429   4.557   2.672  16.049 -0.7666  0.5648 -0.3416
  565TMC3    C1 8430   0.956   4.454  11.040  0.2466 -0.1293  0.0124
  565TMC3    C2 8431   1.004   4.391  11.149  0.0625 -0.1100  0.1337
  565TMC3    C3 8432   0.925   4.284  11.180 -0.0798  0.5050  0.2234
  565TMC3    C4 8433   0.853   4.408  10.960 -0.0391  0.3767 -0.0233
  565TMC3    C5 8434   0.792   4.291  10.981 -0.3310  0.0154 -0.4028
  565TMC3    C6 8435   0.836   4.220  11.095  0.2617  0.0700  0.7571
  565TMC3     C 8436   1.026   4.574  10.987 -0.0505 -0.7687 -0.8514
  565TMC3     O 8437   0.997   4.608  10.877 -0.4393  0.1878 -0.2515
  565TMC3     H 8438   1.095   4.408  11.206  1.1291 -1.3339 -1.2049
  565TMC3    H1 8439   0.830   4.469  10.873 -0.4777 -1.4848 -1.2130
  565TMC3    H2 8440   0.755   4.160  11.135  0.2643 -0.1874  0.3789
  565TMC3    C7 8441   0.666   4.269  10.920 -0.0323  0.8702  0.1741
  565TMC3    C8 8442   0.953   4.214  11.301  0.7665  0.1535 -0.3663
  565TMC3    O1 8443   0.592   4.192  10.978 -0.1301  0.2464 -0.1183
  565TMC3    O2 8444   0.905   4.102  11.298  0.0532  0.0249 -0.3322
  566MPD2     C 8445   2.348   0.759  14.564 -0.3772 -0.2601 -0.3850
  566MPD2    C1 8446   2.415   0.849  14.481 -0.0573 -0.0813  0.5341
  566MPD2    C2 8447   2.337   0.919  14.384  0.0554  0.7954  0.2785
  566MPD2    C3 8448   2.198   0.887  14.380 -0.1029 -0.2037 -0.1288
  566MPD2    C4 8449   2.137   0.809  14.482  0.5588  0.1240  0.4237
  566MPD2    C5 8450   2.211   0.747  14.574  0.1076  0.5262 -0.1052
  566MPD2     H 8451   2.379   0.976  14.302 -1.9449 -0.6023 -1.7469
  566MPD2    H1 8452   2.029   0.801  14.492  0.5575 -0.6464 -0.1184
  566MPD2    H2 8453   2.407   0.689  14.622  0.2319 -0.8515 -1.7116
  566MPD2    H3 8454   2.169   0.673  14.641  1.6695  0.5061  0.8569
  566MPD2     N 8455   2.113   0.924  14.274  0.4649 -0.6749 -0.2274
  566MPD2    H5 8456   2.015   0.907  14.294  0.8677 -3.2716 -0.4621
  566MPD2    N1 8457   2.552   0.861  14.504  0.3230  0.0043  0.7464
  566MPD2    H7 8458   2.587   0.791  14.568  1.9664  0.9256  0.8380
  567TMC3    C1 8459   2.771   0.939  14.462  0.2625 -0.4366 -0.3738
  567TMC3    C2 8460   2.867   0.963  14.367  0.3655 -0.6173 -0.3775
  567TMC3    C3 8461   2.998   0.953  14.393 -0.2122 -0.4232 -0.2036
  567TMC3    C4 8462   2.795   0.905  14.591 -0.1961 -0.2369 -0.4803
  567TMC3    C5 8463   2.929   0.901  14.615 -0.5614  0.8345 -0.0407
  567TMC3    C6 8464   3.033   0.922  14.524  0.9767  0.0704  0.2270
  567TMC3     C 8465   2.630   0.934  14.418 -0.1510  0.7149  0.0108
  567TMC3     O 8466   2.601   1.011  14.327  0.0116  0.8399 -1.0634
  567TMC3     H 8467   2.831   0.991  14.269 -0.6024  0.7636  0.3801
  567TMC3    H1 8468   2.719   0.919  14.666 -1.3479 -1.4669 -1.4218
  567TMC3    H2 8469   3.134   0.890  14.547  1.5429 -0.2212 -2.6269
  567TMC3    C7 8470   2.974   0.844  14.744  0.3748  0.0041 -0.4066
  567TMC3    C8 8471   3.082   0.944  14.276 -0.2088 -0.3570  0.0529
  567TMC3    O1 8472   3.086   0.863  14.790 -0.0680 -0.4103 -0.1696
  567TMC3    O2 8473   3.037   0.988  14.171 -0.0337  0.2210 -0.5946
  568MPD2     C 8474   4.474   1.333  16.329  0.4844 -0.0334  0.9104
  568MPD2    C1 8475   4.487   1.425  16.433  0.3062 -0.2107 -0.1177
  568MPD2    C2 8476   4.538   1.551  16.407 -0.1810  0.1108  0.8790
  568MPD2    C3 8477   4.568   1.585  16.280  0.2319 -0.0055  0.2282
  568MPD2    C4 8478   4.565   1.497  16.177  0.4424 -0.1548  0.4906
  568MPD2    C5 8479   4.513   1.374  16.204 -1.0617  0.0315 -0.1894
  568MPD2     H 8480   4.542   1.629  16.483 -3.4385  0.7561  0.3867
  568MPD2    H1 8481   4.594   1.512  16.074  1.4639 -1.3643  0.6064
  568MPD2    H2 8482   4.438   1.232  16.344  3.6119 -0.8567  2.9038
  568MPD2    H3 8483   4.501   1.304  16.122 -2.1723 -0.7057  0.5995
  568MPD2     N 8484   4.625   1.714  16.274 -0.3715  0.6106  0.0801
  568MPD2    H5 8485   4.657   1.754  16.361  1.1803  2.8794 -1.5165
  568MPD2    N1 8486   4.463   1.379  16.566  0.4372  0.5644 -0.1971
  568MPD2    H7 8487   4.449   1.279  16.581  0.9395  0.9096  2.6137
  569TMC3    C1 8488   4.710   1.903  16.177  0.6304 -0.0681 -0.6573
  569TMC3    C2 8489   4.681   1.974  16.286  0.5592 -0.8130 -0.3011
  569TMC3    C3 8490   0.004   2.097  16.302  0.3297  0.9723 -0.3053
  569TMC3    C4 8491   0.049   1.955  16.073  0.2619  0.0298  0.4538
  569TMC3    C5 8492   0.095   2.081  16.088  0.6649  0.1804 -0.6836
  569TMC3    C6 8493   0.075   2.152  16.204  0.7994 -0.8369 -0.0050
  569TMC3     C 8494   4.658   1.772  16.155 -0.0649 -0.4202 -0.3628
  569TMC3     O 8495   4.634   1.736  16.044 -0.2253 -0.3597  0.3364
  569TMC3     H 8496   4.608   1.948  16.362  1.6390 -0.0083  1.0008
  569TMC3    H1 8497   0.071   1.905  15.979  1.1434 -0.4620  0.9215
  569TMC3    H2 8498   0.114   2.253  16.206  0.0062 -0.5705  1.7673
  569TMC3    C7 8499   0.121   2.154  15.963  0.1865 -0.0850  0.2108
  569TMC3    C8 8500   4.697   2.185  16.411 -0.6048  0.0447 -0.7280
  569TMC3    O1 8501   0.142   2.086  15.867 -0.2731  0.0274 -0.7382
  569TMC3    O2 8502   4.583   2.149  16.454 -0.1379 -0.3017 -0.1961
  570TMC3    C1 8503   3.863   0.339  16.369 -0.1793  0.0532 -0.6361
  570TMC3    C2 8504   3.971   0.340  16.283 -0.3801 -0.2285 -0.5175
  570TMC3    C3 8505   4.026   0.460  16.239  0.3219  0.0742 -0.8081
  570TMC3    C4 8506   3.789   0.451  16.389 -0.0872  0.4904 -0.0982
  570TMC3    C5 8507   3.844   0.572  16.340  0.7897  0.8923 -0.6704
  570TMC3    C6 8508   3.957   0.579  16.260  0.5406  0.3553 -0.3049
  570TMC3     C 8509   3.814   0.213  16.418 -0.2840  0.2903  0.1564
  570TMC3     O 8510   3.863   0.122  16.352  1.0012  0.2708  0.8376
  570TMC3     H 8511   4.026   0.248  16.265 -0.4284 -0.2832 -0.3900
  570TMC3    H1 8512   3.704   0.438  16.454  0.1023 -1.5249 -0.2715
  570TMC3    H2 8513   4.002   0.667  16.215 -0.2663  2.4907  3.1341
  570TMC3    C7 8514   3.770   0.691  16.386 -0.0578 -0.1612  0.7289
  570TMC3    C8 8515   4.144   0.472  16.153  0.5653  0.3442 -0.0851
  570TMC3    O1 8516   3.699   0.681  16.482  0.2328 -0.5608  0.1096
  570TMC3    O2 8517   4.183   0.590  16.135  0.0848 -0.1118  0.8635
  571MPD2     C 8518   1.985   2.039   0.599 -0.2237 -0.4198 -0.6814
  571MPD2    C1 8519   1.917   2.150   0.561  0.1410 -0.3982 -0.3174
  571MPD2    C2 8520   1.941   2.273   0.618 -0.8038  0.2701  0.3322
  571MPD2    C3 8521   2.051   2.291   0.703 -0.2705  0.3181  0.6227
  571MPD2    C4 8522   2.126   2.183   0.735  0.2419 -0.1954  0.0149
  571MPD2    C5 8523   2.096   2.055   0.683  0.5149 -0.2127 -0.8974
  571MPD2     H 8524   1.886   2.358   0.580 -2.8102 -2.3454 -2.5664
  571MPD2    H1 8525   2.206   2.186   0.808 -0.1559 -0.1712  0.4585
  571MPD2    H2 8526   1.964   1.940   0.560 -0.5220  0.5860 -3.0417
  571MPD2    H3 8527   2.165   1.975   0.707  2.0868  0.8303 -1.8548
  571MPD2     N 8528   2.095   2.410   0.770 -0.0882 -0.0428 -0.2731
  571MPD2    H5 8529   2.186   2.424   0.811 -0.3030 -0.6170  0.4028
  571MPD2    N1 8530   1.816   2.134   0.464 -0.5172  0.0626 -0.5399
  571MPD2    H7 8531   1.820   2.043   0.418 -0.3460  1.4045 -3.2179
  572TMC3    C1 8532   2.097   2.637   0.810 -0.1196 -0.2299 -0.4801
  572TMC3    C2 8533   2.219   2.625   0.865  0.2214  0.0138  0.1905
  572TMC3    C3 8534   2.304   2.733   0.868 -0.7675  0.4137  0.5934
  572TMC3    C4 8535   2.056   2.757   0.750  0.3338  0.0125  0.4366
  572TMC3    C5 8536   2.146   2.863   0.740  0.1451 -0.6335  0.3617
  572TMC3    C6 8537   2.269   2.860   0.815 -0.1516 -0.0828  0.3178
  572TMC3     C 8538   2.019   2.526   0.764 -0.8085 -0.4984  0.3523
  572TMC3     O 8539   1.911   2.552   0.720 -0.1273 -0.2706 -0.1159
  572TMC3     H 8540   2.241   2.542   0.931  1.2247  0.8314  0.8890
  572TMC3    H1 8541   1.950   2.765   0.728  0.1411 -2.3953  0.4991
  572TMC3    H2 8542   2.338   2.943   0.817 -0.9541  0.6027 -0.3747
  572TMC3    C7 8543   2.111   2.979   0.664 -0.2495  0.1043  0.2381
  572TMC3    C8 8544   2.439   2.723   0.932  0.4887  0.1202  0.0116
  572TMC3    O1 8545   1.992   2.992   0.635  0.0753 -0.0575  0.1452
  572TMC3    O2 8546   2.495   2.834   0.943  0.3039  0.1375  0.2011
  573MPD2     C 8547   2.759   2.315   0.646 -0.6177  0.2753  0.8195
  573MPD2    C1 8548   2.713   2.443   0.635 -0.3789 -0.0209 -0.8939
  573MPD2    C2 8549   2.587   2.464   0.579  0.4169 -0.4393  0.0732
  573MPD2    C3 8550   2.504   2.355   0.537 -0.4292 -0.0959 -0.1669
  573MPD2    C4 8551   2.553   2.227   0.556  0.2016  0.1304 -0.0649
  573MPD2    C5 8552   2.673   2.213   0.620  0.5143  0.0356  0.2193
  573MPD2     H 8553   2.550   2.564   0.560  3.4633  0.8513  1.0795
  573MPD2    H1 8554   2.491   2.143   0.528  0.6269 -0.4288  0.6745
  573MPD2    H2 8555   2.850   2.285   0.697 -0.4078 -0.9067 -0.2288
  573MPD2    H3 8556   2.702   2.113   0.651  0.1940 -1.5135 -4.5991
  573MPD2     N 8557   2.379   2.370   0.483  0.4986  1.0189 -0.0047
  573MPD2    H5 8558   2.343   2.283   0.444 -0.7847  1.7174 -0.3472
  573MPD2    N1 8559   2.808   2.543   0.666  0.2860 -0.8760 -0.4080
  573MPD2    H7 8560   2.888   2.508   0.718 -0.0390  1.8989  1.9596
  574TMC3    C1 8561   2.190   2.473   0.404  0.3237  0.4148  0.5483
  574TMC3    C2 8562   2.103   2.576   0.410 -0.1660  0.0696 -0.1546
  574TMC3    C3 8563   1.974   2.557   0.365 -0.0274  0.1216  0.4676
  574TMC3    C4 8564   2.167   2.358   0.331 -0.0491 -0.1540 -0.6122
  574TMC3    C5 8565   2.036   2.348   0.284 -0.0475  0.0716  1.2800
  574TMC3    C6 8566   1.941   2.447   0.294 -0.8301 -0.6634  0.1641
  574TMC3     C 8567   2.309   2.483   0.488 -0.7153  0.2600  0.5577
  574TMC3     O 8568   2.324   2.578   0.571  0.1320 -0.1743  0.0871
  574TMC3     H 8569   2.119   2.661   0.475 -0.5787 -0.9834  1.3206
  574TMC3    H1 8570   2.236   2.275   0.319 -1.5539 -1.3294 -1.0994
  574TMC3    H2 8571   1.845   2.443   0.244 -1.8309  0.2933  1.9894
  574TMC3    C7 8572   2.009   2.227   0.211  0.5481 -0.0104 -0.0345
  574TMC3    C8 8573   1.900   2.671   0.313 -0.1777  0.3422 -0.1858
  574TMC3    O1 8574   2.088   2.132   0.227  0.2463 -0.0211 -0.1866
  574TMC3    O2 8575   1.777   2.668   0.307 -0.8264 -0.5353  0.6017
  575TMC3    C1 8576   1.340   3.665  11.722  0.3945  0.5526  0.0123
  575TMC3    C2 8577   1.322   3.618  11.854 -0.2101  0.5531  0.1132
  575TMC3    C3 8578   1.204   3.654  11.912 -0.1970 -0.3857 -0.6905
  575TMC3    C4 8579   1.243   3.730  11.654  0.2008 -0.5752  0.1214
  575TMC3    C5 8580   1.132   3.767  11.729  0.3262 -0.3906  0.4758
  575TMC3    C6 8581   1.107   3.725  11.850  0.2950  0.1099  0.1633
  575TMC3     C 8582   1.484   3.662  11.678 -0.3560 -0.3271  0.1746
  575TMC3     O 8583   1.570   3.646  11.765 -0.0736  0.5802  0.3310
  575TMC3     H 8584   1.398   3.567  11.911  0.4061  0.4373 -0.8103
  575TMC3    H1 8585   1.264   3.785  11.563  1.1130 -0.2317  0.5380
  575TMC3    H2 8586   1.016   3.758  11.897  0.7225  1.0239  0.3461
  575TMC3    C7 8587   1.054   3.868  11.671 -0.0287 -0.1939 -0.0497
  575TMC3    C8 8588   1.171   3.614  12.051  0.5346  0.2004  0.0799
  575TMC3    O1 8589   1.072   3.883  11.552  0.5995  0.7430 -0.0375
  575TMC3    O2 8590   1.083   3.683  12.098 -0.1797  0.2238  0.0433
  576MPD2     C 8591   0.915   0.175  12.521  0.4563 -0.6987 -0.1355
  576MPD2    C1 8592   0.948   0.303  12.499  0.0807 -0.2668 -0.2732
  576MPD2    C2 8593   0.898   0.402  12.581 -0.7203  0.5743 -0.1662
  576MPD2    C3 8594   0.827   0.375  12.689 -0.4453  0.0704  0.1952
  576MPD2    C4 8595   0.796   0.239  12.717  0.6616  0.3940  0.8419
  576MPD2    C5 8596   0.841   0.145  12.635  0.5145 -0.0312  0.6320
  576MPD2     H 8597   0.928   0.503  12.554 -0.9188  0.5804 -0.3629
  576MPD2    H1 8598   0.733   0.203  12.798 -0.3973  2.8401  1.0848
  576MPD2    H2 8599   0.952   0.092  12.462  0.5934 -2.6849  2.7479
  576MPD2    H3 8600   0.823   0.042  12.666 -2.8576  0.6638  0.9078
  576MPD2     N 8601   0.796   0.484  12.777 -0.0674  0.1138 -0.1423
  576MPD2    H5 8602   0.818   0.575  12.738  0.6236 -0.5703 -1.3447
  576MPD2    N1 8603   1.021   0.340  12.381  0.1201 -0.7395 -0.4239
  576MPD2    H7 8604   1.047   0.438  12.377 -0.4942 -0.5811 -0.4683
  577TMC3    C1 8605   1.168   0.306  12.208  0.9876  0.1519 -0.5924
  577TMC3    C2 8606   1.253   0.208  12.156 -0.4942  1.0724 -0.2978
  577TMC3    C3 8607   1.359   0.246  12.080  0.2974  0.6125  0.1279
  577TMC3    C4 8608   1.171   0.438  12.173  0.7498  0.6917 -0.4035
  577TMC3    C5 8609   1.274   0.464  12.087 -0.5951  0.3430 -0.3677
  577TMC3    C6 8610   1.377   0.380  12.049 -0.1792 -0.3553 -1.1520
  577TMC3     C 8611   1.063   0.254  12.287 -0.4042  0.2789  0.0031
  577TMC3     O 8612   1.020   0.148  12.248  0.5509  0.0851 -0.2837
  577TMC3     H 8613   1.237   0.108  12.194  1.6996  1.0527  0.5842
  577TMC3    H1 8614   1.096   0.514  12.190 -0.8685 -0.7256 -1.1350
  577TMC3    H2 8615   1.458   0.417  11.987  1.2113  1.0431  1.4948
  577TMC3    C7 8616   1.284   0.595  12.029  0.4294  0.2746  0.0042
  577TMC3    C8 8617   1.429   0.142  12.005  0.4754 -0.3823  0.4680
  577TMC3    O1 8618   1.395   0.644  12.020  0.0656  0.6535 -0.0440
  577TMC3    O2 8619   1.424   0.027  12.044  0.2690 -0.1690 -0.5023
  578MPD2     C 8620   2.936   0.781   1.242  0.0712 -0.3416  0.0753
  578MPD2    C1 8621   3.007   0.707   1.151  0.1086  0.3801 -0.4528
  578MPD2    C2 8622   3.127   0.649   1.182  0.5722 -0.1356 -0.3954
  578MPD2    C3 8623   3.179   0.678   1.303 -0.6651  0.2514 -0.1674
  578MPD2    C4 8624   3.110   0.750   1.395 -0.1127  0.2052  0.0397
  578MPD2    C5 8625   2.991   0.801   1.364 -0.8192  0.1570  0.1830
  578MPD2     H 8626   3.185   0.601   1.104 -1.2682 -0.2650 -1.6998
  578MPD2    H1 8627   3.158   0.780   1.487  2.1255  0.8762 -1.3321
  578MPD2    H2 8628   2.835   0.819   1.229  0.7949  1.2643 -0.8800
  578MPD2    H3 8629   2.942   0.863   1.438  0.6247  1.0539  0.3825
  578MPD2     N 8630   3.323   0.648   1.318 -0.4899  0.4284 -0.3435
  578MPD2    H5 8631   3.370   0.600   1.242  1.7697  1.0763  0.6247
  578MPD2    N1 8632   2.955   0.695   1.022  0.3596  0.4739  0.1366
  578MPD2    H7 8633   2.897   0.775   1.000 -1.5040 -0.1107  2.8677
  579TMC3    C1 8634   3.542   0.657   1.406 -0.2176 -0.0802 -0.1406
  579TMC3    C2 8635   3.626   0.756   1.443  0.5036  0.1925  1.1696
  579TMC3    C3 8636   3.760   0.730   1.461 -0.4613 -0.0690  0.3008
  579TMC3    C4 8637   3.584   0.526   1.367  0.1155 -0.3270 -0.5276
  579TMC3    C5 8638   3.724   0.507   1.370 -0.2897  0.1322  0.4921
  579TMC3    C6 8639   3.807   0.605   1.424  0.0550  0.1320  0.0966
  579TMC3     C 8640   3.404   0.686   1.420 -0.3081  0.1790 -0.0968
  579TMC3     O 8641   3.379   0.755   1.515 -0.7020  0.1491 -0.2622
  579TMC3     H 8642   3.577   0.847   1.476 -1.3862 -0.5909  0.5529
  579TMC3    H1 8643   3.512   0.450   1.342 -0.8102  1.8327 -4.3672
  579TMC3    H2 8644   3.914   0.594   1.417  0.1342  0.6254  0.6200
  579TMC3    C7 8645   3.783   0.409   1.278  0.0645  0.3146  0.6310
  579TMC3    C8 8646   3.857   0.830   1.450  0.6593 -0.2751 -0.0062
  579TMC3    O1 8647   3.902   0.381   1.300  0.2887  0.5352 -0.5793
  579TMC3    O2 8648   3.961   0.802   1.395 -0.0713 -0.3701  0.0324
  580TMC3    C1 8649   3.184   4.104  11.432 -0.0204  0.5488 -0.0500
  580TMC3    C2 8650   3.305   4.168  11.435 -0.2140  0.1377  0.5621
  580TMC3    C3 8651   3.367   4.196  11.555 -0.3928 -0.1573  0.0675
  580TMC3    C4 8652   3.137   4.042  11.550  0.5714  0.0900 -0.3155
  580TMC3    C5 8653   3.210   4.074  11.667 -0.5588 -0.5896 -0.0310
  580TMC3    C6 8654   3.319   4.152  11.677 -0.2238 -0.0743  0.0277
  580TMC3     C 8655   3.087   4.184  11.360 -0.6879  0.3665  0.3373
  580TMC3     O 8656   3.134   4.255  11.271  0.6303 -0.4960  0.1130
  580TMC3     H 8657   3.357   4.192  11.344 -1.9526  2.1814  0.0984
  580TMC3    H1 8658   3.038   3.997  11.553  0.4506  0.3312 -0.7346
  580TMC3    H2 8659   3.368   4.179  11.770  1.1547 -1.6561 -0.2581
  580TMC3    C7 8660   3.182   4.002  11.791 -0.5248  1.0639 -0.3021
  580TMC3    C8 8661   3.437   4.321  11.550  0.9843 -0.0838 -0.1162
  580TMC3    O1 8662   3.210   4.055  11.899 -0.0096 -0.2836  0.3419
  580TMC3    O2 8663   3.522   4.327  11.462  0.4403  0.1679 -0.7564
  581MPD2     C 8664   1.184   3.669  15.098  0.3395  0.2810  0.2563
  581MPD2    C1 8665   1.107   3.703  15.206  0.3090  0.0171  0.3186
  581MPD2    C2 8666   1.010   3.800  15.195  0.2831 -0.4492 -0.0550
  581MPD2    C3 8667   1.002   3.864  15.072  0.0921 -0.8056 -0.0331
  581MPD2    C4 8668   1.072   3.820  14.969  0.0297  0.0555  0.0555
  581MPD2    C5 8669   1.179   3.735  14.979  0.6037 -0.1361  0.6224
  581MPD2     H 8670   0.936   3.829  15.268 -1.8736  0.1332 -2.4868
  581MPD2    H1 8671   1.050   3.859  14.871 -1.1021  1.3349  0.8159
  581MPD2    H2 8672   1.263   3.598  15.119 -0.6716 -0.8008  0.3691
  581MPD2    H3 8673   1.236   3.698  14.895 -0.3040 -1.2322  0.4917
  581MPD2     N 8674   0.903   3.967  15.062 -0.3603  0.6001 -0.2598
  581MPD2    H5 8675   0.841   3.983  15.141 -1.7556 -2.1621 -0.8288
  581MPD2    N1 8676   1.137   3.636  15.325 -0.0916  0.1642  0.1903
  581MPD2    H7 8677   1.217   3.575  15.321 -0.0046  0.3073 -0.3393
  582TMC3    C1 8678   1.129   3.567  15.536  0.3776  0.6625  0.0046
  582TMC3    C2 8679   1.193   3.618  15.643 -0.1810 -0.3141 -0.1321
  582TMC3    C3 8680   1.168   3.553  15.759  0.6657  0.4534 -0.2161
  582TMC3    C4 8681   1.033   3.468  15.551 -0.1490  0.3259  0.3327
  582TMC3    C5 8682   1.023   3.399  15.670 -0.2391 -0.0810 -0.4722
  582TMC3    C6 8683   1.088   3.448  15.784 -0.0354  0.5700  0.1634
  582TMC3     C 8684   1.077   3.659  15.451 -0.7031 -0.5190  0.1106
  582TMC3     O 8685   0.975   3.709  15.483  0.4524 -0.0107  0.0286
  582TMC3     H 8686   1.256   3.705  15.631 -1.2761  0.5463  0.3944
  582TMC3    H1 8687   0.975   3.456  15.460  1.4719 -0.1978 -0.6309
  582TMC3    H2 8688   1.052   3.404  15.876 -2.2780 -0.0449 -0.9911
  582TMC3    C7 8689   0.888   3.378  15.701  0.1844 -0.1271 -0.5669
  582TMC3    C8 8690   1.199   3.624  15.882 -0.0503  0.4827 -0.4910
  582TMC3    O1 8691   0.858   3.292  15.781  0.4419  0.1792 -0.2122
  582TMC3    O2 8692   1.115   3.619  15.968 -0.5939  0.4153 -0.0996
  583MPD2     C 8693   0.723   1.143  16.574 -0.4769  0.1111 -0.2412
  583MPD2    C1 8694   0.848   1.200  16.566  0.3581  0.0568 -0.2031
  583MPD2    C2 8695   0.867   1.326  16.614  0.5148 -0.3504  0.4886
  583MPD2    C3 8696   0.765   1.405  16.656 -0.9663 -0.4575  0.5197
  583MPD2    C4 8697   0.639   1.351  16.666  0.3229 -0.4817  0.5596
  583MPD2    C5 8698   0.618   1.222  16.623 -0.6007 -0.5176  0.3574
  583MPD2     H 8699   0.968   1.364  16.622  0.3886 -0.0644  0.7270
  583MPD2    H1 8700   0.555   1.407  16.703 -0.4062  1.3412 -3.7527
  583MPD2    H2 8701   0.702   1.041  16.544 -0.5909  0.1083 -0.1497
  583MPD2    H3 8702   0.521   1.175  16.628 -0.6244 -0.2752  2.0911
  583MPD2     N 8703   0.795   1.535  16.704  0.1262 -0.0148  0.4198
  583MPD2    H5 8704   0.888   1.572  16.685  0.0615 -0.3860 -0.6189
  583MPD2    N1 8705   0.967   1.134  16.526 -0.2127 -0.3549  0.1377
  583MPD2    H7 8706   1.055   1.184  16.521 -0.9147  0.5827 -2.6830
  584TMC3    C1 8707   0.784   1.715  16.844 -0.7071  0.3904 -0.3051
  584TMC3    C2 8708   0.857   1.812  16.776  0.2601 -0.3975 -0.5628
  584TMC3    C3 8709   0.920   1.900  16.856  0.0614 -0.3338  0.0154
  584TMC3    C4 8710   0.772   1.711  16.980  0.1351  0.5222  0.2945
  584TMC3    C5 8711   0.830   1.806  17.049  0.5732  0.2447  0.0804
  584TMC3    C6 8712   0.905   1.906  16.992  0.1465 -0.1895 -0.0773
  584TMC3     C 8713   0.708   1.609  16.783 -0.1848 -0.1949  0.1751
  584TMC3     O 8714   0.600   1.591  16.829 -0.4591 -0.0286  0.1678
  584TMC3     H 8715   0.880   1.805  16.670 -0.6859  1.2549 -0.8628
  584TMC3    H1 8716   0.699   1.650  17.031  0.8947  0.2306  1.0179
  584TMC3    H2 8717   0.978   1.959  17.052  1.1409  0.9087 -2.2597
  584TMC3    C7 8718   0.811   1.797  17.192  0.0946  0.6821  0.2701
  584TMC3    C8 8719   1.011   1.992  16.787  0.9445 -0.1548  0.3837
  584TMC3    O1 8720   0.790   1.694  17.248 -0.3005  0.1814 -0.5235
  584TMC3    O2 8721   1.025   1.968  16.668  0.5146 -0.4421 -0.6099
  585MPD2     C 8722   4.450   0.710   0.489 -0.0657  0.2802 -0.6659
  585MPD2    C1 8723   4.537   0.707   0.381 -0.6940  0.5765 -0.3916
  585MPD2    C2 8724   4.594   0.586   0.344  0.4719  0.5065 -1.0928
  585MPD2    C3 8725   4.565   0.479   0.410 -0.1241 -0.1021  0.0019
  585MPD2    C4 8726   4.474   0.475   0.507 -0.8076  0.3135 -0.8283
  585MPD2    C5 8727   4.413   0.593   0.545  0.1911  0.4218  0.5194
  585MPD2     H 8728   4.653   0.583   0.253  0.6243  0.9008 -1.0054
  585MPD2    H1 8729   4.442   0.378   0.544 -1.0081  1.0097  0.8034
  585MPD2    H2 8730   4.406   0.803   0.525  2.5305  1.9218 -1.7147
  585MPD2    H3 8731   4.347   0.591   0.631 -0.0285  2.0508  0.3998
  585MPD2     N 8732   4.618   0.353   0.365 -0.5506  0.1139  0.6169
  585MPD2    H5 8733   4.580   0.269   0.406 -1.7048  0.8150  0.9712
  585MPD2    N1 8734   4.562   0.833   0.320  0.2280  0.6177  0.2359
  585MPD2    H7 8735   4.523   0.914   0.368  0.6867  0.4618  0.8712
  586TMC3    C1 8736   0.008   0.193   0.261  0.4398  0.0612 -0.0035
  586TMC3    C2 8737   0.138   0.147   0.250  0.2704  0.4209  0.2222
  586TMC3    C3 8738   0.164   0.012   0.245  0.4066 -0.4839  0.0874
  586TMC3    C4 8739   4.641   0.111   0.281 -0.0145  0.0466 -0.2871
  586TMC3    C5 8740   4.670   4.719   0.273  0.5218  0.5118  0.2072
  586TMC3    C6 8741   0.058   4.667   0.260 -0.5079  0.3660 -0.1528
  586TMC3     C 8742   4.726   0.330   0.288  0.6747 -0.3856 -0.4579
  586TMC3     O 8743   0.077   0.407   0.256  0.3833  0.1123  0.1786
  586TMC3     H 8744   0.218   0.220   0.244 -0.1880  0.9751  0.9443
  586TMC3    H1 8745   4.536   0.137   0.286 -0.6697 -2.8478  0.9761
  586TMC3    H2 8746   0.070   4.559   0.254  0.1335  0.3760  0.8405
  586TMC3    C7 8747   4.587   4.652   0.180 -0.2213  0.2635 -0.0477
  586TMC3    C8 8748   0.251   4.697   0.144 -0.0417  0.2743  0.4322
  586TMC3    O1 8749   4.469   4.645   0.207 -0.5488 -0.0660  0.2987
  586TMC3    O2 8750   0.252   4.575   0.127 -0.6409 -0.2837 -0.5614
  587TMC3    C1 8751   2.397   3.627  16.466 -0.1697  0.1180 -0.4347
  587TMC3    C2 8752   2.411   3.679  16.588  0.1156 -0.6169 -0.0264
  587TMC3    C3 8753   2.519   3.636  16.667  0.4267 -0.0806  0.0140
  587TMC3    C4 8754   2.495   3.558  16.401 -0.2638  0.1814  0.0979
  587TMC3    C5 8755   2.589   3.510  16.485  0.5337 -0.3106 -0.4863
  587TMC3    C6 8756   2.608   3.552  16.615  0.1156  0.2573 -0.1811
  587TMC3     C 8757   2.281   3.672  16.396 -0.6844  0.5234 -0.5618
  587TMC3     O 8758   2.292   3.674  16.274 -0.6374 -0.5816 -0.2189
  587TMC3     H 8759   2.336   3.748  16.626  1.6063  1.2872 -0.5329
  587TMC3    H1 8760   2.487   3.523  16.299  1.3359 -1.1401  0.4316
  587TMC3    H2 8761   2.691   3.520  16.676  1.4280 -0.1134 -2.1815
  587TMC3    C7 8762   2.649   3.380  16.452  0.4625  0.5418 -0.2420
  587TMC3    C8 8763   2.552   3.693  16.797  0.2851  0.1869 -0.1814
  587TMC3    O1 8764   2.589   3.315  16.371  0.5156  0.3194  0.5271
  587TMC3    O2 8765   2.661   3.676  16.847  0.1832  0.0195 -0.5096
  588TMC3    C1 8766   0.497   1.799   9.996 -0.3286 -0.1924 -0.4665
  588TMC3    C2 8767   0.440   1.676  10.016 -0.3892 -0.0386  0.4117
  588TMC3    C3 8768   0.519   1.568  10.036  0.4517  0.2537 -0.4230
  588TMC3    C4 8769   0.637   1.815   9.997  0.3382 -0.3044 -0.3279
  588TMC3    C5 8770   0.714   1.703  10.009 -0.2297  0.5656 -0.5337
  588TMC3    C6 8771   0.657   1.580  10.024 -0.0918  0.9522 -0.0100
  588TMC3     C 8772   0.415   1.921  10.008 -0.1650  0.0763 -0.3435
  588TMC3     O 8773   0.314   1.918  10.078  0.3671  0.1678  0.6491
  588TMC3     H 8774   0.332   1.669  10.023 -0.3296 -0.4444  0.9128
  588TMC3    H1 8775   0.674   1.916  10.010  2.9574 -1.3874  0.6995
  588TMC3    H2 8776   0.722   1.493  10.021 -0.9198  0.2102  3.1549
  588TMC3    C7 8777   0.852   1.720  10.054  0.2552  0.3445 -0.7995
  588TMC3    C8 8778   0.446   1.443  10.057 -0.5743  0.2919 -0.0936
  588TMC3    O1 8779   0.897   1.638  10.137 -0.6781  0.1603  0.4329
  588TMC3    O2 8780   0.321   1.451  10.063  0.5934 -0.3472 -0.4132
  589TMC3    C1 8781   3.602   3.972   1.235  0.1168 -0.8267  0.2783
  589TMC3    C2 8782   3.696   3.975   1.338 -0.1358 -0.3219 -0.4304
  589TMC3    C3 8783   3.794   3.884   1.334  0.2014  0.6508  0.0436
  589TMC3    C4 8784   3.593   3.863   1.160  0.1092 -0.1004 -0.1843
  589TMC3    C5 8785   3.692   3.767   1.164  0.1913 -0.0260  0.1951
  589TMC3    C6 8786   3.801   3.774   1.248  0.4013 -0.8871  0.1588
  589TMC3     C 8787   3.521   4.090   1.203 -0.2913 -0.4073 -0.8343
  589TMC3     O 8788   3.452   4.080   1.102  0.5951 -0.3334 -0.7185
  589TMC3     H 8789   3.697   4.060   1.406 -0.2173 -1.4013  0.9367
  589TMC3    H1 8790   3.522   3.862   1.078  0.0053 -0.4156 -0.0888
  589TMC3    H2 8791   3.870   3.690   1.254  1.0760 -0.2814  0.7799
  589TMC3    C7 8792   3.692   3.683   1.044 -0.1203 -0.3823  0.3315
  589TMC3    C8 8793   3.898   3.900   1.436  0.6575  0.3222  0.1006
  589TMC3    O1 8794   3.590   3.690   0.979 -0.4766 -0.0600  0.3357
  589TMC3    O2 8795   3.895   3.999   1.505  0.6383 -0.1170  0.0447
  590MPD2     C 8796   3.539   1.786  16.581 -0.5430  0.1676  0.3254
  590MPD2    C1 8797   3.492   1.874  16.487 -0.6865 -0.0230 -0.5754
  590MPD2    C2 8798   3.590   1.945  16.418 -0.4355 -0.4304  0.3315
  590MPD2    C3 8799   3.724   1.922  16.442  0.9874  0.1995  0.2852
  590MPD2    C4 8800   3.760   1.835  16.540  1.0740  0.4930  0.1772
  590MPD2    C5 8801   3.670   1.764  16.599  0.2815  0.0962  0.3655
  590MPD2     H 8802   3.560   2.012  16.338 -0.5285 -0.6717  0.1643
  590MPD2    H1 8803   3.862   1.828  16.576  0.8473  0.9015  0.9033
  590MPD2    H2 8804   3.483   1.727  16.652 -0.9925 -0.3618 -0.4701
  590MPD2    H3 8805   3.690   1.697  16.682  0.1406 -0.1854  0.1709
  590MPD2     N 8806   3.814   2.009  16.380  0.5911 -0.2784 -0.0400
  590MPD2    H5 8807   3.776   2.069  16.308 -0.8771  0.3490  1.2633
  590MPD2    N1 8808   3.352   1.897  16.466  0.0262  0.0882 -1.0863
  590MPD2    H7 8809   3.289   1.852  16.532 -0.4981  0.8128 -1.0925
  591TMC3    C1 8810   4.014   2.104  16.320 -0.2422 -0.6742 -0.9228
  591TMC3    C2 8811   4.142   2.080  16.273  0.0251 -0.4427 -0.3600
  591TMC3    C3 8812   4.218   2.165  16.204  0.2595  0.2181 -0.1092
  591TMC3    C4 8813   3.959   2.226  16.294  0.3139  0.8557  0.4301
  591TMC3    C5 8814   4.026   2.312  16.214 -0.0445 -0.4561 -0.2728
  591TMC3    C6 8815   4.154   2.286  16.176  0.2400  0.4663 -0.4990
  591TMC3     C 8816   3.950   2.004  16.394 -0.1927  0.3809 -0.2821
  591TMC3     O 8817   4.024   1.932  16.461 -0.6277 -1.0728 -0.2343
  591TMC3     H 8818   4.175   1.977  16.278 -0.1500 -0.5026 -0.3973
  591TMC3    H1 8819   3.866   2.256  16.341 -1.1352 -0.8603 -1.4087
  591TMC3    H2 8820   4.211   2.361  16.123  1.4152  0.4159  0.7183
  591TMC3    C7 8821   3.976   2.449  16.226  0.5405 -0.8633  1.0209
  591TMC3    C8 8822   4.340   2.120  16.138  0.8185  0.0093 -0.2049
  591TMC3    O1 8823   3.886   2.478  16.300  1.2049 -0.1161 -0.5411
  591TMC3    O2 8824   4.379   2.007  16.170  0.5092 -0.4911  0.0737
  592MPD2     C 8825   3.721   0.100  12.047  0.5389  0.6124  0.6036
  592MPD2    C1 8826   3.807   0.026  11.975 -0.2693  0.6730 -0.6065
  592MPD2    C2 8827   3.772   4.633  11.958  0.7351 -0.1815 -0.1640
  592MPD2    C3 8828   3.659   4.574  12.009  0.3266  0.0962  0.0625
  592MPD2    C4 8829   3.564   4.654  12.076 -0.1650 -0.1268  0.0885
  592MPD2    C5 8830   3.605   0.046  12.100  0.0947 -0.7922  0.4114
  592MPD2     H 8831   3.840   4.565  11.906 -0.7863 -1.6990 -0.1577
  592MPD2    H1 8832   3.470   4.610  12.107  0.4006 -1.1356  0.3744
  592MPD2    H2 8833   3.750   0.201  12.075  2.1651  0.1951  0.4388
  592MPD2    H3 8834   3.530   0.104  12.153 -0.3452  0.1160 -1.2053
  592MPD2     N 8835   3.649   4.438  12.002 -0.1338 -0.4171 -0.0543
  592MPD2    H5 8836   3.714   4.402  11.933 -1.3157  0.2016 -1.4954
  592MPD2    N1 8837   3.933   0.078  11.937  0.3099  0.2720 -0.0077
  592MPD2    H7 8838   3.962   0.153  11.999 -1.5387  2.2457 -1.5073
  593TMC3    C1 8839   4.158   0.036  11.941  0.0688  0.0686 -0.0742
  593TMC3    C2 8840   4.169   0.024  12.076 -0.3444 -0.4301 -0.6309
  593TMC3    C3 8841   4.297   0.008  12.127  0.1505 -0.1012  0.4675
  593TMC3    C4 8842   4.268   0.012  11.858 -0.7191 -0.6710  0.0318
  593TMC3    C5 8843   4.387   4.717  11.918 -0.6091  0.6594  0.1862
  593TMC3    C6 8844   4.408   4.722  12.054  0.1734  0.0107 -0.1133
  593TMC3     C 8845   4.026   0.005  11.881 -0.0934  0.4235 -0.4203
  593TMC3     O 8846   4.015   4.666  11.792 -0.0912 -0.1140  0.7507
  593TMC3     H 8847   4.078   0.044  12.132 -0.8270 -1.4187 -1.0540
  593TMC3    H1 8848   4.252   0.021  11.751  0.5888  1.2429  0.0021
  593TMC3    H2 8849   4.508   4.718  12.098 -0.6840  0.2782  1.8607
  593TMC3    C7 8850   4.493   4.736  11.823 -0.6041  0.4794  0.2068
  593TMC3    C8 8851   4.295   4.737  12.272  0.4360 -0.1479 -0.3632
  593TMC3    O1 8852   4.477   0.042  11.714 -0.0689  0.1216  0.2212
  593TMC3    O2 8853   4.182   4.723  12.323  0.0106 -0.1177  0.3017
  594MPD2     C 8854   3.128   2.349  14.204 -0.0180  0.0028 -0.1985
  594MPD2    C1 8855   3.084   2.345  14.334 -0.1728  0.4237  0.2809
  594MPD2    C2 8856   3.142   2.439  14.421  1.2293 -0.4720  0.0156
  594MPD2    C3 8857   3.236   2.536  14.372  0.0237 -1.0199 -0.2656
  594MPD2    C4 8858   3.270   2.533  14.241  1.0214 -0.3956 -0.1573
  594MPD2    C5 8859   3.220   2.436  14.161  0.1101 -1.1066  0.2413
  594MPD2     H 8860   3.111   2.449  14.524 -1.2927  0.5485 -0.8355
  594MPD2    H1 8861   3.343   2.596  14.192  2.5385 -0.8427  1.5463
  594MPD2    H2 8862   3.086   2.280  14.133  0.3366 -0.7867  0.3623
  594MPD2    H3 8863   3.257   2.422  14.060  0.8495 -0.0308  0.3704
  594MPD2     N 8864   3.286   2.636  14.463  0.0379  0.2849  0.6459
  594MPD2    H5 8865   3.266   2.620  14.562  0.6291  1.4090  0.9374
  594MPD2    N1 8866   2.978   2.254  14.362 -0.0259 -0.4593 -0.2604
  594MPD2    H7 8867   2.922   2.225  14.283  2.0057 -2.4904 -0.9398
  595TMC3    C1 8868   3.584   2.947  14.616 -0.3505  0.4632 -0.2733
  595TMC3    C2 8869   3.548   2.844  14.532 -0.5315  0.1073 -0.0435
  595TMC3    C3 8870   3.421   2.800  14.547 -0.6903 -0.1422 -0.1477
  595TMC3    C4 8871   3.516   2.986  14.724  0.5474 -0.4949  0.1857
  595TMC3    C5 8872   3.390   2.939  14.736  0.5089 -0.6690 -0.4345
  595TMC3    C6 8873   3.337   2.855  14.642  0.0621 -0.7346 -0.2412
  595TMC3     C 8874   3.683   3.044  14.570  0.0722  0.5872 -0.9551
  595TMC3     O 8875   3.719   3.136  14.641 -0.2917  0.8563 -0.2021
  595TMC3     H 8876   3.587   2.823  14.434  1.6826 -0.2174  0.9188
  595TMC3    H1 8877   3.562   3.067  14.779 -1.2905  0.7209 -0.0449
  595TMC3    H2 8878   3.232   2.830  14.630  0.3815 -0.8776 -2.8059
  595TMC3    C7 8879   3.294   3.032  14.797 -0.2621 -0.3566  0.2079
  595TMC3    C8 8880   3.359   2.748  14.431  0.0310 -0.0890 -0.2861
  595TMC3    O1 8881   3.186   3.026  14.740  0.6040 -0.1605 -0.0222
  595TMC3    O2 8882   3.395   2.799  14.325  0.2743 -0.4393 -0.7737
  596MPD2     C 8883   1.550   0.711  16.828  0.1088  0.2345  0.3489
  596MPD2    C1 8884   1.668   0.768  16.777  0.5645 -0.1023 -0.7829
  596MPD2    C2 8885   1.729   0.712  16.662 -0.1383  0.4409  0.1770
  596MPD2    C3 8886   1.670   0.607  16.601  0.2888 -0.8871  0.3629
  596MPD2    C4 8887   1.562   0.540  16.659  0.5563  0.0982 -0.3921
  596MPD2    C5 8888   1.502   0.599  16.766 -0.5164 -0.0665 -0.0208
  596MPD2     H 8889   1.821   0.760  16.630 -0.4143 -0.2999 -1.7296
  596MPD2    H1 8890   1.518   0.449  16.621 -0.1333  0.9434 -1.6487
  596MPD2    H2 8891   1.486   0.749  16.907 -1.8740 -1.6919 -0.3343
  596MPD2    H3 8892   1.413   0.550  16.804 -0.4988  0.5705  0.8361
  596MPD2     N 8893   1.721   0.551  16.484 -0.2788 -0.5380 -0.2025
  596MPD2    H5 8894   1.675   0.474  16.437  2.1272 -2.2845  0.3188
  596MPD2    N1 8895   1.706   0.899  16.812 -0.0577 -0.4304 -0.2765
  596MPD2    H7 8896   1.770   0.951  16.753  0.6288  1.3457  2.0492
  597TMC3    C1 8897   1.668   1.126  16.887  0.3601  0.8549  0.3350
  597TMC3    C2 8898   1.759   1.169  16.796  0.6115 -0.1909 -0.2600
  597TMC3    C3 8899   1.764   1.299  16.780  1.2135  0.3291 -0.7313
  597TMC3    C4 8900   1.584   1.211  16.948  0.7269  0.2102  0.1656
  597TMC3    C5 8901   1.592   1.345  16.920 -0.5216  0.3323  0.5860
  597TMC3    C6 8902   1.681   1.388  16.834 -0.0240 -0.4926 -0.0721
  597TMC3     C 8903   1.640   0.981  16.912  0.0254  0.1414  0.4500
  597TMC3     O 8904   1.568   0.943  17.004  0.5574  0.1683  0.1855
  597TMC3     H 8905   1.838   1.106  16.757  0.1085 -0.4407 -0.8666
  597TMC3    H1 8906   1.501   1.185  17.012 -0.0866  0.5039 -0.7795
  597TMC3    H2 8907   1.670   1.491  16.802  1.3020 -0.2717  0.2056
  597TMC3    C7 8908   1.528   1.431  17.009  0.5950 -0.5821  0.4282
  597TMC3    C8 8909   1.871   1.358  16.701  0.4214  0.6557  0.6230
  597TMC3    O1 8910   1.487   1.375  17.113  0.5281 -0.0749  0.3374
  597TMC3    O2 8911   1.869   1.481  16.685  0.2596 -0.7676 -0.3773
  598TMC3    C1 8912   0.386   2.216  15.401 -0.3464 -0.2542  0.4359
  598TMC3    C2 8913   0.290   2.123  15.380 -0.0426  0.1984 -0.6993
  598TMC3    C3 8914   0.204   2.127  15.275  0.0132 -0.3314 -0.6669
  598TMC3    C4 8915   0.386   2.324  15.320  0.8115 -0.5972 -0.2148
  598TMC3    C5 8916   0.295   2.330  15.220 -0.1494  0.1053 -0.0959
  598TMC3    C6 8917   0.206   2.233  15.187  0.6480 -0.7666  0.3065
  598TMC3     C 8918   0.485   2.194  15.503  1.1547 -0.0171  0.2872
  598TMC3     O 8919   0.588   2.255  15.482 -0.1738 -0.4587 -0.1137
  598TMC3     H 8920   0.293   2.029  15.434  0.7770  0.5068 -0.2077
  598TMC3    H1 8921   0.468   2.393  15.337  0.8438 -0.5964 -0.3711
  598TMC3    H2 8922   0.122   2.261  15.125  1.4261 -0.4326 -0.5951
  598TMC3    C7 8923   0.310   2.436  15.120 -0.6464  0.1563  0.0014
  598TMC3    C8 8924   0.177   2.001  15.203  0.2010 -0.7470 -0.8159
  598TMC3    O1 8925   0.232   2.432  15.025  0.5135  0.2889 -0.2588
  598TMC3    O2 8926   0.215   1.893  15.251 -0.5205 -0.6238  0.0367
  599MPD2     C 8927   0.298   0.227  16.270  0.0538  0.8702 -0.5418
  599MPD2    C1 8928   0.234   0.104  16.257  0.2267 -0.5507  0.7571
  599MPD2    C2 8929   0.094   0.094  16.271  0.0322 -0.2654 -0.5838
  599MPD2    C3 8930   0.026   0.209  16.305 -0.1604 -0.1410 -0.3821
  599MPD2    C4 8931   0.092   0.325  16.318 -0.1448  0.0484 -0.7790
  599MPD2    C5 8932   0.224   0.336  16.292 -1.3203  0.0497 -0.1589
  599MPD2     H 8933   0.048   4.735  16.267 -2.1481  0.6788  1.3022
  599MPD2    H1 8934   0.044   0.421  16.338 -1.4708 -0.6617 -0.5298
  599MPD2    H2 8935   0.403   0.237  16.244  0.2493 -0.5446 -0.2976
  599MPD2    H3 8936   0.262   0.437  16.299  0.3141 -0.4638 -1.6960
  599MPD2     N 8937   4.624   0.221  16.327  0.7075 -0.2234  0.2979
  599MPD2    H5 8938   4.587   0.316  16.338  0.1918 -0.2422 -1.2672
  599MPD2    N1 8939   0.313   4.730  16.221  0.2143  0.5126  1.2200
  599MPD2    H7 8940   0.410   0.012  16.202  0.3896 -1.5321 -0.0901
  600TMC3    C1 8941   4.398   0.158  16.347  1.0090 -0.5304 -0.4453
  600TMC3    C2 8942   4.312   0.050  16.352  0.0158  0.1486  0.1524
  600TMC3    C3 8943   4.199   0.060  16.427  0.1172 -0.7357 -0.1895
  600TMC3    C4 8944   4.372   0.278  16.415 -0.6600 -0.7167  0.3919
  600TMC3    C5 8945   4.264   0.278  16.493 -0.1260  0.0477 -0.1698
  600TMC3    C6 8946   4.172   0.176  16.496  0.0186 -0.3860 -0.5916
  600TMC3     C 8947   4.535   0.118  16.312  0.4212 -0.2004  0.3073
  600TMC3     O 8948   4.550   0.002  16.281  0.2353  0.0826  0.2632
  600TMC3     H 8949   4.342   4.687  16.328 -0.0326 -0.0622  0.9643
  600TMC3    H1 8950   4.446   0.357  16.430 -2.1109  0.5245  0.9982
  600TMC3    H2 8951   4.086   0.183  16.562  0.8669 -1.4900  0.6422
  600TMC3    C7 8952   4.208   0.397  16.550 -0.5190 -0.6278  0.0584
  600TMC3    C8 8953   4.147   4.675  16.477 -0.1303 -0.8870  0.3953
  600TMC3    O1 8954   4.121   0.385  16.634  0.0569  0.8999  0.6199
  600TMC3    O2 8955   4.237   4.605  16.522 -0.0512 -0.1012  0.4213
  601MPD2     C 8956   2.256   3.417   0.434 -0.5066  0.4109  0.4242
  601MPD2    C1 8957   2.130   3.365   0.457  0.4566  0.5246  0.2928
  601MPD2    C2 8958   2.120   3.241   0.526 -0.3888 -0.2307 -0.1913
  601MPD2    C3 8959   2.233   3.173   0.565  0.0368 -0.1628 -0.0948
  601MPD2    C4 8960   2.356   3.228   0.544 -0.0678  0.1590 -0.6098
  601MPD2    C5 8961   2.362   3.348   0.481 -0.4077 -0.0616 -0.4791
  601MPD2     H 8962   2.022   3.196   0.537 -0.4492  0.0222  0.2790
  601MPD2    H1 8963   2.452   3.197   0.583  0.8910  2.1949 -1.3574
  601MPD2    H2 8964   2.264   3.502   0.368  0.3777 -0.5610 -0.7267
  601MPD2    H3 8965   2.463   3.387   0.472 -0.9124  1.4905  0.5350
  601MPD2     N 8966   2.234   3.049   0.631 -0.4165 -0.5107  0.5206
  601MPD2    H5 8967   2.322   3.009   0.660 -0.5066 -0.7033  0.5249
  601MPD2    N1 8968   2.009   3.423   0.418 -0.0655  0.2116 -0.3971
  601MPD2    H7 8969   1.928   3.362   0.428  0.5738 -0.4802  0.6309
  602TMC3    C1 8970   1.856   3.594   0.352 -0.1224 -0.3430 -0.1785
  602TMC3    C2 8971   1.818   3.724   0.347  0.1734  0.4347 -0.0812
  602TMC3    C3 8972   1.711   3.742   0.267 -0.1183 -1.0171  0.3213
  602TMC3    C4 8973   1.781   3.488   0.318  0.1506 -0.3386  0.0415
  602TMC3    C5 8974   1.669   3.512   0.253 -0.6414  0.1093  0.2930
  602TMC3    C6 8975   1.625   3.646   0.230 -0.5131 -0.1247 -0.0917
  602TMC3     C 8976   1.992   3.556   0.392  0.2728 -0.2921 -0.1116
  602TMC3     O 8977   2.073   3.648   0.380 -0.2151  0.2383  0.3499
  602TMC3     H 8978   1.890   3.804   0.362 -0.8166  1.3078 -0.0238
  602TMC3    H1 8979   1.812   3.384   0.321 -0.9398 -0.6725 -0.1699
  602TMC3    H2 8980   1.525   3.680   0.208 -1.6707 -2.8469  0.9453
  602TMC3    C7 8981   1.589   3.404   0.189 -0.6762  0.5310  0.0828
  602TMC3    C8 8982   1.698   3.872   0.207  0.3174 -0.1680  0.8288
  602TMC3    O1 8983   1.614   3.287   0.215  0.2037  0.2347  1.0288
  602TMC3    O2 8984   1.732   3.973   0.264  0.0805  0.9254  0.4558
  603TMC3    C1 8985   0.691   3.845  11.252  0.3770  0.3576  0.3339
  603TMC3    C2 8986   0.757   3.860  11.373 -0.8003  0.2295  0.2674
  603TMC3    C3 8987   0.709   3.945  11.466  0.4256 -0.8224 -0.0447
  603TMC3    C4 8988   0.581   3.923  11.228 -0.2681 -0.9990 -0.0192
  603TMC3    C5 8989   0.541   4.019  11.318  0.2622  0.3228  0.2242
  603TMC3    C6 8990   0.608   4.030  11.439 -0.3655 -0.1739  1.0228
  603TMC3     C 8991   0.772   3.809  11.137  0.0279  0.0802 -0.5437
  603TMC3     O 8992   0.723   3.742  11.047  0.3561  0.1857  0.1457
  603TMC3     H 8993   0.840   3.794  11.397 -2.4609 -1.4764  1.3460
  603TMC3    H1 8994   0.544   3.909  11.127  0.2036  2.0454 -0.5995
  603TMC3    H2 8995   0.545   4.070  11.517 -3.3650  2.0638 -2.5968
  603TMC3    C7 8996   0.413   4.080  11.307  0.5894  0.2314 -0.4691
  603TMC3    C8 8997   0.695   3.865  11.583 -0.0998 -0.1920 -0.1867
  603TMC3    O1 8998   0.362   4.126  11.409 -0.4654 -0.1132 -0.5654
  603TMC3    O2 8999   0.688   3.745  11.565  0.0071 -0.2033 -0.0096
  604MPD2     C 9000   1.190   2.211  16.292  0.1177  0.3246 -0.4267
  604MPD2    C1 9001   1.078   2.134  16.291 -0.2235  0.7752 -0.1286
  604MPD2    C2 9002   1.077   2.028  16.205 -0.1548 -0.4278 -0.8541
  604MPD2    C3 9003   1.186   1.982  16.134 -0.6937  0.0329 -0.4831
  604MPD2    C4 9004   1.291   2.075  16.129  0.0976  0.0807 -0.1166
  604MPD2    C5 9005   1.292   2.182  16.213  0.1108 -1.0361  0.6336
  604MPD2     H 9006   0.981   1.978  16.196 -0.4292  0.1963 -1.4291
  604MPD2    H1 9007   1.384   2.079  16.074 -0.4266  1.9849 -0.8467
  604MPD2    H2 9008   1.191   2.300  16.353  0.1287  0.1808 -0.2192
  604MPD2    H3 9009   1.379   2.246  16.205 -1.3031  0.8457  0.4546
  604MPD2     N 9010   1.179   1.875  16.043 -0.6207  0.3921 -0.8004
  604MPD2    H5 9011   1.094   1.820  16.038 -0.3062 -0.2710  0.9854
  604MPD2    N1 9012   0.977   2.176  16.374  0.0232 -0.2527  0.0079
  604MPD2    H7 9013   0.990   2.267  16.417 -0.7105  0.1183 -0.5547
  605TMC3    C1 9014   0.793   2.219  16.489 -0.5080 -0.4612 -0.7911
  605TMC3    C2 9015   0.866   2.295  16.581 -0.3518  0.0150 -0.1991
  605TMC3    C3 9016   0.788   2.378  16.659  0.1539 -0.7088 -0.6279
  605TMC3    C4 9017   0.662   2.234  16.461  0.2175 -0.0028  0.2970
  605TMC3    C5 9018   0.589   2.327  16.535 -0.4938  0.4251 -0.0621
  605TMC3    C6 9019   0.652   2.402  16.632  0.1154  0.0137 -0.3856
  605TMC3     C 9020   0.858   2.121  16.402 -0.9619 -0.3124 -0.0611
  605TMC3     O 9021   0.804   2.020  16.356  0.2739  0.0063  0.2511
  605TMC3     H 9022   0.972   2.278  16.596 -0.6497 -1.2745  0.4339
  605TMC3    H1 9023   0.613   2.169  16.390  1.4869 -0.7615  0.1208
  605TMC3    H2 9024   0.606   2.480  16.691 -0.8360 -1.1224  0.3738
  605TMC3    C7 9025   0.497   2.419  16.461  0.5199  0.3127  0.7016
  605TMC3    C8 9026   0.849   2.469  16.752 -0.4214 -0.6323 -0.7690
  605TMC3    O1 9027   0.456   2.519  16.523 -0.4836 -0.1080 -0.3904
  605TMC3    O2 9028   0.783   2.521  16.841  0.3400 -0.4476  0.0616
  606TMC3    C1 9029   1.785   1.605  17.330 -0.0948 -0.6078 -1.1266
  606TMC3    C2 9030   1.830   1.618  17.461 -0.6536  0.7830 -0.3769
  606TMC3    C3 9031   1.853   1.509  17.535 -0.1654 -0.1534  0.1847
  606TMC3    C4 9032   1.797   1.481  17.268  0.0454  0.8020  0.6335
  606TMC3    C5 9033   1.842   1.375  17.347  0.8708  0.5440 -0.4314
  606TMC3    C6 9034   1.851   1.382  17.481  0.5624  0.7251 -0.3099
  606TMC3     C 9035   1.752   1.728  17.257  0.1912  0.3465 -0.3665
  606TMC3     O 9036   1.728   1.828  17.323 -0.3302  0.4385 -0.4598
  606TMC3     H 9037   1.831   1.718  17.504 -1.6431  0.3421  0.6768
  606TMC3    H1 9038   1.761   1.461  17.168  1.5202  1.2491  0.0162
  606TMC3    H2 9039   1.868   1.299  17.550  1.8989  3.1140  2.2152
  606TMC3    C7 9040   1.840   1.248  17.281 -0.1659  0.1152 -0.2527
  606TMC3    C8 9041   1.947   1.525  17.645 -0.8955  0.4701  0.2033
  606TMC3    O1 9042   1.822   1.248  17.157  0.3109  0.3273 -0.5292
  606TMC3    O2 9043   1.944   1.442  17.734  0.1207  0.0680  0.1499
  607MPD2     C 9044   3.970   3.932  11.645  0.3273  0.0721  0.3261
  607MPD2    C1 9045   4.023   3.984  11.759  0.4411 -0.6088  0.6406
  607MPD2    C2 9046   4.016   3.916  11.877  0.6429  0.3549  0.6243
  607MPD2    C3 9047   3.969   3.784  11.879  0.0268  0.1217 -0.1235
  607MPD2    C4 9048   3.900   3.739  11.771 -0.4014 -0.2729 -0.2452
  607MPD2    C5 9049   3.899   3.819  11.655 -0.5723 -0.2726  0.1974
  607MPD2     H 9050   4.066   3.962  11.961  4.1133 -1.2940 -0.5325
  607MPD2    H1 9051   3.854   3.642  11.770 -1.6087  0.3124 -1.3600
  607MPD2    H2 9052   3.972   3.990  11.554 -0.9039 -0.2948  0.0638
  607MPD2    H3 9053   3.839   3.780  11.573 -1.1473  0.2433  0.3760
  607MPD2     N 9054   3.992   3.710  11.996 -0.0548 -0.3743 -0.3652
  607MPD2    H5 9055   4.041   3.756  12.072  0.3405 -2.8173  0.8735
  607MPD2    N1 9056   4.084   4.112  11.763  0.6306 -0.2553 -0.1548
  607MPD2    H7 9057   4.111   4.155  11.851  0.6862  0.0359 -0.3114
  608TMC3    C1 9058   4.203   4.297  11.696  0.1756  1.0576  0.3786
  608TMC3    C2 9059   4.222   4.321  11.832  0.4905  0.6093  0.2484
  608TMC3    C3 9060   4.342   4.376  11.869  0.0116 -0.5618 -0.4172
  608TMC3    C4 9061   4.290   4.339  11.597  0.1048 -0.0665 -0.3762
  608TMC3    C5 9062   4.400   4.407  11.640  0.1884 -0.3004 -0.5854
  608TMC3    C6 9063   4.431   4.418  11.775 -0.7908  0.4240  0.4432
  608TMC3     C 9064   4.121   4.184  11.656 -0.3910 -0.0986 -0.0833
  608TMC3     O 9065   4.123   4.150  11.537 -0.0246 -0.0519  0.6718
  608TMC3     H 9066   4.139   4.320  11.902 -0.5089 -1.6165 -0.9628
  608TMC3    H1 9067   4.265   4.327  11.492  1.9184  0.8006 -0.9145
  608TMC3    H2 9068   4.527   4.458  11.805 -0.2200 -0.7708  0.2475
  608TMC3    C7 9069   4.494   4.463  11.541  0.2732 -0.2895  0.6916
  608TMC3    C8 9070   4.402   4.352  11.998  0.3070 -0.2929  0.7355
  608TMC3    O1 9071   4.445   4.508  11.438 -0.4056  0.1484  0.5077
  608TMC3    O2 9072   4.502   4.415  12.033 -0.5231  0.4728  0.7613
  609TMC3    C1 9073   3.439   3.043   9.471  0.0950 -0.1682  0.5153
  609TMC3    C2 9074   3.404   2.931   9.406 -0.6196 -0.3764  0.0737
  609TMC3    C3 9075   3.496   2.895   9.308  0.2659  0.5481 -0.2693
  609TMC3    C4 9076   3.542   3.122   9.440  0.1532 -0.2682 -0.3696
  609TMC3    C5 9077   3.623   3.087   9.340  0.4665 -0.4856 -0.7914
  609TMC3    C6 9078   3.607   2.967   9.274  0.1227  0.7448 -0.7983
  609TMC3     C 9079   3.348   3.079   9.579  0.4257 -0.2290  0.0526
  609TMC3     O 9080   3.302   2.985   9.643  0.0263  0.0468  0.0732
  609TMC3     H 9081   3.333   2.854   9.434  0.4600 -0.9147  1.3344
  609TMC3    H1 9082   3.566   3.209   9.500 -0.6429 -1.5158  1.7590
  609TMC3    H2 9083   3.681   2.930   9.204  0.5160 -2.0000  1.0910
  609TMC3    C7 9084   3.752   3.144   9.331 -0.8430 -0.3699 -0.0775
  609TMC3    C8 9085   3.500   2.759   9.268  0.3858  0.2021  0.0928
  609TMC3    O1 9086   3.804   3.187   9.434 -0.0599  0.6148  0.0743
  609TMC3    O2 9087   3.610   2.707   9.283 -0.0995  0.2002 -0.5126
  610TMC3    C1 9088   4.607   3.636  12.532 -0.9180 -0.4263 -0.6023
  610TMC3    C2 9089   4.625   3.700  12.409 -0.2129 -0.2601 -0.0769
  610TMC3    C3 9090   4.711   3.642  12.318  0.9736  0.1949 -0.5390
  610TMC3    C4 9091   4.676   3.525  12.557  0.2674 -0.2237  0.5176
  610TMC3    C5 9092   0.033   3.478  12.468  0.1845 -0.6173 -0.1157
  610TMC3    C6 9093   0.053   3.533  12.354 -0.3624  0.4155 -0.0861
  610TMC3     C 9094   4.470   3.617  12.572 -0.2409  0.4016  0.3189
  610TMC3     O 9095   4.385   3.707  12.563  0.0252  0.7522  0.5040
  610TMC3     H 9096   4.570   3.793  12.399  0.1204 -0.0083  0.4432
  610TMC3    H1 9097   4.676   3.470  12.650  1.4132  1.3181  1.4189
  610TMC3    H2 9098   0.137   3.509  12.290 -2.6076 -3.3997 -1.6189
  610TMC3    C7 9099   0.138   3.404  12.528 -0.6848 -0.6285  0.1401
  610TMC3    C8 9100   4.705   3.689  12.178 -0.4992  0.3787 -0.7325
  610TMC3    O1 9101   0.177   3.428  12.639  0.0388  0.3979 -0.2039
  610TMC3    O2 9102   4.657   3.800  12.160  0.4880 -0.7142  0.0727
  611MPD2     C 9103   4.078   3.659  10.321  0.0598 -0.6793  0.1891
  611MPD2    C1 9104   4.206   3.605  10.299 -0.5482  0.4901  0.2621
  611MPD2    C2 9105   4.323   3.679  10.328 -0.6575  0.5651 -0.0575
  611MPD2    C3 9106   4.312   3.802  10.392 -0.6635 -0.7993 -0.0475
  611MPD2    C4 9107   4.187   3.843  10.426 -0.8634 -0.1391 -0.6348
  611MPD2    C5 9108   4.069   3.773  10.393  0.2447  0.4387 -0.6341
  611MPD2     H 9109   4.423   3.639  10.315 -0.7626  0.0878  0.6401
  611MPD2    H1 9110   4.185   3.944  10.465  1.9656 -0.3203  0.0456
  611MPD2    H2 9111   3.989   3.605  10.290 -0.5884  1.0281 -0.9022
  611MPD2    H3 9112   3.973   3.814  10.422 -0.3453 -1.4140 -0.0173
  611MPD2     N 9113   4.425   3.882  10.408 -0.1590  0.1048  0.3352
  611MPD2    H5 9114   4.418   3.968  10.462  0.4963 -0.1572  0.8260
  611MPD2    N1 9115   4.208   3.470  10.247  0.2144 -0.3177  0.0760
  611MPD2    H7 9116   4.123   3.431  10.208 -0.2095  0.9093 -0.2364
  612TMC3    C1 9117   4.644   3.969  10.413 -0.0108 -0.3937  0.5107
  612TMC3    C2 9118   4.639   4.000  10.546 -0.9825  0.1446 -0.3889
  612TMC3    C3 9119   4.714   4.100  10.598  0.1899 -0.3784  0.3598
  612TMC3    C4 9120   0.002   4.029  10.336 -0.0093  0.4488 -0.1098
  612TMC3    C5 9121   0.094   4.104  10.404 -0.1267 -0.5314  0.1862
  612TMC3    C6 9122   0.073   4.158  10.529  0.3800  0.2384 -0.0783
  612TMC3     C 9123   4.550   3.869  10.359  0.0952 -0.1749  0.5137
  612TMC3     O 9124   4.566   3.830  10.243 -0.8155  0.4318  0.4975
  612TMC3     H 9125   4.563   3.953  10.608  0.5391  1.7838  2.7724
  612TMC3    H1 9126   0.022   4.002  10.233 -0.0559 -0.8781  0.2227
  612TMC3    H2 9127   0.140   4.231  10.574 -0.2635  1.4685 -1.0910
  612TMC3    C7 9128   0.200   4.178  10.333 -0.4964 -0.9990 -0.2044
  612TMC3    C8 9129   4.694   4.127  10.739 -0.3469 -0.1662 -0.0116
  612TMC3    O1 9130   0.295   4.206  10.403 -0.3957 -0.0201  0.1713
  612TMC3    O2 9131   4.585   4.115  10.791  0.0330 -0.5074  0.1509
  613MPD2     C 9132   3.248   0.777  16.844 -0.4207  0.2022 -0.1456
  613MPD2    C1 9133   3.192   0.825  16.730  0.2201  0.6503  0.1367
  613MPD2    C2 9134   3.077   0.758  16.686  0.1355  0.3335 -1.0164
  613MPD2    C3 9135   3.009   0.666  16.761  0.8165 -0.5699  0.0353
  613MPD2    C4 9136   3.064   0.627  16.883  0.5621 -0.7366  0.4713
  613MPD2    C5 9137   3.183   0.680  16.918 -0.5188  0.1198 -0.0899
  613MPD2     H 9138   3.038   0.783  16.588 -1.1881 -1.3935 -0.9277
  613MPD2    H1 9139   3.012   0.558  16.949 -0.4008 -0.2453  0.2361
  613MPD2    H2 9140   3.344   0.816  16.876  0.2120 -1.4843 -0.0061
  613MPD2    H3 9141   3.223   0.649  17.014 -0.7092  0.2378  0.0261
  613MPD2     N 9142   2.894   0.599  16.716  0.6390 -0.8257  0.1598
  613MPD2    H5 9143   2.853   0.522  16.768 -1.3270 -0.2413 -0.4948
  613MPD2    N1 9144   3.249   0.933  16.656 -0.3143  1.1437  0.9458
  613MPD2    H7 9145   3.344   0.959  16.679  0.3525 -0.5482  0.1173
  614TMC3    C1 9146   3.298   1.035  16.461 -0.1433  0.0486 -0.1123
  614TMC3    C2 9147   3.356   0.916  16.434  0.1805 -0.5143 -0.2045
  614TMC3    C3 9148   3.341   0.861  16.310 -0.3467  0.1514 -0.0847
  614TMC3    C4 9149   3.246   1.109  16.361  0.3211  0.7113 -0.1822
  614TMC3    C5 9150   3.224   1.046  16.243 -1.3590 -0.4738  0.4089
  614TMC3    C6 9151   3.263   0.922  16.214  0.1605  0.4565  0.5792
  614TMC3     C 9152   3.191   0.996  16.549  0.4605  0.3789 -0.1020
  614TMC3     O 9153   3.075   1.010  16.512  0.1186 -0.0621 -0.5000
  614TMC3     H 9154   3.408   0.863  16.514  2.1046 -0.8270 -1.6561
  614TMC3    H1 9155   3.199   1.204  16.383  1.7560  1.6779 -1.3744
  614TMC3    H2 9156   3.257   0.887  16.112  0.1142  1.0038  0.4002
  614TMC3    C7 9157   3.190   1.138  16.137 -0.7015  0.4485  0.3754
  614TMC3    C8 9158   3.315   0.723  16.308  1.0579 -0.3676  0.3559
  614TMC3    O1 9159   3.210   1.256  16.161  0.0224 -0.0205  0.1909
  614TMC3    O2 9160   3.231   0.691  16.227 -0.1898 -0.2012  0.0453
  615MPD2     C 9161   1.945   1.934  16.042 -0.0920  0.0978 -0.3359
  615MPD2    C1 9162   2.019   2.005  15.949  0.1293 -0.4071 -0.3590
  615MPD2    C2 9163   1.978   2.006  15.815 -0.5475  0.4523  0.4068
  615MPD2    C3 9164   1.874   1.926  15.780 -0.7804 -0.0255  1.0128
  615MPD2    C4 9165   1.798   1.855  15.867 -0.7759  0.2910  0.1016
  615MPD2    C5 9166   1.843   1.852  15.998  0.2516  0.9771  0.2987
  615MPD2     H 9167   2.028   2.061  15.736 -1.0681  1.0778  0.5187
  615MPD2    H1 9168   1.713   1.792  15.842  1.4317 -1.4461 -3.0515
  615MPD2    H2 9169   1.955   1.945  16.150  0.7958 -1.2639 -0.2748
  615MPD2    H3 9170   1.792   1.786  16.067  0.7022  0.8678  0.5220
  615MPD2     N 9171   1.861   1.915  15.641 -0.1026 -0.4049 -0.5565
  615MPD2    H5 9172   1.934   1.960  15.587  0.6824 -1.6599 -0.5552
  615MPD2    N1 9173   2.110   2.108  15.984  0.2688  0.3957  0.3246
  615MPD2    H7 9174   2.145   2.167  15.909  2.7788  0.3141  1.4236
  616TMC3    C1 9175   2.213   2.275  16.121 -0.4870  0.5308  0.6957
  616TMC3    C2 9176   2.309   2.292  16.214  0.0210 -0.7102 -0.6433
  616TMC3    C3 9177   2.379   2.409  16.208 -0.2683 -0.0217 -0.8267
  616TMC3    C4 9178   2.190   2.362  16.025 -0.8575 -0.5067 -0.9632
  616TMC3    C5 9179   2.258   2.480  16.023 -0.1846 -0.4015 -0.1094
  616TMC3    C6 9180   2.347   2.512  16.119 -0.0983 -0.2042  0.1232
  616TMC3     C 9181   2.147   2.144  16.112 -0.1467  0.3663  0.0657
  616TMC3     O 9182   2.116   2.087  16.217 -0.1271  0.2052 -0.5204
  616TMC3     H 9183   2.336   2.210  16.280  1.1563  0.0387 -0.1778
  616TMC3    H1 9184   2.123   2.344  15.941  0.3582 -0.4238 -1.9392
  616TMC3    H2 9185   2.389   2.611  16.130  2.1203 -0.8990 -2.2226
  616TMC3    C7 9186   2.252   2.578  15.922 -0.0876 -0.6255  0.1037
  616TMC3    C8 9187   2.473   2.434  16.309 -0.0988 -0.3910  0.4028
  616TMC3    O1 9188   2.272   2.697  15.949 -0.3314  0.0057 -0.4738
  616TMC3    O2 9189   2.476   2.356  16.403  0.1670 -0.1908  0.1003
  617MPD2     C 9190   0.946   0.167  13.734  0.2198 -0.1749 -0.0167
  617MPD2    C1 9191   0.966   0.168  13.871 -0.4308  0.6132 -0.0337
  617MPD2    C2 9192   0.863   0.215  13.954 -0.9645 -0.4583  0.8851
  617MPD2    C3 9193   0.738   0.242  13.901 -0.2078 -0.3893  0.0333
  617MPD2    C4 9194   0.713   0.219  13.770  0.0768  0.0704 -0.6099
  617MPD2    C5 9195   0.814   0.192  13.684 -0.5739  0.5813  0.2880
  617MPD2     H 9196   0.890   0.237  14.057  0.2442  0.7588  0.3001
  617MPD2    H1 9197   0.621   0.252  13.725  0.6460 -0.1289 -1.9044
  617MPD2    H2 9198   1.032   0.136  13.675  0.1488 -0.1286 -0.1436
  617MPD2    H3 9199   0.801   0.184  13.576 -0.9146 -1.0012  0.4417
  617MPD2     N 9200   0.632   0.303  13.968 -0.0616  0.0508 -0.3000
  617MPD2    H5 9201   0.555   0.343  13.915 -1.7845 -0.1667  2.0149
  617MPD2    N1 9202   1.101   0.148  13.910  0.4423  0.0872 -0.7026
  617MPD2    H7 9203   1.169   0.135  13.835  1.6565 -0.6021  0.4992
  618TMC3    C1 9204   1.285   0.117  14.052  0.5113  0.9044  0.7254
  618TMC3    C2 9205   1.333   4.732  14.095 -0.2860 -0.4232  0.5377
  618TMC3    C3 9206   1.465   4.698  14.077 -0.2620 -0.0382 -0.1625
  618TMC3    C4 9207   1.361   0.195  13.973 -0.6672 -0.1662 -0.1190
  618TMC3    C5 9208   1.494   0.159  13.962 -0.3338  0.2683  0.4517
  618TMC3    C6 9209   1.552   0.045  14.014 -0.6814 -0.9755  0.1487
  618TMC3     C 9210   1.146   0.132  14.043  0.1388 -0.5246 -0.6111
  618TMC3     O 9211   1.077   0.112  14.144  0.4404  0.6137 -0.2312
  618TMC3     H 9212   1.265   4.673  14.156 -1.1632  0.8457  0.7828
  618TMC3    H1 9213   1.327   0.286  13.926  0.1198  1.1609  1.9171
  618TMC3    H2 9214   1.659   0.034  14.009 -0.5958 -0.5689  1.0951
  618TMC3    C7 9215   1.575   0.259  13.887 -0.1227 -0.7093 -0.2724
  618TMC3    C8 9216   1.493   4.557  14.063 -0.0585  0.9202  0.4820
  618TMC3    O1 9217   1.553   0.380  13.903  0.5642 -0.1128  0.2428
  618TMC3    O2 9218   1.416   4.483  14.115 -0.2204 -0.4985 -0.3786
  619MPD2     C 9219   2.208   1.505  13.720 -0.3564 -0.9062  0.3956
  619MPD2    C1 9220   2.108   1.600  13.711  0.5591  0.0413 -0.8646
  619MPD2    C2 9221   1.998   1.588  13.793  0.5572  0.1380 -0.5480
  619MPD2    C3 9222   1.990   1.486  13.882 -0.0490 -0.1411  0.2745
  619MPD2    C4 9223   2.089   1.388  13.885 -0.0589 -0.1636 -0.8517
  619MPD2    C5 9224   2.192   1.396  13.798  0.3610  0.3461  0.1919
  619MPD2     H 9225   1.926   1.669  13.787 -0.4614 -0.7319 -0.1076
  619MPD2    H1 9226   2.088   1.307  13.957 -0.7447  0.5948 -0.0090
  619MPD2    H2 9227   2.289   1.499  13.648 -0.3812 -0.9923  0.3749
  619MPD2    H3 9228   2.268   1.319  13.796  0.2467  0.2744 -0.9767
  619MPD2     N 9229   1.874   1.478  13.970 -0.5552 -0.2910  0.8661
  619MPD2    H5 9230   1.874   1.403  14.039 -1.4172 -0.5284  0.6057
  619MPD2    N1 9231   2.102   1.701  13.614  0.1724  0.2656  0.2335
  619MPD2    H7 9232   2.009   1.738  13.605  0.2902  0.4589 -0.1717
  620TMC3    C1 9233   2.179   1.867  13.462 -0.8831 -0.9019 -0.0343
  620TMC3    C2 9234   2.053   1.915  13.452 -0.3992  0.1148  0.2561
  620TMC3    C3 9235   2.034   2.031  13.381  0.0120  0.5875  0.8731
  620TMC3    C4 9236   2.283   1.936  13.411  0.7853  0.9075  0.1798
  620TMC3    C5 9237   2.263   2.049  13.338 -0.2531 -0.4343  0.0994
  620TMC3    C6 9238   2.139   2.099  13.330 -0.0015  0.7098 -0.4136
  620TMC3     C 9239   2.208   1.746  13.539  0.2282  0.1551  0.1095
  620TMC3     O 9240   2.326   1.714  13.542 -0.1788 -0.1898 -0.5889
  620TMC3     H 9241   1.971   1.873  13.510 -1.2072  2.8091  1.0560
  620TMC3    H1 9242   2.375   1.881  13.398  0.0837 -0.1482 -0.3730
  620TMC3    H2 9243   2.102   2.190  13.285  0.3781  0.3084 -1.5396
  620TMC3    C7 9244   2.361   2.157  13.351 -0.1330  0.7754 -0.3902
  620TMC3    C8 9245   1.930   2.113  13.431 -0.4279 -0.2792  0.2039
  620TMC3    O1 9246   2.314   2.263  13.316 -0.5033  0.9667  0.4713
  620TMC3    O2 9247   1.949   2.227  13.471  0.4556  0.4800 -0.4989
  621MPD2     C 9248   2.704   2.358   9.992  0.3799  0.1354 -0.0144
  621MPD2    C1 9249   2.797   2.308  10.080  0.3918 -0.3333 -0.6301
  621MPD2    C2 9250   2.916   2.386  10.081  0.9238  0.4553 -0.2306
  621MPD2    C3 9251   2.940   2.503  10.008  0.0317 -0.0627  0.0768
  621MPD2    C4 9252   2.843   2.546   9.922 -0.5927  0.3752 -0.1619
  621MPD2    C5 9253   2.726   2.476   9.929  0.4175  0.0193  0.5610
  621MPD2     H 9254   2.993   2.353  10.150  1.1634  1.3570 -0.0604
  621MPD2    H1 9255   2.853   2.637   9.864 -1.6891 -0.8308 -2.2411
  621MPD2    H2 9256   2.610   2.312   9.963  1.7202 -2.7168  0.2476
  621MPD2    H3 9257   2.641   2.512   9.873  1.2045 -0.0589 -0.6835
  621MPD2     N 9258   3.073   2.554  10.023 -0.2283 -0.3420 -0.1421
  621MPD2    H5 9259   3.128   2.523  10.102 -0.8011 -1.5241 -0.2011
  621MPD2    N1 9260   2.792   2.187  10.157 -0.2858  0.6670 -0.1423
  621MPD2    H7 9261   2.870   2.172  10.221  0.0648  2.2026 -0.2231
  622TMC3    C1 9262   2.733   1.974  10.230 -0.1859  0.3341 -0.1950
  622TMC3    C2 9263   2.782   1.987  10.358 -0.2819  0.9094 -0.0477
  622TMC3    C3 9264   2.786   1.866  10.434 -0.5053 -0.1079  0.2393
  622TMC3    C4 9265   2.699   1.852  10.180 -0.5675 -0.1660 -0.4223
  622TMC3    C5 9266   2.715   1.737  10.256 -0.0055  0.2963 -0.0505
  622TMC3    C6 9267   2.762   1.744  10.383  0.2204  0.2411  0.1774
  622TMC3     C 9268   2.693   2.088  10.145 -0.8666  0.4286 -0.0953
  622TMC3     O 9269   2.609   2.076  10.053 -0.0379 -0.5332  0.1544
  622TMC3     H 9270   2.794   2.084  10.405  1.5306  0.3142  0.7103
  622TMC3    H1 9271   2.664   1.846  10.078  0.6478 -0.4232 -0.8247
  622TMC3    H2 9272   2.754   1.653  10.442 -3.2292 -0.7008 -1.7079
  622TMC3    C7 9273   2.674   1.603  10.209 -0.4407 -0.7348  0.0003
  622TMC3    C8 9274   2.802   1.869  10.578 -0.0444 -0.9065 -0.3601
  622TMC3    O1 9275   2.727   1.510  10.272 -0.5986  0.3843 -0.4602
  622TMC3    O2 9276   2.837   1.765  10.633 -0.3018  0.3652 -0.3189
  623MPD2     C 9277   1.354   2.745  15.689  0.3169  0.6491 -0.2874
  623MPD2    C1 9278   1.282   2.699  15.797  0.6499 -0.1241 -0.2319
  623MPD2    C2 9279   1.338   2.726  15.925 -0.2345 -0.6759  0.4438
  623MPD2    C3 9280   1.458   2.795  15.944 -0.3606  0.3538  0.0495
  623MPD2    C4 9281   1.524   2.849  15.839  0.0076 -0.3160 -0.9949
  623MPD2    C5 9282   1.466   2.822  15.718 -0.1530 -0.1782  0.4165
  623MPD2     H 9283   1.285   2.705  16.017 -3.2492 -0.9119 -1.3588
  623MPD2    H1 9284   1.612   2.912  15.846 -0.7127  0.8585 -2.6642
  623MPD2    H2 9285   1.326   2.725  15.586 -1.7416  1.0568  0.1926
  623MPD2    H3 9286   1.507   2.872  15.632 -0.3806 -0.8707 -0.0898
  623MPD2     N 9287   1.486   2.810  16.080  0.3173  0.6337  0.1287
  623MPD2    H5 9288   1.428   2.766  16.151 -0.6118 -1.5285 -1.9890
  623MPD2    N1 9289   1.169   2.623  15.784  0.3670 -0.0954 -0.3772
  623MPD2    H7 9290   1.141   2.627  15.687  2.1127 -1.6194 -0.9578
  624TMC3    C1 9291   1.732   2.830  16.467 -0.1235  0.0105 -0.2075
  624TMC3    C2 9292   1.616   2.824  16.539 -0.2469 -0.5102 -0.0291
  624TMC3    C3 9293   1.497   2.827  16.474 -0.1170 -0.1127 -0.2785
  624TMC3    C4 9294   1.726   2.861  16.336  0.1858  0.4191  0.5696
  624TMC3    C5 9295   1.604   2.855  16.276 -0.3981 -0.3414 -0.4780
  624TMC3    C6 9296   1.486   2.846  16.336 -0.5937 -0.1649  0.4864
  624TMC3     C 9297   1.858   2.818  16.538 -0.0393 -0.7762  0.4584
  624TMC3     O 9298   1.857   2.844  16.660 -0.2089 -0.4682 -0.1596
  624TMC3     H 9299   1.627   2.796  16.643 -0.1189  2.5434  0.7758
  624TMC3    H1 9300   1.815   2.877  16.276 -1.6218  1.4859 -1.8554
  624TMC3    H2 9301   1.389   2.854  16.290 -0.4565  0.2289  0.2618
  624TMC3    C7 9302   1.600   2.862  16.130  0.1651  0.2994 -0.0486
  624TMC3    C8 9303   1.389   2.754  16.526  0.0709  0.4648  0.2639
  624TMC3    O1 9304   1.697   2.909  16.074 -0.7220  0.1043 -0.2520
  624TMC3    O2 9305   1.348   2.664  16.453 -0.2320 -0.3298 -0.1606
  625MPD2     C 9306   1.721   4.262   1.053 -0.0772  0.3636 -0.3271
  625MPD2    C1 9307   1.734   4.391   1.008 -0.5196  0.5566  0.0856
  625MPD2    C2 9308   1.861   4.440   0.996  0.0345 -0.0648  0.3210
  625MPD2    C3 9309   1.975   4.363   1.026 -0.2654  0.3375  0.3308
  625MPD2    C4 9310   1.955   4.229   1.069 -0.1530 -0.4579 -0.3038
  625MPD2    C5 9311   1.827   4.185   1.083  0.2900 -0.3901 -0.4288
  625MPD2     H 9312   1.867   4.531   0.938  0.6632  0.5784  1.3843
  625MPD2    H1 9313   2.040   4.168   1.096 -0.7320  0.7301  4.1956
  625MPD2    H2 9314   1.627   4.213   1.073  0.0687  0.1505 -0.1624
  625MPD2    H3 9315   1.801   4.084   1.113 -0.9713  0.6174  1.9389
  625MPD2     N 9316   2.101   4.426   1.013  0.4501 -0.4540 -0.8562
  625MPD2    H5 9317   2.099   4.520   0.975  0.3561 -0.6812 -1.4154
  625MPD2    N1 9318   1.628   4.473   0.956  0.1550 -0.3088  0.1272
  625MPD2    H7 9319   1.650   4.570   0.942 -1.5361 -0.1369 -1.3052
  626TMC3    C1 9320   1.404   4.527   0.891  0.4308  0.8312 -0.2234
  626TMC3    C2 9321   1.302   4.504   0.804 -0.2398 -0.5398  0.3030
  626TMC3    C3 9322   1.188   4.584   0.811  0.2046  0.3122  0.5262
  626TMC3    C4 9323   1.402   4.630   0.976 -0.4052  0.1925  0.1166
  626TMC3    C5 9324   1.289   4.717   0.975  0.2884  0.8559 -0.7921
  626TMC3    C6 9325   1.183   4.685   0.898  0.0645 -0.3718  0.1208
  626TMC3     C 9326   1.502   4.424   0.924  0.4744 -0.5052  0.1275
  626TMC3     O 9327   1.456   4.310   0.921  0.7067 -0.0410  0.2346
  626TMC3     H 9328   1.326   4.424   0.736  0.0967  1.6209 -2.1176
  626TMC3    H1 9329   1.486   4.650   1.041  2.1891 -1.8383 -2.6069
  626TMC3    H2 9330   1.083   4.724   0.918 -0.5840 -1.8025 -0.3424
  626TMC3    C7 9331   1.264   0.034   1.113  0.2702  0.2899 -0.7176
  626TMC3    C8 9332   1.104   4.570   0.692 -0.1204 -0.0858  0.3395
  626TMC3    O1 9333   1.328   4.729   1.212 -0.2934  0.5420  0.0092
  626TMC3    O2 9334   1.137   4.498   0.600  0.1477 -0.0117  0.4878
  627MPD2     C 9335   0.168   4.121  14.859  0.7695  0.0468 -0.0864
  627MPD2    C1 9336   0.266   4.047  14.923  0.6055  0.5437  0.2949
  627MPD2    C2 9337   0.229   3.913  14.952 -0.0371 -0.0037  0.3911
  627MPD2    C3 9338   0.106   3.862  14.924 -0.3342  0.1503 -0.1661
  627MPD2    C4 9339   0.010   3.948  14.884 -1.0950  0.0468 -0.6191
  627MPD2    C5 9340   0.044   4.077  14.852  0.5407 -0.9618 -0.5064
  627MPD2     H 9341   0.299   3.850  15.006  0.2806 -0.6126 -0.7148
  627MPD2    H1 9342   4.646   3.913  14.879 -1.4706  1.3290 -2.0510
  627MPD2    H2 9343   0.188   4.220  14.820  0.3912 -0.8028 -2.4224
  627MPD2    H3 9344   4.704   4.141  14.812 -0.1387 -1.6640 -0.2805
  627MPD2     N 9345   0.081   3.718  14.943  0.2218 -0.7952  0.2436
  627MPD2    H5 9346   0.155   3.649  14.931  0.6258 -0.4249  0.5865
  627MPD2    N1 9347   0.398   4.095  14.951  0.2421  0.4442 -0.6330
  627MPD2    H7 9348   0.461   4.040  15.010 -0.6519 -1.7948 -1.7841
  628TMC3    C1 9349   0.586   4.232  14.917  0.0216  0.0375 -0.5613
  628TMC3    C2 9350   0.661   4.140  14.983  0.5584  0.6529 -0.1464
  628TMC3    C3 9351   0.799   4.162  14.991 -0.1037 -0.3553 -0.8050
  628TMC3    C4 9352   0.637   4.345  14.861 -0.0914  0.7461  0.1975
  628TMC3    C5 9353   0.776   4.361  14.873  0.7462  0.0507 -0.2868
  628TMC3    C6 9354   0.856   4.280  14.949  0.5246 -0.1085 -0.7926
  628TMC3     C 9355   0.444   4.216  14.907  0.5930  0.1275 -0.6881
  628TMC3     O 9356   0.382   4.300  14.842 -0.3759 -0.2036 -0.3411
  628TMC3     H 9357   0.622   4.044  15.015 -1.6447  2.4179  2.3872
  628TMC3    H1 9358   0.577   4.406  14.795 -2.9673 -2.6304 -0.3137
  628TMC3    H2 9359   0.964   4.288  14.947  0.4426  1.0644 -0.5590
  628TMC3    C7 9360   0.856   4.449  14.783  0.6652 -0.4593 -0.1711
  628TMC3    C8 9361   0.876   4.047  14.955 -0.5847 -0.2030 -0.9957
  628TMC3    O1 9362   0.964   4.401  14.746  0.0252  0.1124 -0.2883
  628TMC3    O2 9363   0.931   4.060  14.847 -0.1955 -0.0903 -0.7125
  629MPD2     C 9364   2.915   2.607  16.502 -0.6868  0.0632 -0.0879
  629MPD2    C1 9365   2.922   2.612  16.363 -0.4598  0.1237 -0.6591
  629MPD2    C2 9366   2.810   2.577  16.286 -0.2456 -0.2360  0.0565
  629MPD2    C3 9367   2.683   2.550  16.351 -0.1198 -0.0998  0.0822
  629MPD2    C4 9368   2.677   2.552  16.492 -0.0539  0.0364 -0.6791
  629MPD2    C5 9369   2.798   2.574  16.559 -0.0040  0.5616  0.7482
  629MPD2     H 9370   2.799   2.588  16.179 -1.3037 -1.8212  0.0027
  629MPD2    H1 9371   2.586   2.530  16.547 -0.5460  3.6465 -0.0319
  629MPD2    H2 9372   2.988   2.655  16.566 -0.0173  1.6602 -2.0641
  629MPD2    H3 9373   2.793   2.572  16.667  0.9994 -1.7497  0.7364
  629MPD2     N 9374   2.566   2.524  16.273  0.0905 -0.0397 -0.0516
  629MPD2    H5 9375   2.571   2.560  16.178  2.9257  0.2821  0.2146
  629MPD2    N1 9376   3.047   2.657  16.312 -0.3091  0.1059  0.2244
  629MPD2    H7 9377   3.121   2.664  16.381 -2.7734  2.2267  2.6934
  630TMC3    C1 9378   3.215   2.709  16.170  0.2109 -0.6213  0.0671
  630TMC3    C2 9379   3.256   2.806  16.079  0.3847  0.6427 -0.1569
  630TMC3    C3 9380   3.389   2.816  16.053  0.9058  0.0979  0.4452
  630TMC3    C4 9381   3.304   2.631  16.233  0.0092 -0.0354  0.3497
  630TMC3    C5 9382   3.435   2.636  16.203 -0.1266  0.1546 -0.3229
  630TMC3    C6 9383   3.483   2.729  16.113 -0.3308  0.0488 -0.7879
  630TMC3     C 9384   3.075   2.674  16.177  0.2652 -0.3970 -0.1099
  630TMC3     O 9385   2.996   2.686  16.080  0.0408  0.5320 -0.6481
  630TMC3     H 9386   3.176   2.866  16.037  0.2273 -0.2713 -1.1556
  630TMC3    H1 9387   3.263   2.546  16.287  2.2829 -0.7150  0.9879
  630TMC3    H2 9388   3.587   2.750  16.091 -0.2819 -0.1727 -0.7697
  630TMC3    C7 9389   3.513   2.607  16.320 -0.0981 -0.0448  0.1774
  630TMC3    C8 9390   3.439   2.949  16.075 -0.2678 -0.1032 -0.1676
  630TMC3    O1 9391   3.489   2.500  16.373 -0.2437  0.2255  0.1068
  630TMC3    O2 9392   3.512   2.961  16.175 -0.5177  0.3407  0.6298
  631MPD2     C 9393   1.585   2.542  15.067  0.0155  0.3536 -0.6694
  631MPD2    C1 9394   1.720   2.537  15.101  0.3392 -0.2013 -1.0166
  631MPD2    C2 9395   1.771   2.415  15.149 -0.1676  0.2850 -0.1519
  631MPD2    C3 9396   1.693   2.298  15.143  0.4985 -0.7716 -0.8927
  631MPD2    C4 9397   1.569   2.306  15.101  0.0255  0.3929  0.0221
  631MPD2    C5 9398   1.512   2.426  15.077  0.2666  0.7506 -0.1504
  631MPD2     H 9399   1.871   2.405  15.190  0.7262  1.6327 -1.9819
  631MPD2    H1 9400   1.503   2.220  15.102 -0.4763  0.7662 -1.1428
  631MPD2    H2 9401   1.534   2.625  15.018  0.7626  1.7417  0.8780
  631MPD2    H3 9402   1.407   2.422  15.050 -0.0719  0.1494  1.2837
  631MPD2     N 9403   1.749   2.171  15.172 -0.3332  0.2476 -0.7166
  631MPD2    H5 9404   1.846   2.167  15.203 -0.4423 -0.6116 -0.4934
  631MPD2    N1 9405   1.797   2.656  15.094 -0.2228  0.2850 -0.1472
  631MPD2    H7 9406   1.756   2.734  15.045 -1.0938  0.1700  0.3966
  632TMC3    C1 9407   1.968   2.810  15.141 -0.6217 -0.2254  0.3377
  632TMC3    C2 9408   1.958   2.889  15.249  0.2490  0.4202 -1.3779
  632TMC3    C3 9409   1.940   3.029  15.244 -0.0355  0.5550  0.1388
  632TMC3    C4 9410   1.950   2.862  15.021 -0.6030  0.0574  0.2175
  632TMC3    C5 9411   1.921   2.997  15.011 -0.4102  0.7416 -1.0137
  632TMC3    C6 9412   1.922   3.078  15.120 -0.4224 -0.1720 -0.3594
  632TMC3     C 9413   1.915   2.681  15.168 -0.1152 -0.3399 -0.2685
  632TMC3     O 9414   1.955   2.620  15.267 -0.2321  0.3302 -0.5550
  632TMC3     H 9415   1.938   2.848  15.348  0.2039 -0.1250 -1.6131
  632TMC3    H1 9416   1.948   2.805  14.929  0.2603 -3.3697  2.3245
  632TMC3    H2 9417   1.899   3.184  15.109  1.8205  0.4307  0.6702
  632TMC3    C7 9418   1.960   3.059  14.881 -0.1644 -0.1581  0.6428
  632TMC3    C8 9419   1.845   3.094  15.342 -0.1755 -0.4088 -0.3387
  632TMC3    O1 9420   2.049   3.005  14.819  0.1321 -0.3870 -0.3626
  632TMC3    O2 9421   1.756   3.171  15.301 -0.7797  0.1662  0.0666
  633MPD2     C 9422   1.413   1.007  17.636  0.0495  0.1620  0.5927
  633MPD2    C1 9423   1.373   0.895  17.561 -0.3435  0.3217  0.3474
  633MPD2    C2 9424   1.375   0.768  17.620 -0.5492 -0.5893 -0.0277
  633MPD2    C3 9425   1.419   0.754   0.000 -0.3431  0.2767 -0.4066
  633MPD2    C4 9426   1.464   0.862   0.066  0.4727  0.5765 -0.9195
  633MPD2    C5 9427   1.466   0.983   0.010 -0.0966 -0.3123  0.0836
  633MPD2     H 9428   1.344   0.682  17.562 -1.6571  0.2999 -0.7560
  633MPD2    H1 9429   1.507   0.855   0.165 -0.5401  3.6137 -0.2599
  633MPD2    H2 9430   1.415   1.107  17.593  0.6624 -0.5539 -1.0754
  633MPD2    H3 9431   1.499   1.071   0.064 -3.2174  0.3180  0.9678
  633MPD2     N 9432   1.443   0.627   0.059  0.3897 -0.4402 -0.0647
  633MPD2    H5 9433   1.512   0.627   0.134  1.8846 -3.1276 -1.4563
  633MPD2    N1 9434   1.325   0.897  17.427  0.2958 -0.2516  0.1244
  633MPD2    H7 9435   1.314   0.805  17.387  2.1225 -0.1174 -0.6945
  634TMC3    C1 9436   1.247   0.982  17.216  0.0867  0.4194  0.2631
  634TMC3    C2 9437   1.197   0.859  17.189  0.3469  0.1319 -0.3038
  634TMC3    C3 9438   1.166   0.842  17.060 -0.0821  0.3255  0.2657
  634TMC3    C4 9439   1.274   1.076  17.125  0.2084  0.4240  0.3228
  634TMC3    C5 9440   1.241   1.048  16.999  0.2213  0.1135  0.1331
  634TMC3    C6 9441   1.188   0.930  16.960 -0.1080 -0.5880  0.2468
  634TMC3     C 9442   1.299   1.007  17.352 -0.7675 -0.0317  0.3342
  634TMC3     O 9443   1.319   1.121  17.384  0.8164  0.1202 -0.1659
  634TMC3     H 9444   1.159   0.787  17.261  0.8631 -0.6896 -0.8480
  634TMC3    H1 9445   1.334   1.162  17.152  0.5927  0.6540 -1.2236
  634TMC3    H2 9446   1.181   0.901  16.856 -2.1399  2.0293 -0.3652
  634TMC3    C7 9447   1.227   1.152  16.903  0.2334 -0.1474  1.4002
  634TMC3    C8 9448   1.152   0.702  17.013 -0.5606 -0.0711 -0.1700
  634TMC3    O1 9449   1.218   1.117  16.787 -0.4130 -1.1117 -0.2505
  634TMC3    O2 9450   1.202   0.620  17.088  0.3389 -0.1780 -0.4377
  635TMC3    C1 9451   1.619   2.167   0.337 -0.1429 -0.3080 -0.2520
  635TMC3    C2 9452   1.599   2.030   0.321  0.4338  0.3477 -0.5952
  635TMC3    C3 9453   1.516   1.988   0.220 -0.0215 -0.9430 -0.1088
  635TMC3    C4 9454   1.549   2.260   0.262 -0.4582 -0.8053  0.2928
  635TMC3    C5 9455   1.468   2.212   0.158  0.4004 -0.2824 -0.7020
  635TMC3    C6 9456   1.450   2.077   0.139 -0.4327  0.2615 -0.6821
  635TMC3     C 9457   1.704   2.217   0.439  0.6686 -0.1416 -0.1705
  635TMC3     O 9458   1.676   2.326   0.490  0.2137  0.1127 -0.1926
  635TMC3     H 9459   1.645   1.954   0.383 -1.0823  1.0165  1.3276
  635TMC3    H1 9460   1.586   2.361   0.261 -0.3142 -0.8325  2.5873
  635TMC3    H2 9461   1.371   2.043   0.073 -0.8330 -0.7060  0.3062
  635TMC3    C7 9462   1.403   2.311   0.066  0.1902  0.3906 -0.3563
  635TMC3    C8 9463   1.513   1.847   0.189 -0.0553 -0.3014 -0.5672
  635TMC3    O1 9464   1.400   2.427   0.108  0.1160  0.0308 -0.1949
  635TMC3    O2 9465   1.542   1.760   0.272  0.1598 -0.0513 -0.7115
  636MPD2     C 9466   2.738   0.935  15.924 -0.1029 -0.5302 -0.2168
  636MPD2    C1 9467   2.753   0.969  16.052  0.8025  0.9060 -0.0135
  636MPD2    C2 9468   2.734   0.878  16.149  0.2047 -0.3122 -0.9258
  636MPD2    C3 9469   2.700   0.747  16.117 -0.3331 -0.5479  0.0122
  636MPD2    C4 9470   2.686   0.712  15.988 -0.3477 -0.0761  0.4783
  636MPD2    C5 9471   2.702   0.808  15.897 -0.3224  0.0274 -0.4193
  636MPD2     H 9472   2.752   0.905  16.253  0.3406 -1.6153 -0.6036
  636MPD2    H1 9473   2.663   0.613  15.950  0.7404 -0.6808  1.4121
  636MPD2    H2 9474   2.744   1.012  15.848  0.7856 -0.3765  0.0134
  636MPD2    H3 9475   2.672   0.777  15.798  0.0673 -1.6344 -0.0272
  636MPD2     N 9476   2.685   0.657  16.218  0.0825  0.1057  0.1883
  636MPD2    H5 9477   2.720   0.684  16.309  1.2647 -0.2612 -0.1484
  636MPD2    N1 9478   2.782   1.103  16.096  0.4392  0.0540  0.3679
  636MPD2    H7 9479   2.776   1.122  16.196  2.4092 -2.1355  0.9154
  637TMC3    C1 9480   2.682   0.452  16.328  0.1920 -0.0796 -0.0196
  637TMC3    C2 9481   2.685   0.521  16.445 -0.0602  0.0242  0.1943
  637TMC3    C3 9482   2.772   0.486  16.544  0.1064 -0.0621  0.2403
  637TMC3    C4 9483   2.774   0.349  16.309 -0.3246 -0.6816  0.3098
  637TMC3    C5 9484   2.863   0.313  16.409  0.5835  0.3309 -0.2825
  637TMC3    C6 9485   2.862   0.383  16.532 -0.9994 -0.6720 -0.3786
  637TMC3     C 9486   2.654   0.525  16.205  0.1960  0.5411  0.1855
  637TMC3     O 9487   2.634   0.452  16.106 -0.0349 -0.2877  0.0784
  637TMC3     H 9488   2.611   0.597  16.469 -1.1555 -0.4221 -1.7130
  637TMC3    H1 9489   2.787   0.310  16.209 -1.4233 -0.4868  0.0917
  637TMC3    H2 9490   2.944   0.371  16.602 -1.7903  1.4310  0.9146
  637TMC3    C7 9491   2.992   0.303  16.355 -0.3466 -0.5814 -0.1538
  637TMC3    C8 9492   2.833   0.607  16.593 -0.2385 -0.1281  0.4667
  637TMC3    O1 9493   3.008   0.348  16.243 -0.1275  0.2750  0.0459
  637TMC3    O2 9494   2.827   0.701  16.513  0.0198 -0.3011 -0.7347
  638MPD2     C 9495   2.542   4.543  15.142  0.0352 -0.6146 -0.3797
  638MPD2    C1 9496   2.600   4.437  15.067  0.8790 -0.3731  0.0893
  638MPD2    C2 9497   2.573   4.306  15.108  0.2041  0.6273 -1.0204
  638MPD2    C3 9498   2.480   4.273  15.204  0.0490  0.3799 -0.0676
  638MPD2    C4 9499   2.420   4.381  15.271 -0.4611 -0.1047 -0.3054
  638MPD2    C5 9500   2.450   4.514  15.238 -0.4707 -0.2590 -0.0656
  638MPD2     H 9501   2.618   4.222  15.057  2.0176  0.8099  0.2771
  638MPD2    H1 9502   2.341   4.365  15.343  0.5179  3.1687  1.5183
  638MPD2    H2 9503   2.567   4.647  15.122  0.0956 -0.1928  1.9461
  638MPD2    H3 9504   2.402   4.596  15.291  0.9458  1.0837 -0.8673
  638MPD2     N 9505   2.462   4.137  15.225  0.7251  0.1708 -0.0232
  638MPD2    H5 9506   2.519   4.078  15.165  0.8454 -0.0536  0.3128
  638MPD2    N1 9507   2.681   4.461  14.962 -0.0729  0.2226  0.5880
  638MPD2    H7 9508   2.720   4.377  14.922  0.1653 -0.2977  1.9092
  639TMC3    C1 9509   2.423   3.942  15.327 -0.0138 -0.1827  0.2388
  639TMC3    C2 9510   2.327   3.860  15.267 -0.0359 -0.4220 -0.8823
  639TMC3    C3 9511   2.374   3.760  15.195 -0.2145 -0.5812 -0.3009
  639TMC3    C4 9512   2.560   3.918  15.313  0.0800  0.7316  0.8237
  639TMC3    C5 9513   2.603   3.805  15.251  0.7233 -0.2365  0.2078
  639TMC3    C6 9514   2.506   3.725  15.194  0.3261 -0.3571 -0.4429
  639TMC3     C 9515   2.397   4.080  15.330 -0.1591 -1.3363  0.6050
  639TMC3     O 9516   2.342   4.134  15.420 -0.0353  0.4427  0.3538
  639TMC3     H 9517   2.223   3.890  15.262  0.2117  0.5009 -0.4110
  639TMC3    H1 9518   2.634   3.982  15.361  0.2621 -1.3341  3.3476
  639TMC3    H2 9519   2.529   3.637  15.135 -3.1311 -1.9799  0.6237
  639TMC3    C7 9520   2.733   3.749  15.268 -0.7281  0.5052 -0.6903
  639TMC3    C8 9521   2.328   3.752  15.065 -0.1805  0.4383 -0.8938
  639TMC3    O1 9522   2.733   3.627  15.264  0.2044  0.0710 -0.5734
  639TMC3    O2 9523   2.404   3.768  14.969  0.2525  0.0449 -0.0331
  640MPD2     C 9524   3.336   3.995   9.669 -0.3196 -0.6492 -0.2338
  640MPD2    C1 9525   3.382   4.107   9.739 -0.4177  0.0961  0.2857
  640MPD2    C2 9526   3.328   4.140   9.860  0.3257 -0.1931  0.5786
  640MPD2    C3 9527   3.218   4.067   9.909 -0.1193  0.1095 -0.0762
  640MPD2    C4 9528   3.167   3.968   9.832  0.0366  0.1078 -0.3432
  640MPD2    C5 9529   3.232   3.922   9.721  1.0077 -0.4378  0.0071
  640MPD2     H 9530   3.375   4.222   9.915  1.3563 -0.3863 -0.0108
  640MPD2    H1 9531   3.077   3.917   9.865  0.7316 -1.0734 -0.2477
  640MPD2    H2 9532   3.378   3.962   9.575  0.9480 -0.4569  0.2642
  640MPD2    H3 9533   3.207   3.833   9.663 -0.9455  2.4194 -3.5804
  640MPD2     N 9534   3.155   4.085  10.034  0.0605  0.5337  0.3766
  640MPD2    H5 9535   3.067   4.036  10.043  0.4363  0.0810  1.6689
  640MPD2    N1 9536   3.496   4.173   9.685  0.3139 -0.0226 -0.2639
  640MPD2    H7 9537   3.527   4.133   9.597 -2.5372 -0.8728 -0.8668
  641TMC3    C1 9538   3.678   4.320   9.667  0.0326  0.9147  0.3877
  641TMC3    C2 9539   3.768   4.223   9.624  1.2494  0.3719  0.3507
  641TMC3    C3 9540   3.878   4.271   9.557 -0.2871 -0.4325  0.3174
  641TMC3    C4 9541   3.690   4.455   9.640 -0.0243  0.1569 -0.0146
  641TMC3    C5 9542   3.794   4.493   9.561 -1.2606 -0.5265 -0.2497
  641TMC3    C6 9543   3.893   4.402   9.518  0.3762 -0.4918  0.2349
  641TMC3     C 9544   3.550   4.288   9.733  0.2461  0.2627 -0.1268
  641TMC3     O 9545   3.515   4.363   9.823 -0.2038 -0.2508 -0.2277
  641TMC3     H 9546   3.749   4.120   9.651  1.1980  0.6447  1.3474
  641TMC3    H1 9547   3.609   4.519   9.674  0.4729 -0.4482  2.3168
  641TMC3    H2 9548   3.969   4.430   9.446 -0.6153 -0.4730 -0.8101
  641TMC3    C7 9549   3.806   4.631   9.510  0.0923  0.6601 -0.3302
  641TMC3    C8 9550   3.981   4.172   9.547 -0.8606  0.7043 -0.2880
  641TMC3    O1 9551   3.887   4.645   9.420  0.5064 -0.1767  0.5170
  641TMC3    O2 9552   3.954   4.058   9.574 -0.1427  0.3228 -0.0234
  642TMC3    C1 9553   4.205   4.427  12.910 -0.4878  0.1988  0.1789
  642TMC3    C2 9554   4.344   4.418  12.892  0.0944 -0.4256  0.3311
  642TMC3    C3 9555   4.386   4.312  12.811 -0.6466  0.8021  1.1214
  642TMC3    C4 9556   4.124   4.341  12.831 -0.1900  0.3843 -0.6749
  642TMC3    C5 9557   4.175   4.245  12.753 -0.9030 -0.4087 -0.2940
  642TMC3    C6 9558   4.307   4.235  12.735 -0.7053  0.1818  0.2511
  642TMC3     C 9559   4.148   4.544  12.979  0.1941 -0.0498  1.0482
  642TMC3     O 9560   4.221   4.631  13.026  0.1130 -0.1742 -0.3589
  642TMC3     H 9561   4.403   4.496  12.938  1.2097 -0.7290 -0.5847
  642TMC3    H1 9562   4.018   4.336  12.853  0.0064 -2.7319 -0.4868
  642TMC3    H2 9563   4.347   4.149  12.682  1.0379  0.2438  1.4498
  642TMC3    C7 9564   4.078   4.172  12.676 -0.1519 -0.1933  0.3557
  642TMC3    C8 9565   4.525   4.304  12.775  0.4673  0.5061  0.5625
  642TMC3    O1 9566   3.976   4.233  12.657 -0.6486 -0.3299  0.1302
  642TMC3    O2 9567   4.561   4.199  12.722  0.5780 -0.0791 -0.2782
  643TMC3    C1 9568   3.144   3.821   0.636 -0.3717  0.6608  0.6105
  643TMC3    C2 9569   3.007   3.814   0.644  0.6289  0.7213  0.0957
  643TMC3    C3 9570   2.950   3.711   0.569 -0.5771  0.1442  0.4555
  643TMC3    C4 9571   3.223   3.742   0.565  0.4708  0.7350 -0.1200
  643TMC3    C5 9572   3.163   3.660   0.481  0.0770  0.0436  0.7631
  643TMC3    C6 9573   3.030   3.632   0.496  0.0665 -0.4319  0.3114
  643TMC3     C 9574   3.185   3.957   0.660 -0.4235 -0.2220 -0.6911
  643TMC3     O 9575   3.090   4.032   0.644  0.0107  0.0904  0.0831
  643TMC3     H 9576   2.949   3.874   0.712 -0.2482 -1.6844  1.4825
  643TMC3    H1 9577   3.329   3.761   0.557  1.3645 -3.8362  1.1020
  643TMC3    H2 9578   2.981   3.547   0.450  0.2192 -0.7904  0.8034
  643TMC3    C7 9579   3.204   3.670   0.348  0.2236  1.1442  0.0087
  643TMC3    C8 9580   2.846   3.758   0.482 -0.1425 -0.3360 -0.2484
  643TMC3    O1 9581   3.265   3.772   0.318  0.5347 -1.0561 -0.0011
  643TMC3    O2 9582   2.767   3.678   0.428  0.0799  0.2090 -0.3957
  644MPD2     C 9583   3.675   4.322  10.171  0.0484 -0.3875  0.0205
  644MPD2    C1 9584   3.774   4.395  10.116 -0.3245 -0.0788 -0.0453
  644MPD2    C2 9585   3.781   4.523  10.155  0.2956  0.5301 -0.3180
  644MPD2    C3 9586   3.690   4.588  10.244  0.4463  0.7764 -0.2540
  644MPD2    C4 9587   3.592   4.511  10.297  0.1260 -0.0857 -0.1247
  644MPD2    C5 9588   3.588   4.374  10.260 -0.4406 -0.4097  0.6724
  644MPD2     H 9589   3.863   4.583  10.119  0.6664 -1.1502 -2.2314
  644MPD2    H1 9590   3.524   4.535  10.378 -0.0309  0.1402 -0.3253
  644MPD2    H2 9591   3.665   4.218  10.142 -1.0089 -0.1288 -0.5291
  644MPD2    H3 9592   3.514   4.307  10.302  1.9838 -2.9394  0.9072
  644MPD2     N 9593   3.714   4.720  10.269 -0.0013 -0.0804  0.3104
  644MPD2    H5 9594   3.791   0.020  10.215  0.3988 -0.5752  0.5287
  644MPD2    N1 9595   3.869   4.324  10.033  0.3417 -0.0086 -0.2906
  644MPD2    H7 9596   3.866   4.223  10.031  0.7891 -0.0069 -1.1636
  645TMC3    C1 9597   3.674   0.201  10.345 -0.2443  0.3186 -0.2543
  645TMC3    C2 9598   3.644   0.285  10.450 -1.1535  0.1885  0.4098
  645TMC3    C3 9599   3.681   0.416  10.445  0.0333  0.7810  0.4521
  645TMC3    C4 9600   3.726   0.246  10.227  0.8527  0.0673  0.2942
  645TMC3    C5 9601   3.773   0.376  10.227  0.2332 -0.4104  0.1282
  645TMC3    C6 9602   3.744   0.453  10.335  0.2657 -0.2897  0.3671
  645TMC3     C 9603   3.629   0.062  10.342 -0.1280  0.0359  0.0876
  645TMC3     O 9604   3.524   0.043  10.399 -0.0192  0.1347 -0.4827
  645TMC3     H 9605   3.594   0.249  10.539  1.3274 -0.5773  1.4967
  645TMC3    H1 9606   3.735   0.175  10.145  2.4678 -1.9256  2.1974
  645TMC3    H2 9607   3.761   0.560  10.337 -0.1227 -0.1900 -1.9790
  645TMC3    C7 9608   3.763   0.437  10.092 -0.5863 -0.7664 -0.0714
  645TMC3    C8 9609   3.719   0.489  10.565  0.3911 -0.1296  0.2307
  645TMC3    O1 9610   3.737   0.368   9.995  0.3805 -0.5901  0.0083
  645TMC3    O2 9611   3.829   0.544  10.562  0.7621  0.1111  0.1545
  646MPD2     C 9612   2.914   3.288  14.611  0.2765  0.6201 -0.4167
  646MPD2    C1 9613   2.822   3.187  14.587  0.0889 -0.0180 -0.0370
  646MPD2    C2 9614   2.709   3.217  14.512  0.8989 -0.4036 -0.3525
  646MPD2    C3 9615   2.687   3.349  14.469 -0.1828 -0.2865 -0.2528
  646MPD2    C4 9616   2.780   3.448  14.491 -0.3224 -0.0685  0.3909
  646MPD2    C5 9617   2.888   3.416  14.568  0.2891 -0.6154  0.5329
  646MPD2     H 9618   2.634   3.143  14.490  1.1379 -1.3506  2.0536
  646MPD2    H1 9619   2.766   3.547  14.449  0.1558 -1.6749 -3.5969
  646MPD2    H2 9620   3.008   3.271  14.663  0.7840  2.7227 -0.6308
  646MPD2    H3 9621   2.969   3.488  14.577  0.8734 -1.2935  0.6579
  646MPD2     N 9622   2.572   3.372  14.398 -0.0451  0.3954 -0.3366
  646MPD2    H5 9623   2.523   3.284  14.381  1.5615 -0.5679  0.0449
  646MPD2    N1 9624   2.858   3.053  14.625 -0.6213 -0.2113  0.0533
  646MPD2    H7 9625   2.951   3.041  14.663 -0.2063 -0.3788 -1.0065
  647TMC3    C1 9626   2.840   2.812  14.653 -0.5319 -0.7150  0.3539
  647TMC3    C2 9627   2.799   2.701  14.594  0.7992  0.1247  0.6550
  647TMC3    C3 9628   2.864   2.588  14.638  0.6138 -0.4524 -0.0634
  647TMC3    C4 9629   2.923   2.819  14.759  0.4339 -0.0529  0.0320
  647TMC3    C5 9630   2.989   2.705  14.801  0.1300 -0.5916 -0.5811
  647TMC3    C6 9631   2.970   2.588  14.730 -0.2226 -0.3685 -1.2137
  647TMC3     C 9632   2.775   2.936  14.603  0.1275 -0.3416  0.6748
  647TMC3     O 9633   2.666   2.931  14.554  0.3132 -0.2652  0.3752
  647TMC3     H 9634   2.722   2.706  14.519  1.8383  0.5333 -0.3903
  647TMC3    H1 9635   2.953   2.916  14.798 -1.1150  0.3451  0.2500
  647TMC3    H2 9636   3.033   2.500  14.746 -0.6053 -0.8010 -2.0516
  647TMC3    C7 9637   3.084   2.701  14.912 -0.1640 -0.8982  0.6449
  647TMC3    C8 9638   2.792   2.469  14.619 -0.2493  0.0742 -0.0534
  647TMC3    O1 9639   3.155   2.603  14.917  0.1488 -0.0444 -0.0096
  647TMC3    O2 9640   2.720   2.458  14.520  0.5251 -0.1118 -0.4382
  648TMC3    C1 9641   1.815   0.571  16.264 -0.1635 -0.1693  0.8837
  648TMC3    C2 9642   1.792   0.444  16.228  0.7639  0.3903  0.3462
  648TMC3    C3 9643   1.784   0.414  16.094 -0.3150  0.3614 -0.0233
  648TMC3    C4 9644   1.833   0.669  16.175 -0.2841 -0.0311 -0.8543
  648TMC3    C5 9645   1.808   0.635  16.042  0.4064  0.2491  0.7151
  648TMC3    C6 9646   1.796   0.506  15.995  0.1467 -0.4348 -0.2333
  648TMC3     C 9647   1.823   0.616  16.402  0.6717  0.3706  0.8665
  648TMC3     O 9648   1.897   0.713  16.427 -0.0001  0.1365  0.0953
  648TMC3     H 9649   1.790   0.368  16.305  0.5193  0.0069 -0.0397
  648TMC3    H1 9650   1.871   0.765  16.207  2.4116 -0.9507 -1.3251
  648TMC3    H2 9651   1.765   0.488  15.893  0.8565  1.4250 -0.7665
  648TMC3    C7 9652   1.779   0.748  15.952 -0.8425  0.1472  0.4564
  648TMC3    C8 9653   1.783   0.270  16.052 -0.2733 -0.6785 -0.1283
  648TMC3    O1 9654   1.791   0.737  15.827 -0.0991 -0.5150 -0.5131
  648TMC3    O2 9655   1.742   0.195  16.136 -0.4235  0.5876 -0.2664
  649TMC3    C1 9656   1.435   2.122  12.948 -0.0698 -0.3863 -0.1100
  649TMC3    C2 9657   1.564   2.083  12.930 -0.7533  0.2307 -0.3415
  649TMC3    C3 9658   1.601   1.972  13.003 -0.0934 -0.4550 -0.0213
  649TMC3    C4 9659   1.339   2.049  13.014  0.2255 -0.4348  0.1921
  649TMC3    C5 9660   1.385   1.942  13.081  0.4201  0.0948 -0.8404
  649TMC3    C6 9661   1.516   1.903  13.080  0.1083  0.5369 -0.0630
  649TMC3     C 9662   1.385   2.244  12.884 -0.0597 -1.0007  0.0505
  649TMC3     O 9663   1.266   2.266  12.877 -0.4147  1.1027  0.4777
  649TMC3     H 9664   1.634   2.138  12.869 -0.3260  1.5830  1.3658
  649TMC3    H1 9665   1.236   2.084  13.020  0.6570  0.9062 -0.0857
  649TMC3    H2 9666   1.552   1.822  13.142 -0.8667 -0.5046 -0.8626
  649TMC3    C7 9667   1.294   1.878  13.171 -0.0272 -0.1697 -0.5542
  649TMC3    C8 9668   1.746   1.949  13.034  0.4867 -0.2747 -0.6506
  649TMC3    O1 9669   1.197   1.944  13.210 -0.0567  0.8549 -0.4247
  649TMC3    O2 9670   1.765   1.889  13.142 -0.1499 -0.6069  0.6685
  650TMC3    C1 9671   3.541   3.704  12.590 -0.3968 -0.0864 -0.5846
  650TMC3    C2 9672   3.502   3.836  12.602  0.2575 -0.4776 -0.6674
  650TMC3    C3 9673   3.413   3.889  12.513 -0.4508  0.2696  0.2579
  650TMC3    C4 9674   3.482   3.625  12.498 -0.6651  0.2523 -0.7412
  650TMC3    C5 9675   3.407   3.687  12.405  0.3661  0.0619  0.7236
  650TMC3    C6 9676   3.361   3.814  12.413  0.4829 -0.3536  0.2218
  650TMC3     C 9677   3.617   3.651  12.702 -0.1490 -0.3286  0.0456
  650TMC3     O 9678   3.635   3.723  12.800 -0.5080  0.2070 -0.2182
  650TMC3     H 9679   3.550   3.900  12.676 -0.6339 -0.4074 -0.1578
  650TMC3    H1 9680   3.526   3.536  12.455  0.4970  0.6396 -0.3678
  650TMC3    H2 9681   3.285   3.848  12.343  1.2043  0.0646 -0.3691
  650TMC3    C7 9682   3.377   3.615  12.281  1.1066  0.5952  0.5011
  650TMC3    C8 9683   3.366   4.024  12.545  0.4643 -0.1343 -0.0751
  650TMC3    O1 9684   3.370   3.496  12.288  0.5932  0.2777 -0.4359
  650TMC3    O2 9685   3.446   4.099  12.596  0.5093 -0.0212 -0.0879
  651MPD2     C 9686   2.702   0.848  10.222 -0.1830  0.1794  0.3813
  651MPD2    C1 9687   2.665   0.961  10.285  0.3966  0.2618  0.1114
  651MPD2    C2 9688   2.763   1.046  10.333  0.8174 -0.6790 -0.3882
  651MPD2    C3 9689   2.903   1.023  10.327  0.1222  0.4799 -0.5450
  651MPD2    C4 9690   2.937   0.909  10.265 -0.4387 -0.3866 -0.0139
  651MPD2    C5 9691   2.841   0.829  10.213 -0.2084 -0.0180 -0.0675
  651MPD2     H 9692   2.729   1.139  10.375  2.8385  0.9164 -2.3035
  651MPD2    H1 9693   3.034   0.862  10.274 -0.6891 -0.7374  0.8477
  651MPD2    H2 9694   2.629   0.782  10.177 -0.7942 -1.0747  3.1836
  651MPD2    H3 9695   2.880   0.739  10.166 -2.1365 -1.4076  0.9772
  651MPD2     N 9696   2.996   1.109  10.382  0.1111 -0.6140  0.5191
  651MPD2    H5 9697   2.953   1.179  10.441  2.2677 -0.0194  1.3733
  651MPD2    N1 9698   2.528   0.990  10.319  0.2440  0.2448  0.2944
  651MPD2    H7 9699   2.500   1.080  10.358 -3.5802  0.1512 -2.1631
  652TMC3    C1 9700   3.391   1.292  10.535 -0.4751 -0.3886 -0.2438
  652TMC3    C2 9701   3.322   1.212  10.443 -0.2481  0.5264  0.1880
  652TMC3    C3 9702   3.198   1.177  10.473 -0.0664  0.1415  0.0037
  652TMC3    C4 9703   3.328   1.354  10.640  0.0817 -0.2731  0.6412
  652TMC3    C5 9704   3.199   1.324  10.660 -0.0463 -0.1266 -0.6913
  652TMC3    C6 9705   3.130   1.232  10.583 -0.2084  0.1629  1.2824
  652TMC3     C 9706   3.535   1.278  10.561 -0.5011  0.2532 -0.3168
  652TMC3     O 9707   3.558   1.236  10.674  0.7032  0.4742  0.0471
  652TMC3     H 9708   3.382   1.162  10.367 -0.3724  0.5876  0.0481
  652TMC3    H1 9709   3.388   1.399  10.719  0.4545  0.0460  0.1721
  652TMC3    H2 9710   3.028   1.212  10.614 -0.9928 -0.5666 -1.7129
  652TMC3    C7 9711   3.127   1.401  10.763 -0.2116  0.6085  0.2130
  652TMC3    C8 9712   3.134   1.094  10.373 -0.4158 -0.0122  0.2826
  652TMC3    O1 9713   3.030   1.353  10.820  0.1188 -0.4566 -0.4444
  652TMC3    O2 9714   3.212   1.025  10.308  0.0314  0.3206  0.2333
  653MPD2     C 9715   1.056   1.120  17.628 -0.1405  0.2849 -0.0453
  653MPD2    C1 9716   0.990   1.205  17.549 -0.7974 -0.2084  0.1639
  653MPD2    C2 9717   0.908   1.146  17.454  0.6105 -0.6807 -0.0603
  653MPD2    C3 9718   0.898   1.009  17.440  0.0566 -0.4974  0.0517
  653MPD2    C4 9719   0.955   0.930  17.528  0.0749 -0.2175 -0.2540
  653MPD2    C5 9720   1.039   0.980  17.622 -0.2055 -0.4995  0.2646
  653MPD2     H 9721   0.837   1.212  17.407  1.0507 -0.3476 -0.2554
  653MPD2    H1 9722   0.944   0.822  17.528  0.0742 -0.2172 -0.3727
  653MPD2    H2 9723   1.134   1.160  17.692  0.5541  1.0785 -1.3623
  653MPD2    H3 9724   1.105   0.917  17.680  0.3066 -1.1880 -1.0720
  653MPD2     N 9725   0.819   0.958  17.336  0.2955  0.4450 -1.0181
  653MPD2    H5 9726   0.759   1.030  17.296 -1.9267 -1.3630 -0.9455
  653MPD2    N1 9727   1.004   1.349  17.562  0.0814 -0.3636 -0.6078
  653MPD2    H7 9728   0.955   1.401  17.490  0.7186 -0.3584 -1.0483
  654TMC3    C1 9729   0.772   0.811  17.155 -0.7453 -0.0777 -0.1167
  654TMC3    C2 9730   0.698   0.911  17.085 -0.1427 -0.7685  0.8849
  654TMC3    C3 9731   0.620   0.867  16.980  0.2418 -0.2325  0.3943
  654TMC3    C4 9732   0.767   0.683  17.119 -0.4269 -0.4911  0.2904
  654TMC3    C5 9733   0.694   0.650  17.008 -0.1047 -0.5258  0.0373
  654TMC3    C6 9734   0.620   0.740  16.937 -0.4866  0.3621 -0.2084
  654TMC3     C 9735   0.840   0.835  17.284 -0.4041  0.2115  0.3556
  654TMC3     O 9736   0.923   0.749  17.320 -0.2431  0.1478 -0.2093
  654TMC3     H 9737   0.705   1.014  17.115 -1.5355 -0.2163 -0.6571
  654TMC3    H1 9738   0.832   0.611  17.168  0.3488  0.3646  0.5098
  654TMC3    H2 9739   0.551   0.703  16.862  1.2764 -1.0645 -1.1130
  654TMC3    C7 9740   0.684   0.505  16.976 -0.5248 -0.0159 -0.0545
  654TMC3    C8 9741   0.532   0.965  16.924 -0.0821  0.3997  0.0138
  654TMC3    O1 9742   0.645   0.477  16.863 -0.5192  0.1243 -0.3461
  654TMC3    O2 9743   0.489   1.053  16.992 -0.1311  0.0347  0.2490
  655MPD2     C 9744   2.352   0.618  15.879  0.2350 -0.3127 -0.0882
  655MPD2    C1 9745   2.268   0.694  15.804  0.0060  0.6141 -0.1345
  655MPD2    C2 9746   2.246   0.658  15.673  0.4433  0.5186 -0.0294
  655MPD2    C3 9747   2.305   0.539  15.618 -0.7345  0.2026 -0.2941
  655MPD2    C4 9748   2.371   0.460  15.706 -0.3951  0.0576  0.4943
  655MPD2    C5 9749   2.404   0.505  15.829  0.8647 -0.4296  0.0775
  655MPD2     H 9750   2.190   0.733  15.617 -0.7339 -0.8682 -0.7362
  655MPD2    H1 9751   2.403   0.361  15.676 -1.1079 -0.9373  2.9845
  655MPD2    H2 9752   2.383   0.641  15.980  2.1686 -0.1932 -0.7071
  655MPD2    H3 9753   2.463   0.443  15.896  0.3824 -0.8122  0.1494
  655MPD2     N 9754   2.289   0.495  15.486  0.5111  0.1653  0.3882
  655MPD2    H5 9755   2.330   0.405  15.463  1.4374  0.3797  1.2176
  655MPD2    N1 9756   2.211   0.813  15.846 -0.2583 -0.0651  0.4782
  655MPD2    H7 9757   2.166   0.877  15.781 -0.1425  1.6499  2.0889
  656TMC3    C1 9758   2.158   0.980  16.002 -0.0256 -0.4435 -0.2253
  656TMC3    C2 9759   2.077   0.995  16.112  0.3714 -1.0135 -0.1928
  656TMC3    C3 9760   2.012   1.115  16.137  0.2738 -0.7528 -0.1132
  656TMC3    C4 9761   2.155   1.070  15.903  0.2678  0.0869  0.3662
  656TMC3    C5 9762   2.086   1.184  15.927  0.1601 -0.1675  0.4063
  656TMC3    C6 9763   2.013   1.216  16.039 -0.3544 -0.0009 -0.6194
  656TMC3     C 9764   2.206   0.845  15.981 -0.2078 -0.1127 -0.3513
  656TMC3     O 9765   2.214   0.776  16.084 -0.6089  0.4714 -0.1672
  656TMC3     H 9766   2.067   0.921  16.191 -0.9827 -0.9703 -0.3272
  656TMC3    H1 9767   2.225   1.060  15.821 -0.4556 -0.4944 -0.1836
  656TMC3    H2 9768   1.955   1.307  16.043 -0.1821  0.0989 -0.3817
  656TMC3    C7 9769   2.064   1.265  15.809 -0.0542 -0.3821  0.5156
  656TMC3    C8 9770   1.896   1.110  16.220  0.4161  0.2664 -0.0859
  656TMC3    O1 9771   2.113   1.221  15.705 -0.2097 -0.0475 -0.0270
  656TMC3    O2 9772   1.861   0.999  16.266  0.0213  0.2274  0.0471
  657TMC3    C1 9773   1.222   0.362  14.827  0.2478 -0.2739  0.0450
  657TMC3    C2 9774   1.223   0.375  14.961  0.4283 -0.5141 -0.2206
  657TMC3    C3 9775   1.155   0.480  15.022  0.3652 -0.1452  0.5795
  657TMC3    C4 9776   1.164   0.465  14.759 -0.5228 -0.7442 -0.2188
  657TMC3    C5 9777   1.099   0.566  14.818 -0.1191  0.2052  0.1881
  657TMC3    C6 9778   1.083   0.564  14.956  0.3839  0.7342 -0.0801
  657TMC3     C 9779   1.330   0.298  14.760  0.1914  0.0586  0.7330
  657TMC3     O 9780   1.364   0.341  14.653  0.0902  0.2733  0.1984
  657TMC3     H 9781   1.280   0.303  15.019 -1.2647 -0.9461  0.9287
  657TMC3    H1 9782   1.167   0.450  14.652 -1.5629  3.6081 -0.8298
  657TMC3    H2 9783   1.030   0.639  15.014  1.3198  0.5319  1.0567
  657TMC3    C7 9784   1.076   0.687  14.737  0.2233  0.2472 -0.8047
  657TMC3    C8 9785   1.170   0.501  15.167 -0.0953  0.1400 -0.4283
  657TMC3    O1 9786   1.121   0.683  14.624 -0.4086 -0.5183  0.2603
  657TMC3    O2 9787   1.152   0.615  15.204  0.1317 -0.3960  0.2976
  658MPD2     C 9788   2.835   0.560  15.151 -0.7330 -0.1211 -0.3918
  658MPD2    C1 9789   2.725   0.573  15.066  0.0753 -0.3862  0.5763
  658MPD2    C2 9790   2.746   0.641  14.945  0.2368  0.2810  0.2813
  658MPD2    C3 9791   2.860   0.689  14.907  0.2839  0.2325 -0.1570
  658MPD2    C4 9792   2.968   0.669  14.989 -1.4033  0.5566 -0.3366
  658MPD2    C5 9793   2.957   0.606  15.111 -0.7555 -0.0319 -0.3938
  658MPD2     H 9794   2.657   0.676  14.893  2.4642  0.5219 -3.3577
  658MPD2    H1 9795   3.066   0.693  14.948 -0.5970 -0.0665  1.2487
  658MPD2    H2 9796   2.825   0.511  15.247 -1.3144 -0.5033 -0.6505
  658MPD2    H3 9797   3.039   0.602  15.182 -0.9971 -0.1204 -0.1222
  658MPD2     N 9798   2.873   0.755  14.783 -0.1669 -0.0978 -0.9354
  658MPD2    H5 9799   2.791   0.758  14.724 -1.0158 -1.2124  0.1819
  658MPD2    N1 9800   2.601   0.515  15.104  0.2657 -0.7753  0.0545
  658MPD2    H7 9801   2.602   0.487  15.202 -0.6068  0.6155  0.4541
  659TMC3    C1 9802   2.372   0.445  15.079 -0.3162  0.7137 -0.3367
  659TMC3    C2 9803   2.346   0.463  15.217  0.5367 -0.1020  0.2331
  659TMC3    C3 9804   2.221   0.504  15.259 -0.2583 -0.0306 -0.8836
  659TMC3    C4 9805   2.266   0.461  14.996  0.1457  0.2297 -0.1941
  659TMC3    C5 9806   2.143   0.496  15.049  0.1592  0.0628  0.5981
  659TMC3    C6 9807   2.121   0.531  15.176  0.5549 -0.8197  0.1171
  659TMC3     C 9808   2.494   0.498  15.020 -0.0801 -0.0417 -0.1859
  659TMC3     O 9809   2.508   0.498  14.900 -0.5211 -0.3848 -0.2804
  659TMC3     H 9810   2.428   0.451  15.286 -1.3069 -3.0279  1.8756
  659TMC3    H1 9811   2.272   0.460  14.887  1.9496  0.1367 -0.0812
  659TMC3    H2 9812   2.024   0.569  15.207  0.3514 -1.2060 -0.0448
  659TMC3    C7 9813   2.025   0.516  14.959 -0.0660  0.3672  0.6156
  659TMC3    C8 9814   2.217   0.564  15.393  0.5880 -0.4261 -0.1024
  659TMC3    O1 9815   1.919   0.527  15.015 -0.7364  0.1998 -0.6673
  659TMC3    O2 9816   2.161   0.676  15.391 -0.1340  0.0616 -0.0086
  660MPD2     C 9817   0.350   4.732  13.322  0.1189  0.0295 -0.3253
  660MPD2    C1 9818   0.389   4.719  13.185 -0.0264 -0.5835  0.1439
  660MPD2    C2 9819   0.435   4.601  13.136  0.0326 -0.1955  0.0696
  660MPD2    C3 9820   0.441   4.491  13.225  0.1917 -0.4584 -0.6060
  660MPD2    C4 9821   0.401   4.510  13.357 -0.1847 -0.3877 -0.4135
  660MPD2    C5 9822   0.352   4.625  13.408 -0.2063 -0.5003  0.1907
  660MPD2     H 9823   0.458   4.598  13.030 -0.8830  0.4950 -0.1490
  660MPD2    H1 9824   0.404   4.426  13.426 -0.3849  0.0001  0.0679
  660MPD2    H2 9825   0.314   0.091  13.353 -1.4252 -1.2854  2.0434
  660MPD2    H3 9826   0.327   4.654  13.509 -0.3456 -2.9988  0.8608
  660MPD2     N 9827   0.449   4.358  13.180 -0.1803 -0.1995 -0.8656
  660MPD2    H5 9828   0.427   4.296  13.257 -1.4087  1.0812 -0.1855
  660MPD2    N1 9829   0.367   0.096  13.104  0.3080 -0.4299 -0.0834
  660MPD2    H7 9830   0.316   0.177  13.139  2.6192  1.1415 -0.4090
  661TMC3    C1 9831   0.361   0.227  12.905  1.3821 -0.1888  0.2526
  661TMC3    C2 9832   0.437   0.266  12.797 -0.4680  0.6741 -0.4010
  661TMC3    C3 9833   0.370   0.274  12.675  0.6532 -0.0254 -0.2972
  661TMC3    C4 9834   0.225   0.216  12.898  0.8456  0.8478 -0.4768
  661TMC3    C5 9835   0.162   0.233  12.778 -0.0271  0.0958 -0.8935
  661TMC3    C6 9836   0.234   0.253  12.667 -0.0033 -0.3711 -0.0380
  661TMC3     C 9837   0.415   0.115  12.978  0.3596  0.0771 -0.8004
  661TMC3     O 9838   0.489   0.050  12.900  0.5451  0.2198  0.0871
  661TMC3     H 9839   0.545   0.272  12.805 -0.5056 -1.6847  2.0311
  661TMC3    H1 9840   0.167   0.192  12.987 -2.2563  1.2039 -2.4421
  661TMC3    H2 9841   0.204   0.244  12.563 -2.4172 -1.5703  0.7548
  661TMC3    C7 9842   0.028   0.182  12.777  0.1414 -0.0562 -0.5668
  661TMC3    C8 9843   0.436   0.213  12.555  0.5078 -0.2910  0.6155
  661TMC3    O1 9844   4.702   0.189  12.882  0.4264  0.5184 -0.0933
  661TMC3    O2 9845   0.446   0.271  12.448 -0.1077  0.1267 -0.1194
  662MPD2     C 9846   0.478   4.734  17.430  0.5179 -0.5460  0.3526
  662MPD2    C1 9847   0.413   4.631  17.497 -0.5209 -0.1374 -0.3015
  662MPD2    C2 9848   0.358   4.648  17.621  0.2529 -0.0105  0.4803
  662MPD2    C3 9849   0.365   0.032  17.682  0.4739 -0.1697  0.5438
  662MPD2    C4 9850   0.431   0.132  17.619 -0.1571  0.1466 -0.6103
  662MPD2    C5 9851   0.490   0.114  17.492 -0.5791 -0.2899  0.4064
  662MPD2     H 9852   0.302   4.568  17.667 -1.9824  0.3350 -1.6379
  662MPD2    H1 9853   0.434   0.231  17.664 -0.6177  0.6402 -1.6784
  662MPD2    H2 9854   0.519   4.717  17.332 -1.3713 -3.0005 -0.0250
  662MPD2    H3 9855   0.548   0.191  17.444 -1.3074  0.7205  1.1386
  662MPD2     N 9856   0.305   0.055   0.065 -0.0021 -0.1963 -0.7355
  662MPD2    H5 9857   0.312   0.152   0.093 -2.0707 -0.1308 -0.5005
  662MPD2    N1 9858   0.398   4.499  17.443 -0.4111 -0.3728  0.3759
  662MPD2    H7 9859   0.343   4.433  17.498 -1.0102 -0.6076 -0.4977
  663TMC3    C1 9860   0.399   4.329  17.284 -0.6824 -0.0752 -0.1063
  663TMC3    C2 9861   0.270   4.300  17.288 -0.3449 -0.3979  0.2797
  663TMC3    C3 9862   0.224   4.190  17.224  0.6023 -0.3895  0.2970
  663TMC3    C4 9863   0.488   4.242  17.217  0.7511 -0.5583  0.0321
  663TMC3    C5 9864   0.440   4.133  17.158  0.4172  0.4633 -0.3022
  663TMC3    C6 9865   0.305   4.101  17.168 -0.4183 -0.1539  0.6408
  663TMC3     C 9866   0.443   4.460  17.322  0.1062  0.5605 -0.5021
  663TMC3     O 9867   0.546   4.504  17.276  0.2979 -0.4595 -0.2101
  663TMC3     H 9868   0.204   4.359  17.352 -1.0928  0.3595 -1.1826
  663TMC3    H1 9869   0.593   4.270  17.206  0.0327  1.7141 -1.0905
  663TMC3    H2 9870   0.261   4.021  17.109  0.1341 -0.5123  0.7100
  663TMC3    C7 9871   0.546   4.023  17.147  0.9133 -0.2805 -0.5895
  663TMC3    C8 9872   0.096   4.132  17.280 -0.4108  0.3676 -0.2746
  663TMC3    O1 9873   0.661   4.061  17.143  0.0815  0.1103  1.1386
  663TMC3    O2 9874   0.023   4.076  17.194 -0.2400 -0.4281 -0.8387
  664MPD2     C 9875   3.361   2.032  17.416  0.2317  0.2398  0.0802
  664MPD2    C1 9876   3.385   2.166  17.428  0.6515  0.2199 -0.3452
  664MPD2    C2 9877   3.374   2.221  17.557  0.1113  0.3071  0.9673
  664MPD2    C3 9878   3.356   2.143  17.669 -0.0214 -0.6318  0.0641
  664MPD2    C4 9879   3.322   2.013  17.652  0.3795 -0.2902  0.0826
  664MPD2    C5 9880   3.328   1.954  17.526 -0.2979  0.0660  0.3243
  664MPD2     H 9881   3.411   2.323  17.552 -2.9453  1.2214 -3.6956
  664MPD2    H1 9882   3.289   1.950  17.733 -2.5174  1.1625  0.0114
  664MPD2    H2 9883   3.362   1.978  17.321 -0.2953  2.1119 -0.9856
  664MPD2    H3 9884   3.308   1.848  17.518 -0.0514  0.0695 -0.2771
  664MPD2     N 9885   3.359   2.203   0.042  0.5749  0.7307  0.0536
  664MPD2    H5 9886   3.353   2.305   0.045 -2.3698  0.4988  2.1748
  664MPD2    N1 9887   3.428   2.248  17.323 -0.6868 -0.1175 -0.6789
  664MPD2    H7 9888   3.442   2.346  17.345 -0.4680  0.0174 -1.4228
  665TMC3    C1 9889   3.374   2.223   0.270  0.0383  0.9359 -0.0516
  665TMC3    C2 9890   3.435   2.182   0.383 -0.1382 -0.1634  0.1603
  665TMC3    C3 9891   3.449   2.276   0.484  0.3360 -0.0871 -0.1978
  665TMC3    C4 9892   3.317   2.348   0.252 -0.0501 -0.1914  0.2818
  665TMC3    C5 9893   3.309   2.428   0.364  0.1158  0.0875 -0.1203
  665TMC3    C6 9894   3.390   2.402   0.471  0.6376 -0.0437 -0.1700
  665TMC3     C 9895   3.395   2.140   0.156  0.1058  0.0599 -0.8295
  665TMC3     O 9896   3.440   2.027   0.180 -0.2498  0.8614  0.2639
  665TMC3     H 9897   3.481   2.085   0.395 -1.2799 -1.0751 -2.8871
  665TMC3    H1 9898   3.256   2.376   0.167  0.7833 -1.2236 -0.6516
  665TMC3    H2 9899   3.392   2.462   0.561  1.8916 -0.5003  0.1133
  665TMC3    C7 9900   3.231   2.556   0.363 -0.1488  0.1307  0.3987
  665TMC3    C8 9901   3.506   2.235   0.611  0.4028  0.6137 -0.2136
  665TMC3    O1 9902   3.120   2.547   0.310  0.4858 -0.2741  0.2281
  665TMC3    O2 9903   3.571   2.325   0.652 -0.1237  0.4764  0.1901
  666TMC3    C1 9904   3.265   2.675   9.961 -0.2330  0.2554  0.2853
  666TMC3    C2 9905   3.345   2.584  10.031  0.4738 -0.3616  0.1281
  666TMC3    C3 9906   3.472   2.621  10.047 -0.4347  0.8942  0.2904
  666TMC3    C4 9907   3.311   2.792   9.915  0.4532  0.3796 -0.1576
  666TMC3    C5 9908   3.445   2.825   9.932 -0.7411 -0.6226  0.0723
  666TMC3    C6 9909   3.524   2.743  10.014  0.3776 -0.1970 -0.6482
  666TMC3     C 9910   3.126   2.653   9.943 -0.4389  0.0953 -0.0007
  666TMC3     O 9911   3.078   2.710   9.848  0.0909  0.5849  0.0326
  666TMC3     H 9912   3.316   2.481  10.050  0.9237 -0.5915 -0.4462
  666TMC3    H1 9913   3.254   2.866   9.860  1.5600  0.1749 -1.5752
  666TMC3    H2 9914   3.621   2.782  10.045  0.3500 -1.7559  1.3590
  666TMC3    C7 9915   3.456   2.968   9.966 -0.5794  0.9240 -0.3615
  666TMC3    C8 9916   3.546   2.547  10.147  0.2758 -0.2596  0.7244
  666TMC3    O1 9917   3.354   3.013  10.015 -0.4526 -0.1709 -0.4743
  666TMC3    O2 9918   3.472   2.490  10.230  0.2509 -0.6136 -0.8019
  667MPD2     C 9919   4.629   2.569  14.530 -0.0974 -0.4104 -0.4564
  667MPD2    C1 9920   4.576   2.530  14.647 -0.0451 -0.0524  0.5420
  667MPD2    C2 9921   4.486   2.428  14.646 -0.9265 -0.2664 -0.1386
  667MPD2    C3 9922   4.452   2.357  14.529  0.0226  0.0156  0.0187
  667MPD2    C4 9923   4.511   2.400  14.412 -0.3899 -0.6897  0.0243
  667MPD2    C5 9924   4.606   2.505  14.414  0.5194  0.5279 -0.0795
  667MPD2     H 9925   4.447   2.392  14.740  2.3533  2.7937  2.4102
  667MPD2    H1 9926   4.499   2.359  14.312 -0.0859 -2.7853  0.8350
  667MPD2    H2 9927   4.711   2.640  14.527  0.5055 -1.1778 -1.8845
  667MPD2    H3 9928   4.643   2.538  14.317 -1.5653  1.3461 -0.5858
  667MPD2     N 9929   4.363   2.240  14.526 -0.1494 -0.2365  0.1812
  667MPD2    H5 9930   4.343   2.196  14.437 -1.5370  1.0216 -0.1328
  667MPD2    N1 9931   4.618   2.584  14.772  0.1160 -0.2096 -0.2748
  667MPD2    H7 9932   4.562   2.558  14.852  0.5762 -0.7618 -0.1366
  668TMC3    C1 9933   0.004   2.707  14.932 -0.0479  0.3546 -1.0219
  668TMC3    C2 9934   0.095   2.806  14.964 -0.0984 -0.1959 -0.4850
  668TMC3    C3 9935   0.123   2.823  15.098 -0.6998 -1.1808  0.0599
  668TMC3    C4 9936   4.700   2.615  15.027 -0.2235  0.2578  0.1731
  668TMC3    C5 9937   4.734   2.634  15.159  0.4472 -0.4022  1.1668
  668TMC3    C6 9938   0.080   2.734  15.197 -0.4093  0.1720 -0.1463
  668TMC3     C 9939   4.734   2.654  14.797 -0.6030  0.3055 -0.0288
  668TMC3     O 9940   0.086   2.683  14.718 -0.3296  0.3104 -0.3180
  668TMC3     H 9941   0.130   2.866  14.880 -0.8789 -0.2045 -0.8205
  668TMC3    H1 9942   4.643   2.526  15.007 -0.7479  0.5222  0.4916
  668TMC3    H2 9943   0.100   2.758  15.300 -0.9818 -0.6609  0.1625
  668TMC3    C7 9944   4.657   2.573  15.275  0.6149  0.9072  1.4320
  668TMC3    C8 9945   0.147   2.952  15.149  0.7139  1.0151 -0.1109
  668TMC3    O1 9946   4.701   2.590  15.388 -0.4699 -0.6403 -0.1075
  668TMC3    O2 9947   0.095   2.987  15.256  0.2258  0.0798 -0.3990
  669TMC3    C1 9948   2.734   1.904  14.544 -0.2366 -0.7142 -0.3447
  669TMC3    C2 9949   2.619   1.935  14.474 -0.1261  0.0118 -0.4469
  669TMC3    C3 9950   2.622   2.058  14.412 -0.0890  0.2687  0.6540
  669TMC3    C4 9951   2.840   1.991  14.551  0.7604  0.7397  0.0917
  669TMC3    C5 9952   2.838   2.104  14.473  0.4338  0.9770  0.2728
  669TMC3    C6 9953   2.734   2.141  14.395 -0.5523 -0.1179  0.2667
  669TMC3     C 9954   2.728   1.783  14.624  0.0574 -0.4025  0.2823
  669TMC3     O 9955   2.620   1.734  14.630 -0.1021 -0.7519 -0.1588
  669TMC3     H 9956   2.524   1.883  14.483  0.3343 -0.4551  1.6723
  669TMC3    H1 9957   2.928   1.969  14.609  0.9657  0.0607 -0.4761
  669TMC3    H2 9958   2.725   2.244  14.362  0.0082 -0.9531 -2.4598
  669TMC3    C7 9959   2.954   2.193  14.482 -0.2653 -0.1647 -0.7272
  669TMC3    C8 9960   2.497   2.107  14.354  0.5938  0.5183 -0.5208
  669TMC3    O1 9961   3.028   2.189  14.578  0.4821  0.5553 -0.0309
  669TMC3    O2 9962   2.394   2.043  14.375 -0.5787 -0.7442 -0.2656
  670MPD2     C 9963   0.588   4.646  13.828 -0.1964 -0.0399  0.0525
  670MPD2    C1 9964   0.683   4.551  13.860 -0.9157  0.4236  0.6875
  670MPD2    C2 9965   0.686   4.490  13.981  0.2584  0.1215  0.1111
  670MPD2    C3 9966   0.587   4.519  14.078 -0.2667 -0.9567 -0.0973
  670MPD2    C4 9967   0.500   4.618  14.056  0.1777  0.5867  0.1057
  670MPD2    C5 9968   0.508   4.684  13.935 -0.1340 -0.2763 -0.5207
  670MPD2     H 9969   0.770   4.426  14.003 -0.0766 -1.2323 -2.6058
  670MPD2    H1 9970   0.431   4.649  14.134  1.2484  0.4557  1.1082
  670MPD2    H2 9971   0.587   4.701  13.735 -1.4603 -0.1646 -0.0007
  670MPD2    H3 9972   0.440   0.029  13.929  0.0031  0.1305  3.1509
  670MPD2     N 9973   0.599   4.447  14.200 -0.2420 -0.2115 -0.2697
  670MPD2    H5 9974   0.646   4.357  14.189 -0.7391 -0.3614 -1.1747
  670MPD2    N1 9975   0.791   4.519  13.773  0.1835 -0.2113 -0.2359
  670MPD2    H7 9976   0.859   4.456  13.815 -0.0299  1.1581  2.2094
  671TMC3    C1 9977   0.607   4.403  14.434  0.0880  0.0700 -0.3906
  671TMC3    C2 9978   0.728   4.351  14.410  0.7632  0.7366 -0.6017
  671TMC3    C3 9979   0.770   4.244  14.484  0.9146 -0.0800 -0.0538
  671TMC3    C4 9980   0.520   4.344  14.529  0.5434 -0.8504  0.2659
  671TMC3    C5 9981   0.549   4.218  14.569  0.5063 -0.0897  0.1132
  671TMC3    C6 9982   0.676   4.166  14.548 -0.8192  0.2119 -0.0347
  671TMC3     C 9983   0.546   4.479  14.322  0.6242 -0.5625  0.1803
  671TMC3     O 9984   0.452   4.556  14.350 -0.1612 -0.0257  0.1327
  671TMC3     H 9985   0.802   4.413  14.362 -0.0295  1.2630 -1.1481
  671TMC3    H1 9986   0.418   4.380  14.527  0.5949 -0.7749 -1.5563
  671TMC3    H2 9987   0.688   4.061  14.574 -0.3276 -0.0853 -1.4429
  671TMC3    C7 9988   0.449   4.117  14.532  0.3542  0.4272 -0.3308
  671TMC3    C8 9989   0.896   4.189  14.446  0.0910  0.5298 -0.2827
  671TMC3    O1 9990   0.484   4.025  14.457  0.8626  0.6512  0.5354
  671TMC3    O2 9991   0.943   4.245  14.348  0.2815 -0.1745 -0.1220
  672MPD2     C 9992   1.041   1.062   1.034  0.5466  0.2770  0.3467
  672MPD2    C1 9993   1.127   0.985   0.966  0.1454 -0.1804  0.4547
  672MPD2    C2 9994   1.267   1.005   0.974 -0.3871 -0.4872 -0.3766
  672MPD2    C3 9995   1.309   1.117   1.052  0.2425  0.0457  0.0007
  672MPD2    C4 9996   1.213   1.195   1.115  1.3010  0.2567  0.0040
  672MPD2    C5 9997   1.081   1.176   1.099 -0.2459 -0.5690 -0.6740
  672MPD2     H 9998   1.328   0.941   0.911 -0.3300  0.8083 -1.6379
  672MPD2    H1 9999   1.237   1.276   1.182  1.6858 -0.3848  0.6527
  672MPD2    H210000   0.934   1.043   1.041  0.6889 -0.5342  0.3147
  672MPD2    H310001   1.012   1.249   1.139  0.5019 -0.5145  0.5084
  672MPD2     N10002   1.443   1.163   1.066 -0.2212  0.0568  0.4507
  672MPD2    H510003   1.465   1.242   1.126 -2.0610  0.2308  0.8747
  672MPD2    N110004   1.084   0.877   0.891 -0.3849  0.0296  0.1543
  672MPD2    H710005   1.160   0.826   0.848  1.2321 -0.0571  3.1239
  673TMC3    C110006   0.963   0.773   0.721 -0.7503  0.8247  0.2254
  673TMC3    C210007   1.044   0.663   0.725 -0.7410 -0.1161  0.3661
  673TMC3    C310008   1.051   0.577   0.619 -0.4578  0.0355 -0.0801
  673TMC3    C410009   0.870   0.782   0.631  0.7319  0.4969  0.1994
  673TMC3    C510010   0.860   0.694   0.531 -0.1299 -0.0944 -0.0571
  673TMC3    C610011   0.952   0.595   0.525 -0.4753 -0.1137  0.4174
  673TMC3     C10012   0.955   0.856   0.840  0.1175  0.3111 -0.1221
  673TMC3     O10013   0.847   0.911   0.866 -0.2461 -0.5661 -0.2047
  673TMC3     H10014   1.115   0.649   0.806 -1.0879  1.3066  0.9304
  673TMC3    H110015   0.801   0.865   0.644  1.5784  1.0968  0.8419
  673TMC3    H210016   0.942   0.522   0.446 -1.2820 -0.0291  0.4436
  673TMC3    C710017   0.745   0.700   0.440  0.0371  0.2905 -0.2911
  673TMC3    C810018   1.111   0.450   0.619  0.8269 -0.1784 -0.4986
  673TMC3    O110019   0.694   0.594   0.408 -0.5785 -0.2883 -0.0408
  673TMC3    O210020   1.045   0.367   0.564 -0.1668 -0.6246  0.0929
  674MPD2     C10021   0.594   1.043  17.618  0.6943  0.6790  0.3537
  674MPD2    C110022   0.525   0.923  17.635 -0.3993 -0.1940  0.3373
  674MPD2    C210023   0.387   0.926  17.643  0.1326 -0.0462 -0.0400
  674MPD2    C310024   0.319   1.047  17.635 -0.0756 -0.1055 -0.5592
  674MPD2    C410025   0.390   1.166  17.613  0.3141  0.3412  0.4117
  674MPD2    C510026   0.525   1.158  17.607  0.2605  0.0943 -0.0119
  674MPD2     H10027   0.338   0.831  17.658 -0.3871  0.4138  1.1366
  674MPD2    H110028   0.345   1.264  17.607  0.0796  0.2166  0.1595
  674MPD2    H210029   0.702   1.037  17.625  0.7901  0.4036 -1.3499
  674MPD2    H310030   0.577   1.252  17.598 -0.9507  0.7538 -0.0381
  674MPD2     N10031   0.176   1.049  17.657 -0.9253  0.1584 -0.0462
  674MPD2    H510032   0.149   0.956  17.687 -2.0510  0.6566  0.4656
  674MPD2    N110033   0.613   0.814  17.654 -0.1253 -0.3272  0.0779
  674MPD2    H710034   0.701   0.831  17.703 -0.6824 -1.1121  1.3530
  675TMC3    C110035   0.642   0.582  17.726 -0.1578 -0.8698  0.0659
  675TMC3    C210036   0.580   0.468   0.007 -0.2809  0.1634  0.0163
  675TMC3    C310037   0.627   0.386   0.107 -0.1042 -0.2683 -0.9328
  675TMC3    C410038   0.761   0.608   0.014  0.4833 -0.0078  0.0303
  675TMC3    C510039   0.812   0.521   0.105  0.1675  0.2863 -0.3170
  675TMC3    C610040   0.747   0.414   0.159  0.0279 -0.6808 -0.1579
  675TMC3     C10041   0.564   0.687  17.654 -0.7328 -0.3143  0.0638
  675TMC3     O10042   0.459   0.644  17.604  0.1554 -0.3181 -0.2457
  675TMC3     H10043   0.478   0.449  17.728 -1.2966 -0.3745  3.6624
  675TMC3    H110044   0.805   0.701  17.730 -2.3165  0.9817 -0.8358
  675TMC3    H210045   0.794   0.365   0.243 -0.5830 -0.8726  0.0756
  675TMC3    C710046   0.946   0.545   0.168 -0.3108 -0.1407 -0.6791
  675TMC3    C810047   0.527   0.338   0.199  0.1723 -0.8091 -0.3417
  675TMC3    O110048   1.009   0.440   0.200  0.2298 -0.2802  0.0081
  675TMC3    O210049   0.428   0.289   0.155  0.0011  0.0130  0.4015
  676MPD2     C10050   3.950   3.522  10.624  0.2868  0.6769 -0.4122
  676MPD2    C110051   3.918   3.530  10.757 -0.4916  0.3436  0.4639
  676MPD2    C210052   3.959   3.434  10.843 -0.1781 -0.8412 -0.5564
  676MPD2    C310053   4.014   3.317  10.805  0.3651 -0.0021  0.0292
  676MPD2    C410054   4.040   3.304  10.677  0.7717 -0.0163  0.5561
  676MPD2    C510055   4.017   3.407  10.586 -0.4549  0.2623 -0.1634
  676MPD2     H10056   3.948   3.450  10.950  1.0940  1.5086 -0.7655
  676MPD2    H110057   4.099   3.221  10.638 -0.6214  0.1870 -1.9594
  676MPD2    H210058   3.913   3.592  10.550  0.1867  2.4455  1.3193
  676MPD2    H310059   4.037   3.395  10.480  2.1393  1.1586  0.2244
  676MPD2     N10060   4.061   3.225  10.896 -0.0164 -0.2916  0.1613
  676MPD2    H510061   4.109   3.148  10.849  1.9768  0.4678  0.9380
  676MPD2    N110062   3.852   3.640  10.815  0.1646 -0.1354  0.1822
  676MPD2    H710063   3.844   3.646  10.916 -2.9431 -0.0260 -0.0662
  677TMC3    C110064   3.737   3.840  10.833  0.2099  0.2021  0.0934
  677TMC3    C210065   3.669   3.784  10.938  0.3636  0.4038  0.3675
  677TMC3    C310066   3.635   3.859  11.043  0.7046 -0.2671  0.2818
  677TMC3    C410067   3.753   3.974  10.817  0.0097 -0.0889 -0.3476
  677TMC3    C510068   3.714   4.046  10.922 -0.1339 -0.4257  0.2368
  677TMC3    C610069   3.659   3.993  11.038 -0.3183  0.1250 -0.3309
  677TMC3     C10070   3.818   3.756  10.751  0.3012 -0.0270 -0.3050
  677TMC3     O10071   3.846   3.802  10.639 -0.0009  0.1194 -0.3806
  677TMC3     H10072   3.661   3.677  10.951 -2.8442  0.3350 -2.3979
  677TMC3    H110073   3.794   4.027  10.732 -1.4398  0.8644 -0.4592
  677TMC3    H210074   3.633   4.063  11.117  2.3868  1.0771 -0.2561
  677TMC3    C710075   3.797   4.161  10.955  0.2568  0.1467 -0.0571
  677TMC3    C810076   3.544   3.805  11.139 -0.0485  0.6115 -0.5683
  677TMC3    O110077   3.762   4.237  11.048  0.1289 -0.4722  0.0419
  677TMC3    O210078   3.473   3.713  11.106 -0.4406 -0.2815 -0.1090
  678MPD2     C10079   4.361   3.839   1.631 -0.3506 -0.1355 -0.0870
  678MPD2    C110080   4.363   3.785   1.505 -0.1403 -0.1359  0.3758
  678MPD2    C210081   4.242   3.760   1.444 -0.0628 -0.1797  0.3438
  678MPD2    C310082   4.126   3.817   1.497  0.6561  0.7042  0.4766
  678MPD2    C410083   4.131   3.876   1.622 -0.3138  0.6129 -0.3230
  678MPD2    C510084   4.248   3.880   1.691 -0.0265  0.2270 -0.3540
  678MPD2     H10085   4.238   3.686   1.365 -1.3652 -0.4369  0.6480
  678MPD2    H110086   4.042   3.921   1.666  0.3851  0.4340  1.2572
  678MPD2    H210087   4.450   3.856   1.691 -0.6811  0.6890  0.1787
  678MPD2    H310088   4.244   3.915   1.793 -1.6083 -1.1787  0.0650
  678MPD2     N10089   4.005   3.808   1.423 -0.3040  0.3393  0.2952
  678MPD2    H510090   4.007   3.750   1.340  1.0813  1.1378 -0.2335
  678MPD2    N110091   4.476   3.752   1.435 -0.5200  0.2786  0.5229
  678MPD2    H710092   4.470   3.695   1.351 -0.7680  1.4942 -0.2789
  679TMC3    C110093   0.050   3.628   1.210  0.3997  0.8992 -0.0250
  679TMC3    C210094   4.710   3.647   1.312  1.0587 -0.2640 -0.5003
  679TMC3    C310095   4.694   3.776   1.356 -0.3951 -0.3144 -0.1674
  679TMC3    C410096   0.113   3.726   1.146  0.0474 -0.1429 -0.0481
  679TMC3    C510097   0.094   3.855   1.196  0.5826 -1.7840 -0.3237
  679TMC3    C610098   0.018   3.885   1.305  0.1651  0.4021 -0.5156
  679TMC3     C10099   0.038   3.511   1.134  0.4776 -0.5796 -0.2629
  679TMC3     O10100   0.068   3.533   1.018  0.9935  0.0674 -0.0480
  679TMC3     H10101   4.649   3.571   1.359  1.3586 -0.1440  0.0854
  679TMC3    H110102   0.174   3.704   1.059 -0.4386  1.5887 -0.8320
  679TMC3    H210103   4.734   3.987   1.336  3.3028  0.5067  1.4100
  679TMC3    C710104   0.138   3.967   1.117 -0.2792 -0.2562  0.3379
  679TMC3    C810105   4.597   3.816   1.450 -0.7866 -0.4958  0.2845
  679TMC3    O110106   0.069   4.067   1.122 -0.1936  0.0635 -0.0029
  679TMC3    O210107   4.621   3.909   1.526  0.1279  0.3763 -0.5881
  680MPD2     C10108   0.606   2.239  13.489 -0.3845 -0.3662 -0.1551
  680MPD2    C110109   0.637   2.195  13.615  0.5125 -0.4758  0.3201
  680MPD2    C210110   0.670   2.287  13.717 -0.3517  0.3787 -0.5831
  680MPD2    C310111   0.674   2.421  13.693 -0.3962  0.6055  0.0896
  680MPD2    C410112   0.639   2.465  13.569  0.2630  0.4420 -0.0008
  680MPD2    C510113   0.599   2.370  13.470  0.7806 -0.5836 -0.6046
  680MPD2     H10114   0.704   2.253  13.814 -2.5706  0.7819  0.3533
  680MPD2    H110115   0.651   2.567  13.535 -2.2846  0.6169 -0.4228
  680MPD2    H210116   0.569   2.181  13.406  0.2587  0.1217 -0.7851
  680MPD2    H310117   0.578   2.410  13.371  1.1887  0.0902 -0.4219
  680MPD2     N10118   0.717   2.519  13.784 -0.4733  0.8261 -0.5779
  680MPD2    H510119   0.745   2.609  13.748  0.9118  0.1479 -1.2063
  680MPD2    N110120   0.639   2.053  13.637 -0.2570  0.2223 -0.2658
  680MPD2    H710121   0.605   1.994  13.561  0.4581 -1.3195  0.6139
  681TMC3    C110122   0.674   1.853  13.734  0.2539  0.0800  0.6167
  681TMC3    C210123   0.624   1.790  13.840 -0.0239  0.0060 -0.0485
  681TMC3    C310124   0.641   1.653  13.847  0.0203  0.0915 -0.2264
  681TMC3    C410125   0.752   1.793  13.641 -0.6743 -0.9178 -0.2513
  681TMC3    C510126   0.769   1.655  13.645  0.4320 -0.2274  0.9797
  681TMC3    C610127   0.712   1.583  13.745  0.1585  0.4157 -0.3090
  681TMC3     C10128   0.685   1.991  13.748  0.0623  0.1849 -0.0087
  681TMC3     O10129   0.708   2.034  13.857  0.6900  0.1882  0.0897
  681TMC3     H10130   0.567   1.850  13.910 -1.3303 -0.2780 -0.8653
  681TMC3    H110131   0.805   1.850  13.565  0.3950 -0.8445  0.5632
  681TMC3    H210132   0.737   1.480  13.767 -0.2947  0.1283 -1.1536
  681TMC3    C710133   0.880   1.586  13.584  0.3413  0.6438 -0.2197
  681TMC3    C810134   0.627   1.593  13.978  0.1764 -0.3544 -0.2066
  681TMC3    O110135   0.889   1.465  13.600 -0.0352  0.2739 -0.0348
  681TMC3    O210136   0.615   1.473  13.990  0.6218 -0.4208 -0.2746
  682MPD2     C10137   3.012   4.065  10.567 -0.5866 -0.0849 -0.1297
  682MPD2    C110138   2.962   3.943  10.557 -0.2815  0.0602  0.2579
  682MPD2    C210139   2.855   3.907  10.631 -0.2243  0.2589 -0.6215
  682MPD2    C310140   2.809   3.979  10.740 -0.6494 -0.3097 -0.6701
  682MPD2    C410141   2.857   4.108  10.744  0.6559 -0.2350  0.6801
  682MPD2    C510142   2.954   4.153  10.655  1.6960 -0.2800  0.2480
  682MPD2     H10143   2.824   3.805  10.611 -1.7680  0.8446 -1.2256
  682MPD2    H110144   2.821   4.179  10.817  1.9488 -1.7391  2.8022
  682MPD2    H210145   3.090   4.104  10.502 -1.3095 -1.0553 -1.5970
  682MPD2    H310146   2.978   4.259  10.657 -1.0254  0.3002  1.5722
  682MPD2     N10147   2.719   3.942  10.839 -0.8834 -0.2816  0.0106
  682MPD2    H510148   2.704   4.001  10.921 -0.7660 -2.0244  1.2905
  682MPD2    N110149   3.018   3.850  10.461  0.2053 -0.8226 -0.2140
  682MPD2    H710150   2.968   3.762  10.461  0.4092 -0.9405  1.4803
  683TMC3    C110151   2.548   3.732  11.171 -0.1501 -0.2496 -0.0463
  683TMC3    C210152   2.446   3.645  11.142  0.1107 -0.0728 -0.6220
  683TMC3    C310153   2.412   3.621  11.010  0.5208 -0.2766  0.0069
  683TMC3    C410154   2.619   3.788  11.068 -0.1377  0.0969 -0.0368
  683TMC3    C510155   2.584   3.761  10.938 -0.3962 -0.2885  0.0211
  683TMC3    C610156   2.482   3.672  10.909  0.2050 -0.1824 -0.3884
  683TMC3     C10157   2.569   3.778  11.305 -0.2628  0.4714 -0.2928
  683TMC3     O10158   2.624   3.884  11.320 -0.1200 -0.4932 -0.0371
  683TMC3     H10159   2.370   3.609  11.210 -0.0458 -1.6842 -1.6534
  683TMC3    H110160   2.699   3.857  11.091 -0.9965  1.2652 -0.5749
  683TMC3    H210161   2.455   3.651  10.806  1.4034  2.8904 -1.3281
  683TMC3    C710162   2.648   3.824  10.823  0.1140 -0.4364 -0.4842
  683TMC3    C810163   2.307   3.526  10.979  0.1719  0.5000  0.2133
  683TMC3    O110164   2.626   3.753  10.725 -0.2366 -0.1849  0.1413
  683TMC3    O210165   2.253   3.527  10.870 -0.0580  0.0533 -0.2061
  684MPD2     C10166   0.747   2.654  16.411  0.2726 -0.0226 -0.0748
  684MPD2    C110167   0.755   2.718  16.288  0.1979  0.4287  0.4351
  684MPD2    C210168   0.771   2.852  16.276 -0.5548  0.1562 -0.3086
  684MPD2    C310169   0.771   2.928  16.396  0.3009 -0.1779  0.0530
  684MPD2    C410170   0.750   2.870  16.516  0.3746 -0.5236 -0.4166
  684MPD2    C510171   0.738   2.732  16.522  0.0624 -0.6238  0.3558
  684MPD2     H10172   0.782   2.893  16.176 -0.8759  0.2524 -0.3054
  684MPD2    H110173   0.763   2.928  16.606  0.4054 -0.1025 -0.6890
  684MPD2    H210174   0.743   2.546  16.418  0.0823 -0.0360 -0.3887
  684MPD2    H310175   0.729   2.691  16.622 -0.2307  1.7799  1.3224
  684MPD2     N10176   0.793   3.066  16.391  0.3005  0.4494 -0.3139
  684MPD2    H510177   0.806   3.123  16.474 -2.3722 -0.2235  0.5803
  684MPD2    N110178   0.755   2.650  16.169 -0.4072  0.2557  0.0040
  684MPD2    H710179   0.746   2.695  16.079 -0.1468  1.9883  0.8474
  685TMC3    C110180   0.803   2.511  16.009  0.5082  0.2875  0.2344
  685TMC3    C210181   0.737   2.589  15.923 -0.5446 -0.1383 -0.2382
  685TMC3    C310182   0.782   2.598  15.793 -0.0939 -0.0635  0.3457
  685TMC3    C410183   0.931   2.456  15.983  0.2482  0.6399  0.4638
  685TMC3    C510184   0.984   2.493  15.861 -0.6150  0.1625  0.2557
  685TMC3    C610185   0.917   2.556  15.768  0.0842  0.4822  0.0153
  685TMC3     C10186   0.776   2.518  16.151  0.0682 -1.0278 -0.0446
  685TMC3     O10187   0.819   2.437  16.235  0.4158  0.3728  0.1018
  685TMC3     H10188   0.630   2.595  15.938 -0.3865 -1.1032  1.2847
  685TMC3    H110189   0.986   2.401  16.058  1.5447 -1.5268 -2.0815
  685TMC3    H210190   0.954   2.565  15.667  0.9447 -0.0049  0.2885
  685TMC3    C710191   1.119   2.541  15.880 -0.1594  0.1988  0.0862
  685TMC3    C810192   0.694   2.626  15.686  1.0852  0.3414 -0.4415
  685TMC3    O110193   1.184   2.487  15.968 -0.5339 -0.1691 -0.2259
  685TMC3    O210194   0.715   2.583  15.576  0.1899 -0.5993  0.8342
  686MPD2     C10195   2.138   2.372  15.189  0.4073  0.1267  0.1285
  686MPD2    C110196   2.073   2.297  15.290  0.0750  0.0666  0.1029
  686MPD2    C210197   2.096   2.158  15.291  0.1192  0.2590  0.2637
  686MPD2    C310198   2.163   2.091  15.193  0.3839  0.6878 -0.7080
  686MPD2    C410199   2.224   2.162  15.096 -0.2937  0.1434  0.1475
  686MPD2    C510200   2.207   2.298  15.088 -0.0003 -0.4569  0.7084
  686MPD2     H10201   2.053   2.098  15.371  0.8876 -2.0033 -1.0362
  686MPD2    H110202   2.279   2.111  15.018 -0.1909 -2.0043  1.6178
  686MPD2    H210203   2.137   2.480  15.188 -1.0592  0.1055 -0.3331
  686MPD2    H310204   2.258   2.353  15.010 -1.0096  0.1703  0.4929
  686MPD2     N10205   2.179   1.947  15.181 -0.4780 -0.4794 -0.8841
  686MPD2    H510206   2.256   1.917  15.122 -0.2667  1.5053 -1.6261
  686MPD2    N110207   2.004   2.360  15.397  0.4305 -0.2950  0.0164
  686MPD2    H710208   1.991   2.461  15.403  1.0614 -0.1929 -0.3477
  687TMC3    C110209   1.972   1.880  15.287  0.1631  0.4368  0.0281
  687TMC3    C210210   1.884   1.931  15.197 -0.2180  0.1587 -0.2825
  687TMC3    C310211   1.752   1.943  15.231  0.5247 -0.0595  0.4330
  687TMC3    C410212   1.929   1.839  15.409  0.6978  0.0739 -0.6588
  687TMC3    C510213   1.794   1.848  15.435  0.4448  0.8478  0.5265
  687TMC3    C610214   1.703   1.897  15.347 -0.8970 -0.1045  0.1011
  687TMC3     C10215   2.115   1.854  15.261 -0.4638  0.4577  0.0065
  687TMC3     O10216   2.161   1.751  15.299 -0.1509  0.2856  0.2454
  687TMC3     H10217   1.904   1.948  15.092  3.1526 -0.7977  0.2329
  687TMC3    H110218   1.989   1.787  15.483 -0.3322 -0.2840 -0.0832
  687TMC3    H210219   1.600   1.907  15.379 -1.1539  2.3046 -1.4724
  687TMC3    C710220   1.759   1.858  15.569 -0.4838  0.4466 -0.0111
  687TMC3    C810221   1.677   2.052  15.177 -0.4128 -0.3218  0.2543
  687TMC3    O110222   1.646   1.834  15.612 -0.3352  0.7109 -0.5100
  687TMC3    O210223   1.556   2.034  15.174  0.1589 -0.2098  0.2797
  688MPD2     C10224   1.283   1.875  17.133  0.0936  0.2025  0.0281
  688MPD2    C110225   1.283   1.750  17.193  0.2640 -0.2734 -1.0526
  688MPD2    C210226   1.358   1.645  17.144 -0.1818 -0.4327 -0.1039
  688MPD2    C310227   1.428   1.660  17.022 -0.8799  0.7704  0.1397
  688MPD2    C410228   1.428   1.786  16.961  0.1210  0.0918 -0.4702
  688MPD2    C510229   1.366   1.894  17.021  0.4163 -0.2561  0.8794
  688MPD2     H10230   1.361   1.550  17.196 -0.9933 -0.1258  0.4976
  688MPD2    H110231   1.482   1.811  16.870  0.9943  0.5783  0.1740
  688MPD2    H210232   1.230   1.963  17.167 -0.7762 -0.0965 -0.5623
  688MPD2    H310233   1.388   1.992  16.979  0.0036 -0.3085  0.5462
  688MPD2     N10234   1.501   1.559  16.958 -0.2828 -0.6984  0.7058
  688MPD2    H510235   1.528   1.583  16.863  0.3932  1.7513  1.5133
  688MPD2    N110236   1.205   1.724  17.305  0.2783  0.3898  0.0402
  688MPD2    H710237   1.202   1.626  17.331  2.5066  0.3486  0.1500
  689TMC3    C110238   1.090   1.756  17.507  0.4883  0.0660 -0.4877
  689TMC3    C210239   1.093   1.839  17.618 -0.7064  0.0874 -0.4581
  689TMC3    C310240   1.094   1.778  17.743  0.1862 -0.0744 -0.1270
  689TMC3    C410241   1.072   1.623  17.522 -0.2052 -0.1055  0.1631
  689TMC3    C510242   1.070   1.564  17.649 -0.0544  0.1914 -0.5164
  689TMC3    C610243   1.091   1.641   0.006 -0.0750  0.8523  0.1101
  689TMC3     C10244   1.141   1.818  17.384  0.3547 -0.7002 -0.2818
  689TMC3     O10245   1.174   1.934  17.386  0.0101  0.1086 -0.3870
  689TMC3     H10246   1.075   1.946  17.610  1.4245  0.3983 -1.0567
  689TMC3    H110247   1.056   1.555  17.439 -1.4982 -0.6846  0.8835
  689TMC3    H210248   1.109   1.600   0.105  0.5802  2.2441  0.5792
  689TMC3    C710249   1.051   1.420  17.669 -0.1010  0.2213  0.1957
  689TMC3    C810250   1.102   1.859   0.111  0.2171 -0.5651 -0.3836
  689TMC3    O110251   1.078   1.378   0.027 -0.4643 -0.2123 -0.5720
  689TMC3    O210252   1.143   1.805   0.213 -0.5740  0.1555 -0.1494
  690MPD2     C10253   3.698   2.812  15.743 -0.4274  0.2077 -0.1137
  690MPD2    C110254   3.602   2.912  15.731 -0.3770  0.1791 -0.3961
  690MPD2    C210255   3.626   3.049  15.730 -0.6810  0.3560 -0.1401
  690MPD2    C310256   3.752   3.095  15.761  0.1813 -0.2908 -0.3065
  690MPD2    C410257   3.844   2.998  15.776  0.1074  0.3578  0.1070
  690MPD2    C510258   3.816   2.860  15.783 -0.3129 -0.6124 -0.3160
  690MPD2     H10259   3.547   3.119  15.704 -0.5945  0.7044  0.5340
  690MPD2    H110260   3.946   3.030  15.793 -0.0498  0.1434  1.4566
  690MPD2    H210261   3.678   2.706  15.747  2.9085 -0.4410 -0.7940
  690MPD2    H310262   3.898   2.795  15.811  0.3643  0.2212 -0.3824
  690MPD2     N10263   3.774   3.232  15.764 -0.1074 -1.1186  0.0149
  690MPD2    H510264   3.709   3.295  15.718  1.8359  1.3690  0.6328
  690MPD2    N110265   3.474   2.862  15.700  0.3577 -0.0239 -0.4712
  690MPD2    H710266   3.471   2.762  15.684  0.6707 -0.3407  1.5578
  691TMC3    C110267   3.265   2.834  15.619 -0.5398  0.7952 -0.2697
  691TMC3    C210268   3.133   2.855  15.648 -0.6782  0.6166  0.1087
  691TMC3    C310269   3.051   2.763  15.604  0.6002 -0.2731  0.7716
  691TMC3    C410270   3.315   2.721  15.560 -0.6437  0.1665  0.2697
  691TMC3    C510271   3.225   2.633  15.510 -0.4853 -0.8519 -0.0082
  691TMC3    C610272   3.090   2.656  15.523 -0.2383  0.2628 -0.2914
  691TMC3     C10273   3.362   2.932  15.669  0.7823 -0.0686  0.6432
  691TMC3     O10274   3.333   3.049  15.686  0.2992  0.2944 -0.4796
  691TMC3     H10275   3.106   2.937  15.713 -2.0704 -0.9197  1.4899
  691TMC3    H110276   3.417   2.711  15.525  0.7228  2.1447  3.8050
  691TMC3    H210277   3.018   2.604  15.461 -1.3335  2.0783 -0.5331
  691TMC3    C710278   3.268   2.517  15.433 -1.2882  0.2932  0.8267
  691TMC3    C810279   2.916   2.763  15.644 -0.3791  0.7511 -0.3198
  691TMC3    O110280   3.390   2.510  15.439  0.0178  0.4047  0.7295
  691TMC3    O210281   2.857   2.659  15.616 -0.5205  0.3502  0.0747
  692TMC3    C110282   0.373   4.506  16.159 -0.5817 -0.6567 -0.3711
  692TMC3    C210283   0.497   4.521  16.211  0.0937  0.3420  0.6883
  692TMC3    C310284   0.581   4.414  16.224  0.0713 -0.0164 -0.0585
  692TMC3    C410285   0.331   4.387  16.108  0.4084 -0.1508 -0.0827
  692TMC3    C510286   0.417   4.279  16.112 -0.4741  0.9815  0.3836
  692TMC3    C610287   0.546   4.298  16.158 -0.2152 -0.5176 -0.5743
  692TMC3     C10288   0.267   4.604  16.184  0.3688 -0.7869  0.0725
  692TMC3     O10289   0.152   4.562  16.181 -0.3963 -0.8171 -0.2595
  692TMC3     H10290   0.514   4.610  16.271 -0.5126  0.8155  0.1619
  692TMC3    H110291   0.228   4.375  16.078 -0.2331  0.6477  1.7610
  692TMC3    H210292   0.605   4.208  16.172 -0.2035 -0.4400 -0.1016
  692TMC3    C710293   0.365   4.153  16.068 -0.9215 -0.6060 -0.3443
  692TMC3    C810294   0.616   4.378  16.358  0.0960 -0.4092  0.5948
  692TMC3    O110295   0.258   4.160  16.006  0.5155 -0.4422 -0.7304
  692TMC3    O210296   0.672   4.268  16.376 -0.5714 -0.2004  0.1847
  693MPD2     C10297   0.247   2.692  10.687 -0.7253  0.9949  0.0571
  693MPD2    C110298   0.247   2.573  10.755 -0.2560 -0.0059  0.5184
  693MPD2    C210299   0.357   2.525  10.831 -0.2882  0.3104  0.1421
  693MPD2    C310300   0.465   2.609  10.860 -0.6049  1.1653  0.0891
  693MPD2    C410301   0.471   2.730  10.791  0.6757 -0.3068 -0.7179
  693MPD2    C510302   0.366   2.769  10.702  0.1399  0.0724 -0.2601
  693MPD2     H10303   0.352   2.430  10.882  0.0015 -0.3860 -1.1162
  693MPD2    H110304   0.568   2.778  10.803  0.3458 -0.0827  0.9596
  693MPD2    H210305   0.161   2.736  10.640  0.9699  1.7974 -2.3097
  693MPD2    H310306   0.378   2.858  10.641 -2.0891  1.5043  1.4016
  693MPD2     N10307   0.567   2.580  10.951 -0.1541 -0.0607  0.3104
  693MPD2    H510308   0.658   2.623  10.941  1.0831 -2.9106 -0.6906
  693MPD2    N110309   0.129   2.494  10.757 -0.4411 -0.1896 -0.2462
  693MPD2    H710310   0.047   2.535  10.712  0.5481  0.4412 -1.4521
  694TMC3    C110311   0.002   2.307  10.817  0.3214 -0.1970  0.2299
  694TMC3    C210312   4.651   2.292  10.721  0.0438  0.1483  0.0906
  694TMC3    C310313   4.529   2.256  10.775 -0.7675 -0.6086 -0.1037
  694TMC3    C410314   0.003   2.249  10.944 -0.3756 -0.1494 -0.5771
  694TMC3    C510315   4.619   2.212  10.989  0.7455  0.6399 -0.3648
  694TMC3    C610316   4.505   2.217  10.908 -0.5503  1.1041  0.2620
  694TMC3     C10317   0.131   2.356  10.785  0.3721  0.3160  0.4943
  694TMC3     O10318   0.224   2.276  10.816  0.6842  0.3680  0.6682
  694TMC3     H10319   4.673   2.321  10.619  0.3247  0.0451  0.1223
  694TMC3    H110320   0.086   2.264  11.012 -2.4045 -0.0789  1.8609
  694TMC3    H210321   4.405   2.215  10.949 -0.9439  0.6900 -0.7341
  694TMC3    C710322   4.619   2.185  11.127 -0.5015  0.4581 -0.3857
  694TMC3    C810323   4.413   2.234  10.688 -0.2811 -0.5101 -0.2441
  694TMC3    O110324   4.706   2.239  11.191  0.0742  0.2593  0.2398
  694TMC3    O210325   4.328   2.162  10.738  0.4521 -0.2699 -0.1220
  695MPD2     C10326   0.979   4.102  13.462  0.0425  0.2733 -1.1815
  695MPD2    C110327   0.960   4.093  13.597 -0.2869 -0.3461 -0.3477
  695MPD2    C210328   0.834   4.109  13.656  0.3726 -0.1309  0.4392
  695MPD2    C310329   0.724   4.129  13.571  0.4557 -0.6025  0.0083
  695MPD2    C410330   0.744   4.143  13.434  0.2687  0.0418 -0.5349
  695MPD2    C510331   0.867   4.121  13.385  0.1149  0.1476  0.2050
  695MPD2     H10332   0.814   4.092  13.761 -0.2733  0.3728  0.3998
  695MPD2    H110333   0.667   4.179  13.366  0.3461  1.8341  0.3399
  695MPD2    H210334   1.079   4.094  13.421  1.0229 -0.4979  1.3640
  695MPD2    H310335   0.878   4.128  13.278 -2.1668 -0.8882 -0.0950
  695MPD2     N10336   0.594   4.141  13.635  0.0651  0.0412 -0.5692
  695MPD2    H510337   0.597   4.116  13.733  0.8349 -0.4628 -0.7204
  695MPD2    N110338   1.070   4.059  13.686  0.4423 -0.2435  0.3860
  695MPD2    H710339   1.053   4.043  13.785  0.9356  1.1690  0.7112
  696TMC3    C110340   0.363   4.155  13.652  0.3281 -0.6264 -0.2577
  696TMC3    C210341   0.372   4.138  13.787  0.0074  0.7847  0.5085
  696TMC3    C310342   0.267   4.167  13.865 -0.1739 -0.4749 -0.9192
  696TMC3    C410343   0.249   4.231  13.606  1.2695 -0.3835 -0.0652
  696TMC3    C510344   0.149   4.267  13.693  0.4431 -0.5048 -0.2081
  696TMC3    C610345   0.161   4.238  13.822  1.0056 -0.0724 -0.4566
  696TMC3     C10346   0.479   4.157  13.566  0.7502 -0.0243 -0.0807
  696TMC3     O10347   0.453   4.173  13.449 -0.1290 -0.2366 -0.5497
  696TMC3     H10348   0.443   4.067  13.830 -0.8437  0.0276  0.6521
  696TMC3    H110349   0.227   4.243  13.500 -1.4782  0.6281  0.6121
  696TMC3    H210350   0.087   4.280  13.889  0.6446 -0.0057 -0.8958
  696TMC3    C710351   0.111   4.400  13.658 -0.5130 -0.8199  0.2734
  696TMC3    C810352   0.289   4.145  14.010 -0.4833 -0.0840  0.4966
  696TMC3    O110353   0.062   4.421  13.550 -0.4090 -0.5412  0.1872
  696TMC3    O210354   0.393   4.182  14.058  0.2471  0.0722  0.1465
  697MPD2     C10355   0.071   1.363  15.907 -0.0035  0.4262  0.3211
  697MPD2    C110356   0.119   1.294  15.798 -0.2775 -0.1542 -0.3562
  697MPD2    C210357   0.198   1.360  15.705 -0.1274  0.5757  0.8444
  697MPD2    C310358   0.232   1.491  15.725  0.2203 -0.0966 -0.3518
  697MPD2    C410359   0.190   1.557  15.839 -0.0217 -0.5565 -0.2645
  697MPD2    C510360   0.116   1.493  15.929 -0.3117  0.4206 -0.0380
  697MPD2     H10361   0.233   1.309  15.616 -0.1857  0.0095  1.1501
  697MPD2    H110362   0.213   1.661  15.861 -0.5375 -0.2532 -1.1545
  697MPD2    H210363   0.007   1.319  15.983  0.3413 -2.6745 -1.1559
  697MPD2    H310364   0.085   1.542  16.021  0.4803 -0.0680  0.4898
  697MPD2     N10365   0.318   1.559  15.634  0.0145  0.8734 -0.8184
  697MPD2    H510366   0.327   1.515  15.543  1.1692 -1.9967  0.6537
  697MPD2    N110367   0.090   1.162  15.773  0.1996 -0.3696  0.2609
  697MPD2    H710368   0.140   1.118  15.696  1.4542  1.3013  0.1071
  698TMC3    C110369   0.466   1.731  15.555  0.1008  1.0250  0.1207
  698TMC3    C210370   0.583   1.798  15.577 -0.1352 -0.3051  0.1592
  698TMC3    C310371   0.664   1.847  15.469 -0.4280 -0.5926  1.1726
  698TMC3    C410372   0.415   1.711  15.426  0.1122  0.7798 -0.1141
  698TMC3    C510373   0.493   1.759  15.319 -0.3400  0.2194 -0.0766
  698TMC3    C610374   0.619   1.822  15.342  0.0207 -0.7480  0.0809
  698TMC3     C10375   0.393   1.674  15.666  0.9785 -0.4456 -0.4953
  698TMC3     O10376   0.416   1.717  15.774 -0.3680  0.0722  0.2945
  698TMC3     H10377   0.630   1.802  15.674 -0.6855 -0.6663  0.4444
  698TMC3    H110378   0.317   1.674  15.398  0.0223  1.6174 -0.8916
  698TMC3    H210379   0.675   1.842  15.251 -1.4401 -1.3269 -0.9334
  698TMC3    C710380   0.465   1.693  15.194  0.5872 -0.8176  0.7391
  698TMC3    C810381   0.799   1.886  15.499 -0.3482 -0.5819 -0.1600
  698TMC3    O110382   0.367   1.623  15.177  0.1526  0.0026 -0.3303
  698TMC3    O210383   0.830   1.885  15.619  0.0728  0.1007  0.1293
  699TMC3    C110384   0.381   4.194  13.034  0.0866  0.0647 -0.2197
  699TMC3    C210385   0.403   4.092  13.120 -0.2913  0.0930  0.2635
  699TMC3    C310386   0.299   4.012  13.162  0.0386 -0.0195 -0.6693
  699TMC3    C410387   0.248   4.229  13.016  0.3173 -0.4213 -0.2938
  699TMC3    C510388   0.142   4.141  13.049 -0.5262 -0.0132  0.4718
  699TMC3    C610389   0.170   4.028  13.116  0.3248  0.1497  0.1713
  699TMC3     C10390   0.458   4.316  13.053  0.0083 -0.6363 -0.8529
  699TMC3     O10391   0.487   4.375  12.950 -0.4120  0.4078 -0.1920
  699TMC3     H10392   0.502   4.092  13.165 -1.3253 -1.1790  2.4907
  699TMC3    H110393   0.231   4.320  12.959  1.7487  0.5892  0.9111
  699TMC3    H210394   0.098   3.961  13.161 -0.8793  0.5779 -1.1376
  699TMC3    C710395   0.027   4.205  13.099  0.4198 -0.8830 -0.3590
  699TMC3    C810396   0.333   3.890  13.234 -0.4382 -0.1181  0.1141
  699TMC3    O110397   4.665   4.139  13.127 -0.0765  0.3688  1.0421
  699TMC3    O210398   0.246   3.827  13.288 -0.3131 -0.1471 -0.3953
  700TMC3    C110399   3.690   1.864  17.216  0.2399 -0.1915  0.1477
  700TMC3    C210400   3.709   1.728  17.245  0.6369  0.8966 -0.1619
  700TMC3    C310401   3.762   1.691  17.367  0.0461  0.0184  0.1372
  700TMC3    C410402   3.705   1.959  17.306 -0.2103  0.4115  0.0280
  700TMC3    C510403   3.755   1.912  17.429  0.1664 -0.2936 -0.5699
  700TMC3    C610404   3.785   1.785  17.460 -0.5096  0.1606 -0.3937
  700TMC3     C10405   3.686   1.916  17.080 -0.1742 -0.5529 -0.0059
  700TMC3     O10406   3.622   1.858  16.994  0.2174  0.4416  0.4505
  700TMC3     H10407   3.712   1.665  17.157  0.8409 -0.6401  0.9595
  700TMC3    H110408   3.683   2.065  17.292 -1.0857  0.1610 -0.4597
  700TMC3    H210409   3.816   1.763  17.562 -1.6378  0.2502 -0.0339
  700TMC3    C710410   3.778   2.023  17.520 -0.4382 -0.5252 -0.3869
  700TMC3    C810411   3.853   1.574  17.365  0.2693  0.0272 -0.3266
  700TMC3    O110412   3.706   2.120  17.514 -0.5254 -0.2640 -0.5382
  700TMC3    O210413   3.958   1.604  17.425 -0.1574  0.1876 -0.4509
  701TMC3    C110414   4.028   0.520  15.739 -0.1825 -0.8872 -0.7142
  701TMC3    C210415   4.084   0.475  15.623  0.1380  0.9048 -1.0421
  701TMC3    C310416   4.224   0.489  15.607  0.7731  0.6589 -0.0343
  701TMC3    C410417   4.104   0.594  15.830 -0.0015  0.8606 -0.1882
  701TMC3    C510418   4.239   0.623  15.800  1.3058  0.2072  0.2424
  701TMC3    C610419   4.300   0.562  15.694 -0.4650 -0.8800  0.2905
  701TMC3     C10420   3.890   0.493  15.768 -0.2042 -0.2952  0.5195
  701TMC3     O10421   3.864   0.497  15.888  0.5839 -0.2414  0.5240
  701TMC3     H10422   4.018   0.434  15.546 -0.6861  1.6322 -0.7237
  701TMC3    H110423   4.052   0.631  15.917 -2.6615  1.0146 -1.8456
  701TMC3    H210424   4.404   0.580  15.672 -0.6043 -1.0294 -0.4886
  701TMC3    C710425   4.292   0.751  15.836  0.2825 -0.5872 -0.1655
  701TMC3    C810426   4.282   0.449  15.478 -0.5623  0.0245  0.3941
  701TMC3    O110427   4.391   0.779  15.770  0.2909  0.1967  0.0223
  701TMC3    O210428   4.407   0.470  15.475 -0.0320  0.1975  0.8174
  702MPD2     C10429   4.622   2.951  10.776  0.2730  0.0944 -0.3808
  702MPD2    C110430   4.490   2.943  10.749 -0.6294  0.9759  0.3490
  702MPD2    C210431   4.445   2.945  10.616  0.0918 -0.4728 -0.8785
  702MPD2    C310432   4.543   2.947  10.520  0.2150  0.2610 -0.3287
  702MPD2    C410433   4.680   2.941  10.539 -0.0530  0.0848  0.2696
  702MPD2    C510434   4.707   2.943  10.671 -0.4848 -0.1585 -0.0774
  702MPD2     H10435   4.338   2.956  10.599  0.2747  1.0322 -1.0664
  702MPD2    H110436   0.014   2.934  10.459  0.8537 -1.6045  1.2195
  702MPD2    H210437   4.653   2.949  10.880  1.6696 -0.3970 -0.8140
  702MPD2    H310438   0.074   2.934  10.698  0.1473 -0.3919 -2.6674
  702MPD2     N10439   4.504   2.958  10.387  0.0137  0.2275  0.2163
  702MPD2    H510440   4.574   2.988  10.319  0.8292  1.4573  1.5954
  702MPD2    N110441   4.394   2.953  10.848 -0.0920 -0.2882 -0.8168
  702MPD2    H710442   4.309   2.997  10.814  0.6027  0.1930 -1.9200
  703TMC3    C110443   4.373   3.041  10.216 -0.1361 -0.0224 -0.0521
  703TMC3    C210444   4.264   2.995  10.155 -0.3098 -0.0505  0.5004
  703TMC3    C310445   4.166   3.090  10.119 -0.9639 -0.1079 -0.0179
  703TMC3    C410446   4.401   3.173  10.244  0.4894  0.4742  0.0170
  703TMC3    C510447   4.302   3.260  10.209  0.1402 -0.0234  0.4781
  703TMC3    C610448   4.182   3.223  10.153  0.2137 -0.0827 -0.5111
  703TMC3     C10449   4.379   2.975  10.342 -0.9344  0.0620  0.3497
  703TMC3     O10450   4.276   2.915  10.382  0.3906 -0.6614  0.4296
  703TMC3     H10451   4.243   2.889  10.144 -1.0165  0.1339  0.0349
  703TMC3    H110452   4.480   3.196  10.315  1.0648 -0.5480 -0.2906
  703TMC3    H210453   4.116   3.297  10.110  1.0449  0.7482 -0.3723
  703TMC3    C710454   4.323   3.400  10.256  0.5843  0.0246 -0.1753
  703TMC3    C810455   4.032   3.032  10.110 -1.0031  0.2579 -0.4506
  703TMC3    O110456   4.428   3.417  10.316  0.2401 -0.2178 -0.0619
  703TMC3    O210457   4.022   2.924  10.057 -0.7409 -0.2091 -0.3261
  704TMC3    C110458   1.933   0.955  13.350 -0.6453 -0.1573 -0.0542
  704TMC3    C210459   2.069   0.966  13.327 -0.2159 -0.2964 -0.1956
  704TMC3    C310460   2.139   0.847  13.325 -0.4492  0.0877  0.0318
  704TMC3    C410461   1.872   0.838  13.386  0.2410  0.1735 -0.0343
  704TMC3    C510462   1.953   0.727  13.397  1.1529  0.0278  0.4156
  704TMC3    C610463   2.082   0.730  13.356  0.1554 -0.3516 -0.2864
  704TMC3     C10464   1.858   1.038  13.254 -0.2456  0.1678 -1.2717
  704TMC3     O10465   1.740   1.054  13.275  0.2692  0.4729  0.2759
  704TMC3     H10466   2.127   1.055  13.306 -0.3883 -0.2407 -0.4441
  704TMC3    H110467   1.765   0.834  13.371  0.2567 -0.9563  0.1236
  704TMC3    H210468   2.142   0.641  13.340  0.7979  0.5104 -2.7109
  704TMC3    C710469   1.905   0.589  13.408 -0.1894  0.2388 -0.3634
  704TMC3    C810470   2.226   0.843  13.216  0.1465  0.1896 -0.3035
  704TMC3    O110471   1.976   0.502  13.356  0.4751 -0.6443 -0.0124
  704TMC3    O210472   2.337   0.895  13.230 -0.1545  0.0310  0.5680
  705MPD2     C10473   0.556   3.782  16.453 -1.2001  0.3708 -0.1949
  705MPD2    C110474   0.583   3.879  16.548  0.2598 -0.4787 -0.1349
  705MPD2    C210475   0.476   3.933  16.615  0.1352  0.1611  0.4828
  705MPD2    C310476   0.343   3.874  16.613  0.1542  0.3132  0.4656
  705MPD2    C410477   0.322   3.764  16.528  0.3845  0.0907 -0.0927
  705MPD2    C510478   0.428   3.735  16.440  0.0202 -0.3662 -0.7272
  705MPD2     H10479   0.491   4.019  16.679  1.8590 -0.8560  1.4325
  705MPD2    H110480   0.228   3.710  16.523 -0.1975  0.9838  1.3218
  705MPD2    H210481   0.635   3.735  16.395  1.4593  1.3711  2.6191
  705MPD2    H310482   0.418   3.646  16.378 -1.2578 -0.9778  0.3461
  705MPD2     N10483   0.232   3.940  16.681  0.1327  0.1168  0.5294
  705MPD2    H510484   0.139   3.904  16.661  0.5730 -1.1967  0.8298
  705MPD2    N110485   0.708   3.938  16.559 -0.1118 -0.0601 -0.1224
  705MPD2    H710486   0.706   4.015  16.625  0.2931 -0.5041  0.4072
  706TMC3    C110487   1.164   4.042  16.481 -0.2381  0.4319  0.6990
  706TMC3    C210488   1.152   4.159  16.546  0.1232  0.1030  0.5302
  706TMC3    C310489   1.029   4.196  16.590  0.1862 -0.1271 -0.3659
  706TMC3    C410490   1.062   3.946  16.480  0.0926  0.2747 -0.6593
  706TMC3    C510491   0.941   3.989  16.533  0.1081  0.0924  0.4359
  706TMC3    C610492   0.924   4.111  16.591 -0.3442  0.8615 -0.2622
  706TMC3     C10493   1.276   4.033  16.388  0.3959  0.1291  0.7770
  706TMC3     O10494   1.375   4.106  16.404  0.3188  0.2315  0.0957
  706TMC3     H10495   1.224   4.234  16.517 -1.0433  0.9402 -0.2074
  706TMC3    H110496   1.071   3.865  16.409  2.9315  0.8224 -0.9254
  706TMC3    H210497   0.824   4.153  16.593 -1.5498 -1.9952 -0.1666
  706TMC3    C710498   0.829   3.905  16.493  0.4799  0.1157 -0.3446
  706TMC3    C810499   0.988   4.325  16.528 -0.3477 -0.5075  0.3321
  706TMC3    O110500   0.856   3.809  16.424  0.3773  0.0205 -0.0275
  706TMC3    O210501   1.031   4.363  16.421  0.5228 -0.7937  0.5661
  707TMC3    C110502   2.983   3.352   1.523 -0.4330  0.1256  0.0781
  707TMC3    C210503   3.117   3.320   1.541 -0.3855 -0.0761  0.1108
  707TMC3    C310504   3.209   3.420   1.538  0.5429 -0.2927 -0.5264
  707TMC3    C410505   2.947   3.488   1.511 -0.2179  0.2657  0.3080
  707TMC3    C510506   3.043   3.583   1.521  0.3693 -0.4798 -0.5621
  707TMC3    C610507   3.176   3.553   1.528  0.3173 -0.2332  0.4215
  707TMC3     C10508   2.904   3.252   1.468  0.1160 -0.3072  0.2133
  707TMC3     O10509   2.964   3.151   1.436  0.1706  0.6693  0.1766
  707TMC3     H10510   3.146   3.216   1.546  1.7323  0.5481  0.5071
  707TMC3    H110511   2.841   3.506   1.491  0.1118 -0.2151 -1.9370
  707TMC3    H210512   3.248   3.633   1.515 -0.6977  0.4323 -1.0241
  707TMC3    C710513   3.008   3.722   1.541  0.0225  0.3934  0.0799
  707TMC3    C810514   3.349   3.389   1.528  0.5408  0.0914  0.6296
  707TMC3    O110515   3.080   3.805   1.491 -0.4428 -0.1232  0.3834
  707TMC3    O210516   3.431   3.480   1.558 -0.0934 -0.0430 -0.6755
  708MPD2     C10517   4.154   2.814  13.550  0.4552  0.6639 -0.3892
  708MPD2    C110518   4.073   2.745  13.633 -0.6207  0.1016 -0.1691
  708MPD2    C210519   4.131   2.688  13.747  0.1426 -0.3393  0.2404
  708MPD2    C310520   4.262   2.710  13.792  0.3006 -0.4292  0.0666
  708MPD2    C410521   4.346   2.771  13.705 -0.0908 -0.7189  0.3727
  708MPD2    C510522   4.291   2.819  13.585  0.3289 -0.3851 -0.2353
  708MPD2     H10523   4.062   2.637  13.813  0.3043  0.8325  1.3372
  708MPD2    H110524   4.450   2.795  13.725 -0.8250  1.2336  1.7788
  708MPD2    H210525   4.121   2.865  13.461 -1.9060 -0.9141 -0.4162
  708MPD2    H310526   4.357   2.864  13.511  0.2321  2.3364  1.3106
  708MPD2     N10527   4.309   2.658  13.916 -0.3279  0.1639 -0.0588
  708MPD2    H510528   4.388   2.707  13.958  0.3762 -0.9184 -0.1362
  708MPD2    N110529   3.935   2.742  13.617 -0.3493  0.0487 -0.8443
  708MPD2    H710530   3.890   2.677  13.681 -2.1763 -1.1571 -3.3414
  709TMC3    C110531   3.720   2.753  13.533 -0.3571 -0.2798 -0.0349
  709TMC3    C210532   3.716   2.667  13.422  0.2100 -0.3071  0.3215
  709TMC3    C310533   3.683   2.533  13.431 -0.1441  0.1167  0.2902
  709TMC3    C410534   3.690   2.703  13.650 -0.4173 -0.0498 -0.4469
  709TMC3    C510535   3.640   2.572  13.667 -0.1049 -0.1690 -0.1153
  709TMC3    C610536   3.652   2.492  13.553  0.0100 -0.0534  0.3561
  709TMC3     C10537   3.854   2.806  13.524 -0.0220  0.0472  0.2557
  709TMC3     O10538   3.888   2.865  13.425 -0.2434  0.2596 -0.3830
  709TMC3     H10539   3.740   2.719  13.330 -0.5833 -1.1520 -0.3616
  709TMC3    H110540   3.713   2.753  13.743  1.8558  0.0390 -1.0418
  709TMC3    H210541   3.627   2.387  13.563  0.4483 -0.0826  1.0866
  709TMC3    C710542   3.713   2.510  13.772 -0.3227  0.1557 -0.0423
  709TMC3    C810543   3.732   2.446  13.331  0.0440  0.0303 -0.1817
  709TMC3    O110544   3.832   2.508  13.748 -0.2450 -0.0696  0.2081
  709TMC3    O210545   3.755   2.331  13.374 -0.5235 -0.6209  0.4241
  710TMC3    C110546   4.545   4.327   0.422 -0.0639 -0.3699  0.1359
  710TMC3    C210547   4.584   4.275   0.300 -0.2472 -0.9664  0.4927
  710TMC3    C310548   4.709   4.227   0.293  0.3945  0.0533  0.1625
  710TMC3    C410549   4.617   4.312   0.531 -0.0499  0.3668 -0.7973
  710TMC3    C510550   0.000   4.248   0.524 -0.2803 -0.7537  0.5093
  710TMC3    C610551   0.046   4.204   0.404  0.3470 -0.7912 -0.0979
  710TMC3     C10552   4.407   4.376   0.425  0.8370 -0.2476  0.0017
  710TMC3     O10553   4.331   4.325   0.339  0.2702 -0.0720  0.1877
  710TMC3     H10554   4.528   4.296   0.210  0.7772  1.2069  0.3424
  710TMC3    H110555   4.570   4.356   0.618  2.0802  1.4287 -0.1682
  710TMC3    H210556   0.146   4.163   0.397  0.0700 -0.9696 -2.9150
  710TMC3    C710557   0.051   4.199   0.652  0.0617 -0.5355  0.0673
  710TMC3    C810558   0.013   4.183   0.165  0.0386  0.7167  0.1264
  710TMC3    O110559   4.704   4.173   0.738  0.1864  0.5778  0.1103
  710TMC3    O210560   0.129   4.184   0.122  0.3342 -0.0065 -0.1236
  711TMC3    C110561   4.690   0.199  15.187  0.2358  0.4028 -0.1668
  711TMC3    C210562   0.002   0.303  15.268 -0.7901 -0.0463 -0.7206
  711TMC3    C310563   0.136   0.303  15.301  0.5449  0.6242  0.1254
  711TMC3    C410564   0.032   0.107  15.132  0.4916  0.3186  0.1424
  711TMC3    C510565   0.164   0.118  15.159  0.2042 -0.1467 -0.0711
  711TMC3    C610566   0.220   0.216  15.238  0.4333 -0.0183  0.1829
  711TMC3     C10567   4.579   0.129  15.239 -0.0026 -0.1401  0.1695
  711TMC3     O10568   4.532   0.039  15.174  0.2366 -0.2640 -0.1518
  711TMC3     H10569   4.680   0.384  15.307  2.3880  1.9078  0.2089
  711TMC3    H110570   4.731   0.014  15.093  0.0148  0.0697  1.2434
  711TMC3    H210571   0.327   0.232  15.246  0.4343  0.1648 -0.1905
  711TMC3    C710572   0.250   4.733  15.141 -0.3433 -0.5919 -0.0265
  711TMC3    C810573   0.149   0.278  15.439 -0.5792  0.0011  1.1620
  711TMC3    O110574   0.192   4.630  15.105  0.1680  0.2623  0.2827
  711TMC3    O210575   0.041   0.261  15.496 -0.0756  0.1449  0.0984
  712MPD2     C10576   1.074   0.918  13.770  0.1764  0.2908 -0.1500
  712MPD2    C110577   1.178   0.891  13.853  0.7458  0.1735 -0.1260
  712MPD2    C210578   1.261   0.994  13.900 -0.1211  0.9323 -0.5604
  712MPD2    C310579   1.245   1.121  13.843 -0.2555 -0.4494 -0.9806
  712MPD2    C410580   1.144   1.146  13.755  0.1733 -0.0474  0.0490
  712MPD2    C510581   1.059   1.046  13.722  0.1418  0.7099  0.4200
  712MPD2     H10582   1.347   0.972  13.963  0.8440 -0.1311 -2.2418
  712MPD2    H110583   1.132   1.240  13.702 -0.6836  0.0157  0.3507
  712MPD2    H210584   1.002   0.841  13.745 -0.7887  1.3636 -0.7119
  712MPD2    H310585   0.987   1.068  13.644 -0.5920 -1.6902  0.4255
  712MPD2     N10586   1.325   1.234  13.870 -0.0473 -0.0562  0.6339
  712MPD2    H510587   1.277   1.316  13.834  1.2955  0.6295  0.4205
  712MPD2    N110588   1.185   0.758  13.905 -0.3207 -0.5364 -0.1891
  712MPD2    H710589   1.277   0.715  13.899  0.5723  1.5511 -1.7445
  713TMC3    C110590   1.487   1.376  13.947 -0.4372 -0.2312 -0.1390
  713TMC3    C210591   1.611   1.390  13.995 -0.2699  0.5216  0.2563
  713TMC3    C310592   1.651   1.513  14.045 -0.2468 -0.2869  0.3792
  713TMC3    C410593   1.391   1.477  13.981  0.8047 -0.0174 -0.5888
  713TMC3    C510594   1.437   1.600  14.021 -0.6904  0.4459 -0.7679
  713TMC3    C610595   1.568   1.621  14.051  0.5232 -0.1283  0.6948
  713TMC3     C10596   1.441   1.243  13.947  0.0970  0.1293 -0.2072
  713TMC3     O10597   1.504   1.163  14.013 -0.1914  0.5896 -0.0297
  713TMC3     H10598   1.689   1.318  13.975 -0.8489  0.1193 -0.5651
  713TMC3    H110599   1.284   1.461  13.981  0.8524 -0.3255  0.3345
  713TMC3    H210600   1.594   1.715  14.098 -0.5150  0.0313  0.9504
  713TMC3    C710601   1.356   1.718  13.979  0.6506  0.1985 -0.0034
  713TMC3    C810602   1.767   1.565  13.970  0.4830 -0.3800 -0.4457
  713TMC3    O110603   1.285   1.704  13.881  0.0410 -0.0909  0.3895
  713TMC3    O210604   1.743   1.673  13.914 -0.2761  0.0190  0.2461
  714MPD2     C10605   3.133   0.347   1.761 -0.1252  0.7455  0.3573
  714MPD2    C110606   3.201   0.327   1.643  0.0181 -0.6124 -0.3751
  714MPD2    C210607   3.127   0.330   1.518  0.7361 -0.5288 -0.1913
  714MPD2    C310608   2.990   0.370   1.519  0.5575 -0.7243  0.3611
  714MPD2    C410609   2.931   0.397   1.639 -0.4787  0.9293  0.3798
  714MPD2    C510610   2.999   0.377   1.758 -0.5161  0.5313  0.0527
  714MPD2     H10611   3.168   0.305   1.421  1.5634 -0.1655  0.0610
  714MPD2    H110612   2.829   0.430   1.653 -0.6050  0.4559  0.5639
  714MPD2    H210613   3.181   0.337   1.858  1.0244  0.4789 -0.2315
  714MPD2    H310614   2.947   0.387   1.853  0.2344 -3.1649  0.8599
  714MPD2     N10615   2.925   0.381   1.391  0.1793  0.3487  0.1682
  714MPD2    H510616   2.977   0.342   1.312  0.0344 -1.6541  1.0777
  714MPD2    N110617   3.336   0.290   1.658 -0.3208  0.0910 -0.4413
  714MPD2    H710618   3.379   0.310   1.748 -0.9145  1.2063 -0.4000
  715TMC3    C110619   3.563   0.227   1.589  0.2463 -0.0751  0.0215
  715TMC3    C210620   3.627   0.148   1.503  0.0407 -0.5515 -0.4761
  715TMC3    C310621   3.761   0.160   1.496 -0.7177 -0.2860  0.0449
  715TMC3    C410622   3.629   0.324   1.653 -0.4021  0.0577  0.5103
  715TMC3    C510623   3.767   0.318   1.658 -0.0626  0.2086 -0.0656
  715TMC3    C610624   3.839   0.233   1.586  0.6877  0.7267 -0.7674
  715TMC3     C10625   3.418   0.246   1.556 -0.4911  0.5057 -0.4611
  715TMC3     O10626   3.381   0.204   1.443 -0.1148  0.0988 -0.7910
  715TMC3     H10627   3.571   0.098   1.425  1.9917 -0.4331 -1.9546
  715TMC3    H110628   3.566   0.382   1.720  2.1498  1.8038  1.4020
  715TMC3    H210629   3.947   0.222   1.578  0.7472  1.7767 -1.5294
  715TMC3    C710630   3.837   0.433   1.715 -0.6443  0.2735 -0.4459
  715TMC3    C810631   3.823   0.070   1.397  0.0367 -0.4380 -0.4468
  715TMC3    O110632   3.956   0.423   1.711  0.0138  0.2269 -0.8022
  715TMC3    O210633   3.744   4.732   1.337  0.1060 -0.6442  0.6144
  716MPD2     C10634   4.329   4.232   9.485 -0.2270  1.2528 -0.3468
  716MPD2    C110635   4.221   4.152   9.504 -0.8203 -0.4449 -0.2702
  716MPD2    C210636   4.236   4.011   9.506 -0.5602  0.8191 -0.1817
  716MPD2    C310637   4.359   3.960   9.502  0.9205 -0.2444  0.0096
  716MPD2    C410638   4.464   4.048   9.488  0.4004 -0.0268  0.5321
  716MPD2    C510639   4.459   4.185   9.475  0.1998  0.0269 -0.5613
  716MPD2     H10640   4.155   3.945   9.535  0.6392  0.1204  1.5892
  716MPD2    H110641   4.563   4.005   9.478 -0.1429 -0.8588 -1.1213
  716MPD2    H210642   4.314   4.339   9.478  0.3674  1.3296 -0.4669
  716MPD2    H310643   4.542   4.254   9.464 -1.2752  1.6988 -1.2108
  716MPD2     N10644   4.377   3.819   9.507 -0.0475 -0.2826 -0.4950
  716MPD2    H510645   4.293   3.763   9.501 -1.2172  1.3307  0.8906
  716MPD2    N110646   4.101   4.224   9.513 -0.1311 -0.7226  0.2119
  716MPD2    H710647   4.109   4.323   9.493  2.2176 -1.3281 -1.9326
  717TMC3    C110648   4.489   3.615   9.518 -0.4375  0.3840 -0.3086
  717TMC3    C210649   4.382   3.558   9.451 -0.0124  0.1440 -0.3025
  717TMC3    C310650   4.370   3.425   9.460  0.0231 -0.3374 -0.0886
  717TMC3    C410651   4.584   3.546   9.592  0.3956  0.2593 -0.4799
  717TMC3    C510652   4.566   3.404   9.593  0.6941  0.4809 -0.1015
  717TMC3    C610653   4.460   3.340   9.533  0.3453 -0.0796  0.7394
  717TMC3     C10654   4.490   3.754   9.538  0.1795 -0.6303  0.0125
  717TMC3     O10655   4.591   3.805   9.588 -0.0937 -0.2097  0.6703
  717TMC3     H10656   4.308   3.610   9.391  0.1549  1.2232  0.4277
  717TMC3    H110657   4.667   3.599   9.638 -0.0204  0.2194  0.3176
  717TMC3    H210658   4.449   3.232   9.534  0.5947 -0.1051  0.8493
  717TMC3    C710659   4.661   3.319   9.678 -0.0997  0.4529 -0.8732
  717TMC3    C810660   4.259   3.360   9.399  0.7473  0.2694  0.5608
  717TMC3    O110661   4.632   3.201   9.679  0.0896  0.4884 -0.4129
  717TMC3    O210662   4.207   3.270   9.466  0.2163  0.0248  0.1559
  718MPD2     C10663   2.781   1.800  12.826  0.3783 -0.5507 -0.2952
  718MPD2    C110664   2.789   1.666  12.802 -0.2129 -0.3800  0.0586
  718MPD2    C210665   2.747   1.569  12.898 -0.2954  0.4665 -0.0873
  718MPD2    C310666   2.695   1.608  13.024 -0.5973  0.3905  0.9232
  718MPD2    C410667   2.694   1.744  13.051 -0.1432 -0.4297 -0.3733
  718MPD2    C510668   2.743   1.836  12.957  0.2310 -0.4025  0.2883
  718MPD2     H10669   2.755   1.466  12.866  0.5637  0.6006 -0.2985
  718MPD2    H110670   2.657   1.778  13.146  0.8849  3.3209 -1.2918
  718MPD2    H210671   2.806   1.879  12.756  1.2842  0.2101  0.8866
  718MPD2    H310672   2.753   1.940  12.987  2.1472 -0.2433 -0.9316
  718MPD2     N10673   2.691   1.516  13.126 -0.3526 -0.1923 -0.2169
  718MPD2    H510674   2.689   1.417  13.103 -0.2385  0.1160 -1.5216
  718MPD2    N110675   2.836   1.615  12.677 -0.6353 -0.0823 -0.1406
  718MPD2    H710676   2.831   1.514  12.676 -0.6933 -0.0966  1.1510
  719TMC3    C110677   2.964   1.573  12.483  0.3226 -0.0339  0.3164
  719TMC3    C210678   2.934   1.450  12.525 -0.0537 -0.2329  0.9202
  719TMC3    C310679   3.035   1.359  12.557  0.2854  0.0016  0.5482
  719TMC3    C410680   3.092   1.601  12.444 -0.6535  0.8668 -0.0329
  719TMC3    C510681   3.190   1.516  12.477 -0.1492  0.8171  0.2115
  719TMC3    C610682   3.167   1.390  12.534 -0.6972 -0.1147  0.5905
  719TMC3     C10683   2.912   1.671  12.579  0.2345 -0.5904 -0.4179
  719TMC3     O10684   2.949   1.786  12.569  0.2160  0.3085 -0.0135
  719TMC3     H10685   2.829   1.427  12.536 -0.6478  2.3835  0.7256
  719TMC3    H110686   3.117   1.705  12.430 -2.5888  1.3754  0.3401
  719TMC3    H210687   3.250   1.338  12.580 -1.8319 -0.8550  1.8095
  719TMC3    C710688   3.319   1.542  12.423  1.0124  0.2463  0.1770
  719TMC3    C810689   3.000   1.284  12.676 -0.1174  0.2739  0.2101
  719TMC3    O110690   3.356   1.653  12.397 -0.2144  0.6101 -0.0416
  719TMC3    O210691   2.881   1.285  12.699  0.0210  0.1571  0.4871
  720MPD2     C10692   1.743   2.866  13.472 -0.1184 -0.2017  0.5112
  720MPD2    C110693   1.741   2.998  13.497 -0.1744  0.0863 -0.2777
  720MPD2    C210694   1.802   3.050  13.610 -0.2368 -0.1989 -0.0056
  720MPD2    C310695   1.892   2.972  13.678 -0.0459  0.5621 -0.4172
  720MPD2    C410696   1.907   2.840  13.638  0.4288 -0.6203 -0.4303
  720MPD2    C510697   1.824   2.783  13.546  0.0792 -0.2685  0.1040
  720MPD2     H10698   1.769   3.145  13.651  2.4426  1.0661 -0.7553
  720MPD2    H110699   1.971   2.767  13.687 -0.6484  0.1221  2.0875
  720MPD2    H210700   1.692   2.820  13.389  1.6034  0.1669 -0.7520
  720MPD2    H310701   1.821   2.674  13.543  0.8502 -0.2779 -0.5277
  720MPD2     N10702   1.941   3.026  13.800  0.2134 -0.0663 -0.0490
  720MPD2    H510703   1.901   3.112  13.838 -1.0054  0.3679 -2.3556
  720MPD2    N110704   1.664   3.088  13.413  0.0715 -0.7840  0.2832
  720MPD2    H710705   1.677   3.187  13.429  0.7435 -1.1522  2.0902
  721TMC3    C110706   2.105   3.039  13.980  0.4709  0.1393  0.1808
  721TMC3    C210707   2.023   3.128  14.045 -0.5950  0.1215  0.3328
  721TMC3    C310708   2.073   3.174  14.165  0.3537  0.3377 -0.4549
  721TMC3    C410709   2.229   3.003  14.024  0.0124 -0.0275  0.0570
  721TMC3    C510710   2.267   3.051  14.144  0.4012  0.3145 -0.6456
  721TMC3    C610711   2.196   3.136  14.214  0.2143 -0.3012 -0.2670
  721TMC3     C10712   2.050   2.970  13.859 -0.7421  0.6542 -0.1149
  721TMC3     O10713   2.130   2.894  13.809  0.2022 -0.1025 -0.0476
  721TMC3     H10714   1.927   3.164  14.011  1.0066  2.9322 -1.2273
  721TMC3    H110715   2.309   2.946  13.977  0.1990 -0.4652  0.8966
  721TMC3    H210716   2.241   3.174  14.304  0.1018 -1.1891  0.1688
  721TMC3    C710717   2.397   3.020  14.186 -0.3230  0.3698  0.5568
  721TMC3    C810718   1.985   3.249  14.248  0.1125 -0.4439 -0.2986
  721TMC3    O110719   2.470   3.109  14.231  0.1341 -0.2820 -0.2463
  721TMC3    O210720   1.894   3.313  14.196 -0.0025  0.7383  0.0151
  722MPD2     C10721   0.716   1.843  13.186 -0.0990  0.4909 -0.0082
  722MPD2    C110722   0.688   1.974  13.176 -0.3986  0.3912 -0.0592
  722MPD2    C210723   0.572   2.012  13.112 -0.6339 -0.2482 -0.0691
  722MPD2    C310724   0.487   1.920  13.056  0.4582  0.1270  0.1133
  722MPD2    C410725   0.520   1.788  13.078 -1.0148 -0.4903  0.0985
  722MPD2    C510726   0.635   1.745  13.147  0.5155  0.2172  0.0659
  722MPD2     H10727   0.543   2.117  13.118  0.6757 -0.0203  2.5171
  722MPD2    H110728   0.451   1.710  13.049  0.4719 -2.4870  1.9131
  722MPD2    H210729   0.797   1.807  13.249  0.3222  2.6840  0.7012
  722MPD2    H310730   0.661   1.645  13.178 -0.8478  0.2235  1.2574
  722MPD2     N10731   0.367   1.963  12.988 -0.4716 -0.2800 -0.6642
  722MPD2    H510732   0.372   2.063  12.968  0.0979 -0.3472 -0.8685
  722MPD2    N110733   0.764   2.077  13.243 -1.0348 -0.6573  0.2468
  722MPD2    H710734   0.743   2.171  13.211  2.0203  0.1631  0.6708
  723TMC3    C110735   0.149   1.946  12.896 -0.5195  0.4007 -0.6666
  723TMC3    C210736   0.045   1.867  12.862 -0.2624  0.0441  0.1975
  723TMC3    C310737   4.671   1.934  12.825  0.2779 -0.7189  0.1316
  723TMC3    C410738   0.144   2.084  12.883 -0.0232  0.0924 -0.0306
  723TMC3    C510739   0.029   2.141  12.842 -0.2930 -0.1110  0.1202
  723TMC3    C610740   4.659   2.070  12.816  0.3033  0.7315 -0.3617
  723TMC3     C10741   0.268   1.878  12.940 -0.0613  0.2585  0.0194
  723TMC3     O10742   0.271   1.754  12.929  0.6922  0.3859  0.4726
  723TMC3     H10743   0.056   1.759  12.866 -0.9376 -0.0887 -1.8246
  723TMC3    H110744   0.229   2.150  12.892 -0.4439  0.6451 -0.1444
  723TMC3    H210745   4.563   2.119  12.802 -1.5454 -3.2996 -2.1124
  723TMC3    C710746   0.043   2.267  12.779 -0.2096 -0.0856  0.4451
  723TMC3    C810747   4.550   1.853  12.824 -0.9115 -0.1674 -0.4056
  723TMC3    O110748   0.135   2.339  12.819  0.7475 -0.0705 -0.6250
  723TMC3    O210749   4.441   1.915  12.822  0.0949 -0.2541 -0.1374
  724TMC3    C110750   0.964   0.220  11.148 -0.4262  0.0539 -0.3610
  724TMC3    C210751   0.928   0.214  11.011 -0.5042 -0.0566 -0.4333
  724TMC3    C310752   0.962   0.327  10.940 -0.2699  0.3918 -0.1281
  724TMC3    C410753   1.019   0.326  11.214  0.3882  0.5436 -0.2460
  724TMC3    C510754   1.044   0.432  11.130 -0.0821 -0.5340 -0.5577
  724TMC3    C610755   1.011   0.437  10.999 -0.0439  0.1698 -0.4380
  724TMC3     C10756   0.905   0.118  11.233  0.0884 -0.3710  0.3563
  724TMC3     O10757   0.950   0.108  11.348 -0.2827  0.0779  0.6137
  724TMC3     H10758   0.932   0.119  10.959 -1.4835 -2.1428  3.2353
  724TMC3    H110759   1.045   0.326  11.319  1.5308  1.2942 -0.5153
  724TMC3    H210760   1.023   0.529  10.943  1.3230 -0.4845 -1.2284
  724TMC3    C710761   1.149   0.520  11.172  0.4847 -0.1315 -0.3088
  724TMC3    C810762   0.955   0.310  10.797 -0.3070 -0.1230  0.8649
  724TMC3    O110763   1.209   0.580  11.083 -0.0616 -0.7928 -0.0533
  724TMC3    O210764   0.883   0.229  10.744  0.0146 -0.1483 -0.2954
  725TMC3    C110765   2.749   3.662  12.819  0.1547  0.2438 -0.4975
  725TMC3    C210766   2.612   3.689  12.802  0.2303  0.0093  0.2828
  725TMC3    C310767   2.546   3.608  12.718 -0.2393  0.7382 -0.2888
  725TMC3    C410768   2.815   3.557  12.754 -0.3879  0.0514  0.2224
  725TMC3    C510769   2.731   3.476  12.681 -0.0410 -0.4042 -0.4891
  725TMC3    C610770   2.602   3.496  12.658  0.1474  0.1060  0.1691
  725TMC3     C10771   2.831   3.773  12.869  0.4393 -0.2692 -0.4952
  725TMC3     O10772   2.780   3.887  12.884  0.3736 -0.1335  0.2913
  725TMC3     H10773   2.574   3.789  12.823  1.0342  0.3278  0.2035
  725TMC3    H110774   2.923   3.546  12.748 -0.4281 -1.0041  1.5556
  725TMC3    H210775   2.545   3.435  12.590 -0.7279  0.2277  0.7894
  725TMC3    C710776   2.794   3.353  12.627 -0.3896 -0.3153 -0.0434
  725TMC3    C810777   2.421   3.660  12.670 -0.0823  0.4691  0.4020
  725TMC3    O110778   2.773   3.297  12.518  0.6484  0.2408  0.4661
  725TMC3    O210779   2.383   3.620  12.558  0.1110 -0.3436  0.0729
  726MPD2     C10780   0.251   1.029  10.619  0.7696  0.8065 -0.9731
  726MPD2    C110781   0.158   1.108  10.566  0.2311 -0.2875 -0.1174
  726MPD2    C210782   0.031   1.060  10.568 -0.9894 -0.0260  0.4969
  726MPD2    C310783   0.002   0.937  10.629 -0.7267  0.5895  0.4126
  726MPD2    C410784   0.099   0.865  10.694  0.2064 -0.2229  0.7565
  726MPD2    C510785   0.226   0.912  10.681  0.0358 -0.3445  0.2407
  726MPD2     H10786   4.687   1.123  10.538 -0.9232  0.7901  2.0145
  726MPD2    H110787   0.092   0.776  10.755 -2.3015 -1.2103 -0.9778
  726MPD2    H210788   0.352   1.058  10.592  1.7534 -0.3947  1.4895
  726MPD2    H310789   0.304   0.857  10.731  1.4587  0.3388 -1.2073
  726MPD2     N10790   4.615   0.884  10.637 -0.1021 -0.0109  0.1683
  726MPD2    H510791   4.599   0.815  10.710 -1.1192 -0.1078 -0.1547
  726MPD2    N110792   0.179   1.234  10.506 -0.2163  0.2321 -0.2361
  726MPD2    H710793   0.095   1.285  10.478  1.5084  2.4604 -1.4237
  727TMC3    C110794   0.273   1.438  10.434  0.5881  0.2328 -0.1426
  727TMC3    C210795   0.387   1.507  10.429 -0.1456  0.1194 -0.1247
  727TMC3    C310796   0.379   1.626  10.360  0.4461 -0.0151  0.1568
  727TMC3    C410797   0.159   1.467  10.369 -0.0056  0.1755  0.6946
  727TMC3    C510798   0.160   1.589  10.298  0.3678  0.4618  0.2668
  727TMC3    C610799   0.268   1.673  10.297 -0.1949  0.3586 -0.6035
  727TMC3     C10800   0.293   1.312  10.502  0.3753  0.1539  0.2083
  727TMC3     O10801   0.395   1.292  10.564  0.1091  0.0554  0.2593
  727TMC3     H10802   0.481   1.484  10.477 -1.0635 -0.8089  1.2295
  727TMC3    H110803   0.066   1.417  10.391 -0.6246  1.5206  1.1569
  727TMC3    H210804   0.270   1.765  10.239  0.6811  1.4234  1.1188
  727TMC3    C710805   0.033   1.648  10.261  0.6475  0.3389 -0.1189
  727TMC3    C810806   0.506   1.694  10.363  0.1689  0.6497 -0.1341
  727TMC3    O110807   0.036   1.755  10.205  0.3813 -0.0346 -0.1916
  727TMC3    O210808   0.609   1.630  10.378 -0.1772 -0.1705 -0.0538
  728TMC3    C110809   3.897   3.427  15.793 -0.1204 -0.3280  0.4699
  728TMC3    C210810   4.029   3.460  15.763 -0.0433  0.0176 -0.4580
  728TMC3    C310811   4.049   3.569  15.686  0.0333 -0.2402  0.0098
  728TMC3    C410812   3.794   3.481  15.719 -0.0193 -0.1872  0.1054
  728TMC3    C510813   3.824   3.589  15.639 -0.1297  0.6529 -0.4683
  728TMC3    C610814   3.950   3.632  15.627 -0.1096  0.0835 -0.1115
  728TMC3     C10815   3.882   3.282  15.827  1.0237  0.5143  0.5646
  728TMC3     O10816   3.970   3.234  15.903 -0.3134  0.3332  0.3770
  728TMC3     H10817   4.112   3.401  15.801  0.3094  1.1751  0.5555
  728TMC3    H110818   3.689   3.467  15.745  0.1926  0.5426  1.3231
  728TMC3    H210819   3.971   3.711  15.555 -1.9285  1.1455  0.5017
  728TMC3    C710820   3.717   3.647  15.556 -0.0252 -0.5749  0.5093
  728TMC3    C810821   4.191   3.601  15.662 -0.0247 -0.6015 -0.5349
  728TMC3    O110822   3.625   3.574  15.527 -0.6420  0.0039 -0.3037
  728TMC3    O210823   4.272   3.527  15.713  0.1163 -0.6990 -0.0242
  729MPD2     C10824   1.184   0.080  17.235  0.2958 -0.0274  0.4067
  729MPD2    C110825   1.316   0.041  17.221 -0.0553 -0.4625  0.3422
  729MPD2    C210826   1.417   0.082  17.300 -0.1869  0.3253 -0.6391
  729MPD2    C310827   1.376   0.163  17.403 -0.3968  0.5640  0.1272
  729MPD2    C410828   1.247   0.208  17.420  1.1427 -0.0934 -0.3977
  729MPD2    C510829   1.152   0.167  17.333 -0.3826  0.2197  0.1028
  729MPD2     H10830   1.517   0.039  17.295 -0.1157  0.2688  1.4571
  729MPD2    H110831   1.221   0.278  17.499 -0.3781 -0.9527 -0.1438
  729MPD2    H210832   1.106   0.048  17.168  1.3182  0.7506 -1.1577
  729MPD2    H310833   1.050   0.201  17.346 -0.2221  1.6319 -2.4039
  729MPD2     N10834   1.465   0.214  17.503  0.1033 -0.3710 -0.0347
  729MPD2    H510835   1.421   0.284  17.561 -0.3921 -0.2773 -0.5231
  729MPD2    N110836   1.333   4.700  17.105  0.6328  0.8318 -0.3454
  729MPD2    H710837   1.248   4.677  17.055  0.8843 -1.4878  0.2749
  730TMC3    C110838   1.651   0.256  17.633 -0.2742 -0.3795  0.5714
  730TMC3    C210839   1.749   0.331  17.577  0.0810 -0.4708 -0.4306
  730TMC3    C310840   1.750   0.468  17.598  0.3870  0.3382 -0.0201
  730TMC3    C410841   1.555   0.309  17.716  0.6067  0.1409  0.2865
  730TMC3    C510842   1.560   0.444  17.735 -0.1464 -0.1932 -0.0768
  730TMC3    C610843   1.651   0.519  17.675 -0.2856 -0.3600  0.4740
  730TMC3     C10844   1.594   0.174  17.526 -0.6511 -0.3802 -0.4461
  730TMC3     O10845   1.665   0.099  17.459 -0.2890  1.1197 -0.1284
  730TMC3     H10846   1.823   0.290  17.509  2.7600  2.0309  0.9630
  730TMC3    H110847   1.477   0.254   0.014  0.6537  0.8184  1.0964
  730TMC3    H210848   1.649   0.627  17.686  0.6955 -0.4393  1.4951
  730TMC3    C710849   1.433   0.508  17.747  0.1920 -0.1271  0.4264
  730TMC3    C810850   1.777   0.536  17.473 -0.5946  0.5981  0.1834
  730TMC3    O110851   1.358   0.477  17.658  0.4821 -0.0568  0.3134
  730TMC3    O210852   1.779   0.464  17.375 -0.4245 -0.2125 -0.1020
  731MPD2     C10853   2.074   2.727  12.253 -0.2963 -0.2116  1.5109
  731MPD2    C110854   2.099   2.855  12.214  0.7153  0.0851  0.1866
  731MPD2    C210855   2.085   2.958  12.309 -0.3975  0.5340 -0.2602
  731MPD2    C310856   2.027   2.941  12.432 -0.0206  0.4238  0.1961
  731MPD2    C410857   1.983   2.818  12.464  0.0241 -0.6181  0.3806
  731MPD2    C510858   2.004   2.713  12.371  0.0107  0.6245 -0.3675
  731MPD2     H10859   2.107   3.062  12.289 -0.7265  0.3944 -1.3434
  731MPD2    H110860   1.926   2.799  12.555  0.6378 -0.7486  0.7394
  731MPD2    H210861   2.102   2.641  12.194 -3.3455  0.3381 -0.7084
  731MPD2    H310862   1.969   2.612  12.387 -0.3660  0.6141 -1.2624
  731MPD2     N10863   2.016   3.057  12.513 -0.0253  0.0337  0.6485
  731MPD2    H510864   2.034   3.151  12.480  0.8877 -0.8484 -1.3673
  731MPD2    N110865   2.144   2.884  12.080  0.0309  0.1386  0.0779
  731MPD2    H710866   2.149   2.802  12.020 -0.0851 -0.0576  0.3333
  732TMC3    C110867   2.206   3.010  11.896 -0.4324 -0.4580  0.4424
  732TMC3    C210868   2.130   2.946  11.804  0.3418 -0.4433  0.2706
  732TMC3    C310869   2.125   2.993  11.673  0.2380 -0.0361  0.4068
  732TMC3    C410870   2.285   3.113  11.846 -0.5691 -0.3468 -0.3427
  732TMC3    C510871   2.287   3.142  11.709 -1.3043 -0.3410 -1.0192
  732TMC3    C610872   2.209   3.078  11.616 -0.0147  0.1361 -0.0529
  732TMC3     C10873   2.197   2.998  12.039 -0.3484 -0.3390 -0.4076
  732TMC3     O10874   2.250   3.087  12.102  0.0040  0.0145  0.1192
  732TMC3     H10875   2.075   2.855  11.825 -0.7347 -0.2049 -1.4755
  732TMC3    H110876   2.341   3.181  11.908 -0.5548 -0.2016 -0.5144
  732TMC3    H210877   2.202   3.113  11.513  1.9319  0.5084 -0.0499
  732TMC3    C710878   2.405   3.216  11.654  0.2710  0.3562  0.4558
  732TMC3    C810879   2.012   2.956  11.586 -1.0954  0.1753  0.0996
  732TMC3    O110880   2.397   3.266  11.541 -0.6518 -0.6134  0.4591
  732TMC3    O210881   2.038   2.947  11.468 -0.0362 -0.2224 -0.0540
  733TMC3    C110882   2.558   1.235  13.409  0.9304  0.6276  0.1470
  733TMC3    C210883   2.561   1.368  13.373 -0.2187 -0.1251  0.3828
  733TMC3    C310884   2.678   1.418  13.326 -0.4052 -0.0137  0.4279
  733TMC3    C410885   2.666   1.155  13.391 -0.3670 -0.9344  0.4886
  733TMC3    C510886   2.773   1.206  13.337 -0.9187 -0.1329  0.1276
  733TMC3    C610887   2.784   1.338  13.302  0.3516 -0.4602  0.2463
  733TMC3     C10888   2.432   1.167  13.443  0.4162  0.1033 -0.0259
  733TMC3     O10889   2.331   1.227  13.403  0.0555  0.0111 -0.3311
  733TMC3     H10890   2.480   1.435  13.402 -0.8234 -0.9047  0.4749
  733TMC3    H110891   2.657   1.047  13.384  0.5947 -0.8536 -2.0457
  733TMC3    H210892   2.885   1.359  13.269 -0.7964  3.0294 -1.0384
  733TMC3    C710893   2.871   1.117  13.286 -0.3592 -0.3396  0.7389
  733TMC3    C810894   2.673   1.541  13.258  0.5915  0.3906  0.3152
  733TMC3    O110895   2.884   1.004  13.329  0.4453  0.1974  0.0480
  733TMC3    O210896   2.654   1.644  13.322  0.1063  0.3328 -0.1480
  734MPD2     C10897   4.423   4.042  12.404  0.2974  0.0788 -0.3330
  734MPD2    C110898   4.333   3.985  12.314  0.0001  0.2128  0.5602
  734MPD2    C210899   4.315   4.051  12.194  0.4032 -0.1330  0.0341
  734MPD2    C310900   4.384   4.170  12.167  0.5442  0.4364  0.0120
  734MPD2    C410901   4.470   4.226  12.259 -0.1997 -0.3411 -0.2594
  734MPD2    C510902   4.491   4.159  12.375  0.1695 -0.5567  0.0284
  734MPD2     H10903   4.256   4.008  12.114 -2.0559 -0.3014  1.9678
  734MPD2    H110904   4.518   4.322  12.250 -0.6858 -0.0742 -0.0045
  734MPD2    H210905   4.444   3.991  12.497  1.5812  2.4669  0.6761
  734MPD2    H310906   4.562   4.200  12.447  1.2017  2.3040 -2.6284
  734MPD2     N10907   4.347   4.239  12.049 -0.0781  0.0297  0.0387
  734MPD2    H510908   4.265   4.198  12.005 -0.9727  1.8668 -0.0050
  734MPD2    N110909   4.284   3.859  12.350 -0.0852  0.2985  0.1268
  734MPD2    H710910   4.322   3.814  12.433 -0.6370  0.3005  0.3808
  735TMC3    C110911   4.157   3.670  12.296  0.2480  0.9611 -1.1012
  735TMC3    C210912   4.046   3.638  12.226 -0.0465  0.3868 -0.3860
  735TMC3    C310913   4.046   3.538  12.129  0.0687 -0.2516 -0.1277
  735TMC3    C410914   4.272   3.599  12.280 -0.4693 -0.5145  0.2313
  735TMC3    C510915   4.270   3.492  12.197  0.3310 -0.2383 -0.3228
  735TMC3    C610916   4.157   3.464  12.115 -0.2471 -0.7413 -0.6296
  735TMC3     C10917   4.175   3.811  12.288  0.0239  0.1323 -0.4086
  735TMC3     O10918   4.101   3.870  12.208 -0.2308  0.5664  0.0848
  735TMC3     H10919   3.955   3.696  12.242 -0.1628  0.3211 -0.7978
  735TMC3    H110920   4.361   3.629  12.335 -0.8891 -0.2917  0.7921
  735TMC3    H210921   4.164   3.377  12.050 -0.0351 -0.8630 -0.4449
  735TMC3    C710922   4.380   3.401  12.201 -0.0926  0.1364 -0.5385
  735TMC3    C810923   3.990   3.577  12.004 -0.6581  0.0250  0.2890
  735TMC3    O110924   4.481   3.453  12.250  0.5216  0.0401  0.3240
  735TMC3    O210925   3.971   3.496  11.915  0.5490 -0.3896 -0.4917
  736MPD2     C10926   4.401   3.045  12.169  0.1394 -0.8373  0.3037
  736MPD2    C110927   4.446   3.175  12.159 -0.3084  0.2687 -0.1382
  736MPD2    C210928   4.584   3.191  12.142  0.4366 -0.5008 -0.2638
  736MPD2    C310929   4.672   3.088  12.138 -0.3174  0.3466 -0.3917
  736MPD2    C410930   4.620   2.956  12.142 -0.1310 -0.3191 -0.2328
  736MPD2    C510931   4.483   2.940  12.161 -0.0861 -0.1865 -0.7400
  736MPD2     H10932   4.617   3.294  12.152  0.0144 -0.4264  0.3365
  736MPD2    H110933   4.686   2.872  12.128  0.1202  0.0784 -1.5363
  736MPD2    H210934   4.297   3.019  12.184  0.1505 -1.1803 -0.2039
  736MPD2    H310935   4.436   2.843  12.163  0.7514 -0.5619  1.1736
  736MPD2     N10936   0.072   3.102  12.113 -0.1517 -0.5621  0.1377
  736MPD2    H510937   0.135   3.023  12.100 -0.0016 -0.6525  1.3749
  736MPD2    N110938   4.350   3.274  12.160  0.3053 -0.2129  0.0638
  736MPD2    H710939   4.253   3.244  12.158  0.3669 -0.3305 -0.9623
  737TMC3    C110940   0.283   3.223  12.097  0.2673 -0.6210  0.9364
  737TMC3    C210941   0.346   3.340  12.138 -0.1188 -0.3395  0.2964
  737TMC3    C310942   0.468   3.374  12.081 -0.0361 -0.2288 -0.5672
  737TMC3    C410943   0.341   3.143  12.000  0.1075  0.0195 -0.1462
  737TMC3    C510944   0.465   3.183  11.940  0.2768 -0.2027  0.5192
  737TMC3    C610945   0.528   3.303  11.981 -0.7925 -0.7345 -0.0038
  737TMC3     C10946   0.137   3.223  12.115  0.2598  0.6226 -0.3076
  737TMC3     O10947   0.097   3.331  12.161  0.2959  0.7992  0.4414
  737TMC3     H10948   0.302   3.401  12.216  2.0349  2.5454 -0.7351
  737TMC3    H110949   0.290   3.055  11.965  1.5455 -0.7094 -0.4218
  737TMC3    H210950   0.624   3.331  11.937 -0.1290 -0.9134  1.3189
  737TMC3    C710951   0.519   3.094  11.841 -0.3757  0.1444 -0.4616
  737TMC3    C810952   0.507   3.517  12.104  0.0980  0.2953  0.4143
  737TMC3    O110953   0.484   2.978  11.834 -0.0752 -1.0325 -0.4654
  737TMC3    O210954   0.483   3.570  12.214 -0.0773 -0.5982 -0.3551
  738MPD2     C10955   1.084   1.953  15.491  0.0979 -0.2971 -0.3619
  738MPD2    C110956   0.995   1.977  15.388  0.2314 -0.3016  0.3733
  738MPD2    C210957   1.038   2.033  15.274  0.6980  0.0462  0.1623
  738MPD2    C310958   1.174   2.037  15.246  0.0520  0.9918 -0.0459
  738MPD2    C410959   1.265   1.998  15.344 -0.0290 -0.2637 -0.1144
  738MPD2    C510960   1.218   1.965  15.472  0.0128  0.9123 -0.3028
  738MPD2     H10961   0.963   2.033  15.196  0.9507  1.9858 -0.1033
  738MPD2    H110962   1.370   1.986  15.319 -0.2862  0.3967 -1.5351
  738MPD2    H210963   1.056   1.913  15.588 -0.6731 -0.6824 -0.7439
  738MPD2    H310964   1.289   1.959  15.554 -0.6215 -2.9463 -0.0155
  738MPD2     N10965   1.231   2.084  15.121 -0.2233 -0.1091 -0.0322
  738MPD2    H510966   1.330   2.069  15.107 -0.0903  1.1211 -0.4241
  738MPD2    N110967   0.859   1.940  15.391  0.8766  0.5179  0.2165
  738MPD2    H710968   0.817   1.948  15.299 -0.9672  0.4500  1.0540
  739TMC3    C110969   1.236   2.187  14.909 -0.0936 -0.0691 -0.2251
  739TMC3    C210970   1.197   2.293  14.836  0.0238 -0.6418 -0.2163
  739TMC3    C310971   1.283   2.348  14.744 -0.6891  0.2551 -0.4264
  739TMC3    C410972   1.361   2.137  14.887  0.0192  0.4580  0.4742
  739TMC3    C510973   1.449   2.193  14.803  0.2601  0.0667 -0.5748
  739TMC3    C610974   1.413   2.298  14.729  0.3401  0.6057 -0.4710
  739TMC3     C10975   1.162   2.151  15.024 -0.4664  0.3667 -0.0497
  739TMC3     O10976   1.048   2.193  15.036  0.2961 -0.2806 -0.5606
  739TMC3     H10977   1.099   2.336  14.855 -0.6214 -2.2337  0.1021
  739TMC3    H110978   1.404   2.059  14.949 -1.1913  1.0741  2.1059
  739TMC3    H210979   1.480   2.336  14.653  1.3655 -0.8333 -0.2793
  739TMC3    C710980   1.585   2.149  14.791 -0.4288  0.2651  0.4583
  739TMC3    C810981   1.244   2.469  14.668  0.0186 -0.0700  0.2264
  739TMC3    O110982   1.665   2.236  14.759  0.4286  0.0746 -0.0786
  739TMC3    O210983   1.125   2.494  14.668  0.4211 -0.4366 -0.4891
  740TMC3    C110984   0.961   3.655  14.434  0.5463 -0.0143 -0.9473
  740TMC3    C210985   1.065   3.582  14.489  0.2022  0.2115 -0.8424
  740TMC3    C310986   1.165   3.548  14.403 -0.1799  0.4137  0.1383
  740TMC3    C410987   0.963   3.698  14.303  0.4919 -0.4041  0.0183
  740TMC3    C510988   1.068   3.664  14.229 -0.4653  0.4986  0.0876
  740TMC3    C610989   1.170   3.582  14.274 -0.5842  0.3653  0.2252
  740TMC3     C10990   0.845   3.697  14.508 -0.0235 -0.0941  0.3313
  740TMC3     O10991   0.775   3.782  14.456 -0.7387 -0.0525  0.5430
  740TMC3     H10992   1.076   3.579  14.597  1.0169 -1.4817 -0.9810
  740TMC3    H110993   0.882   3.756  14.261 -1.9465 -2.7539  1.4380
  740TMC3    H210994   1.248   3.551  14.206  0.8453  0.6815  1.7139
  740TMC3    C710995   1.063   3.702  14.084  0.2196  0.0728 -0.5287
  740TMC3    C810996   1.298   3.530  14.457  0.4379 -0.1134 -0.0491
  740TMC3    O110997   0.975   3.786  14.069 -0.4255 -0.0643  0.1820
  740TMC3    O210998   1.391   3.587  14.399 -0.3095  0.0830  0.2228
  741TMC3    C110999   1.200   2.658  15.088  0.4823  0.0119  0.3725
  741TMC3    C211000   1.082   2.620  15.033 -0.2854  0.2519 -0.0320
  741TMC3    C311001   1.018   2.524  15.106  0.1895  0.2935  0.4067
  741TMC3    C411002   1.249   2.592  15.199 -0.0958  0.2358  0.2598
  741TMC3    C511003   1.186   2.487  15.258  0.3458  0.2231  0.3255
  741TMC3    C611004   1.061   2.452  15.212 -0.3526  0.1870  0.0432
  741TMC3     C11005   1.293   2.762  15.033 -0.2880 -1.2280  0.1835
  741TMC3     O11006   1.382   2.790  15.109 -0.4351  0.4327  0.4188
  741TMC3     H11007   1.039   2.676  14.950  0.7334  1.1193  0.0269
  741TMC3    H111008   1.342   2.623  15.245  0.9315 -3.3619  0.5507
  741TMC3    H211009   1.020   2.352  15.224 -1.9799  1.0201  1.3762
  741TMC3    C711010   1.248   2.423  15.375  0.1957 -0.3705 -0.3940
  741TMC3    C811011   0.896   2.479  15.042 -0.0451 -0.3457 -0.2140
  741TMC3    O111012   1.372   2.434  15.393  0.1180 -0.2932 -0.5799
  741TMC3    O211013   0.887   2.510  14.928 -0.1781 -0.0972 -0.0649
  742TMC3    C111014   0.583   0.996  15.602  0.5436 -0.3364  0.1440
  742TMC3    C211015   0.556   1.013  15.466 -0.2353  0.6555  0.2530
  742TMC3    C311016   0.654   0.973  15.383  0.1196  0.2537  0.1338
  742TMC3    C411017   0.710   0.977  15.650 -0.7021 -0.2190  0.3456
  742TMC3    C511018   0.805   0.953  15.562 -0.0112 -0.4790  0.9772
  742TMC3    C611019   0.778   0.938  15.430  0.2044  0.4074  0.0972
  742TMC3     C11020   0.478   1.014  15.701  0.1452 -0.8023  0.1222
  742TMC3     O11021   0.374   1.065  15.661 -0.5599  0.1995 -0.0898
  742TMC3     H11022   0.451   1.019  15.441 -0.7682 -0.9794  2.0917
  742TMC3    H111023   0.726   0.980  15.758 -1.5978  0.3360  0.4592
  742TMC3    H211024   0.854   0.925  15.354  0.1735 -0.8665  0.2800
  742TMC3    C711025   0.938   0.930  15.614 -0.0114 -0.0097  0.2584
  742TMC3    C811026   0.624   0.956  15.239  0.6269  0.0690 -0.6577
  742TMC3    O111027   0.957   0.925  15.731  0.2853  0.3180 -0.6755
  742TMC3    O211028   0.693   0.881  15.165 -0.0489  0.1679  0.2105
  743MPD2     C11029   4.183   2.236   1.162 -0.2830  0.5569  0.1226
  743MPD2    C111030   4.120   2.360   1.149 -0.1773  0.2289  0.5370
  743MPD2    C211031   4.179   2.449   1.061  0.4927 -0.2971  1.2679
  743MPD2    C311032   4.288   2.417   0.985  0.2474  0.2318 -0.3921
  743MPD2    C411033   4.356   2.295   1.010 -0.2564  0.4110  0.2264
  743MPD2    C511034   4.294   2.207   1.092 -0.0985  0.1145 -0.1462
  743MPD2     H11035   4.137   2.547   1.040  0.8490 -0.4447 -0.1103
  743MPD2    H111036   4.440   2.257   0.953 -1.2838 -2.0773  0.3416
  743MPD2    H211037   4.151   2.152   1.222 -0.2742  0.7678  0.4208
  743MPD2    H311038   4.343   2.112   1.112  0.8124  0.2701 -1.6364
  743MPD2     N11039   4.332   2.505   0.887  0.0531  0.1895 -1.5630
  743MPD2    H511040   4.269   2.582   0.866 -0.7600  0.0198  0.2359
  743MPD2    N111041   3.999   2.380   1.216  0.1445  0.1993 -0.4365
  743MPD2    H711042   3.955   2.296   1.253  1.1769  0.1943  0.7625
  744TMC3    C111043   3.812   2.514   1.288  0.0350 -0.6893 -0.4821
  744TMC3    C211044   3.770   2.626   1.352 -0.1566 -1.1325 -0.2706
  744TMC3    C311045   3.637   2.651   1.364  0.2032 -0.9405 -0.4850
  744TMC3    C411046   3.722   2.412   1.256 -0.2597  0.4004 -0.3829
  744TMC3    C511047   3.586   2.450   1.264  0.6128  0.9045  0.0236
  744TMC3    C611048   3.540   2.565   1.319 -0.2876 -0.5710 -0.3891
  744TMC3     C11049   3.953   2.506   1.249  0.5796 -0.0877  0.1966
  744TMC3     O11050   4.015   2.611   1.264 -0.1037  0.1313  0.1849
  744TMC3     H11051   3.851   2.687   1.391 -0.4052 -1.0427  0.0969
  744TMC3    H111052   3.751   2.313   1.225  3.4111  0.8792  1.5747
  744TMC3    H211053   3.433   2.581   1.321 -0.6118 -2.7113 -0.1394
  744TMC3    C711054   3.485   2.356   1.227 -0.5167  0.1304  0.7013
  744TMC3    C811055   3.588   2.779   1.415  0.0088 -0.1636  0.0540
  744TMC3    O111056   3.373   2.367   1.280 -1.1383 -0.3874 -0.0216
  744TMC3    O211057   3.468   2.796   1.408 -0.0265  0.0489 -0.1890
  745TMC3    C111058   1.042   0.571  13.911  0.3591  1.0476 -0.0835
  745TMC3    C211059   0.908   0.562  13.903 -0.0156 -1.1477  0.0956
  745TMC3    C311060   0.848   0.539  13.781 -0.5680 -0.1520 -0.2023
  745TMC3    C411061   1.121   0.539  13.804 -0.2240  0.1012 -0.3297
  745TMC3    C511062   1.062   0.507  13.687 -0.8060 -0.3756 -0.1427
  745TMC3    C611063   0.928   0.509  13.673 -0.0931 -0.2695 -0.0107
  745TMC3     C11064   1.080   0.701  13.959  0.3923  0.0486 -0.0680
  745TMC3     O11065   0.986   0.763  14.010  0.5749  0.0144 -0.3544
  745TMC3     H11066   0.855   0.583  13.995  0.2491 -1.2965  0.2827
  745TMC3    H111067   1.229   0.529  13.815 -0.1297  0.9550 -0.4559
  745TMC3    H211068   0.892   0.504  13.571 -2.5137  2.4230  0.7052
  745TMC3    C711069   1.139   0.527  13.564  0.2637  0.0197 -0.2184
  745TMC3    C811070   0.738   0.634  13.754  0.2687  0.8463 -0.8189
  745TMC3    O111071   1.126   0.447  13.469 -0.0498  0.1947  0.0062
  745TMC3    O211072   0.688   0.624  13.642 -0.0902 -0.1205  0.0927
  746TMC3    C111073   4.116   3.107  11.090 -0.7559  0.6312 -1.0943
  746TMC3    C211074   4.236   3.071  11.027  0.3164 -0.3154  0.3805
  746TMC3    C311075   4.298   2.957  11.063  0.0921 -0.3224 -0.4020
  746TMC3    C411076   4.063   3.028  11.190  0.0823 -0.5114 -0.1467
  746TMC3    C511077   4.126   2.909  11.222  0.4440  0.4962  0.4114
  746TMC3    C611078   4.247   2.876  11.160 -0.1960  0.7741 -0.6240
  746TMC3     C11079   4.035   3.215  11.031 -0.0803  0.2829 -0.4641
  746TMC3     O11080   3.959   3.281  11.100  0.3506  0.1656 -0.1839
  746TMC3     H11081   4.287   3.147  10.968 -1.4021  0.2009 -0.4219
  746TMC3    H111082   3.960   3.050  11.217  0.5102  0.2400  0.8550
  746TMC3    H211083   4.294   2.779  11.161 -1.4679  0.1697  1.6467
  746TMC3    C711084   4.037   2.800  11.256  0.8385  0.2721 -0.0855
  746TMC3    C811085   4.408   2.911  10.976 -0.5885 -0.5866 -0.6147
  746TMC3    O111086   4.054   2.689  11.208  0.1891  0.0107  0.0692
  746TMC3    O211087   4.494   2.840  11.027  0.6552  0.8399 -0.2412
  747TMC3    C111088   1.335   3.361  11.205  0.3959 -0.5092  0.1093
  747TMC3    C211089   1.224   3.293  11.236 -0.1261 -0.5093  0.3291
  747TMC3    C311090   1.199   3.252  11.367 -0.4257 -0.8254 -0.7406
  747TMC3    C411091   1.419   3.392  11.307 -0.5235  0.1160 -0.1973
  747TMC3    C511092   1.389   3.360  11.435  0.1673 -0.1287 -0.4570
  747TMC3    C611093   1.272   3.302  11.470  0.8829 -1.2417 -0.3030
  747TMC3     C11094   1.376   3.399  11.069  0.4998 -0.2842  0.3230
  747TMC3     O11095   1.459   3.485  11.056 -0.2509 -0.5577 -0.5088
  747TMC3     H11096   1.142   3.274  11.167  0.1162 -2.6684  0.6365
  747TMC3    H111097   1.511   3.441  11.278  0.3617 -0.9848  0.7233
  747TMC3    H211098   1.258   3.262  11.570  0.7271 -0.9714 -0.2151
  747TMC3    C711099   1.506   3.342  11.527  0.0256  0.1732  0.3924
  747TMC3    C811100   1.089   3.159  11.379  0.4019  0.1837 -0.8242
  747TMC3    O111101   1.490   3.381  11.642  0.0082 -0.4171  0.0701
  747TMC3    O211102   1.072   3.085  11.286 -0.9850  0.2781 -0.1282
  748MPD2     C11103   3.298   4.197   1.829 -0.3140 -0.4324  0.2020
  748MPD2    C111104   3.316   4.079   1.768  0.0866  0.3665 -1.2011
  748MPD2    C211105   3.273   4.067   1.639 -0.3243  0.1258  0.5367
  748MPD2    C311106   3.215   4.173   1.573 -0.3397  0.2419 -0.3170
  748MPD2    C411107   3.187   4.291   1.637  0.0942 -0.9884  0.4230
  748MPD2    C511108   3.231   4.301   1.766  0.2548  0.3785  0.1889
  748MPD2     H11109   3.283   3.979   1.577  0.1225  0.1376  0.5916
  748MPD2    H111110   3.142   4.382   1.599 -0.0053 -0.6571  1.3341
  748MPD2    H211111   3.331   4.218   1.930 -1.2521  1.3854  0.1334
  748MPD2    H311112   3.210   4.392   1.821 -0.6302  2.0165 -2.8375
  748MPD2     N11113   3.173   4.155   1.439 -0.1402 -0.4070  0.1195
  748MPD2    H511114   3.207   4.073   1.391 -0.5577 -1.3127  1.3585
  748MPD2    N111115   3.369   3.976   1.846 -0.0923  0.1469  0.4411
  748MPD2    H711116   3.376   3.999   1.945 -2.5351 -1.8304  1.0930
  749TMC3    C111117   3.072   4.184   1.228  0.3776  0.0675  0.0045
  749TMC3    C211118   3.037   4.053   1.212 -0.2495 -0.1682 -0.0597
  749TMC3    C311119   3.003   4.022   1.086 -0.1184 -0.8761  0.0082
  749TMC3    C411120   3.067   4.279   1.132  0.1704 -0.4384 -0.8522
  749TMC3    C511121   3.028   4.245   1.005 -0.3209 -0.4058 -0.8480
  749TMC3    C611122   3.005   4.115   0.980  0.9248 -0.6468  0.1339
  749TMC3     C11123   3.100   4.238   1.361  0.4454  0.0111 -0.7421
  749TMC3     O11124   3.044   4.345   1.381  0.4451 -0.1052 -0.1023
  749TMC3     H11125   3.044   3.984   1.295  0.4535  0.1493  0.1475
  749TMC3    H111126   3.083   4.385   1.152 -1.8348 -0.0464 -1.3206
  749TMC3    H211127   2.980   4.076   0.882 -1.8077 -1.1654  1.0135
  749TMC3    C711128   3.047   4.345   0.899  0.1288 -0.2297 -0.8154
  749TMC3    C811129   2.935   3.900   1.051 -0.2098  0.0948  0.2740
  749TMC3    O111130   3.092   4.453   0.937 -0.7390 -0.0284 -0.0377
  749TMC3    O211131   2.845   3.899   0.970 -0.1486 -0.6220 -0.0612
  750MPD2     C11132   3.741   0.353  11.044  0.4594 -0.0819 -0.7156
  750MPD2    C111133   3.670   0.239  11.077 -1.1802 -0.4242  0.3784
  750MPD2    C211134   3.671   0.125  11.000 -0.0907  0.0568 -0.0464
  750MPD2    C311135   3.755   0.118  10.888 -0.3271 -0.2249  0.4036
  750MPD2    C411136   3.824   0.238  10.851  0.9826 -0.3590  0.8872
  750MPD2    C511137   3.816   0.346  10.928  0.2322 -0.8453  0.1038
  750MPD2     H11138   3.612   0.037  11.025  2.2485 -1.9677 -1.6073
  750MPD2    H111139   3.881   0.250  10.759 -1.6376 -1.1783 -0.8333
  750MPD2    H211140   3.727   0.447  11.096  0.8275  0.3075 -1.3267
  750MPD2    H311141   3.880   0.427  10.894 -1.9986  1.4605  1.3937
  750MPD2     N11142   3.769   0.008  10.805  0.1931 -0.8943 -0.4234
  750MPD2    H511143   3.796   0.023  10.708 -0.5307  0.4914 -0.4070
  750MPD2    N111144   3.587   0.248  11.193  0.2472 -0.2616  0.2964
  750MPD2    H711145   3.580   0.338  11.239  1.9782  0.0739 -0.0612
  751TMC3    C111146   3.718   4.525  10.734  0.3482  0.2172  0.3655
  751TMC3    C211147   3.641   4.415  10.756 -0.3702  0.2268 -0.5601
  751TMC3    C311148   3.647   4.309  10.665 -0.2999 -0.0897 -0.1268
  751TMC3    C411149   3.814   4.529  10.641 -0.1523  0.0435  0.6060
  751TMC3    C511150   3.821   4.427  10.553  0.0698  0.6875  0.0661
  751TMC3    C611151   3.739   4.315  10.560  0.3747 -0.5832 -0.8005
  751TMC3     C11152   3.728   4.615  10.840  0.2844 -1.0375 -0.0631
  751TMC3     O11153   3.683   4.574  10.946 -0.8225 -0.2950  0.2150
  751TMC3     H11154   3.564   4.428  10.831  0.2234  0.3067  0.0318
  751TMC3    H111155   3.882   4.613  10.643 -0.1196  0.1127 -2.2849
  751TMC3    H211156   3.737   4.246  10.476  0.2324 -0.2841 -1.0411
  751TMC3    C711157   3.927   4.431  10.451 -0.0553 -0.3556  0.7397
  751TMC3    C811158   3.537   4.214  10.653  0.8182 -0.3847  0.2678
  751TMC3    O111159   3.973   4.545  10.437  0.0819  0.0880  0.5875
  751TMC3    O211160   3.549   4.146  10.552 -0.2831 -0.1184  0.3726
  752TMC3    C111161   2.138   0.524  17.212  0.6740 -0.3688  0.1310
  752TMC3    C211162   2.123   0.413  17.284 -0.1261 -0.5916  0.8551
  752TMC3    C311163   2.140   0.427  17.416 -0.2239 -0.6646  0.3746
  752TMC3    C411164   2.167   0.650  17.261  0.5813 -0.3765 -0.0110
  752TMC3    C511165   2.178   0.662  17.401 -0.4463 -0.3305 -0.4850
  752TMC3    C611166   2.161   0.553  17.479 -0.2925  0.1926  0.4249
  752TMC3     C11167   2.122   0.511  17.067 -0.8796 -1.1095 -0.5502
  752TMC3     O11168   2.163   0.599  16.992 -0.1658 -0.0311  0.3026
  752TMC3     H11169   2.101   0.319  17.236  1.8502 -0.8248  0.4054
  752TMC3    H111170   2.163   0.734  17.193  0.2153 -0.7585 -0.4594
  752TMC3    H211171   2.171   0.556  17.587  1.7710 -3.5392  0.3682
  752TMC3    C711172   2.161   0.788  17.471  0.2319  0.6202  0.2904
  752TMC3    C811173   2.092   0.312  17.481 -0.1553  0.5014  0.3497
  752TMC3    O111174   2.126   0.786  17.589  0.0184  0.2486  0.4830
  752TMC3    O211175   2.078   0.212  17.410 -0.4719  0.3831  0.6919
  753TMC3    C111176   4.609   0.748  13.630  0.3198  0.7018  0.0079
  753TMC3    C211177   4.670   0.723  13.750  0.1899 -0.5443  0.5804
  753TMC3    C311178   4.697   0.588  13.793 -0.8427  0.1370  0.3325
  753TMC3    C411179   4.570   0.641  13.553 -0.1033 -0.6136  0.5142
  753TMC3    C511180   4.591   0.511  13.608 -0.0940 -0.4467 -0.2152
  753TMC3    C611181   4.648   0.481  13.722 -0.2670  0.1585  0.0314
  753TMC3     C11182   4.528   0.869  13.639 -0.2051 -0.7027  0.5956
  753TMC3     O11183   4.467   0.894  13.541  0.4376  0.9741  0.5600
  753TMC3     H11184   4.705   0.810  13.803  0.2203 -0.6173  0.6790
  753TMC3    H111185   4.494   0.665  13.480  0.7735 -2.2975 -0.9529
  753TMC3    H211186   4.657   0.378  13.756  1.3967  0.4852  0.5619
  753TMC3    C711187   4.566   0.407  13.507  0.0711 -0.4912 -0.0489
  753TMC3    C811188   0.036   0.571  13.916 -0.2164 -0.0909 -0.2996
  753TMC3    O111189   4.654   0.324  13.504 -0.0556 -0.1872 -0.6320
  753TMC3    O211190   0.091   0.458  13.934  1.0886  0.2379 -0.5397
  754MPD2     C11191   3.623   4.558  13.562 -0.2748  0.6538  0.1635
  754MPD2    C111192   3.559   4.449  13.521 -0.4586 -0.4207  0.2988
  754MPD2    C211193   3.471   4.475  13.415 -0.1061  0.5546 -0.4558
  754MPD2    C311194   3.444   4.597  13.356  0.1655 -0.1614  0.5260
  754MPD2    C411195   3.517   4.700  13.406  0.1642  0.3878 -0.4154
  754MPD2    C511196   3.606   4.684  13.511  0.1572  0.0347  0.1600
  754MPD2     H11197   3.410   4.392  13.382 -0.4151 -0.4446  2.5877
  754MPD2    H111198   3.507   0.059  13.358  1.0414  1.6561  1.9898
  754MPD2    H211199   3.689   4.550  13.648  0.2240  2.4865 -0.0579
  754MPD2    H311200   3.657   0.032  13.552  2.4028 -0.6718 -1.1132
  754MPD2     N11201   3.368   4.611  13.232 -0.4376 -0.3056  0.2971
  754MPD2    H511202   3.350   4.706  13.203 -0.2037 -0.1380  0.7003
  754MPD2    N111203   3.569   4.321  13.590 -0.4137  0.0068 -0.2101
  754MPD2    H711204   3.618   4.312  13.679  0.7933  1.0715 -0.7709
  755MPD2     C11205   2.577   0.104  13.422  0.1409  0.2819  0.4816
  755MPD2    C111206   2.599   4.708  13.402  0.2671  0.5176  0.1414
  755MPD2    C211207   2.702   4.668  13.319  0.6959  0.0182  0.3364
  755MPD2    C311208   2.773   0.023  13.244  0.5356 -0.4842 -0.5706
  755MPD2    C411209   2.748   0.157  13.259  0.2022 -0.2103 -0.1671
  755MPD2    C511210   2.650   0.197  13.347 -0.3346  0.2082 -0.1076
  755MPD2     H11211   2.714   4.561  13.311 -0.8583 -0.1845  0.6430
  755MPD2    H111212   2.814   0.230  13.214  0.8409 -1.8400 -1.9085
  755MPD2    H211213   2.499   0.145  13.485  0.5744  3.7183 -1.2057
  755MPD2    H311214   2.635   0.303  13.363  3.6794  0.7037  0.4024
  755MPD2     N11215   2.876   4.731  13.158  0.5809 -0.7988 -0.4085
  755MPD2    H511216   2.922   0.078  13.127  1.2572 -0.7470  0.7180
  755MPD2    N111217   2.520   4.605  13.462 -0.0959 -0.7627  0.6271
  755MPD2    H711218   2.545   4.507  13.450 -0.0590 -0.2836 -3.2626
  756MPD2     C11219   3.529   0.841   9.712 -0.4578  0.8880 -0.2693
  756MPD2    C111220   3.478   0.760   9.809 -0.3949  0.3649  0.9814
  756MPD2    C211221   3.404   0.653   9.767  0.2376 -0.2927  0.6032
  756MPD2    C311222   3.386   0.636   9.629 -0.4075  0.5515  0.4540
  756MPD2    C411223   3.432   0.724   9.538  0.0125 -0.0448  0.3180
  756MPD2    C511224   3.503   0.825   9.584  0.0374  0.2924  0.0935
  756MPD2     H11225   3.364   0.583   9.839  1.9919  0.7335  2.5847
  756MPD2    H111226   3.424   0.719   9.430 -1.3547  0.0037  0.4162
  756MPD2    H211227   3.598   0.921   9.738 -0.4280  0.8424 -0.2081
  756MPD2    H311228   3.544   0.894   9.512 -0.0332 -1.1840 -1.3600
  756MPD2     N11229   3.325   0.526   9.574  0.5561 -0.4439  0.2065
  756MPD2    H511230   3.293   0.461   9.645 -1.3787  1.4800  1.1176
  756MPD2    N111231   3.485   0.784   9.950 -0.3960  0.0705 -0.3648
  756MPD2    H711232   3.453   0.712  10.015  0.3739 -1.8910 -2.1688
  757MPD2     C11233   3.069   4.384   9.835  0.2174  0.1812  0.4713
  757MPD2    C111234   2.967   4.431   9.758 -0.4396 -0.0090  0.2620
  757MPD2    C211235   3.002   4.527   9.661 -0.4187 -1.0511 -0.5640
  757MPD2    C311236   3.134   4.576   9.643  0.1212 -0.4203 -0.4654
  757MPD2    C411237   3.235   4.515   9.720  0.3303 -0.2677  0.1355
  757MPD2    C511238   3.196   4.432   9.819 -0.0385  0.7150 -0.6871
  757MPD2     H11239   2.924   4.565   9.595  1.5575  0.0814 -2.2353
  757MPD2    H111240   3.339   4.545   9.723  0.8784 -2.2598  1.0000
  757MPD2    H211241   3.048   4.325   9.924 -1.5797  2.2454  1.4068
  757MPD2    H311242   3.271   4.396   9.887  0.4408 -1.0059 -2.1333
  757MPD2     N11243   3.165   4.679   9.548  0.1304 -0.1765 -0.1229
  757MPD2    H511244   3.096   4.698   9.476 -2.0440 -1.0348  1.7328
  757MPD2    N111245   2.824   4.403   9.789  0.0575  0.3949  0.0135
  757MPD2    H711246   2.808   4.350   9.874 -0.4392  0.0875 -0.2683
  758MPD2     C11247   2.720   3.787  16.013  0.4739 -0.5438 -0.2616
  758MPD2    C111248   2.776   3.737  16.128 -0.2093 -0.4537 -0.4520
  758MPD2    C211249   2.739   3.788  16.250 -0.8622 -0.3973  0.5648
  758MPD2    C311250   2.660   3.899  16.259  0.0003 -0.0961 -0.1016
  758MPD2    C411251   2.597   3.938  16.143  0.2834 -0.1301  0.0016
  758MPD2    C511252   2.625   3.880  16.023  0.1523  0.2829  0.0310
  758MPD2     H11253   2.784   3.756  16.344  0.1148  1.7955  0.8619
  758MPD2    H111254   2.525   4.018  16.147 -0.3372 -0.7867  1.9060
  758MPD2    H211255   2.746   3.747  15.916 -2.5737 -3.2013  0.0337
  758MPD2    H311256   2.567   3.903  15.934 -0.2001 -0.3584  0.0913
  758MPD2     N11257   2.645   3.969  16.381 -0.2668 -0.5322  0.1965
  758MPD2    H511258   2.577   4.044  16.378  0.6427  0.3774  2.2293
  758MPD2    N111259   2.873   3.639  16.110  0.1258  0.4322 -0.0607
  758MPD2    H711260   2.901   3.609  16.017 -0.3261 -1.2884  0.3459
  759MPD2     C11261   2.420   3.067  10.814  0.2411  0.5127 -0.1652
  759MPD2    C111262   2.512   2.962  10.817  0.1589 -0.8191  0.0157
  759MPD2    C211263   2.627   2.969  10.741  0.3145  0.0225 -0.4811
  759MPD2    C311264   2.651   3.079  10.666 -0.0638 -0.2085 -0.5608
  759MPD2    C411265   2.570   3.191  10.681  0.8158 -0.0819 -0.8044
  759MPD2    C511266   2.458   3.181  10.755  0.0652  0.2560 -0.0103
  759MPD2     H11267   2.689   2.881  10.724  0.6296  0.3064 -0.7980
  759MPD2    H111268   2.575   3.281  10.621  2.0283  0.1293 -0.3812
  759MPD2    H211269   2.322   3.074  10.859  0.4012  1.1331  0.0783
  759MPD2    H311270   2.381   3.258  10.752 -0.3345 -0.1925 -1.0622
  759MPD2     N11271   2.776   3.085  10.589 -0.2164 -0.1917  0.4560
  759MPD2    H511272   2.843   3.009  10.592 -0.6253 -0.5259  1.0887
  759MPD2    N111273   2.489   2.841  10.881 -0.0473 -0.0016 -0.2881
  759MPD2    H711274   2.565   2.774  10.883  0.4128  0.5441  0.5172
  760MPD2     C11275   1.672   0.202  12.253  0.4292  0.6804 -0.1299
  760MPD2    C111276   1.747   0.178  12.140 -0.4746  0.5059  0.3472
  760MPD2    C211277   1.801   0.050  12.134 -0.2825 -0.1468 -0.0045
  760MPD2    C311278   1.769   4.685  12.228 -0.3166  0.3183  0.3295
  760MPD2    C411279   1.677   4.715  12.330  0.0032  0.4288  0.3269
  760MPD2    C511280   1.636   0.107  12.349  0.1724  0.3462  0.1949
  760MPD2     H11281   1.884   0.035  12.066 -0.1959 -2.4296  0.5863
  760MPD2    H111282   1.664   4.642  12.409 -0.8956 -1.1607 -1.2792
  760MPD2    H211283   1.634   0.303  12.265 -0.1831  0.5538 -1.0360
  760MPD2    H311284   1.572   0.139  12.430 -0.1583  0.3559 -0.0673
  760MPD2     N11285   1.833   4.556  12.217  0.2437  0.1813 -1.0074
  760MPD2    H511286   1.821   4.490  12.293  0.0833  0.4192 -0.8250
  760MPD2    N111287   1.795   0.277  12.046 -0.2421  0.3755  0.1601
  760MPD2    H711288   1.860   0.236  11.980 -1.7244  0.6383 -1.4598
  761MPD2     C11289   3.193   3.911  10.878  0.5719 -0.4628 -0.5314
  761MPD2    C111290   3.303   3.882  10.804  0.4200 -0.3872  0.3840
  761MPD2    C211291   3.373   3.988  10.747  0.7698 -0.3381 -0.1741
  761MPD2    C311292   3.342   4.120  10.778  0.1481  0.2098  0.1557
  761MPD2    C411293   3.240   4.148  10.863 -0.6180 -0.2384  0.2090
  761MPD2    C511294   3.154   4.043  10.902  0.2220  0.6804  0.1492
  761MPD2     H11295   3.464   3.970  10.691 -1.5772 -1.5763 -3.6183
  761MPD2    H111296   3.221   4.250  10.895  2.1058  0.3121  0.0269
  761MPD2    H211297   3.138   3.837  10.935  0.5679 -1.4925 -1.8855
  761MPD2    H311298   3.069   4.064  10.966  1.1497 -0.4847  1.7560
  761MPD2     N11299   3.435   4.222  10.748  0.4618  0.1207  0.7697
  761MPD2    H511300   3.439   4.307  10.803 -2.6971  0.3451  0.7054
  761MPD2    N111301   3.335   3.747  10.791  0.1043 -0.5078  1.4543
  761MPD2    H711302   3.280   3.678  10.841  0.7418  0.4379  3.4402
  762MPD2     C11303   3.597   2.986  10.390  0.1649 -0.4655 -0.0702
  762MPD2    C111304   3.651   3.110  10.403  0.5999 -0.0505 -0.5508
  762MPD2    C211305   3.758   3.146  10.320  0.0350  0.7719  0.0022
  762MPD2    C311306   3.826   3.058  10.240 -0.3695 -0.7547  0.0256
  762MPD2    C411307   3.779   2.930  10.237  0.1307 -0.1781  0.2429
  762MPD2    C511308   3.659   2.890  10.306 -0.3269  0.5700 -0.1766
  762MPD2     H11309   3.801   3.245  10.317  1.4601  0.1874  0.8698
  762MPD2    H111310   3.835   2.858  10.178  0.8712  1.3155 -0.8735
  762MPD2    H211311   3.510   2.958  10.447 -0.3559  3.2430  0.9624
  762MPD2    H311312   3.619   2.790  10.304  0.1859  0.3137  4.0472
  762MPD2     N11313   3.944   3.108  10.180  0.1034  0.3154 -0.8062
  762MPD2    H511314   3.965   3.207  10.191 -1.0128  0.6262 -1.4897
  762MPD2    N111315   3.593   3.195  10.498  0.1299 -0.2362  0.2717
  762MPD2    H711316   3.519   3.148  10.551  0.4295 -0.6690  0.3088
  763MPD2     C11317   0.185   4.089  16.328  0.5865  0.1706 -1.3374
  763MPD2    C111318   0.058   4.145  16.310  0.9041  0.3956 -0.1465
  763MPD2    C211319   0.033   4.261  16.376 -0.1272 -0.2343  0.4113
  763MPD2    C311320   0.131   4.313  16.464  0.2901 -0.1992 -0.6121
  763MPD2    C411321   0.256   4.259  16.472  0.5437 -0.0867 -0.5492
  763MPD2    C511322   0.282   4.135  16.410  0.0493 -0.1814 -0.5720
  763MPD2     H11323   4.674   4.305  16.357 -0.5980 -0.8177  1.4286
  763MPD2    H111324   0.340   4.295  16.529  0.1694 -2.4998  1.5210
  763MPD2    H211325   0.210   3.992  16.286  1.4276  0.5171 -1.6540
  763MPD2    H311326   0.380   4.089  16.400  0.5842  0.9302 -0.4742
  763MPD2     N11327   0.111   4.427  16.545  0.8371 -0.4348 -0.0471
  763MPD2    H511328   0.193   4.451  16.599  1.3628 -0.8148 -0.6837
  763MPD2    N111329   4.708   4.096  16.218  0.2099  0.5515  0.2199
  763MPD2    H711330   4.639   4.160  16.180  0.8316  3.1200  3.4296
  764MPD2     C11331   2.973   1.001  17.362 -0.6964  0.1438  0.3696
  764MPD2    C111332   2.834   1.026  17.350 -0.0971 -0.1475  0.0823
  764MPD2    C211333   2.761   1.074  17.457 -0.3859  0.6789  0.3857
  764MPD2    C311334   2.818   1.082  17.583 -0.0034 -0.2288  0.3883
  764MPD2    C411335   2.961   1.060  17.590 -1.2516 -0.3061  0.4723
  764MPD2    C511336   3.030   1.023  17.485 -0.9341  0.1020 -0.1726
  764MPD2     H11337   2.657   1.090  17.432 -0.6092 -2.5548 -0.7651
  764MPD2    H111338   3.010   1.094  17.680 -1.5253  1.1159  0.0918
  764MPD2    H211339   3.031   0.967  17.278 -1.6743  1.0006 -0.6469
  764MPD2    H311340   3.138   1.010  17.494 -0.9878 -1.1848 -1.4018
  764MPD2     N11341   2.737   1.135  17.691 -0.0003  0.4819  0.2793
  764MPD2    H511342   2.647   1.176  17.665  0.2797  0.4319 -0.7686
  764MPD2    N111343   2.767   1.024  17.226  0.2679 -0.5529  0.2781
  764MPD2    H711344   2.682   1.078  17.214  0.7860  0.1340 -0.3048
  765MPD2     C11345   2.468   2.961  15.772  0.0753 -1.0158  1.0812
  765MPD2    C111346   2.556   3.067  15.747 -0.5488  0.0896 -0.2348
  765MPD2    C211347   2.683   3.037  15.696  0.1327  0.3191  0.2912
  765MPD2    C311348   2.728   2.907  15.693 -0.2700  0.0376 -0.5853
  765MPD2    C411349   2.649   2.805  15.745  0.0044 -0.0410  0.1436
  765MPD2    C511350   2.522   2.835  15.780  0.3076 -0.1398  0.0750
  765MPD2     H11351   2.754   3.118  15.678 -2.4314  1.5988 -4.0081
  765MPD2    H111352   2.686   2.703  15.744  0.0124 -0.0415  0.3588
  765MPD2    H211353   2.366   2.977  15.805 -0.2671  3.1671 -2.0249
  765MPD2    H311354   2.459   2.756  15.820  1.5164 -0.0651  2.1267
  765MPD2     N11355   2.862   2.887  15.663 -0.1916  0.0930  0.4304
  765MPD2    H511356   2.910   2.973  15.637 -1.2152  1.0730  1.7095
  765MPD2    N111357   2.502   3.196  15.769  0.0725 -0.1342 -0.4061
  765MPD2    H711358   2.413   3.202  15.819  0.0888 -1.3121 -0.2311
  766MPD2     C11359   2.043   3.407  15.254  0.1910  0.4173  0.0111
  766MPD2    C111360   2.165   3.373  15.297  0.0411  0.2009  0.0583
  766MPD2    C211361   2.264   3.336  15.208 -0.5294 -0.3359  0.4577
  766MPD2    C311362   2.238   3.348  15.077 -0.1136 -0.1368  0.6560
  766MPD2    C411363   2.108   3.369  15.033  0.5411 -0.3491 -0.3141
  766MPD2    C511364   2.013   3.407  15.124 -0.1940 -0.6582 -0.1686
  766MPD2     H11365   2.357   3.293  15.242 -0.1533 -0.3917 -0.6376
  766MPD2    H111366   2.084   3.360  14.928  0.9713 -1.0807 -0.3461
  766MPD2    H211367   1.961   3.423  15.324 -1.7690  0.5281 -2.3171
  766MPD2    H311368   1.912   3.435  15.098 -0.6984 -0.9234  1.5407
  766MPD2     N11369   2.343   3.334  14.982  0.0608 -0.1729 -0.3488
  766MPD2    H511370   2.323   3.326  14.883 -1.3620  1.9456 -0.2415
  766MPD2    N111371   2.208   3.379  15.427 -0.7585 -0.3058 -0.6537
  766MPD2    H711372   2.297   3.340  15.456 -1.1267 -0.7927 -0.1796
  767MPD2     C11373   1.972   3.700  14.975  0.0596 -0.4301  0.3087
  767MPD2    C111374   2.107   3.709  14.956 -0.0025 -0.2529  0.0076
  767MPD2    C211375   2.158   3.682  14.831  0.1671  0.1977  0.2917
  767MPD2    C311376   2.079   3.642  14.731 -0.0039  0.0666  0.1795
  767MPD2    C411377   1.943   3.644  14.752 -0.1033  0.8928  0.7742
  767MPD2    C511378   1.890   3.660  14.872  0.4540  0.5730  0.3473
  767MPD2     H11379   2.265   3.686  14.817  0.5285 -1.9760  2.4901
  767MPD2    H111380   1.870   3.629  14.674  1.3363  2.1796 -0.8503
  767MPD2    H211381   1.931   3.715  15.074 -0.7235  0.4670 -0.1533
  767MPD2    H311382   1.785   3.647  14.894  0.6024 -0.5177  0.4238
  767MPD2     N11383   2.152   3.600  14.614 -0.4662  0.0929  0.6224
  767MPD2    H511384   2.253   3.608  14.606 -0.5677  2.2484  1.3079
  767MPD2    N111385   2.188   3.740  15.069 -0.1455  0.3471 -0.0214
  767MPD2    H711386   2.146   3.756  15.160  1.6063 -0.2558  0.9005
  768MPD2     C11387   4.045   2.622  10.679 -0.4980 -0.4777  0.0165
  768MPD2    C111388   3.983   2.605  10.794  0.0837 -0.0939  0.1392
  768MPD2    C211389   4.055   2.558  10.900  1.1590 -0.4177 -0.3841
  768MPD2    C311390   4.194   2.535  10.900 -0.0336 -0.4874  0.0346
  768MPD2    C411391   4.261   2.571  10.781 -0.0112 -0.5729  0.1013
  768MPD2    C511392   4.186   2.613  10.669 -0.0193 -0.1337 -0.5480
  768MPD2     H11393   3.992   2.547  10.987  1.9710 -0.7164  0.1620
  768MPD2    H111394   4.368   2.559  10.774  0.0826  0.1959  0.1741
  768MPD2    H211395   3.997   2.656  10.588 -0.1342 -0.3292 -0.1220
  768MPD2    H311396   4.231   2.634  10.572 -0.3262 -3.6328 -1.4534
  768MPD2     N11397   4.272   2.494  11.011 -0.4622  0.1619 -0.0105
  768MPD2    H511398   4.372   2.506  11.009 -0.2909 -1.6215 -1.9301
  768MPD2    N111399   3.843   2.619  10.809 -1.0514  0.0376 -0.3610
  768MPD2    H711400   3.805   2.563  10.885  2.5771  0.0430  1.4654
  769MPD2     C11401   4.256   0.297  14.988 -0.1799  0.5613  0.6216
  769MPD2    C111402   4.127   0.299  15.044 -0.2487  0.3141 -0.0787
  769MPD2    C211403   4.112   0.348  15.170  0.6761 -0.1384 -0.7471
  769MPD2    C311404   4.223   0.390  15.245  0.5892  0.2091  0.4653
  769MPD2    C411405   4.344   0.391  15.189  0.1775 -0.2478  0.8263
  769MPD2    C511406   4.359   0.336  15.067 -0.9557  0.1545  0.4959
  769MPD2     H11407   4.014   0.379  15.203  2.6509  3.3159  1.8655
  769MPD2    H111408   4.427   0.429  15.247 -0.5311  2.0184  0.3550
  769MPD2    H211409   4.270   0.256  14.889  2.6439  1.1463  0.7702
  769MPD2    H311410   4.461   0.312  15.040 -0.2506  2.1025  1.4317
  769MPD2     N11411   4.190   0.422  15.378  0.3154 -0.2973 -0.2174
  769MPD2    H511412   4.091   0.416  15.401  0.8193 -0.4931  1.9515
  769MPD2    N111413   4.011   0.279  14.960 -0.8177  0.6769 -0.1193
  769MPD2    H711414   4.023   0.291  14.860 -2.4674  0.8981 -0.2995
  770MPD2     C11415   3.192   4.589  15.178 -0.4745 -0.3884 -0.1258
  770MPD2    C111416   3.322   4.596  15.227 -0.2292 -0.1185  0.1206
  770MPD2    C211417   3.407   4.702  15.185  0.4650 -0.2045  0.0689
  770MPD2    C311418   3.365   0.052  15.091  0.1085  0.2315 -0.2980
  770MPD2    C411419   3.234   0.048  15.046  0.0823  0.4797 -0.1789
  770MPD2    C511420   3.148   4.692  15.089  0.3251 -0.1839 -0.0444
  770MPD2     H11421   3.510   4.702  15.221  0.6581 -0.2447 -0.4843
  770MPD2    H111422   3.196   0.126  14.981  0.0986  0.8837  0.2998
  770MPD2    H211423   3.122   4.511  15.206 -0.3190 -0.1000  1.0771
  770MPD2    H311424   3.045   4.694  15.055  0.5352 -0.8255 -0.7027
  770MPD2     N11425   3.452   0.155  15.034  0.5427 -0.6817  0.2941
  770MPD2    H511426   3.542   0.167  15.079 -0.9716 -2.3582  3.7988
  770MPD2    N111427   3.358   4.504  15.325 -0.6714 -0.2215  0.4148
  770MPD2    H711428   3.289   4.431  15.339  1.2326 -2.4192 -1.7639
  771MPD2     C11429   0.427   2.892  13.426  0.4470  1.3705 -0.4518
  771MPD2    C111430   0.382   3.024  13.414  0.6827  0.5548  0.2601
  771MPD2    C211431   0.338   3.064  13.289 -0.4961 -0.0617  0.7412
  771MPD2    C311432   0.322   2.970  13.183  0.1631 -0.4357 -0.4171
  771MPD2    C411433   0.362   2.838  13.200 -0.3318 -0.1915  0.1721
  771MPD2    C511434   0.417   2.800  13.321  0.9556 -0.2015 -0.1657
  771MPD2     H11435   0.296   3.160  13.263 -1.4317 -0.7298 -0.2251
  771MPD2    H111436   0.338   2.762  13.125  0.6011 -2.7266  2.4337
  771MPD2    H211437   0.474   2.859  13.518  0.8200  0.5635 -0.9290
  771MPD2    H311438   0.456   2.700  13.326  1.0645 -0.1410  0.1967
  771MPD2     N11439   0.273   3.021  13.062 -0.4360 -0.6188  0.5015
  771MPD2    H511440   0.240   3.116  13.072 -1.3372 -0.9022  0.2045
  771MPD2    N111441   0.374   3.119  13.524 -0.5152 -0.5750 -0.4850
  771MPD2    H711442   0.345   3.214  13.504 -0.7316 -0.5293  0.0674
  772MPD2     C11443   0.118   3.426  14.184  0.8778  0.2127  0.6456
  772MPD2    C111444   0.133   3.320  14.099 -0.1416  0.4830 -0.5872
  772MPD2    C211445   0.020   3.262  14.055  0.4262  0.6251 -0.3549
  772MPD2    C311446   4.635   3.313  14.090  0.2397  0.3920 -0.1485
  772MPD2    C411447   4.621   3.409  14.184  0.4301  0.4852 -0.1104
  772MPD2    C511448   4.735   3.464  14.235 -0.4836  0.2723  0.1170
  772MPD2     H11449   0.021   3.179  13.985  2.6126 -0.5338  1.0176
  772MPD2    H111450   4.527   3.441  14.227  0.6408 -0.6174  1.1535
  772MPD2    H211451   0.195   3.480  14.238 -1.8836  2.2179  2.6144
  772MPD2    H311452   4.721   3.541  14.309 -1.5962 -1.4552  1.7042
  772MPD2     N11453   4.520   3.250  14.040 -0.0420  0.5756 -0.3983
  772MPD2    H511454   4.433   3.264  14.090  0.4559  1.3531  0.2391
  772MPD2    N111455   0.253   3.260  14.048  1.1407 -0.0585 -0.3568
  772MPD2    H711456   0.239   3.175  13.994  0.2857  0.7619 -1.4236
  773MPD2     C11457   3.544   4.613   0.371 -0.4423  0.2914 -0.0840
  773MPD2    C111458   3.482   4.498   0.325 -0.0464  0.4057 -0.1202
  773MPD2    C211459   3.520   4.376   0.375  0.0937  0.2083  0.7201
  773MPD2    C311460   3.623   4.362   0.469 -0.0363  0.3824 -0.2904
  773MPD2    C411461   3.683   4.481   0.520  0.4287  0.3360  0.2513
  773MPD2    C511462   3.638   4.603   0.466 -0.0575 -0.2397 -0.4238
  773MPD2     H11463   3.474   4.285   0.340  0.5125 -0.7812  2.7266
  773MPD2    H111464   3.750   4.474   0.605 -0.5176  1.5974  1.0947
  773MPD2    H211465   3.509   4.713   0.351 -2.2095 -0.3481 -0.2535
  773MPD2    H311466   3.677   4.693   0.510 -1.4722 -0.0915  0.5292
  773MPD2     N11467   3.654   4.231   0.497 -0.1695 -0.3751  0.5166
  773MPD2    H511468   3.587   4.161   0.466 -1.1944  1.3786 -1.2143
  773MPD2    N111469   3.370   4.501   0.236  0.3925 -0.3288 -0.4893
  773MPD2    H711470   3.320   4.413   0.226 -2.5126  1.3150 -0.3988
  774MPD2     C11471   3.004   3.402  13.584  0.3281  0.0952  0.4893
  774MPD2    C111472   3.081   3.379  13.697 -0.0685 -0.3856  0.4540
  774MPD2    C211473   3.163   3.485  13.746  0.4865 -0.1254 -0.3775
  774MPD2    C311474   3.164   3.611  13.677  0.5720  0.3708 -0.3326
  774MPD2    C411475   3.061   3.631  13.581 -0.0365 -0.2357 -0.3938
  774MPD2    C511476   2.994   3.523  13.529 -0.8461 -0.3639 -0.0041
  774MPD2     H11477   3.230   3.466  13.830  0.7776  3.0971  0.1016
  774MPD2    H111478   3.040   3.732  13.547 -0.4772 -1.2960 -3.1899
  774MPD2    H211479   2.934   3.325  13.554 -0.2734  1.3163 -1.2235
  774MPD2    H311480   2.919   3.540  13.452 -2.6937 -0.9343  1.6932
  774MPD2     N11481   3.256   3.712  13.719 -0.1196 -0.0094  0.0031
  774MPD2    H511482   3.317   3.697  13.799 -2.9709 -0.2295  2.1601
  774MPD2    N111483   3.087   3.239  13.742 -0.7471 -0.2340  0.2343
  774MPD2    H711484   3.024   3.174  13.696  0.5207  0.0655 -1.9612
  775MPD2     C11485   4.365   0.212  16.017  1.0996  0.5986 -1.0839
  775MPD2    C111486   4.324   0.337  16.046  0.2674  0.0590 -0.4360
  775MPD2    C211487   4.418   0.439  16.027  0.9808  0.8771  1.2228
  775MPD2    C311488   4.546   0.422  15.976 -0.7855  0.4889  0.1864
  775MPD2    C411489   4.571   0.301  15.933 -0.4426  0.8136 -0.7369
  775MPD2    C511490   4.490   0.192  15.959 -0.4286  0.4818 -0.0462
  775MPD2     H11491   4.391   0.541  16.052 -0.3010  0.7173  0.4898
  775MPD2    H111492   4.663   0.278  15.880  0.4312 -0.2541  1.2368
  775MPD2    H211493   4.301   0.128  16.040  2.2840  0.1008  0.3963
  775MPD2    H311494   4.522   0.094  15.928  0.1688  0.3652  0.9427
  775MPD2     N11495   4.644   0.527  15.953 -0.7398  0.7162 -0.1964
  775MPD2    H511496   4.717   0.500  15.888  0.3821  1.0026  0.9363
  775MPD2    N111497   4.204   0.349  16.116  0.2262  0.2913  0.2850
  775MPD2    H711498   4.156   0.260  16.122  0.4145  0.1499 -0.2797
  776MPD2     C11499   3.748   0.617  11.655  0.3521 -0.1110  0.5767
  776MPD2    C111500   3.608   0.621  11.636  0.4610  0.0362  1.2519
  776MPD2    C211501   3.544   0.745  11.652 -0.0517 -0.4736 -0.4256
  776MPD2    C311502   3.617   0.853  11.707 -0.0211 -0.3953 -0.2326
  776MPD2    C411503   3.750   0.839  11.739  0.0028  0.4418 -0.0079
  776MPD2    C511504   3.818   0.722  11.705  0.2099 -1.0039 -0.4560
  776MPD2     H11505   3.436   0.750  11.638 -0.4037  1.8922  3.1986
  776MPD2    H111506   3.806   0.927  11.768 -0.0330 -0.1662  1.9387
  776MPD2    H211507   3.798   0.522  11.638 -0.5584 -0.5041  0.0585
  776MPD2    H311508   3.922   0.702  11.728  0.5344  1.4171  0.2190
  776MPD2     N11509   3.570   0.983  11.713  0.7121  0.1030  0.1476
  776MPD2    H511510   3.636   1.055  11.738  0.6567  0.6943 -1.4470
  776MPD2    N111511   3.544   0.500  11.602 -0.1401 -0.2283  0.0868
  776MPD2    H711512   3.604   0.419  11.589 -0.4267 -0.4659  0.2333
  777MPD2     C11513   3.092   2.997   0.560 -0.0627 -0.2769  0.7691
  777MPD2    C111514   3.206   2.966   0.622  0.1762 -0.5776 -0.6432
  777MPD2    C211515   3.266   2.846   0.589  0.0639 -0.4150  0.2555
  777MPD2    C311516   3.208   2.766   0.489 -0.5447  0.2508 -0.0275
  777MPD2    C411517   3.090   2.806   0.427  0.1146 -0.0240 -0.1308
  777MPD2    C511518   3.026   2.916   0.471  0.1520  0.6585  0.0209
  777MPD2     H11519   3.357   2.816   0.639  0.4727 -3.2832 -2.2461
  777MPD2    H111520   3.029   2.741   0.365  0.4914 -0.5831  0.0820
  777MPD2    H211521   3.049   3.093   0.586  2.2887  0.5202  1.7729
  777MPD2    H311522   2.929   2.939   0.428  1.8426  2.3981 -2.8698
  777MPD2     N11523   3.275   2.651   0.458 -0.6639  0.2661 -0.2455
  777MPD2    H511524   3.352   2.626   0.519 -0.0465  0.4370 -0.9533
  777MPD2    N111525   3.248   3.042   0.732  0.0012 -0.3934 -0.0542
  777MPD2    H711526   3.185   3.113   0.767 -0.2969  0.1296 -1.6342
  778MPD2     C11527   0.190   3.250  15.172 -0.1028  0.2776 -0.8918
  778MPD2    C111528   0.245   3.166  15.071 -0.0618  0.0573 -0.9376
  778MPD2    C211529   0.320   3.216  14.967  0.5707 -0.1317  0.5593
  778MPD2    C311530   0.341   3.351  14.970 -0.1759 -0.2420 -0.7639
  778MPD2    C411531   0.300   3.434  15.073  0.0929  0.1745  0.2353
  778MPD2    C511532   0.207   3.389  15.167  0.2582 -0.2704 -0.3662
  778MPD2     H11533   0.366   3.158  14.889  2.1983  0.3367  1.1579
  778MPD2    H111534   0.330   3.538  15.081  0.7041  0.2679 -2.9169
  778MPD2    H211535   0.112   3.226  15.244  0.2268  0.1394 -0.5807
  778MPD2    H311536   0.168   3.456  15.243  3.1139  0.4650  0.4597
  778MPD2     N11537   0.402   3.401  14.851  0.1928 -0.4485  0.4912
  778MPD2    H511538   0.424   3.324  14.788  1.2828  0.2341  0.0367
  778MPD2    N111539   0.217   3.030  15.058 -0.1349  0.2653  0.2616
  778MPD2    H711540   0.265   2.986  14.980 -1.6914  0.3139 -0.7165
  779MPD2     C11541   4.653   1.830  14.382 -0.0444 -0.3689 -0.2049
  779MPD2    C111542   0.027   1.802  14.453  0.6766 -0.4246  0.0960
  779MPD2    C211543   0.105   1.910  14.470 -0.0035  0.4959  0.2122
  779MPD2    C311544   0.084   2.035  14.419 -0.2757 -0.2388  0.2491
  779MPD2    C411545   4.705   2.059  14.357  0.3152  0.7559  0.6305
  779MPD2    C511546   4.619   1.957  14.337 -1.0465 -0.0504 -0.7824
  779MPD2     H11547   0.204   1.888  14.507  0.1526  0.4407 -0.2420
  779MPD2    H111548   4.674   2.159  14.328 -1.1862 -0.2404 -1.2049
  779MPD2    H211549   4.579   1.753  14.366 -1.1727  0.9253 -1.1457
  779MPD2    H311550   4.518   1.970  14.299 -0.3984  1.2300 -2.0699
  779MPD2     N11551   0.177   2.144  14.436 -0.2092 -0.0184 -0.4860
  779MPD2    H511552   0.252   2.127  14.502  0.1168 -0.1978 -0.9108
  779MPD2    N111553   0.071   1.673  14.489  0.3424  0.0205  0.0187
  779MPD2    H711554   0.162   1.669  14.536 -0.3159 -1.9534  1.1023
  780MPD2     C11555   3.714   1.995   1.065 -0.2620 -0.1485 -0.5322
  780MPD2    C111556   3.634   1.920   0.978  0.2307 -0.8204  0.4227
  780MPD2    C211557   3.660   1.921   0.847  0.5696 -0.2665 -0.4134
  780MPD2    C311558   3.745   2.007   0.788 -0.2248  0.1293 -0.1892
  780MPD2    C411559   3.824   2.080   0.869 -0.3291  0.0243  0.4889
  780MPD2    C511560   3.804   2.075   1.003  0.1132 -0.0585 -0.3125
  780MPD2     H11561   3.600   1.853   0.786 -1.3611  1.0424  0.0219
  780MPD2    H111562   3.899   2.154   0.844 -2.4115  1.7819 -0.5232
  780MPD2    H211563   3.701   2.013   1.171 -0.3798  1.5272 -0.8302
  780MPD2    H311564   3.878   2.132   1.060 -0.2726  0.0042  0.1260
  780MPD2     N11565   3.756   2.019   0.653 -0.2072  0.2694  0.4460
  780MPD2    H511566   3.689   1.961   0.603 -0.0216  1.2122 -0.8823
  780MPD2    N111567   3.521   1.858   1.038 -0.4332  0.3475 -0.3066
  780MPD2    H711568   3.509   1.878   1.137  1.5276 -0.8332  0.1816
  781MPD2     C11569   1.336   4.005  11.920  0.4446 -0.7577  0.1886
  781MPD2    C111570   1.381   3.970  12.044 -0.4367 -0.6107  0.3020
  781MPD2    C211571   1.515   3.934  12.058 -0.5812 -0.1073  0.2124
  781MPD2    C311572   1.609   3.935  11.959  0.3364  0.4154  1.0033
  781MPD2    C411573   1.561   3.970  11.836 -0.2549  0.0837 -0.0660
  781MPD2    C511574   1.428   4.005  11.816 -0.5696  0.0668  0.2880
  781MPD2     H11575   1.545   3.909  12.159  1.0703  3.9122  0.7149
  781MPD2    H111576   1.632   3.994  11.757  0.7423 -0.5754  0.6260
  781MPD2    H211577   1.233   4.034  11.901 -1.0153 -4.3524  2.6413
  781MPD2    H311578   1.393   4.040  11.720  1.5967  3.3933  0.7082
  781MPD2     N11579   1.736   3.878  11.973  0.0029 -0.2443 -0.0901
  781MPD2    H511580   1.787   3.873  11.885 -0.8807  0.0617 -0.6156
  781MPD2    N111581   1.295   3.965  12.153 -0.2361  0.7745 -0.2815
  781MPD2    H711582   1.341   3.942  12.241 -1.1336  2.1735  0.5466
  782MPD2     C11583   4.240   0.274  10.016  0.0148  0.0667  0.2028
  782MPD2    C111584   4.348   0.283  10.105  0.8590 -0.3969 -0.3114
  782MPD2    C211585   4.360   0.389  10.190 -0.4489  0.1379  0.1149
  782MPD2    C311586   4.250   0.477  10.206  0.1680 -0.0326 -0.0135
  782MPD2    C411587   4.149   0.478  10.112  0.9786  0.6027  0.0625
  782MPD2    C511588   4.146   0.374  10.017 -0.2785  0.9266  0.4006
  782MPD2     H11589   4.448   0.389  10.254 -0.4207  0.1480  0.0763
  782MPD2    H111590   4.075   0.557  10.108 -0.4215 -0.8003 -2.1824
  782MPD2    H211591   4.235   0.197   9.940  0.1313  0.8722 -0.6130
  782MPD2    H311592   4.067   0.366   9.944  1.1040 -1.6141 -0.8097
  782MPD2     N11593   4.257   0.575  10.308 -0.4551 -0.4184 -0.3601
  782MPD2    H511594   4.340   0.588  10.365 -0.2544 -0.9605 -0.5352
  782MPD2    N111595   4.439   0.173  10.099  0.0160  0.0804  0.4213
  782MPD2    H711596   4.417   0.090  10.044  0.5115 -0.1597  0.5784
  783MPD2     C11597   4.086   4.155  10.277 -0.7326  1.0287 -0.5590
  783MPD2    C111598   4.082   4.282  10.333 -0.1816  0.5305 -0.3017
  783MPD2    C211599   4.188   4.371  10.313  0.1334 -1.2056 -0.4782
  783MPD2    C311600   4.291   4.340  10.231 -0.3800  0.0207  0.6290
  783MPD2    C411601   4.296   4.211  10.176 -0.0498  0.0530 -0.4751
  783MPD2    C511602   4.193   4.118  10.202  0.1799  0.0873  0.0222
  783MPD2     H11603   4.181   4.472  10.352  0.1578 -1.4694  0.2059
  783MPD2    H111604   4.368   4.188  10.099  2.2543  0.9884  1.3801
  783MPD2    H211605   3.995   4.096  10.279 -2.6206  3.9009 -2.0452
  783MPD2    H311606   4.202   4.018  10.163  1.1517  1.3787 -3.0475
  783MPD2     N11607   4.391   4.433  10.214  0.6647 -0.8798  0.7310
  783MPD2    H511608   4.372   4.528  10.244 -1.6131 -1.3407  0.7584
  783MPD2    N111609   3.964   4.309  10.403 -0.0782 -0.5376 -0.1258
  783MPD2    H711610   3.910   4.225  10.418  0.2626 -0.5633  0.9392
  784MPD2     C11611   1.468   0.108   0.729 -0.3466  0.0589 -0.9001
  784MPD2    C111612   1.491   0.216   0.810  0.5237  0.1936  0.4965
  784MPD2    C211613   1.401   0.326   0.800  0.5603  0.4468  0.0346
  784MPD2    C311614   1.308   0.327   0.700 -0.2541  0.3741  0.2838
  784MPD2    C411615   1.296   0.220   0.614  0.3388 -0.7876  0.4598
  784MPD2    C511616   1.367   0.103   0.635 -0.4377  0.4514 -0.1275
  784MPD2     H11617   1.423   0.411   0.864  0.7782 -0.3163  0.9674
  784MPD2    H111618   1.230   0.225   0.528  2.9803 -0.1612 -1.5583
  784MPD2    H211619   1.538   0.025   0.724 -0.8582 -0.2285 -3.1306
  784MPD2    H311620   1.347   0.025   0.563  0.0696 -0.0384  0.2650
  784MPD2     N11621   1.227   0.446   0.688 -0.6298  0.0285 -0.0482
  784MPD2    H511622   1.270   0.530   0.725  0.2510 -0.9040  1.0506
  784MPD2    N111623   1.601   0.227   0.907 -0.2257 -0.1766  0.8483
  784MPD2    H711624   1.621   0.314   0.954 -4.1815  0.0982  2.0291
  785MPD2     C11625   0.683   3.743  10.404 -0.1660  0.3968 -0.4190
  785MPD2    C111626   0.644   3.718  10.275  0.8523 -0.8794  0.0616
  785MPD2    C211627   0.687   3.603  10.212 -0.3991  0.4353 -0.3853
  785MPD2    C311628   0.774   3.517  10.279 -0.1841  0.1828 -0.6222
  785MPD2    C411629   0.810   3.543  10.412  0.4123 -0.0741  0.5569
  785MPD2    C511630   0.767   3.657  10.471  0.1519 -0.1733  0.1580
  785MPD2     H11631   0.649   3.570  10.116  0.7769 -2.1832  0.0349
  785MPD2    H111632   0.882   3.476  10.459  0.6759  0.3280  0.7211
  785MPD2    H211633   0.640   3.824  10.461 -1.1713 -0.4503  0.0373
  785MPD2    H311634   0.804   3.662  10.572  1.0449  0.2629 -0.1982
  785MPD2     N11635   0.803   3.396  10.215 -0.8286  0.0564 -0.4291
  785MPD2    H511636   0.760   3.382  10.124 -0.5078  1.1304 -0.7412
  785MPD2    N111637   0.552   3.800  10.207 -0.4364 -0.3770 -0.1759
  785MPD2    H711638   0.530   3.893  10.242  0.7114 -0.6979  1.3652
  786MPD2     C11639   0.345   1.077  14.814 -0.1228 -0.4445  0.6384
  786MPD2    C111640   0.452   0.993  14.834 -0.4214  0.5385 -0.3891
  786MPD2    C211641   0.498   0.975  14.961 -0.0565  0.1362  0.4817
  786MPD2    C311642   0.468   1.054  15.069  0.4342 -0.3876 -0.1065
  786MPD2    C411643   0.363   1.141  15.052  0.1180  0.0709 -0.1373
  786MPD2    C511644   0.300   1.149  14.926  0.0866  0.0167  0.5253
  786MPD2     H11645   0.584   0.910  14.971 -0.4486 -0.8865 -2.5802
  786MPD2    H111646   0.350   1.223  15.122  3.0025 -0.1138  0.5990
  786MPD2    H211647   0.312   1.105  14.715 -1.0496 -0.8258  0.8389
  786MPD2    H311648   0.226   1.226  14.905 -0.1502  0.0710  1.5617
  786MPD2     N11649   0.527   1.047  15.195 -0.4577  0.3115 -0.5972
  786MPD2    H511650   0.498   1.120  15.259 -0.6560 -0.4071  0.1290
  786MPD2    N111651   0.515   0.921  14.729 -0.3823  0.0392  0.4171
  786MPD2    H711652   0.585   0.852  14.754 -0.6471  0.0077  1.0845
  787MPD2     C11653   0.725   0.354  14.833 -0.3268 -0.3681  0.0882
  787MPD2    C111654   0.783   0.385  14.710  0.6092  0.3853 -0.0284
  787MPD2    C211655   0.888   0.307  14.664 -0.5099 -0.7266 -0.1589
  787MPD2    C311656   0.933   0.205  14.738 -0.4525  0.4636  0.6488
  787MPD2    C411657   0.880   0.175  14.861  0.5006 -0.5755 -0.6001
  787MPD2    C511658   0.780   0.259  14.908 -0.3648 -0.4360 -0.4287
  787MPD2     H11659   0.935   0.318  14.567 -1.6852  1.5758 -0.4656
  787MPD2    H111660   0.901   0.098  14.934 -0.2659  0.0131  0.2521
  787MPD2    H211661   0.657   0.420  14.885 -0.2677  1.0263 -1.5912
  787MPD2    H311662   0.730   0.243  15.002 -0.6675 -2.0805 -0.8757
  787MPD2     N11663   1.041   0.131  14.689  0.0935 -0.7899 -0.6038
  787MPD2    H511664   1.065   0.143  14.591 -1.4209 -0.1898 -0.8889
  787MPD2    N111665   0.739   0.505  14.639 -0.0969 -0.0337 -0.3162
  787MPD2    H711666   0.665   0.563  14.679  1.9216  0.1127  3.2467
  788MPD2     C11667   2.356   0.340   1.005  0.1272 -0.4702 -0.1690
  788MPD2    C111668   2.330   0.266   0.891  0.0360  0.0232 -0.2997
  788MPD2    C211669   2.261   0.331   0.783 -0.1746 -0.2333  0.1283
  788MPD2    C311670   2.226   0.462   0.794  0.3564 -0.3706  0.0848
  788MPD2    C411671   2.265   0.531   0.910  0.3890 -0.3511  0.3264
  788MPD2    C511672   2.324   0.471   1.013 -0.4975 -0.6599  0.0658
  788MPD2     H11673   2.238   0.261   0.703 -0.0127 -0.4335  0.2573
  788MPD2    H111674   2.230   0.633   0.925 -0.5010 -0.3672 -1.5424
  788MPD2    H211675   2.401   0.296   1.094  0.0227 -0.1846  0.0241
  788MPD2    H311676   2.333   0.521   1.108 -2.1338  0.1714 -0.2170
  788MPD2     N11677   2.144   0.527   0.699 -0.4375  0.0182  0.1578
  788MPD2    H511678   2.128   0.626   0.710 -1.4332  0.0211 -1.2727
  788MPD2    N111679   2.351   0.136   0.875  0.7476 -0.5441 -0.3174
  788MPD2    H711680   2.353   0.103   0.779  0.3485  0.0325 -0.5235
  789MPD2     C11681   2.575   3.874  17.020 -0.0972  0.4729 -0.2103
  789MPD2    C111682   2.456   3.863  16.953 -0.3103  0.0100 -0.3572
  789MPD2    C211683   2.343   3.930  16.987  0.2032  0.3095  0.6017
  789MPD2    C311684   2.343   4.020  17.094  0.4918  0.2236 -0.0413
  789MPD2    C411685   2.458   4.032  17.166  0.0488  0.5361 -0.3119
  789MPD2    C511686   2.569   3.957  17.131 -0.3734  0.4917 -0.2419
  789MPD2     H11687   2.254   3.902  16.932  0.9465  1.9345 -1.3847
  789MPD2    H111688   2.472   4.096  17.253  1.7885  0.3277 -0.4286
  789MPD2    H211689   2.669   3.825  17.002 -0.8869 -0.0358 -2.8738
  789MPD2    H311690   2.661   3.973  17.187  1.0100 -1.9239 -1.7911
  789MPD2     N11691   2.233   4.098  17.140 -0.5853  0.0599  0.0938
  789MPD2    H511692   2.255   4.176  17.201  1.5365  0.3269 -0.9911
  789MPD2    N111693   2.446   3.775  16.840 -0.4925  0.1201 -0.6548
  789MPD2    H711694   2.361   3.773  16.785 -0.5467  1.4268 -0.6414
  790MPD2     C11695   4.088   0.842  13.744 -0.0502 -0.3290  0.4828
  790MPD2    C111696   3.997   0.739  13.758 -0.0954 -0.1659 -0.5332
  790MPD2    C211697   3.922   0.695  13.648  0.2252  0.0874  0.4253
  790MPD2    C311698   3.947   0.756  13.524 -0.1005  0.0669  0.2749
  790MPD2    C411699   4.026   0.866  13.518  0.8739  0.1593 -0.2212
  790MPD2    C511700   4.098   0.907  13.623 -0.2081 -0.4489  0.5036
  790MPD2     H11701   3.855   0.611  13.664 -0.3667  0.8210  1.7839
  790MPD2    H111702   4.039   0.911  13.421 -0.5350  0.4533 -0.2810
  790MPD2    H211703   4.142   0.874  13.832 -1.0923  3.6912 -0.3509
  790MPD2    H311704   4.167   0.987  13.599 -0.3084 -1.5448 -3.3923
  790MPD2     N11705   3.879   0.697  13.412  0.2095 -0.3251 -0.1485
  790MPD2    H511706   3.816   0.620  13.431  1.7583 -1.6633 -0.4269
  790MPD2    N111707   4.004   0.669  13.886 -0.6973  0.7122  0.0018
  790MPD2    H711708   4.079   0.697  13.948  0.6028 -0.3134 -1.1107
  791MPD2     C11709   3.276   0.719  13.275 -0.7751  0.3796 -0.4361
  791MPD2    C111710   3.327   0.633  13.182 -0.4575 -0.2458 -0.0637
  791MPD2    C211711   3.237   0.579  13.089  0.1984  0.2844 -0.3900
  791MPD2    C311712   3.101   0.603  13.099  0.0178 -0.8106  0.5513
  791MPD2    C411713   3.054   0.685  13.199  0.4763  0.1641 -0.1716
  791MPD2    C511714   3.145   0.737  13.288  0.3733  0.1737  1.1136
  791MPD2     H11715   3.277   0.523  13.005  0.1245 -0.2909 -0.0363
  791MPD2    H111716   2.949   0.710  13.200  0.6161  0.7925 -0.9079
  791MPD2    H211717   3.343   0.772  13.342 -0.3724 -1.9201  1.0016
  791MPD2    H311718   3.107   0.801  13.367  0.3778  1.2497  0.2577
  791MPD2     N11719   3.011   0.541  13.009 -0.6588 -0.7788  0.2143
  791MPD2    H511720   3.048   0.484  12.934 -0.0353 -2.5273  1.8240
  791MPD2    N111721   3.466   0.600  13.179  0.1751  0.4085  0.0183
  791MPD2    H711722   3.522   0.661  13.238 -0.7827  2.4065 -1.1474
  792MPD2     C11723   3.767   0.989  11.343 -0.4601  0.2799  0.4386
  792MPD2    C111724   3.743   1.113  11.285  0.0430  0.6860  0.0405
  792MPD2    C211725   3.614   1.157  11.270 -0.1123 -0.2213  0.1474
  792MPD2    C311726   3.508   1.061  11.297 -0.3586 -0.0187 -0.3475
  792MPD2    C411727   3.540   0.935  11.336 -0.3070  0.5174 -0.2676
  792MPD2    C511728   3.664   0.895  11.368 -0.0488 -0.8909 -1.0042
  792MPD2     H11729   3.599   1.261  11.242 -1.9996 -0.7447 -0.8264
  792MPD2    H111730   3.460   0.863  11.353  0.5662 -0.1770  0.9270
  792MPD2    H211731   3.872   0.965  11.352 -0.7207 -1.2126 -0.5257
  792MPD2    H311732   3.685   0.797  11.409  1.1233  1.0449  3.0567
  792MPD2     N11733   3.369   1.098  11.279 -0.1535  0.9750  0.2833
  792MPD2    H511734   3.303   1.026  11.305  1.5102 -0.2264  1.1875
  792MPD2    N111735   3.850   1.198  11.260 -0.1881 -0.5280 -0.5323
  792MPD2    H711736   3.941   1.174  11.300  0.0751  1.9911  0.3676
  793MPD2     C11737   3.070   0.763  10.551 -0.5543 -0.1594 -0.1295
  793MPD2    C111738   3.182   0.828  10.598  0.5239 -1.0957 -0.2268
  793MPD2    C211739   3.170   0.907  10.708 -0.3373  0.7329  0.0383
  793MPD2    C311740   3.054   0.924  10.775  0.6258 -0.0374  0.0818
  793MPD2    C411741   2.942   0.856  10.735  0.2218 -0.3005 -1.0413
  793MPD2    C511742   2.958   0.771  10.629 -0.0337  0.2140 -0.1217
  793MPD2     H11743   3.261   0.951  10.749 -0.3155 -0.4012  1.2129
  793MPD2    H111744   2.848   0.863  10.789 -0.8256 -0.4858 -2.8594
  793MPD2    H211745   3.071   0.702  10.461 -2.4801  1.5521 -1.3129
  793MPD2    H311746   2.868   0.719  10.597  0.3629  0.3604 -1.4694
  793MPD2     N11747   3.068   1.011  10.890 -0.2884 -0.1464  0.4363
  793MPD2    H511748   3.163   1.018  10.924 -0.9504 -1.4911  2.6176
  793MPD2    N111749   3.309   0.832  10.530  0.2005 -0.1800 -0.1955
  793MPD2    H711750   3.390   0.877  10.572  0.1395 -1.2588  1.0858
  794MPD2     C11751   3.053   0.114  17.282 -0.2150 -0.0801  0.5270
  794MPD2    C111752   2.963   0.019  17.327  0.1249 -0.5102 -0.5374
  794MPD2    C211753   2.855   4.725  17.249 -0.4623  0.0508 -0.0332
  794MPD2    C311754   2.834   0.054  17.130 -0.3256  0.1156  0.0364
  794MPD2    C411755   2.905   0.169  17.106  0.5055  0.4825 -0.3403
  794MPD2    C511756   3.020   0.189  17.174  0.5012 -0.1172 -0.6482
  794MPD2     H11757   2.795   4.638  17.274 -1.6062  1.0937  0.8310
  794MPD2    H111758   2.866   0.226  17.023  2.1300  0.7831 -0.8777
  794MPD2    H211759   3.135   0.148  17.345 -0.8951  0.1471  1.2992
  794MPD2    H311760   3.088   0.270  17.151  0.7043 -1.0458 -3.2845
  794MPD2     N11761   2.743   0.017  17.025  0.3726  0.4797  0.3346
  794MPD2    H511762   2.739   0.084  16.950 -1.7376  1.0773  0.9811
  794MPD2    N111763   2.980   4.693  17.450  0.1220  0.2952 -0.0792
  794MPD2    H711764   2.923   4.611  17.466  0.9114 -0.1725  0.3605
  795MPD2     C11765   1.241   2.217  13.955 -0.2088 -0.1381 -0.7481
  795MPD2    C111766   1.202   2.116  13.869  0.3407 -0.5911  0.2279
  795MPD2    C211767   1.240   1.988  13.897 -0.4364  0.0136  0.6956
  795MPD2    C311768   1.317   1.955  14.011 -0.4772  0.7788  0.9011
  795MPD2    C411769   1.345   2.057  14.098  0.2564 -0.2795  0.3714
  795MPD2    C511770   1.315   2.183  14.065  0.0165  0.4084  0.3489
  795MPD2     H11771   1.203   1.914  13.827  1.1347  1.6462 -1.8486
  795MPD2    H111772   1.411   2.033  14.181 -0.0022 -1.6207  0.1842
  795MPD2    H211773   1.217   2.322  13.941  1.7635  0.4367  0.2255
  795MPD2    H311774   1.350   2.264  14.129 -0.7123  0.2733  0.9243
  795MPD2     N11775   1.369   1.829  14.047 -0.1708 -0.1109 -0.1567
  795MPD2    H511776   1.414   1.825  14.138 -2.8721 -2.1414  1.0862
  795MPD2    N111777   1.130   2.143  13.748  0.7909 -0.8860  0.3306
  795MPD2    H711778   1.101   2.062  13.695 -1.2757 -0.9655  1.5896
  796MPD2     C11779   0.357   3.632  16.071 -0.2777 -0.6511 -0.2531
  796MPD2    C111780   0.488   3.668  16.102 -0.2602 -0.0825 -0.3464
  796MPD2    C211781   0.518   3.807  16.094  0.8603 -0.0666  0.2317
  796MPD2    C311782   0.419   3.904  16.067  0.1967 -0.7010 -0.1782
  796MPD2    C411783   0.293   3.863  16.044  0.3301 -0.4820  0.2945
  796MPD2    C511784   0.264   3.729  16.039 -0.5445 -0.3108 -0.2001
  796MPD2     H11785   0.613   3.839  16.134 -0.1676  0.3425  2.3179
  796MPD2    H111786   0.209   3.925  16.016  0.7989  1.3331  2.9565
  796MPD2    H211787   0.325   3.529  16.078 -1.3872 -0.1797  1.4369
  796MPD2    H311788   0.167   3.693  16.006 -0.4280  0.2615 -1.1610
  796MPD2     N11789   0.447   4.043  16.089 -1.6823  0.3884  0.0976
  796MPD2    H511790   0.540   4.052  16.128 -1.1297  0.1250 -1.1707
  796MPD2    N111791   0.582   3.569  16.149 -0.0149 -0.4048 -0.0060
  796MPD2    H711792   0.550   3.475  16.167 -3.3549  1.2617  2.8972
  797MPD2     C11793   1.387   3.255   0.014  0.1921  0.4136  0.0393
  797MPD2    C111794   1.421   3.388   0.014 -0.5487 -0.5351  0.1244
  797MPD2    C211795   1.357   3.466  17.669 -0.2225 -0.0454  0.3034
  797MPD2    C311796   1.261   3.418  17.582  0.4184  0.3591 -0.0485
  797MPD2    C411797   1.224   3.286  17.588  0.7999 -0.1285 -0.2172
  797MPD2    C511798   1.284   3.216  17.687 -0.0331  0.2228  0.5288
  797MPD2     H11799   1.394   3.564  17.642 -0.5064 -0.3809 -1.2891
  797MPD2    H111800   1.149   3.248  17.520 -2.4405  0.5277  3.0071
  797MPD2    H211801   1.426   3.182   0.083 -0.6951  0.7145  0.8605
  797MPD2    H311802   1.245   3.116  17.693 -0.8020  0.5342  0.7248
  797MPD2     N11803   1.206   3.509  17.494 -0.8617  0.0666  0.0379
  797MPD2    H511804   1.221   3.607  17.518 -0.5813 -0.2205  1.0260
  797MPD2    N111805   1.505   3.455   0.096 -0.7026 -0.1959 -0.7101
  797MPD2    H711806   1.521   3.555   0.087 -0.1312 -0.0356  2.1064
  798MPD2     C11807   1.435   4.165  17.613  0.1351  0.3548  0.3500
  798MPD2    C111808   1.424   4.035  17.583  0.2035  0.3852  0.5769
  798MPD2    C211809   1.482   3.941  17.667  0.4301  0.8417 -0.4817
  798MPD2    C311810   1.563   3.978   0.020 -0.0014 -0.5058 -0.2651
  798MPD2    C411811   1.579   4.110   0.044 -0.2456 -0.0783 -0.6813
  798MPD2    C511812   1.516   4.202  17.720  0.3580 -0.6289 -0.2711
  798MPD2     H11813   1.473   3.834  17.647 -0.2771  1.0106 -1.0460
  798MPD2    H111814   1.643   4.145   0.123  0.0997 -2.0597 -0.0813
  798MPD2    H211815   1.383   4.241  17.556  1.1710 -1.0974 -2.5108
  798MPD2    H311816   1.522   4.307  17.746  1.1321 -0.5961 -0.5860
  798MPD2     N11817   1.629   3.870   0.087  0.5475 -0.3348  0.0127
  798MPD2    H511818   1.623   3.779   0.042 -1.7365 -0.6827  0.9989
  798MPD2    N111819   1.333   3.996  17.482  0.2338  0.3520  0.4864
  798MPD2    H711820   1.295   4.071  17.426 -2.7183 -2.3376 -1.1230
  799MPD2     C11821   0.899   4.600  14.537  0.8299 -0.0922  0.0196
  799MPD2    C111822   0.789   4.620  14.619  0.2352 -0.6278 -0.9140
  799MPD2    C211823   0.694   4.714  14.583 -0.6004  0.2359 -0.4119
  799MPD2    C311824   0.713   0.061  14.477  0.1002  0.5161  0.0726
  799MPD2    C411825   0.826   0.035  14.396  0.0297 -0.9225  0.3925
  799MPD2    C511826   0.918   4.682  14.429  1.0075 -0.0966 -0.0899
  799MPD2     H11827   0.610   4.734  14.648 -0.8054 -1.3834 -0.1778
  799MPD2    H111828   0.853   0.096  14.311  0.8259 -1.1721  0.4669
  799MPD2    H211829   0.982   4.534  14.560 -0.1825 -1.5463 -0.4922
  799MPD2    H311830   1.005   4.677  14.365  2.0632  1.1481  1.2286
  799MPD2     N11831   0.627   0.170  14.435  0.2680  0.1673 -0.7593
  799MPD2    H511832   0.664   0.225  14.358 -1.6067  1.2829 -0.8600
  799MPD2    N111833   0.769   4.548  14.735 -0.1130  0.2350  0.5126
  799MPD2    H711834   0.676   4.558  14.773 -1.5466 -0.7536 -2.6898
  800MPD2     C11835   0.658   1.153  13.770  0.3414  0.0273  0.7181
  800MPD2    C111836   0.737   1.115  13.873 -0.0247  0.3519  0.0913
  800MPD2    C211837   0.771   0.978  13.893  0.3716  0.4962 -0.0707
  800MPD2    C311838   0.723   0.885  13.803 -0.1394 -0.3654 -0.8775
  800MPD2    C411839   0.639   0.921  13.699  0.2575 -0.1935 -0.2840
  800MPD2    C511840   0.605   1.052  13.687  0.2798  0.6616 -0.2748
  800MPD2     H11841   0.837   0.942  13.971  0.6582  1.0127 -0.0733
  800MPD2    H111842   0.579   0.846  13.650  0.3845  0.0315 -0.7898
  800MPD2    H211843   0.622   1.254  13.752  1.8734  0.1895 -1.4047
  800MPD2    H311844   0.544   1.080  13.602 -1.2013 -1.5250  0.0447
  800MPD2     N11845   0.755   0.749  13.831 -0.8767 -0.4085 -0.1348
  800MPD2    H511846   0.821   0.738  13.908 -2.2010  1.0235  1.2132
  800MPD2    N111847   0.796   1.216  13.956 -0.8544 -0.3785  0.3600
  800MPD2    H711848   0.786   1.310  13.918 -1.8151 -0.1625  1.1335
  801MPD2     C11849   0.946   1.953  14.080 -0.2345 -0.4066 -0.0992
  801MPD2    C111850   0.991   1.875  14.188  0.2064 -0.0202  0.5945
  801MPD2    C211851   1.004   1.941  14.308 -0.2040  0.2872  0.1658
  801MPD2    C311852   0.955   2.069  14.328 -0.0882  0.2106 -0.0337
  801MPD2    C411853   0.896   2.142  14.228  0.0664  0.6397  0.0799
  801MPD2    C511854   0.899   2.079  14.101 -0.1709 -0.3834  0.2006
  801MPD2     H11855   1.038   1.879  14.390 -0.6088  2.5264  2.0511
  801MPD2    H111856   0.855   2.241  14.237  0.1245  0.7953 -1.3463
  801MPD2    H211857   0.941   1.914  13.979 -1.3973  0.5176 -0.3988
  801MPD2    H311858   0.862   2.131  14.013  1.6936 -1.4091 -1.1714
  801MPD2     N11859   0.939   2.111  14.462  0.2995  0.1841 -0.2521
  801MPD2    H511860   0.876   2.187  14.485  1.6493  1.1465  0.3025
  801MPD2    N111861   1.021   1.737  14.191 -0.0047 -0.5605 -0.1790
  801MPD2    H711862   1.056   1.695  14.277  0.0476  0.3167  0.2249
  802MPD2     C11863   4.549   2.585  17.415 -0.1807 -0.3517  0.5689
  802MPD2    C111864   4.622   2.606  17.532  0.0429  0.6416  0.3742
  802MPD2    C211865   4.707   2.507  17.581  1.1189 -0.3603  0.8906
  802MPD2    C311866   4.719   2.379  17.519 -0.5817 -0.4452  0.1561
  802MPD2    C411867   4.630   2.354  17.422 -0.6078 -0.4570  0.7336
  802MPD2    C511868   4.559   2.454  17.364  0.0022  0.0868 -0.7875
  802MPD2     H11869   0.017   2.526  17.676  2.0619 -1.7852  0.6852
  802MPD2    H111870   4.629   2.261  17.366  1.9711  0.7606 -1.3596
  802MPD2    H211871   4.486   2.670  17.392 -0.3634 -0.8403 -0.7114
  802MPD2    H311872   4.497   2.421  17.282 -0.8634  4.0251 -1.7417
  802MPD2     N11873   0.073   2.288  17.569 -0.3654  0.9025 -0.2995
  802MPD2    H511874   0.144   2.318  17.635 -1.7765  2.4029  0.5252
  802MPD2    N111875   4.624   2.725  17.610  0.2209 -0.2713  0.1439
  802MPD2    H711876   4.665   2.714  17.703 -0.8785  0.6016  0.7273
  803MPD2     C11877   1.373   0.385  12.525 -0.2429 -0.8712  0.0080
  803MPD2    C111878   1.496   0.411  12.583  0.1711 -0.0160 -0.3292
  803MPD2    C211879   1.551   0.327  12.675 -0.2393  0.5356 -0.5652
  803MPD2    C311880   1.487   0.211  12.713  0.0822  0.2811  0.0733
  803MPD2    C411881   1.368   0.189  12.658 -0.7967 -0.2974 -0.1514
  803MPD2    C511882   1.311   0.266  12.560 -0.6313 -0.7781 -0.3840
  803MPD2     H11883   1.649   0.346  12.718  0.2381  0.4046 -1.6053
  803MPD2    H111884   1.328   0.092  12.685  1.7766 -1.1989  0.3380
  803MPD2    H211885   1.328   0.457  12.458  0.5857 -1.2313 -0.9436
  803MPD2    H311886   1.217   0.237  12.515 -0.3340  0.4245 -1.7790
  803MPD2     N11887   1.544   0.110  12.797 -0.3318  0.0480 -0.0662
  803MPD2    H511888   1.477   0.041  12.831 -0.2278  0.2473  0.5460
  803MPD2    N111889   1.573   0.532  12.551  0.3117 -0.0297 -0.2622
  803MPD2    H711890   1.674   0.516  12.552  0.2891 -0.0753  0.8739
  804MPD2     C11891   1.223   2.170  16.688  0.6753  0.2297 -0.3333
  804MPD2    C111892   1.158   2.189  16.809 -0.5997 -0.5512  0.0118
  804MPD2    C211893   1.204   2.297  16.887  0.0474 -0.1454 -0.1213
  804MPD2    C311894   1.312   2.377  16.849 -1.0003 -0.1255  0.3827
  804MPD2    C411895   1.355   2.360  16.722  0.0200  0.0869  0.1247
  804MPD2    C511896   1.314   2.260  16.647  0.0784  0.8306 -0.4766
  804MPD2     H11897   1.156   2.318  16.982 -1.2812 -0.2142 -0.7790
  804MPD2    H111898   1.422   2.431  16.675  0.6676 -0.1305  0.7291
  804MPD2    H211899   1.210   2.087  16.620  1.8275  0.6916 -1.1139
  804MPD2    H311900   1.358   2.243  16.549 -1.9859 -2.0659 -0.8905
  804MPD2     N11901   1.359   2.479  16.939  0.2511  0.4574 -0.4166
  804MPD2    H511902   1.331   2.487  17.037 -3.3727 -2.6109 -1.1967
  804MPD2    N111903   1.070   2.091  16.860  0.2190 -0.4305 -0.4270
  804MPD2    H711904   1.030   2.089  16.953  1.8913  0.7474  0.3240
  805MPD2     C11905   0.207   0.136  15.690  0.3596  0.3160 -0.7827
  805MPD2    C111906   0.306   0.210  15.618 -0.4295  0.0572 -0.2097
  805MPD2    C211907   0.429   0.226  15.678  0.7617 -0.5223 -0.0345
  805MPD2    C311908   0.449   0.174  15.804 -0.2198 -0.5795 -0.8591
  805MPD2    C411909   0.354   0.102  15.870 -0.0318  0.0207  0.3389
  805MPD2    C511910   0.231   0.078  15.808  0.3066 -0.6220 -0.0800
  805MPD2     H11911   0.503   0.272  15.614  1.8289 -2.7885 -0.3971
  805MPD2    H111912   0.375   0.053  15.964  1.0003 -2.6323 -1.2636
  805MPD2    H211913   0.104   0.127  15.656 -0.3472  2.2000  0.8306
  805MPD2    H311914   0.153   0.019  15.856 -0.1829  0.6810  0.7276
  805MPD2     N11915   0.574   0.209  15.870 -0.0831 -0.3123  0.2592
  805MPD2    H511916   0.637   0.277  15.829 -2.1649  1.5101  0.0543
  805MPD2    N111917   0.278   0.268  15.490 -0.3282 -0.4484  0.5483
  805MPD2    H711918   0.356   0.293  15.430 -1.5288  1.0859 -0.3671
  806MPD2     C11919   0.335   0.234   0.655 -0.1833 -0.0906  0.3965
  806MPD2    C111920   0.419   0.336   0.682  0.2795 -0.5063 -0.1344
  806MPD2    C211921   0.488   0.385   0.574  0.9036 -0.3112 -0.6053
  806MPD2    C311922   0.476   0.330   0.443 -0.1361 -0.4636  0.7261
  806MPD2    C411923   0.397   0.215   0.430 -0.0749  0.1913 -0.0261
  806MPD2    C511924   0.320   0.173   0.535 -0.5342  0.0538  0.2618
  806MPD2     H11925   0.557   0.468   0.584 -0.2845  0.6921 -0.7896
  806MPD2    H111926   0.402   0.152   0.342 -2.1141  0.6270 -0.4657
  806MPD2    H211927   0.278   0.184   0.733  1.5617  0.2152  1.8828
  806MPD2    H311928   0.261   0.083   0.521 -2.5601  1.6837 -1.8626
  806MPD2     N11929   0.551   0.383   0.335  0.0028  0.1562  0.6901
  806MPD2    H511930   0.616   0.457   0.358  2.6873 -2.4618  1.4880
  806MPD2    N111931   0.428   0.386   0.809 -0.5946  0.1989 -0.0802
  806MPD2    H711932   0.361   0.347   0.876 -0.5030  1.1113  0.5403
  807MPD2     C11933   0.126   0.467   1.586 -0.3753 -0.8434  0.3212
  807MPD2    C111934   0.126   0.413   1.457 -0.1926 -0.4075 -0.8972
  807MPD2    C211935   0.034   0.320   1.422  0.0247 -0.0505  0.6574
  807MPD2    C311936   4.683   0.267   1.517 -0.7913 -0.7760  0.1601
  807MPD2    C411937   4.691   0.311   1.647  0.0971  0.0045  0.4203
  807MPD2    C511938   0.037   0.406   1.672 -0.1325  0.0039 -0.5416
  807MPD2     H11939   0.032   0.272   1.324  0.4239 -0.0717  0.6624
  807MPD2    H111940   4.630   0.264   1.723  0.7431 -1.6512 -0.0957
  807MPD2    H211941   0.203   0.528   1.631  0.4205 -1.1908 -0.5639
  807MPD2    H311942   0.034   0.436   1.776 -0.0593  1.0070 -0.8206
  807MPD2     N11943   4.595   0.168   1.477  0.2864 -0.3265  0.7747
  807MPD2    H511944   4.591   0.152   1.377 -0.2108  0.5551  0.6479
  807MPD2    N111945   0.221   0.473   1.377  0.2785  0.4115  0.5495
  807MPD2    H711946   0.276   0.551   1.411  1.2379  0.2468 -0.6363
  808MPD2     C11947   1.569   1.455  10.843 -0.4240  0.0205 -0.5194
  808MPD2    C111948   1.503   1.459  10.725 -0.9398 -0.2289 -0.0129
  808MPD2    C211949   1.497   1.583  10.669  0.7282  0.4086 -0.2024
  808MPD2    C311950   1.557   1.695  10.722 -0.3014  0.2123 -0.7268
  808MPD2    C411951   1.611   1.693  10.845 -0.4544 -0.0624  0.1346
  808MPD2    C511952   1.621   1.571  10.899  0.6381  0.5998 -0.0814
  808MPD2     H11953   1.465   1.600  10.567 -0.0140 -2.0214 -0.3642
  808MPD2    H111954   1.661   1.777  10.893  0.4797 -0.2665 -0.4733
  808MPD2    H211955   1.581   1.369  10.908  1.8517  0.2716 -0.6035
  808MPD2    H311956   1.678   1.554  10.990  0.1357 -1.5232 -0.1572
  808MPD2     N11957   1.547   1.828  10.670 -0.1737  0.4709 -0.0431
  808MPD2    H511958   1.612   1.893  10.713  0.2366  0.4166 -0.5927
  808MPD2    N111959   1.464   1.350  10.641 -0.2382  0.3231 -0.4550
  808MPD2    H711960   1.420   1.379  10.555 -1.2314  0.2907  0.0465
  809MPD2     C11961   1.615   2.041   9.760  0.0225  0.4574  0.3276
  809MPD2    C111962   1.661   1.942   9.849  0.2487 -0.3951  0.1695
  809MPD2    C211963   1.646   1.966   9.984 -0.6483  0.2740 -0.1818
  809MPD2    C311964   1.594   2.085  10.035 -0.6563 -0.8898 -1.0954
  809MPD2    C411965   1.560   2.182   9.943 -0.3450  0.0930  0.5244
  809MPD2    C511966   1.564   2.159   9.805 -0.0675 -0.3600  0.0812
  809MPD2     H11967   1.669   1.883  10.050  1.5138 -0.8192 -2.3224
  809MPD2    H111968   1.531   2.284   9.966 -2.0257 -0.7604  2.1062
  809MPD2    H211969   1.611   2.020   9.654 -3.4198 -0.5750  0.6372
  809MPD2    H311970   1.539   2.236   9.734  1.3201  0.1537  0.1581
  809MPD2     N11971   1.571   2.102  10.176 -0.1906 -0.3677  0.5369
  809MPD2    H511972   1.600   2.026  10.236  0.7389  0.9734  1.7830
  809MPD2    N111973   1.705   1.810   9.807 -0.0990 -0.0517 -0.1645
  809MPD2    H711974   1.748   1.749   9.876  0.9820  0.2558 -0.5581
  810MPD2     C11975   1.143   1.201  11.051 -0.3608 -0.2645  0.4561
  810MPD2    C111976   1.132   1.223  10.920  0.1228  0.8983  0.2215
  810MPD2    C211977   1.141   1.351  10.859  0.0200 -0.6712 -1.1370
  810MPD2    C311978   1.171   1.453  10.950 -0.3097 -0.0574 -0.5955
  810MPD2    C411979   1.209   1.428  11.075  0.1845  0.5847 -0.3656
  810MPD2    C511980   1.190   1.302  11.125 -0.0977  0.6280  0.2915
  810MPD2     H11981   1.146   1.361  10.751  0.3596  2.2797 -0.8413
  810MPD2    H111982   1.260   1.501  11.137  0.9939 -1.1750  1.0317
  810MPD2    H211983   1.137   1.106  11.102  1.5828 -1.3395 -1.2983
  810MPD2    H311984   1.224   1.281  11.226 -0.7246 -0.1337  0.3463
  810MPD2     N11985   1.197   1.586  10.901 -0.1684 -0.0351 -0.0730
  810MPD2    H511986   1.229   1.645  10.978  0.3296 -1.6941  1.0056
  810MPD2    N111987   1.091   1.109  10.842  0.0352  0.0116  0.3237
  810MPD2    H711988   1.088   1.021  10.893 -0.2856  0.5306  1.1958
  811MPD2     C11989   0.439   0.975  10.291 -0.3580 -0.4859  0.4506
  811MPD2    C111990   0.567   1.035  10.300 -0.1596  0.1597 -0.6096
  811MPD2    C211991   0.593   1.158  10.238 -0.3489  0.3207  0.3592
  811MPD2    C311992   0.494   1.214  10.166  0.2762 -0.0402 -0.0013
  811MPD2    C411993   0.368   1.157  10.155  0.4792 -0.1782  0.1382
  811MPD2    C511994   0.339   1.041  10.227  0.3320 -0.5820  0.7178
  811MPD2     H11995   0.692   1.201  10.244  0.4621 -1.2696 -1.5606
  811MPD2    H111996   0.293   1.211  10.098  1.3243 -1.2735 -2.0371
  811MPD2    H211997   0.407   0.881  10.334  0.7053 -0.8457  0.4597
  811MPD2    H311998   0.238   1.004  10.221 -1.2564  3.6835  0.8319
  811MPD2     N11999   0.528   1.346  10.110 -0.4354  0.1107  0.2242
  811MPD2    H512000   0.625   1.372  10.117 -0.3595 -0.1972  0.3459
  811MPD2    N112001   0.668   0.972  10.371  0.1364  0.2383  0.0703
  811MPD2    H712002   0.634   0.891  10.421  1.6228 -0.6396 -0.3165
  812MPD2     C12003   4.595   0.741  11.861  0.0793 -0.3342  0.0899
  812MPD2    C112004   4.555   0.821  11.961 -0.0299  0.5310  0.2515
  812MPD2    C212005   4.547   0.766  12.087  0.2887 -0.3660 -0.3386
  812MPD2    C312006   4.541   0.630  12.102 -0.1806  0.0441 -0.0116
  812MPD2    C412007   4.570   0.551  11.997 -0.2093  0.5263 -0.2458
  812MPD2    C512008   4.603   0.604  11.882  0.0677  0.8645 -0.0466
  812MPD2     H12009   4.551   0.837  12.169  0.9147 -0.3945 -0.3427
  812MPD2    H112010   4.547   0.445  12.001  0.5694  0.2983 -1.7771
  812MPD2    H212011   4.626   0.784  11.767  2.9147 -2.2835  0.1279
  812MPD2    H312012   4.625   0.542  11.796 -0.0774  0.2651  0.3502
  812MPD2     N12013   4.516   0.578  12.235  0.1314  0.2708  0.6893
  812MPD2    H512014   4.500   0.639  12.315  2.4271  1.7118  0.0612
  812MPD2    N112015   4.531   0.955  11.932 -0.1389 -0.7561 -0.3273
  812MPD2    H712016   4.547   0.993  11.839  1.2162 -0.5441 -0.0093
  813MPD2     C12017   3.784   2.307  12.725  0.7904 -0.1685 -0.0518
  813MPD2    C112018   3.753   2.439  12.760 -0.2133  0.0281  0.3565
  813MPD2    C212019   3.671   2.467  12.868  0.5904 -0.3850 -0.7957
  813MPD2    C312020   3.627   2.364  12.949  0.3095  0.2585 -0.0138
  813MPD2    C412021   3.672   2.229  12.916  0.0620  0.7773  0.6511
  813MPD2    C512022   3.742   2.205  12.804 -0.4487  0.5366  0.1655
  813MPD2     H12023   3.643   2.570  12.889 -0.4048 -0.8194 -0.0387
  813MPD2    H112024   3.647   2.149  12.983 -0.9097 -1.1853 -2.0382
  813MPD2    H212025   3.845   2.285  12.639 -0.8274  2.5860 -1.9108
  813MPD2    H312026   3.768   2.105  12.770 -1.9855 -1.1468  4.0007
  813MPD2     N12027   3.543   2.402  13.050  0.6806  0.1603 -0.1135
  813MPD2    H512028   3.527   2.501  13.064  1.6641  0.1515  1.0961
  813MPD2    N112029   3.806   2.553  12.694 -0.6700 -0.4235 -0.1748
  813MPD2    H712030   3.786   2.635  12.750  1.2214 -0.2274  0.2076
  814MPD2     C12031   3.838   3.789  12.448 -0.6568 -0.3292  0.6565
  814MPD2    C112032   3.850   3.917  12.409 -0.4396  0.0126 -0.1584
  814MPD2    C212033   3.924   4.004  12.488  0.0232  0.1762 -0.1061
  814MPD2    C312034   4.014   3.960  12.587  0.1413 -0.5037 -0.5835
  814MPD2    C412035   4.008   3.826  12.613  0.5753  0.8948  0.6018
  814MPD2    C512036   3.916   3.745  12.546 -0.2431  0.8258 -0.0564
  814MPD2     H12037   3.916   4.107  12.456  1.3188  0.3390  0.0916
  814MPD2    H112038   4.067   3.775  12.687 -1.0822 -0.1355  1.2124
  814MPD2    H212039   3.775   3.720  12.393 -1.5682  2.1187 -1.3886
  814MPD2    H312040   3.911   3.639  12.571  0.4284  1.2925  2.0241
  814MPD2     N12041   4.097   4.037  12.661 -0.6905 -0.7112 -0.5531
  814MPD2    H512042   4.169   3.988  12.713 -0.8086 -0.5197 -0.2088
  814MPD2    N112043   3.778   3.979  12.301  0.4679 -0.1039  0.3831
  814MPD2    H712044   3.791   4.078  12.284 -2.1632  0.0675 -0.5321
  815MPD2     C12045   0.089   1.698  12.360 -0.5013 -0.2845  0.4129
  815MPD2    C112046   0.049   1.779  12.257 -0.5044 -0.1071  0.3082
  815MPD2    C212047   4.657   1.801  12.232 -0.0503  0.6833  0.2451
  815MPD2    C312048   4.554   1.755  12.315  0.0424  0.1749 -0.7607
  815MPD2    C412049   4.590   1.692  12.427  0.2249  0.1023  0.1144
  815MPD2    C512050   4.724   1.657  12.448 -0.0250  0.0067  0.4720
  815MPD2     H12051   4.627   1.866  12.150  0.4974  1.6187  0.7831
  815MPD2    H112052   4.512   1.670  12.499  0.8308  2.5601  1.5484
  815MPD2    H212053   0.193   1.673  12.373  0.5239  4.0776  0.7443
  815MPD2    H312054   0.009   1.613  12.544 -0.2845  0.1742  0.6116
  815MPD2     N12055   4.423   1.791  12.281 -0.1507 -0.7115 -0.1950
  815MPD2    H512056   4.407   1.857  12.206  1.0232  2.0162  1.9516
  815MPD2    N112057   0.152   1.811  12.166  0.4794 -0.6367  0.0050
  815MPD2    H712058   0.243   1.768  12.176  1.1460  0.7769  0.1165
  816MPD2     C12059   3.837   1.248  17.223 -0.1350  0.3769  0.1093
  816MPD2    C112060   3.898   1.376  17.230 -0.7658  0.0723 -0.4774
  816MPD2    C212061   4.033   1.395  17.196 -0.4064 -0.5332 -0.2171
  816MPD2    C312062   4.107   1.278  17.158 -0.2988 -1.2259  0.3168
  816MPD2    C412063   4.042   1.155  17.159 -0.1603 -0.5637 -0.4999
  816MPD2    C512064   3.908   1.143  17.190 -0.0823  0.6063 -0.0979
  816MPD2     H12065   4.076   1.494  17.202 -0.4958 -0.6485  2.3888
  816MPD2    H112066   4.099   1.066  17.134  1.1615  0.3160 -0.6468
  816MPD2    H212067   3.734   1.246  17.257  0.2411 -0.4491  1.2132
  816MPD2    H312068   3.864   1.045  17.179  0.7243  0.3705 -1.2625
  816MPD2     N12069   4.242   1.298  17.111  0.4105  0.5162  0.1688
  816MPD2    H512070   4.276   1.393  17.110 -0.6726  0.9310  2.0018
  816MPD2    N112071   3.815   1.473  17.290 -0.3450  1.1797 -0.0560
  816MPD2    H712072   3.716   1.457  17.276  0.2002 -1.2333 -1.1601
  817MPD2     C12073   4.406   3.501   9.915  0.4949  0.1166 -0.6755
  817MPD2    C112074   4.482   3.593   9.984  0.4565 -1.1736 -0.1417
  817MPD2    C212075   4.434   3.725   9.978  0.2218 -0.2872  0.0323
  817MPD2    C312076   4.322   3.768   9.903 -0.2669 -0.5994  0.0416
  817MPD2    C412077   4.251   3.671   9.830  0.2154 -0.3382 -0.0776
  817MPD2    C512078   4.293   3.536   9.844  0.2184 -0.3255  0.2117
  817MPD2     H12079   4.492   3.802  10.028 -1.2368  0.9524 -0.1777
  817MPD2    H112080   4.164   3.695   9.770  1.3082 -0.0867 -1.5734
  817MPD2    H212081   4.427   3.395   9.912 -0.1780 -0.0881  1.4162
  817MPD2    H312082   4.236   3.455   9.800 -1.2462  0.5895  0.4255
  817MPD2     N12083   4.295   3.908   9.904  0.0614  0.0516 -0.2828
  817MPD2    H512084   4.372   3.972   9.920  1.1071 -1.1209 -0.6192
  817MPD2    N112085   4.596   3.569  10.061  0.5848 -0.5815 -0.5568
  817MPD2    H712086   4.637   3.652  10.101 -1.0563 -0.4979  0.9611
  818MPD2     C12087   3.637   3.445   9.953 -0.4233  0.2192 -0.1519
  818MPD2    C112088   3.523   3.394  10.015  0.0529  0.5802 -1.3210
  818MPD2    C212089   3.502   3.261  10.012 -0.3000  0.6610 -0.0035
  818MPD2    C312090   3.581   3.177   9.931 -0.6462  0.1530  0.1515
  818MPD2    C412091   3.690   3.225   9.871 -0.0727  0.1206 -0.0859
  818MPD2    C512092   3.711   3.361   9.871 -0.0589  0.2757 -0.4387
  818MPD2     H12093   3.421   3.222  10.072 -1.9481  2.7138 -0.8781
  818MPD2    H112094   3.758   3.169   9.808  0.8483 -0.1010  1.1044
  818MPD2    H212095   3.657   3.552   9.950 -1.9667  0.4733 -1.3476
  818MPD2    H312096   3.797   3.400   9.819 -0.1710  1.5095  0.3238
  818MPD2     N12097   3.556   3.040   9.906 -0.5300 -0.2019 -0.3682
  818MPD2    H512098   3.623   2.992   9.848  0.3891  1.4043 -0.6437
  818MPD2    N112099   3.439   3.470  10.095 -0.3652  0.3071  0.2650
  818MPD2    H712100   3.363   3.413  10.131  0.4190  0.1153  1.6352
  819MPD2     C12101   0.736   4.594  15.800  0.9258 -0.3756  0.5202
  819MPD2    C112102   0.747   4.458  15.832 -0.5065  0.4607  0.4601
  819MPD2    C212103   0.838   4.416  15.924  0.4433  0.5180 -0.7795
  819MPD2    C312104   0.912   4.507  15.989  0.2923  0.3038  0.8642
  819MPD2    C412105   0.893   4.643  15.966 -0.3206  0.6441  0.0419
  819MPD2    C512106   0.809   4.682  15.864 -0.7632  0.1758 -0.2109
  819MPD2     H12107   0.857   4.313  15.952 -2.4248 -0.4192 -2.2838
  819MPD2    H112108   0.948   4.721  16.017  0.2262 -0.3813  1.0476
  819MPD2    H212109   0.675   4.628  15.717  0.1681  1.3326  1.7736
  819MPD2    H312110   0.804   0.046  15.830  2.0193  1.5299  3.5358
  819MPD2     N12111   1.018   4.451  16.066  0.0213  0.0124 -0.0692
  819MPD2    H512112   1.047   4.355  16.051 -0.1509 -0.0223 -0.1849
  819MPD2    N112113   0.660   4.373  15.753  0.2876 -0.1489  0.2948
  819MPD2    H712114   0.602   4.414  15.681  2.0008  0.9038 -0.4898
  820MPD2     C12115   0.615   4.699  15.158  0.1137  0.3182  0.6057
  820MPD2    C112116   0.482   4.654  15.168  0.0027  0.6710 -0.6471
  820MPD2    C212117   0.457   4.521  15.196  0.8100 -0.5211 -0.4402
  820MPD2    C312118   0.564   4.439  15.229 -0.3343 -1.0054  0.6520
  820MPD2    C412119   0.687   4.484  15.225  0.1413  0.0794  0.2937
  820MPD2    C512120   0.718   4.614  15.177  0.3309  0.2258  0.0742
  820MPD2     H12121   0.356   4.483  15.209  0.5481 -0.0115 -0.9224
  820MPD2    H112122   0.767   4.420  15.260  0.6291  0.1201 -0.7324
  820MPD2    H212123   0.629   0.066  15.139  0.6774  0.1432  0.0287
  820MPD2    H312124   0.819   4.651  15.181  0.3519  0.0835  0.8362
  820MPD2     N12125   0.553   4.317  15.299  0.2402  0.4789  0.2082
  820MPD2    H512126   0.641   4.284  15.337 -0.0188 -0.1250  0.2760
  820MPD2    N112127   0.384   0.019  15.145 -0.4794 -0.5020 -0.1204
  820MPD2    H712128   0.420   0.110  15.119 -1.4874  0.2901  1.2670
  821MPD2     C12129   1.306   0.641  13.352 -0.1387  0.1627 -0.6145
  821MPD2    C112130   1.299   0.684  13.487 -0.5880 -0.4402  0.4038
  821MPD2    C212131   1.375   0.795  13.525  0.4656 -0.2479 -0.8159
  821MPD2    C312132   1.462   0.855  13.437 -0.0450  0.9190  0.5699
  821MPD2    C412133   1.472   0.802  13.307  0.0652 -0.3309 -0.4696
  821MPD2    C512134   1.392   0.699  13.270 -0.5438  0.2675  0.2330
  821MPD2     H12135   1.360   0.842  13.621 -1.3920 -0.1227 -1.1527
  821MPD2    H112136   1.544   0.835  13.234  0.9381 -1.3991 -0.0812
  821MPD2    H212137   1.247   0.557  13.319 -0.4464 -0.6901  2.0540
  821MPD2    H312138   1.409   0.663  13.169 -0.8221 -0.5160  0.4630
  821MPD2     N12139   1.536   0.963  13.470  0.1762 -0.1221 -0.4503
  821MPD2    H512140   1.599   0.996  13.398 -0.0866  2.2619  0.3832
  821MPD2    N112141   1.219   0.630  13.581  0.1756  0.2409 -0.0110
  821MPD2    H712142   1.215   0.681  13.669 -1.1119 -2.8110  1.7272
  822MPD2     C12143   1.671   0.995  15.817 -0.3627  0.6454 -0.0132
  822MPD2    C112144   1.667   0.967  15.953 -0.3185  0.0685  0.3779
  822MPD2    C212145   1.603   1.070  16.032  0.3645 -0.9032 -0.3530
  822MPD2    C312146   1.559   1.187  15.985  0.1752  0.2662 -0.3601
  822MPD2    C412147   1.558   1.207  15.846 -0.4170 -0.6144 -0.2985
  822MPD2    C512148   1.619   1.112  15.770 -0.3020 -0.3741 -0.6011
  822MPD2     H12149   1.576   1.056  16.136  1.3890 -0.3791 -0.0176
  822MPD2    H112150   1.517   1.294  15.798 -0.1989 -0.2339  0.2056
  822MPD2    H212151   1.698   0.919  15.745  0.4363  1.6064 -0.7100
  822MPD2    H312152   1.622   1.130  15.663 -2.1262  1.2386 -0.3701
  822MPD2     N12153   1.490   1.274  16.075 -0.5358  0.1177 -0.1740
  822MPD2    H512154   1.475   1.244  16.171 -0.4043 -0.4817 -0.3378
  822MPD2    N112155   1.716   0.853  16.018  0.9260 -0.3057  0.6408
  822MPD2    H712156   1.714   0.849  16.120  1.5085  0.8595  0.6966
  823MPD2     C12157   1.151   1.647  16.777 -0.1228  0.1927 -0.2619
  823MPD2    C112158   1.197   1.536  16.706  0.1748 -0.4138  0.4501
  823MPD2    C212159   1.207   1.416  16.763 -0.1297 -0.0600  0.7210
  823MPD2    C312160   1.181   1.395  16.897 -0.4184 -0.5890  0.0077
  823MPD2    C412161   1.135   1.509  16.968  0.0110 -0.5345 -0.2176
  823MPD2    C512162   1.129   1.630  16.910  0.1781  0.3148  1.4555
  823MPD2     H12163   1.215   1.327  16.702 -0.8435 -0.0864  0.6644
  823MPD2    H112164   1.106   1.497  17.072 -1.9935  0.1196 -0.7056
  823MPD2    H212165   1.151   1.748  16.738 -2.0101 -0.2621 -1.4133
  823MPD2    H312166   1.095   1.709  16.977  0.8410  1.8821 -0.0609
  823MPD2     N12167   1.196   1.273  16.960  0.5320  0.1423  0.0646
  823MPD2    H512168   1.155   1.272  17.053 -0.4878 -0.4313 -0.3941
  823MPD2    N112169   1.215   1.562  16.569 -0.4293 -0.1515 -0.4023
  823MPD2    H712170   1.201   1.656  16.533  0.3357  0.7726  1.7001
  824MPD2     C12171   1.800   0.007  15.929 -0.3329 -0.2324  0.0878
  824MPD2    C112172   1.882   0.112  15.890  0.5486  0.3645 -0.1071
  824MPD2    C212173   1.979   0.095  15.799  0.2924 -0.2878  0.0140
  824MPD2    C312174   2.015   4.708  15.760 -0.4971  0.0980  0.1757
  824MPD2    C412175   1.944   4.602  15.806  0.4072 -0.4092 -0.1235
  824MPD2    C512176   1.832   4.620  15.886  0.0020 -0.5624  0.3375
  824MPD2     H12177   2.058   0.168  15.780 -0.3014 -0.1337 -1.8625
  824MPD2    H112178   1.969   4.499  15.787  2.3744 -0.0891  0.7699
  824MPD2    H212179   1.705   0.017  15.981  0.0324  0.4051  0.6314
  824MPD2    H312180   1.759   4.543  15.906 -3.2338  3.0752  2.5083
  824MPD2     N12181   2.129   4.685  15.689  0.0320  0.4848  0.4192
  824MPD2    H512182   2.189   0.029  15.690 -1.7303  1.7290  2.3459
  824MPD2    N112183   1.854   0.240  15.937  0.5343  0.6758  0.1396
  824MPD2    H712184   1.913   0.317  15.904  0.0183  1.2993  0.6636
  825MPD2     C12185   2.736   0.276  15.768  0.0029  0.1747 -0.0057
  825MPD2    C112186   2.672   0.280  15.646  0.2759 -0.6594 -0.4986
  825MPD2    C212187   2.660   0.401  15.577  0.0379  0.4314 -0.3954
  825MPD2    C312188   2.723   0.514  15.623  0.3015 -0.5123 -0.0282
  825MPD2    C412189   2.802   0.501  15.737 -0.9108  0.0564 -0.2289
  825MPD2    C512190   2.797   0.386  15.813  0.1686  0.0091 -0.2590
  825MPD2     H12191   2.616   0.398  15.478  0.2080  0.5495 -0.4751
  825MPD2    H112192   2.837   0.592  15.784  0.5201 -0.2150 -0.7494
  825MPD2    H212193   2.738   0.181  15.820 -1.9644  0.2510  0.1971
  825MPD2    H312194   2.841   0.380  15.912  1.6533 -1.1541 -0.9817
  825MPD2     N12195   2.722   0.643  15.563 -0.3532 -0.2763 -0.0544
  825MPD2    H512196   2.777   0.719  15.602 -1.3383  1.7964 -2.7309
  825MPD2    N112197   2.620   0.156  15.598 -0.7335  0.8944 -0.0338
  825MPD2    H712198   2.626   0.075  15.660  1.5419  2.6254  2.0237
  826MPD2     C12199   2.680   0.219  14.173 -0.0948  0.2674  0.1145
  826MPD2    C112200   2.711   0.287  14.059  0.0228 -0.0026 -0.4219
  826MPD2    C212201   2.644   0.412  14.033 -0.5288  0.5002  0.2582
  826MPD2    C312202   2.553   0.465  14.127 -0.5670 -0.1599  0.4576
  826MPD2    C412203   2.521   0.388  14.239 -0.8319 -0.3269  0.6468
  826MPD2    C512204   2.592   0.272  14.265  0.7723 -0.6224  0.1671
  826MPD2     H12205   2.674   0.473  13.948 -0.7059  2.0511  1.3085
  826MPD2    H112206   2.436   0.418  14.301 -2.5970  0.8175 -2.3420
  826MPD2    H212207   2.717   0.119  14.193  2.2146  1.4100  1.5073
  826MPD2    H312208   2.558   0.216  14.351  0.2543 -1.1341 -0.3736
  826MPD2     N12209   2.473   0.580  14.113 -0.2916 -0.1253 -0.0284
  826MPD2    H512210   2.405   0.598  14.187 -0.8019 -2.8150  0.1648
  826MPD2    N112211   2.809   0.227  13.975  0.7943  0.5760 -0.7923
  826MPD2    H712212   2.872   0.154  14.010 -0.3083  0.3409  0.6869
  827MPD2     C12213   3.645   2.240   9.973  0.1791 -0.5198 -0.1379
  827MPD2    C112214   3.562   2.169  10.057  0.0954 -0.0589  0.0941
  827MPD2    C212215   3.429   2.164  10.037 -0.1037  0.1438  0.4979
  827MPD2    C312216   3.375   2.221   9.933  0.0025  0.1249  0.3871
  827MPD2    C412217   3.458   2.278   9.835 -0.2881 -0.4443  0.0845
  827MPD2    C512218   3.597   2.292   9.857 -0.0185  0.0843 -0.4385
  827MPD2     H12219   3.360   2.114  10.104 -0.9370 -1.0016 -1.2243
  827MPD2    H112220   3.414   2.315   9.743 -2.6846  1.3748  1.9608
  827MPD2    H212221   3.748   2.263  10.000 -0.9870  2.5667  1.7608
  827MPD2    H312222   3.674   2.324   9.787 -1.7600 -0.9759 -2.8239
  827MPD2     N12223   3.242   2.194   9.903  0.2432  0.1266 -0.2156
  827MPD2    H512224   3.186   2.130   9.958 -0.5619  2.5968  1.7971
  827MPD2    N112225   3.618   2.103  10.169 -0.6436  0.3054  0.1284
  827MPD2    H712226   3.719   2.105  10.166 -0.5846 -2.8046  0.4360
  828MPD2     C12227   1.934   1.968  12.426 -0.1427  0.0363 -0.8458
  828MPD2    C112228   1.816   1.986  12.358  0.1487 -0.4860  0.4093
  828MPD2    C212229   1.814   2.002  12.221 -0.3561  0.1033  0.0146
  828MPD2    C312230   1.927   1.997  12.146 -0.8041  0.4078 -0.1772
  828MPD2    C412231   2.048   1.982  12.212  0.2117  1.0684 -0.1763
  828MPD2    C512232   2.051   1.972  12.352  0.4796  0.7977 -0.5272
  828MPD2     H12233   1.718   2.020  12.174 -0.0601  0.6772 -0.3794
  828MPD2    H112234   2.145   1.965  12.167 -0.8837 -0.4931 -1.9192
  828MPD2    H212235   1.944   1.954  12.533  2.3791  0.5537 -1.0017
  828MPD2    H312236   2.142   1.950  12.407  0.5919  2.8147  0.0878
  828MPD2     N12237   1.926   1.991  12.003 -0.6768 -0.2702 -0.2120
  828MPD2    H512238   2.003   1.936  11.967 -0.9070  0.0882 -1.2302
  828MPD2    N112239   1.695   2.006  12.436 -0.7889 -0.2078 -0.9607
  828MPD2    H712240   1.604   2.013  12.392 -0.7090 -2.7460 -1.5429
  829MPD2     C12241   1.075   2.395  12.117  0.9972  0.6231 -0.3364
  829MPD2    C112242   1.000   2.340  12.218  0.0694 -0.6080 -0.5256
  829MPD2    C212243   1.061   2.274  12.319  0.0582  0.2338  0.2920
  829MPD2    C312244   1.199   2.254  12.315 -0.0922  0.1491 -0.8792
  829MPD2    C412245   1.275   2.294  12.207  0.1388  0.6012 -0.8032
  829MPD2    C512246   1.212   2.376  12.110  0.6141  0.6644  0.0121
  829MPD2     H12247   1.000   2.231  12.398 -1.4411 -0.9436 -1.5156
  829MPD2    H112248   1.381   2.271  12.211 -0.1269 -0.6941 -1.1158
  829MPD2    H212249   1.030   2.455  12.039 -0.6017  2.5719  2.1057
  829MPD2    H312250   1.271   2.416  12.028  0.7329  0.7445  0.1365
  829MPD2     N12251   1.258   2.184  12.420 -0.2596 -0.5031 -0.5068
  829MPD2    H512252   1.350   2.142  12.407 -0.3753 -0.8949 -0.0368
  829MPD2    N112253   0.860   2.357  12.211 -0.6450  0.1708  0.3353
  829MPD2    H712254   0.818   2.385  12.123  1.0690 -0.7350 -0.7486
  830MPD2     C12255   1.822   4.194  15.940  0.0669  0.6681 -0.3768
  830MPD2    C112256   1.717   4.276  15.898  0.4036  0.1716 -0.9163
  830MPD2    C212257   1.702   4.313  15.763 -0.7495  0.3683 -0.0246
  830MPD2    C312258   1.799   4.278  15.663  0.2634 -0.6542 -0.3998
  830MPD2    C412259   1.902   4.202  15.706 -1.0041  0.4556 -0.2612
  830MPD2    C512260   1.915   4.162  15.840  0.0015 -0.1235 -0.2543
  830MPD2     H12261   1.616   4.371  15.734 -0.4513  0.7589 -0.1177
  830MPD2    H112262   1.984   4.174  15.640 -1.2706  2.0205 -1.2438
  830MPD2    H212263   1.830   4.156  16.041 -3.0423 -0.9855 -0.7498
  830MPD2    H312264   1.999   4.094  15.848 -0.1258 -0.4287 -1.5194
  830MPD2     N12265   1.797   4.315  15.525  0.0347  0.0812  0.1123
  830MPD2    H512266   1.870   4.277  15.466  0.1241  0.6501 -0.1485
  830MPD2    N112267   1.627   4.311  16.003 -0.1938 -0.2478  0.6728
  830MPD2    H712268   1.651   4.267  16.092 -0.1416 -2.0351 -0.2344
  831MPD2     C12269   1.723   1.402  16.361  0.1692  0.0366 -0.1093
  831MPD2    C112270   1.738   1.271  16.327 -0.0469  0.2083 -0.2606
  831MPD2    C212271   1.653   1.180  16.392  0.7313  0.6733 -0.7808
  831MPD2    C312272   1.556   1.221  16.483 -0.1266 -0.0066 -1.0490
  831MPD2    C412273   1.556   1.349  16.527  0.2274  0.3203  0.3095
  831MPD2    C512274   1.632   1.439  16.460 -0.2179 -0.3125 -0.0191
  831MPD2     H12275   1.663   1.080  16.351 -0.9585 -0.2163  0.9355
  831MPD2    H112276   1.499   1.382  16.613  1.0717 -1.3229  1.4930
  831MPD2    H212277   1.769   1.485  16.309 -0.2990  0.9168  0.8866
  831MPD2    H312278   1.631   1.542  16.493  0.0169 -1.4092  3.4224
  831MPD2     N12279   1.464   1.134  16.543  0.0460 -0.4070 -0.1935
  831MPD2    H512280   1.393   1.178  16.601  0.6050 -1.6899  1.4559
  831MPD2    N112281   1.845   1.236  16.242 -0.0948  0.1042 -0.1069
  831MPD2    H712282   1.900   1.312  16.203  1.2092 -0.5577  0.4218
  832MPD2     C12283   0.206   2.707  17.170  0.4569  0.2577 -0.5693
  832MPD2    C112284   0.101   2.783  17.207 -0.5161  0.4225  0.2790
  832MPD2    C212285   4.713   2.765  17.156  0.1580  0.2062  0.3633
  832MPD2    C312286   4.684   2.659  17.074  0.0361  0.0668  0.1987
  832MPD2    C412287   0.048   2.566  17.052 -0.2028  0.1576 -0.8802
  832MPD2    C512288   0.180   2.597  17.093 -0.8133  0.6967  0.4371
  832MPD2     H12289   4.645   2.847  17.178  0.8220  0.9846 -0.4966
  832MPD2    H112290   0.031   2.473  16.999  0.0573  1.2361 -2.8617
  832MPD2    H212291   0.303   2.715  17.218  1.2326 -0.2258 -2.0607
  832MPD2    H312292   0.263   2.532  17.069  0.6653  2.7482 -0.0714
  832MPD2     N12293   4.553   2.623  17.024  0.0320  0.3743  0.0157
  832MPD2    H512294   4.533   2.532  16.985 -1.0956  1.0583 -1.0073
  832MPD2    N112295   0.127   2.902  17.290 -0.6809  0.1668 -0.4503
  832MPD2    H712296   0.050   2.959  17.326 -2.1788 -2.7705  0.9472
  833MPD2     C12297   2.515   4.069  12.661  0.7100 -0.2608 -0.0977
  833MPD2    C112298   2.450   4.174  12.603  0.1952  0.0727  0.9981
  833MPD2    C212299   2.479   4.208  12.476  0.6443 -0.8627 -0.6750
  833MPD2    C312300   2.554   4.120  12.398 -0.4831  0.3193  0.0507
  833MPD2    C412301   2.610   4.003  12.455  0.1761  0.1741  0.2666
  833MPD2    C512302   2.592   3.983  12.593  0.1789 -0.7331 -1.1223
  833MPD2     H12303   2.439   4.301  12.437 -0.9982 -0.5421  1.7563
  833MPD2    H112304   2.650   3.930  12.387 -2.2453 -1.0355  0.1222
  833MPD2    H212305   2.498   4.036  12.763  2.8921  1.6868  0.8735
  833MPD2    H312306   2.630   3.893  12.641 -0.3045 -0.8073 -0.8799
  833MPD2     N12307   2.603   4.152  12.263 -0.6644  0.3304 -0.4825
  833MPD2    H512308   2.673   4.084  12.233  0.3642  0.3099  1.9718
  833MPD2    N112309   2.374   4.268  12.667 -0.3142  0.0950 -0.4997
  833MPD2    H712310   2.339   4.341  12.606 -0.2872  0.3452 -0.2217
  834MPD2     C12311   2.446   3.624  11.613  0.8457 -0.2460  0.7171
  834MPD2    C112312   2.488   3.727  11.531 -0.0020 -0.2721 -0.0908
  834MPD2    C212313   2.503   3.855  11.588  0.5393  0.3243  0.6607
  834MPD2    C312314   2.474   3.863  11.722  0.3185  0.3627 -0.0341
  834MPD2    C412315   2.430   3.758  11.796 -0.6802  0.0941  0.2463
  834MPD2    C512316   2.411   3.636  11.746  0.5039 -0.4521  0.1015
  834MPD2     H12317   2.523   3.940  11.524  3.9798 -1.8705 -1.1666
  834MPD2    H112318   2.424   3.773  11.903  0.4691 -0.4523  0.3844
  834MPD2    H212319   2.442   3.523  11.575 -0.9307  0.4720 -1.0032
  834MPD2    H312320   2.401   3.554  11.816 -1.8959 -0.1394  0.1314
  834MPD2     N12321   2.494   3.981  11.790 -0.5918  0.0284 -0.3940
  834MPD2    H512322   2.467   3.968  11.887  0.9584 -5.2226 -0.7000
  834MPD2    N112323   2.519   3.693  11.396  0.1394  0.3133 -0.4682
  834MPD2    H712324   2.490   3.599  11.370 -0.6427  0.5341 -0.3972
  835MPD2     C12325   2.804   1.564  11.205 -0.1432 -0.0206 -0.2903
  835MPD2    C112326   2.678   1.587  11.262 -0.7244  1.4095 -0.3041
  835MPD2    C212327   2.668   1.551  11.398  0.1931  0.3667  0.3946
  835MPD2    C312328   2.770   1.489  11.469 -0.0614 -0.1043 -0.8045
  835MPD2    C412329   2.885   1.449  11.401  0.2532  0.0155 -0.5138
  835MPD2    C512330   2.895   1.485  11.273  0.0338  0.2454  0.3688
  835MPD2     H12331   2.576   1.569  11.452  1.1910  0.1187  2.1698
  835MPD2    H112332   2.967   1.389  11.439  0.0743  1.4052  2.0407
  835MPD2    H212333   2.824   1.588  11.101 -1.9916  1.7049 -0.2411
  835MPD2    H312334   2.983   1.449  11.221  0.1439 -0.5235  1.0831
  835MPD2     N12335   2.756   1.455  11.606 -0.9310 -0.0796 -0.1287
  835MPD2    H512336   2.825   1.394  11.648 -1.5544  0.0269  1.0394
  835MPD2    N112337   2.568   1.639  11.193  0.2834  0.4421  0.0737
  835MPD2    H712338   2.484   1.661  11.246  0.0164  2.1397 -1.0687
  836MPD2     C12339   2.628   1.768  12.429 -0.3802 -0.1398 -0.1020
  836MPD2    C112340   2.544   1.693  12.348  0.5674  0.9138 -0.1084
  836MPD2    C212341   2.412   1.669  12.383  0.4389 -0.0216  0.7678
  836MPD2    C312342   2.363   1.734  12.500  0.6387  0.0971  0.9556
  836MPD2    C412343   2.454   1.818  12.580  0.4591  0.7013  0.1724
  836MPD2    C512344   2.585   1.823  12.542 -0.1158  0.8435 -0.1016
  836MPD2     H12345   2.343   1.615  12.319  0.8823 -1.5758  1.6135
  836MPD2    H112346   2.432   1.866  12.675  1.3614 -0.6084  1.0404
  836MPD2    H212347   2.733   1.762  12.401 -0.3407 -3.2893  0.7376
  836MPD2    H312348   2.650   1.882  12.606  0.4718 -0.9557  0.9709
  836MPD2     N12349   2.231   1.711  12.542  0.1121  0.6268 -0.1793
  836MPD2    H512350   2.202   1.766  12.622  1.0185  0.2557  0.4017
  836MPD2    N112351   2.608   1.643  12.235 -0.7316  0.2723  0.5522
  836MPD2    H712352   2.706   1.667  12.224 -1.2424  1.6596 -0.8859
  837MPD2     C12353   1.094   1.868  10.176 -0.2217  0.4115  0.2838
  837MPD2    C112354   0.998   1.918  10.088  0.4871  0.8840 -0.7560
  837MPD2    C212355   0.979   2.052  10.063 -0.4147 -0.6834  0.6981
  837MPD2    C312356   1.059   2.138  10.139  0.3904  0.2453 -0.0202
  837MPD2    C412357   1.161   2.087  10.217  0.8882  0.1242 -0.0817
  837MPD2    C512358   1.174   1.959  10.243  0.2271 -0.2020 -0.7164
  837MPD2     H12359   0.910   2.087   9.988 -0.9421 -1.1303  0.9705
  837MPD2    H112360   1.215   2.153  10.283 -0.9530 -1.2382  2.7699
  837MPD2    H212361   1.099   1.760  10.181  1.1758  0.5174  0.9909
  837MPD2    H312362   1.236   1.923  10.325 -0.6553  2.4888  1.1218
  837MPD2     N12363   1.037   2.273  10.120 -0.5876 -0.2186  0.2416
  837MPD2    H512364   0.958   2.297  10.060 -0.7518 -1.1434  0.0921
  837MPD2    N112365   0.904   1.844  10.027 -0.1361 -0.3376 -0.3271
  837MPD2    H712366   0.856   1.897   9.955 -2.4426  0.6607  1.9233
  838MPD2     C12367   3.560   0.045  11.695  0.0542 -0.1391  0.3823
  838MPD2    C112368   3.631   4.698  11.623  0.0607  0.1936  0.1462
  838MPD2    C212369   3.586   4.569  11.613 -0.4533  0.0117  0.4879
  838MPD2    C312370   3.470   4.526  11.681  0.6936 -0.0286 -0.1992
  838MPD2    C412371   3.395   4.612  11.758  0.2751  0.2985  0.0769
  838MPD2    C512372   3.447   0.003  11.763 -0.1856 -0.2382 -0.4636
  838MPD2     H12373   3.654   4.501  11.563  2.7722  3.0303  0.6878
  838MPD2    H112374   3.297   4.592  11.799  0.8927 -0.3595  1.2443
  838MPD2    H212375   3.591   0.147  11.714 -1.3665  0.8245 -2.5924
  838MPD2    H312376   3.395   0.084  11.812  0.5444  0.2141 -0.4352
  838MPD2     N12377   3.409   4.398  11.662  0.8007  0.0825 -0.4706
  838MPD2    H512378   3.320   4.373  11.703  1.1450 -0.6786 -0.1984
  838MPD2    N112379   3.748   4.736  11.554 -0.1405  0.4087 -0.3745
  838MPD2    H712380   3.804   4.663  11.512 -1.0212 -1.2956  1.4316
  839MPD2     C12381   4.086   4.305  10.760  1.4585 -0.3315 -0.6450
  839MPD2    C112382   3.996   4.287  10.868  0.6920 -0.7367  0.6395
  839MPD2    C212383   3.988   4.397  10.949 -0.1205 -0.0644 -0.1778
  839MPD2    C312384   4.063   4.508  10.934 -0.1521 -0.1244  0.5332
  839MPD2    C412385   4.152   4.524  10.827  0.0546  0.7766 -0.5068
  839MPD2    C512386   4.160   4.419  10.745 -0.0069 -0.2524  0.2349
  839MPD2     H12387   3.900   4.407  11.011 -0.3750 -0.0079 -0.5488
  839MPD2    H112388   4.226   4.601  10.807 -0.0224  0.2540 -2.8024
  839MPD2    H212389   4.081   4.238  10.676 -0.0322  0.0072 -0.8217
  839MPD2    H312390   4.222   4.438  10.658 -1.1046  2.7155  0.0987
  839MPD2     N12391   4.050   4.627  11.019 -0.3199 -0.2629  0.3377
  839MPD2    H512392   4.088   4.712  10.979  0.3441 -0.4383  0.5947
  839MPD2    N112393   3.907   4.175  10.870  0.0740 -0.2958  0.0932
  839MPD2    H712394   3.931   4.101  10.805  0.2468  0.0620 -0.2553
  840MPD2     C12395   4.189   2.189  10.239  0.9964 -0.2234  0.5101
  840MPD2    C112396   4.166   2.127  10.352 -0.7313 -0.0925  0.3682
  840MPD2    C212397   4.245   2.154  10.457 -0.0019 -0.0750  0.2357
  840MPD2    C312398   4.357   2.240  10.450 -0.3478 -0.6333  0.4417
  840MPD2    C412399   4.387   2.296  10.325 -0.1033  0.2914 -0.2654
  840MPD2    C512400   4.306   2.264  10.218 -0.3996 -0.6735 -0.8312
  840MPD2     H12401   4.223   2.105  10.552  0.3547 -0.7665 -0.0368
  840MPD2    H112402   4.481   2.347  10.311 -0.1032  0.3869  0.0786
  840MPD2    H212403   4.119   2.173  10.157  0.9264 -0.0870  0.5421
  840MPD2    H312404   4.325   2.304  10.119  2.9701  3.0129  1.2879
  840MPD2     N12405   4.438   2.279  10.560 -0.1301 -0.0134  0.6545
  840MPD2    H512406   4.517   2.339  10.543  0.9952 -1.9774 -0.9782
  840MPD2    N112407   4.047   2.058  10.362  0.1455  0.1982  0.1919
  840MPD2    H712408   4.000   2.073  10.273  0.3594  0.6883  0.1648
  841MPD2     C12409   3.514   1.807  14.259  0.3332 -0.3467  0.5826
  841MPD2    C112410   3.594   1.696  14.282  0.6085  0.1228 -1.0355
  841MPD2    C212411   3.724   1.726  14.331  0.0992 -0.1810 -0.7715
  841MPD2    C312412   3.760   1.853  14.370 -0.2111 -0.3022  0.2848
  841MPD2    C412413   3.672   1.958  14.348 -0.1335 -0.0579  0.5419
  841MPD2    C512414   3.549   1.929  14.302 -0.1311 -0.3540  0.6861
  841MPD2     H12415   3.785   1.640  14.354  0.5110  0.1399 -0.6823
  841MPD2    H112416   3.688   2.062  14.372 -2.0255  0.3112  0.2551
  841MPD2    H212417   3.418   1.800  14.207 -0.7327  1.1591  2.3807
  841MPD2    H312418   3.479   2.011  14.299 -1.5462 -1.5640  0.9335
  841MPD2     N12419   3.886   1.864  14.427  0.9630 -0.2707 -0.2527
  841MPD2    H512420   3.945   1.781  14.425 -0.6832 -1.4334 -0.3045
  841MPD2    N112421   3.568   1.561  14.250 -0.5594 -0.1470  0.3087
  841MPD2    H712422   3.648   1.500  14.252  0.0759  0.7029  0.9136
  842MPD2     C12423   3.750   2.828  16.499 -0.0019 -0.4208  0.4588
  842MPD2    C112424   3.671   2.714  16.482 -0.1416  0.1943  0.8475
  842MPD2    C212425   3.658   2.623  16.589 -0.1619 -0.2246 -0.6292
  842MPD2    C312426   3.746   2.645  16.696  0.3871  0.6555  0.0867
  842MPD2    C412427   3.821   2.755  16.711 -0.0276 -0.3282 -0.0746
  842MPD2    C512428   3.823   2.850  16.614 -0.4197 -0.1290 -0.3964
  842MPD2     H12429   3.616   2.527  16.564 -0.6131  0.0430 -0.9052
  842MPD2    H112430   3.862   2.784  16.807  1.4162 -0.2644 -0.7253
  842MPD2    H212431   3.759   2.902  16.420  0.4804  0.4935  1.3722
  842MPD2    H312432   3.894   2.928  16.638  0.5772 -0.6903 -1.5317
  842MPD2     N12433   3.748   2.561  16.814 -0.9691  0.2156 -0.0415
  842MPD2    H512434   3.810   2.583  16.892  0.0195 -1.9917 -0.2289
  842MPD2    N112435   3.599   2.704  16.359 -0.6796 -0.5604 -0.3644
  842MPD2    H712436   3.594   2.790  16.304 -3.6075  0.1129  0.9271
  843MPD2     C12437   1.116   3.672   0.127 -0.2403 -0.1545 -0.1935
  843MPD2    C112438   1.077   3.781   0.067 -0.8257 -0.6144 -0.4549
  843MPD2    C212439   1.137   3.906   0.107 -0.4385 -0.0929 -0.1707
  843MPD2    C312440   1.244   3.901   0.202  0.8005 -0.7917 -0.0188
  843MPD2    C412441   1.284   3.777   0.246  0.0618  0.6817  0.1769
  843MPD2    C512442   1.220   3.661   0.213 -0.1229 -0.2762 -0.3582
  843MPD2     H12443   1.090   3.997   0.074  0.6061 -0.5183 -2.7735
  843MPD2    H112444   1.365   3.779   0.319 -1.0419 -0.1078  1.4097
  843MPD2    H212445   1.067   3.575   0.122  0.6020 -0.5368 -0.9847
  843MPD2    H312446   1.244   3.567   0.261  1.4148  0.1218 -0.3658
  843MPD2     N12447   1.305   4.017   0.251 -0.1301 -0.0840  0.3810
  843MPD2    H512448   1.366   4.007   0.331  0.6165 -0.3811 -0.2207
  843MPD2    N112449   0.959   3.770  17.742 -0.7404 -0.2154 -0.3138
  843MPD2    H712450   0.917   3.678   0.001 -0.6503 -0.1306  0.7246
  844MPD2     C12451   4.619   2.408  16.584 -0.6233 -0.3043  0.1355
  844MPD2    C112452   0.007   2.392  16.531 -0.3011  0.2679  0.0720
  844MPD2    C212453   0.113   2.465  16.565 -0.2085 -0.0423 -0.1772
  844MPD2    C312454   0.099   2.564  16.657  0.3873  0.6330 -0.6690
  844MPD2    C412455   4.713   2.586  16.709 -0.3039 -0.2112 -0.6291
  844MPD2    C512456   4.603   2.513  16.667 -0.3021 -0.4013 -0.2402
  844MPD2     H12457   0.205   2.438  16.515 -0.5306  0.9125 -1.2888
  844MPD2    H112458   4.703   2.666  16.782  1.6744  0.2141 -0.8303
  844MPD2    H212459   4.533   2.346  16.564  0.5259 -1.0585 -2.4734
  844MPD2    H312460   4.511   2.526  16.723 -0.1745 -1.2779  0.1816
  844MPD2     N12461   0.217   2.636  16.702 -0.0607 -0.2649 -0.5970
  844MPD2    H512462   0.305   2.600  16.667 -0.2656 -0.9404 -0.4178
  844MPD2    N112463   0.037   2.286  16.446 -0.5389 -0.1375 -0.6170
  844MPD2    H712464   0.130   2.274  16.406 -1.0350  0.1629 -1.8535
  845MPD2     C12465   0.380   3.567  16.970  0.3565  0.1625  0.1677
  845MPD2    C112466   0.278   3.494  17.035  0.1342  0.3129 -0.2035
  845MPD2    C212467   0.292   3.354  17.045 -0.8506 -0.1292 -0.2097
  845MPD2    C312468   0.406   3.296  16.986  0.5722  0.8265  0.5556
  845MPD2    C412469   0.506   3.372  16.923  1.0896  0.4127 -0.3161
  845MPD2    C512470   0.492   3.509  16.913  0.2343  0.2554 -0.1112
  845MPD2     H12471   0.218   3.291  17.092 -0.5411 -1.2899 -1.2748
  845MPD2    H112472   0.588   3.323  16.873 -0.2609  0.6415 -2.7752
  845MPD2    H212473   0.374   3.675  16.968  0.7042  0.2171  1.7593
  845MPD2    H312474   0.571   3.566  16.866  2.5910 -2.0257  1.0636
  845MPD2     N12475   0.411   3.157  16.980 -0.2681  0.0919  0.0895
  845MPD2    H512476   0.329   3.102  17.002  0.8725  0.0254  4.0929
  845MPD2    N112477   0.162   3.558  17.083 -0.7493 -0.1654 -0.4213
  845MPD2    H712478   0.166   3.659  17.093  1.5261 -0.1962 -1.0950
  846MPD2     C12479   1.121   3.702  13.576 -0.5797 -0.1621  0.3732
  846MPD2    C112480   1.228   3.637  13.629  0.2063  0.1689  0.0427
  846MPD2    C212481   1.237   3.625  13.767  0.5268  0.0006 -0.0131
  846MPD2    C312482   1.139   3.674  13.851  0.3430 -0.3456  0.3687
  846MPD2    C412483   1.032   3.742  13.793 -0.3574  0.2029  0.1301
  846MPD2    C512484   1.021   3.761  13.659 -0.1043  0.2850 -0.3356
  846MPD2     H12485   1.329   3.592  13.814  0.8067  0.8124 -0.0007
  846MPD2    H112486   0.949   3.781  13.851 -1.9893 -2.0058 -0.7461
  846MPD2    H212487   1.108   3.718  13.470 -4.1265  1.0069  0.9849
  846MPD2    H312488   0.943   3.825  13.620 -0.4350  0.1939  0.1888
  846MPD2     N12489   1.157   3.654  13.992 -0.0930  0.1604 -0.4087
  846MPD2    H512490   1.221   3.582  14.023 -0.0180  0.4913  0.2087
  846MPD2    N112491   1.344   3.613  13.547 -0.2804 -0.3299 -0.4549
  846MPD2    H712492   1.427   3.580  13.596  0.3868  1.4366 -0.4016
  847MPD2     C12493   1.930   4.329  14.217  0.2680 -0.2397 -0.0278
  847MPD2    C112494   2.045   4.389  14.258  0.2507  0.0684  0.2828
  847MPD2    C212495   2.122   4.326  14.359  0.4976  0.1959  0.0955
  847MPD2    C312496   2.095   4.201  14.402 -0.1375  0.0533  0.1180
  847MPD2    C412497   1.977   4.144  14.363  1.0122 -0.5476 -0.6331
  847MPD2    C512498   1.895   4.211  14.268 -0.0057 -0.5102 -0.6941
  847MPD2     H12499   2.203   4.386  14.398 -0.8060  2.0901 -0.1017
  847MPD2    H112500   1.944   4.045  14.393  1.1907 -0.9682 -1.8371
  847MPD2    H212501   1.867   4.363  14.135  0.7957  0.5974 -0.0795
  847MPD2    H312502   1.802   4.169  14.233  0.2177 -0.3934 -1.4263
  847MPD2     N12503   2.180   4.143  14.496  0.0904 -0.1217  0.0611
  847MPD2    H512504   2.252   4.202  14.537  0.0529 -0.0265 -0.0094
  847MPD2    N112505   2.100   4.512  14.207  0.2555  0.3459  0.2870
  847MPD2    H712506   2.199   4.530  14.218  0.0269 -0.1032  3.0373
  848MPD2     C12507   4.318   2.852  16.353  0.3756  0.5107 -0.6128
  848MPD2    C112508   4.245   2.903  16.463 -0.8414 -0.5110  0.5573
  848MPD2    C212509   4.189   3.032  16.461  0.2747  0.2834 -0.5495
  848MPD2    C312510   4.192   3.107  16.342 -0.3275  0.0638 -0.0651
  848MPD2    C412511   4.259   3.050  16.240 -0.4500  0.4360  0.2326
  848MPD2    C512512   4.327   2.932  16.243 -0.6633  0.5147 -0.1560
  848MPD2     H12513   4.127   3.065  16.543 -0.0962 -0.3948 -0.5641
  848MPD2    H112514   4.256   3.098  16.143  3.4510  1.0393  0.3723
  848MPD2    H212515   4.364   2.754  16.349 -0.5270  0.0589 -0.0995
  848MPD2    H312516   4.380   2.901  16.154  0.4802  0.4419  0.5575
  848MPD2     N12517   4.123   3.227  16.320  0.2795 -0.5250  0.3726
  848MPD2    H512518   4.147   3.264  16.229 -1.6709  0.0945  0.1292
  848MPD2    N112519   4.228   2.835  16.581 -0.5464 -1.2521  0.1902
  848MPD2    H712520   4.187   2.883  16.660  3.7530  2.2841  0.2610
  849MPD2     C12521   3.595   2.389  14.102  0.1960 -0.8871  0.5909
  849MPD2    C112522   3.681   2.438  14.012 -0.2652  0.0248 -0.3036
  849MPD2    C212523   3.812   2.458  14.050  0.2957 -0.2921  0.4212
  849MPD2    C312524   3.859   2.416  14.172  0.0032 -0.7280 -0.4529
  849MPD2    C412525   3.772   2.358  14.261 -0.1201  0.0257  0.0554
  849MPD2    C512526   3.640   2.340  14.220 -0.2414 -0.3729  0.0067
  849MPD2     H12527   3.874   2.501  13.972 -1.8332 -2.1876 -2.3250
  849MPD2    H112528   3.801   2.314  14.355  1.0840  1.0270  0.1594
  849MPD2    H212529   3.489   2.386  14.080  0.0410 -0.4355  1.2576
  849MPD2    H312530   3.566   2.294  14.285  1.4233 -1.1358  1.3825
  849MPD2     N12531   3.991   2.442  14.197  0.2908  0.3424  1.1413
  849MPD2    H512532   4.053   2.451  14.117 -2.6344  1.5117 -0.9984
  849MPD2    N112533   3.634   2.473  13.880 -0.5160 -0.3758  0.6102
  849MPD2    H712534   3.534   2.488  13.869 -0.5597  0.9325  2.6728
  850MPD2     C12535   1.731   0.539  14.541  0.0925  0.0713 -0.2310
  850MPD2    C112536   1.698   0.569  14.671  0.2781 -0.0470  0.2652
  850MPD2    C212537   1.800   0.562  14.766  0.2920  0.0605 -0.5328
  850MPD2    C312538   1.936   0.527  14.727  0.2617 -0.0389  0.1440
  850MPD2    C412539   1.958   0.508  14.594  0.0281 -0.1929 -0.0243
  850MPD2    C512540   1.858   0.510  14.504 -0.5934  0.4236 -0.9412
  850MPD2     H12541   1.788   0.596  14.868 -0.1178 -0.2500 -0.4754
  850MPD2    H112542   2.055   0.480  14.554 -0.4298 -1.9784  0.0922
  850MPD2    H212543   1.655   0.529  14.464 -2.7808  0.2446  2.5766
  850MPD2    H312544   1.869   0.499  14.397  0.7825 -0.7976 -0.6678
  850MPD2     N12545   2.042   0.520  14.822 -0.5624 -0.3676  0.2105
  850MPD2    H512546   2.138   0.501  14.793 -0.7709 -0.0470 -0.6745
  850MPD2    N112547   1.568   0.616  14.697 -0.2031 -0.2682 -0.2151
  850MPD2    H712548   1.503   0.622  14.619 -0.0344  2.6255 -0.1414
  851MPD2     C12549   1.961   0.167  14.873 -0.4631 -0.7816  0.3661
  851MPD2    C112550   1.875   0.165  14.982 -0.2555 -0.0777  0.5602
  851MPD2    C212551   1.868   0.055  15.058  0.1847 -0.2593  0.5282
  851MPD2    C312552   1.947   4.678  15.032  0.6882 -0.4219 -0.0204
  851MPD2    C412553   2.020   4.677  14.916 -0.1431  0.1528 -0.1358
  851MPD2    C512554   2.038   0.053  14.842  0.1330 -0.1030 -0.0179
  851MPD2     H12555   1.804   0.049  15.145 -0.2917  2.7691  0.3797
  851MPD2    H112556   2.078   4.591  14.887  0.1952  0.4251 -0.2663
  851MPD2    H212557   1.967   0.257  14.814 -2.2400  1.6704  3.9535
  851MPD2    H312558   2.109   0.050  14.760 -0.2936  1.7153 -0.4737
  851MPD2     N12559   1.930   4.565  15.112  0.5628  0.2223 -0.0230
  851MPD2    H512560   1.868   4.583  15.190  0.9080 -0.3928  0.4001
  851MPD2    N112561   1.775   0.272  14.992 -0.0713  0.4079  0.6626
  851MPD2    H712562   1.772   0.331  14.910 -2.3328 -0.2484  0.2633
  852MPD2     C12563   1.481   3.474   9.833 -0.5925 -0.2072 -0.2850
  852MPD2    C112564   1.350   3.516   9.814  0.2578 -0.4121  0.4102
  852MPD2    C212565   1.327   3.638   9.750  0.2258  0.3410 -0.3527
  852MPD2    C312566   1.437   3.717   9.716  0.0640  0.1834  0.1402
  852MPD2    C412567   1.562   3.673   9.741 -0.2389  0.4539 -0.0249
  852MPD2    C512568   1.584   3.547   9.787 -0.2268 -0.2472 -0.4813
  852MPD2     H12569   1.223   3.668   9.735  0.3408  1.9150  2.0265
  852MPD2    H112570   1.647   3.733   9.711 -1.6497  2.2886 -0.3535
  852MPD2    H212571   1.513   3.381   9.877 -0.8679  0.2443  0.8738
  852MPD2    H312572   1.682   3.503   9.798 -0.0264 -0.2991 -2.3575
  852MPD2     N12573   1.406   3.849   9.678 -0.1371 -0.0679  0.0827
  852MPD2    H512574   1.306   3.868   9.675 -0.2686 -0.6595  0.5472
  852MPD2    N112575   1.233   3.455   9.864 -0.1371  0.3072 -0.3851
  852MPD2    H712576   1.149   3.497   9.825  0.9385  1.2266 -1.6837
  853MPD2     C12577   3.548   2.757  12.392 -0.0147  0.1721 -0.3059
  853MPD2    C112578   3.524   2.890  12.359 -0.1869  0.6112 -0.2584
  853MPD2    C212579   3.532   2.924  12.225  0.3572  0.4130 -0.7766
  853MPD2    C312580   3.572   2.831  12.126  0.5253 -0.3039  0.2011
  853MPD2    C412581   3.590   2.701  12.158  0.1271 -0.1139 -0.3652
  853MPD2    C512582   3.580   2.667  12.293 -0.4998  0.0847  0.0359
  853MPD2     H12583   3.524   3.031  12.210 -0.4095  0.2877 -1.2322
  853MPD2    H112584   3.619   2.629  12.082  1.5128 -0.3573  0.3972
  853MPD2    H212585   3.550   2.724  12.496 -0.8699 -0.6332 -0.5452
  853MPD2    H312586   3.600   2.566  12.326  0.4728  0.1060 -0.4617
  853MPD2     N12587   3.597   2.869  11.996 -0.2672  0.3516  0.1695
  853MPD2    H512588   3.633   2.791  11.943  0.7755  1.2894 -0.4998
  853MPD2    N112589   3.489   2.983  12.463 -0.2566 -0.4964 -0.7331
  853MPD2    H712590   3.473   2.948  12.557  1.1279  2.1925  0.5077
  854MPD2     C12591   0.256   3.076  12.403  0.7778  0.3764  0.4659
  854MPD2    C112592   0.261   3.193  12.477  1.0888  0.7243 -0.1489
  854MPD2    C212593   0.346   3.205  12.590  0.2973 -0.8455  0.1289
  854MPD2    C312594   0.435   3.101  12.624 -0.5274 -0.1478  0.3067
  854MPD2    C412595   0.433   2.983  12.547  0.0658 -0.4366  0.7214
  854MPD2    C512596   0.345   2.977  12.442 -0.3926 -0.2234  0.9194
  854MPD2     H12597   0.360   3.302  12.635  0.4793  0.1178 -1.9675
  854MPD2    H112598   0.503   2.901  12.559 -0.7387 -1.0815  0.9904
  854MPD2    H212599   0.180   3.057  12.328  1.8966  0.6636 -0.7307
  854MPD2    H312600   0.351   2.877  12.400  0.8319  0.1105  0.2979
  854MPD2     N12601   0.527   3.109  12.730  0.8063  0.1925  0.2298
  854MPD2    H512602   0.595   3.033  12.738 -0.2042 -0.8251 -0.7986
  854MPD2    N112603   0.165   3.298  12.444  0.6194  0.9298  0.0528
  854MPD2    H712604   0.109   3.288  12.360  0.6899  3.3026 -0.2754
  855MPD2     C12605   0.799   3.214  13.769  0.5171 -0.1326  0.2509
  855MPD2    C112606   0.798   3.088  13.730 -0.4639  0.0780  0.2015
  855MPD2    C212607   0.796   3.058  13.590  0.4931  0.3844  0.2286
  855MPD2    C312608   0.796   3.157  13.494  0.0718  0.5892  1.1036
  855MPD2    C412609   0.801   3.287  13.534  0.5031  0.5220 -0.2685
  855MPD2    C512610   0.803   3.313  13.669 -0.3588 -0.0498 -0.3378
  855MPD2     H12611   0.787   2.956  13.553 -2.9729  0.6383  0.3345
  855MPD2    H112612   0.799   3.367  13.461 -2.9769 -0.0584 -0.8186
  855MPD2    H212613   0.799   3.246  13.873 -0.8072  1.1578 -0.1478
  855MPD2    H312614   0.810   3.415  13.704 -0.2927 -0.5035  0.9989
  855MPD2     N12615   0.780   3.113  13.362 -0.0748 -0.1068  0.0245
  855MPD2    H512616   0.812   3.022  13.332 -0.0193  0.3805 -1.4062
  855MPD2    N112617   0.808   2.976  13.812 -0.0394  0.3042  0.0545
  855MPD2    H712618   0.815   2.886  13.767 -1.0431  1.1337 -1.7533
  856MPD2     C12619   3.087   3.176  14.293 -0.2985 -0.6025  0.1852
  856MPD2    C112620   3.143   3.260  14.205 -0.4126 -0.6695 -0.7897
  856MPD2    C212621   3.066   3.335  14.113 -0.3446  0.3536  0.8088
  856MPD2    C312622   2.937   3.322  14.112 -0.1781 -0.1135  0.6235
  856MPD2    C412623   2.869   3.243  14.196 -0.4572 -0.1692 -0.0907
  856MPD2    C512624   2.946   3.169  14.279  0.0631  0.6350  0.4117
  856MPD2     H12625   3.106   3.394  14.032 -0.1592  1.2563  1.5652
  856MPD2    H112626   2.761   3.235  14.202 -0.3981 -1.5096 -0.7241
  856MPD2    H212627   3.150   3.116  14.357 -0.7675 -2.1978 -0.8361
  856MPD2    H312628   2.897   3.089  14.332 -0.8690  2.3728  2.1602
  856MPD2     N12629   2.850   3.394  14.027 -0.4904  0.0419 -0.9795
  856MPD2    H512630   2.753   3.363  14.029 -0.5014 -0.0458 -2.3240
  856MPD2    N112631   3.283   3.279  14.187 -0.4348 -0.8171  0.3869
  856MPD2    H712632   3.314   3.352  14.124 -1.2771 -0.3200  0.5577
  857MPD2     C12633   4.368   1.387  12.900 -0.0937  0.1383 -0.2269
  857MPD2    C112634   4.487   1.374  12.826 -0.9994 -0.1374 -0.0991
  857MPD2    C212635   4.552   1.494  12.790  0.2108 -0.3747 -0.1107
  857MPD2    C312636   4.508   1.615  12.826 -0.1279  0.3010  0.0722
  857MPD2    C412637   4.393   1.628  12.905  0.1447 -0.3197  0.2498
  857MPD2    C512638   4.327   1.512  12.939  0.4800  0.0487 -0.8661
  857MPD2     H12639   4.639   1.486  12.725  0.6034 -2.0648  0.6271
  857MPD2    H112640   4.351   1.719  12.947  1.0990  0.4282 -0.3850
  857MPD2    H212641   4.300   1.305  12.919 -1.4522  1.3169  0.0148
  857MPD2    H312642   4.240   1.525  13.001  0.6777  0.0455 -0.5892
  857MPD2     N12643   4.584   1.727  12.796 -0.3936  0.4346  0.3350
  857MPD2    H512644   4.680   1.711  12.768 -0.7267 -0.3752 -0.3861
  857MPD2    N112645   4.538   1.251  12.782 -0.3394  0.0996 -0.3897
  857MPD2    H712646   4.474   1.172  12.774 -0.5077  0.2746 -0.7717
  858MPD2     C12647   4.621   0.536  16.698  0.2439 -0.1951 -0.1098
  858MPD2    C112648   4.734   0.475  16.754 -0.3008 -0.0615  0.0817
  858MPD2    C212649   0.086   0.552  16.817  0.1917 -0.1094  0.4349
  858MPD2    C312650   0.069   0.680  16.855  0.0875  0.6203 -0.3823
  858MPD2    C412651   4.690   0.736  16.803  0.4255  0.0666 -0.4917
  858MPD2    C512652   4.603   0.666  16.726 -0.6102  0.1341 -0.1527
  858MPD2     H12653   0.173   0.495  16.848  1.1371  0.9076 -0.3310
  858MPD2    H112654   4.663   0.839  16.820  1.5231  0.6884 -2.4981
  858MPD2    H212655   4.551   0.479  16.638  3.8713 -2.5157 -2.1476
  858MPD2    H312656   4.513   0.717  16.693  0.9556  1.6789 -2.1123
  858MPD2     N12657   0.157   0.746  16.953  0.4723  0.0547 -0.5518
  858MPD2    H512658   0.127   0.836  16.990  0.4902 -0.7662  1.4830
  858MPD2    N112659   0.027   0.341  16.738 -0.0553  0.6788  0.2602
  858MPD2    H712660   0.109   0.314  16.791 -0.5905 -0.6088  0.4149
  859MPD2     C12661   3.485   2.191  15.577 -0.4177 -0.7058 -0.6447
  859MPD2    C112662   3.617   2.210  15.551 -0.5675  0.1802 -0.1826
  859MPD2    C212663   3.702   2.107  15.585  0.2050  0.2563  0.2106
  859MPD2    C312664   3.663   1.982  15.625  0.5439 -0.2160 -0.4992
  859MPD2    C412665   3.533   1.968  15.653 -0.4802 -0.3122 -0.2129
  859MPD2    C512666   3.445   2.078  15.635 -0.7444 -0.5219  0.3314
  859MPD2     H12667   3.806   2.140  15.582 -0.3014  1.9593  1.6098
  859MPD2    H112668   3.493   1.872  15.683 -0.5768 -0.1078  0.2974
  859MPD2    H212669   3.408   2.264  15.559  0.7194  0.7963  0.5238
  859MPD2    H312670   3.341   2.073  15.664 -0.6462  0.2523  0.8003
  859MPD2     N12671   3.751   1.870  15.640 -0.0278  0.1715 -0.0060
  859MPD2    H512672   3.712   1.796  15.697  1.8574  0.8033  2.0930
  859MPD2    N112673   3.659   2.339  15.513  0.4193 -0.0031 -0.4106
  859MPD2    H712674   3.583   2.406  15.500  1.2207  0.8744 -0.5983
  860MPD2     C12675   1.732   2.954  11.478 -0.7041 -1.5339 -0.1531
  860MPD2    C112676   1.768   2.965  11.612 -0.5722  0.4742 -0.0230
  860MPD2    C212677   1.668   3.000  11.701 -0.1770 -0.3412  0.6208
  860MPD2    C312678   1.538   3.014  11.662 -0.4477 -0.2762 -0.9847
  860MPD2    C412679   1.504   2.986  11.530 -0.8642  0.4988 -0.6136
  860MPD2    C512680   1.598   2.962  11.434 -0.1070 -0.4287  0.0394
  860MPD2     H12681   1.691   3.012  11.806  2.2230  0.1065  0.0491
  860MPD2    H112682   1.403   2.988  11.489 -0.1796  0.0982 -2.3488
  860MPD2    H212683   1.808   2.940  11.402 -0.6139 -1.4686 -0.0756
  860MPD2    H312684   1.573   2.947  11.330  0.1461 -0.9759  0.0564
  860MPD2     N12685   1.435   3.033  11.759  0.8280  0.0932 -0.1395
  860MPD2    H512686   1.464   3.065  11.851 -0.1981 -1.2297  0.6311
  860MPD2    N112687   1.899   2.963  11.661 -0.1346 -0.4560 -0.1192
  860MPD2    H712688   1.913   2.979  11.760 -2.3794 -0.3570  0.1871
  861MPD2     C12689   0.767   1.398  11.098 -0.0038 -0.1898  0.2098
  861MPD2    C112690   0.647   1.332  11.119  1.1679 -0.3579  0.5896
  861MPD2    C212691   0.539   1.360  11.038 -0.5223  0.4118 -0.6174
  861MPD2    C312692   0.544   1.468  10.953  1.2626  0.5552  0.2947
  861MPD2    C412693   0.662   1.541  10.940 -0.4731 -0.1296 -0.5317
  861MPD2    C512694   0.767   1.501  11.008  0.3345 -0.7011 -0.5760
  861MPD2     H12695   0.440   1.319  11.057  0.1606 -1.0369 -0.1522
  861MPD2    H112696   0.665   1.629  10.876 -0.9852  0.9519  0.9206
  861MPD2    H212697   0.859   1.372  11.149 -0.1167 -3.0206 -1.0014
  861MPD2    H312698   0.860   1.557  11.000 -0.2661  0.6370  1.6515
  861MPD2     N12699   0.432   1.519  10.880 -0.9220 -0.1640  0.5369
  861MPD2    H512700   0.442   1.605  10.828 -0.3088  0.1007  1.0805
  861MPD2    N112701   0.630   1.232  11.216 -0.0073  0.3873 -0.2429
  861MPD2    H712702   0.533   1.220  11.241  0.4043 -1.0294  0.6694
  862MPD2     C12703   4.589   1.914  10.523 -0.5467  0.1041 -0.4596
  862MPD2    C112704   4.693   1.837  10.562  0.5101  0.4973 -0.6528
  862MPD2    C212705   4.669   1.709  10.595  0.3335  0.2775  0.8264
  862MPD2    C312706   4.538   1.659  10.605  0.3343 -0.2216  0.1595
  862MPD2    C412707   4.429   1.736  10.559  0.2187 -0.1458 -0.1832
  862MPD2    C512708   4.459   1.868  10.528  0.2126  0.1582 -0.8753
  862MPD2     H12709   0.017   1.649  10.624 -1.1644 -1.0999  2.4850
  862MPD2    H112710   4.327   1.700  10.563 -0.0669  0.8757  1.7179
  862MPD2    H212711   4.601   2.021  10.513 -1.6203  0.3125  0.4521
  862MPD2    H312712   4.383   1.941  10.503 -0.9361 -1.5912 -2.4444
  862MPD2     N12713   4.507   1.529  10.660 -0.2038  0.5500  0.0605
  862MPD2    H512714   4.415   1.521  10.703  0.6118  0.3792  1.7773
  862MPD2    N112715   0.084   1.910  10.568 -0.3521  0.4505  0.2363
  862MPD2    H712716   0.086   1.999  10.520  0.1555  0.3497  0.0790
  863MPD2     C12717   3.278   4.264  16.747 -0.0109  0.0065  0.5960
  863MPD2    C112718   3.180   4.232  16.829 -0.0004 -0.1008 -0.3198
  863MPD2    C212719   3.220   4.208  16.960  0.5826  0.7468  0.6331
  863MPD2    C312720   3.353   4.198  16.999  0.1992 -0.7945  0.1796
  863MPD2    C412721   3.456   4.231  16.910 -0.1475  0.2263  0.6417
  863MPD2    C512722   3.408   4.273  16.787 -0.8220  0.7686 -0.3358
  863MPD2     H12723   3.147   4.172  17.032  0.5691 -0.6402 -0.0637
  863MPD2    H112724   3.562   4.239  16.929  0.6002  0.1999 -3.4092
  863MPD2    H212725   3.252   4.268  16.642 -2.1933  0.6983  1.1810
  863MPD2    H312726   3.488   4.305  16.721 -1.4397  0.2361 -1.3492
  863MPD2     N12727   3.393   4.151  17.121 -0.0723 -0.6719  0.3862
  863MPD2    H512728   3.494   4.144  17.128 -0.1387 -2.5704 -0.7376
  863MPD2    N112729   3.050   4.212  16.784 -0.7587  0.0422  0.3024
  863MPD2    H712730   3.040   4.204  16.683  2.0025 -2.1038  0.2055
  864MPD2     C12731   3.321   0.570  17.352  0.2135 -0.4867 -1.0466
  864MPD2    C112732   3.429   0.511  17.276  0.2718  0.0692  0.0838
  864MPD2    C212733   3.487   0.593  17.189 -0.0094  0.0829 -0.5743
  864MPD2    C312734   3.471   0.734  17.199 -0.1020 -0.3642 -0.5029
  864MPD2    C412735   3.372   0.791  17.279  0.0220 -0.7281 -0.0985
  864MPD2    C512736   3.290   0.705  17.350 -0.5241  0.0549  0.2027
  864MPD2     H12737   3.559   0.550  17.121 -1.3224 -1.2617 -1.1225
  864MPD2    H112738   3.351   0.897  17.288  0.7692 -0.5300 -0.7039
  864MPD2    H212739   3.261   0.511  17.420 -0.2929  0.3730 -0.7488
  864MPD2    H312740   3.205   0.753  17.397  0.3713  0.0735  1.8104
  864MPD2     N12741   3.541   0.817  17.111 -0.2285 -0.5386 -0.2442
  864MPD2    H512742   3.506   0.912  17.104  0.7636 -0.1468  0.0488
  864MPD2    N112743   3.458   0.375  17.266 -0.1631 -0.3067  0.1950
  864MPD2    H712744   3.505   0.351  17.180  0.7895 -3.5620  1.6245
  865MPD2     C12745   3.769   1.021  16.245  0.4653 -0.9724  0.5260
  865MPD2    C112746   3.749   0.934  16.349  0.1180  0.8093 -0.5306
  865MPD2    C212747   3.684   0.973  16.465  0.2599  0.6609  0.3536
  865MPD2    C312748   3.661   1.109  16.484  0.2541  0.2303  0.3688
  865MPD2    C412749   3.684   1.199  16.380 -0.2855  0.4602  0.1560
  865MPD2    C512750   3.733   1.154  16.263  0.0742  0.5540 -0.0807
  865MPD2     H12751   3.672   0.906  16.549 -1.3649  0.8427  0.2717
  865MPD2    H112752   3.661   1.305  16.387 -0.4478  0.4525 -0.2705
  865MPD2    H212753   3.802   0.995  16.146 -2.7635  2.0377 -1.3489
  865MPD2    H312754   3.745   1.221  16.179 -2.2161  1.9757  0.7411
  865MPD2     N12755   3.642   1.159  16.616 -0.3628 -0.4063 -0.4082
  865MPD2    H512756   3.662   1.255  16.643 -1.2431 -0.3947  0.2141
  865MPD2    N112757   3.797   0.803  16.311  0.2686 -0.5649  0.3112
  865MPD2    H712758   3.858   0.798  16.231 -1.0092 -0.7731 -0.6495
  866MPD2     C12759   0.878   1.564  11.965 -0.4597  0.1648 -0.0431
  866MPD2    C112760   0.925   1.644  11.861 -0.3808 -0.1729  0.6331
  866MPD2    C212761   0.847   1.654  11.743  0.1808 -0.1614 -0.7269
  866MPD2    C312762   0.727   1.583  11.724 -0.9082 -0.0608  0.0102
  866MPD2    C412763   0.679   1.506  11.828 -0.3975  0.7815  0.4119
  866MPD2    C512764   0.757   1.496  11.945  0.0366  0.5491  0.1096
  866MPD2     H12765   0.879   1.716  11.660  1.2590  0.1535 -0.0807
  866MPD2    H112766   0.588   1.447  11.826 -0.3377  0.6728  0.8573
  866MPD2    H212767   0.930   1.581  12.059  1.0501 -0.1869 -0.8159
  866MPD2    H312768   0.705   1.441  12.024 -1.5693  0.3518 -1.0750
  866MPD2     N12769   0.653   1.582  11.607 -0.1028  0.1258 -0.0648
  866MPD2    H512770   0.571   1.522  11.607 -0.1760  0.2294  0.3077
  866MPD2    N112771   1.049   1.721  11.885  0.1545  0.2037  0.1681
  866MPD2    H712772   1.085   1.703  11.978  1.1806  1.1991 -0.0373
  867MPD2     C12773   2.302   0.369  16.493  0.5449  0.4445 -0.5276
  867MPD2    C112774   2.354   0.346  16.617  0.4630  0.1472 -0.5700
  867MPD2    C212775   2.400   0.454  16.698 -0.4017  0.4691  0.4397
  867MPD2    C312776   2.404   0.580  16.642  0.4434 -0.3445  0.1921
  867MPD2    C412777   2.345   0.599  16.515 -0.2355  0.5435 -0.1579
  867MPD2    C512778   2.296   0.500  16.443 -0.6646  0.1245 -0.0997
  867MPD2     H12779   2.438   0.443  16.799  1.0309  1.0768 -0.0329
  867MPD2    H112780   2.349   0.701  16.479 -1.7944 -0.2197 -2.4761
  867MPD2    H212781   2.272   0.285  16.431 -0.6050  1.6844 -1.6588
  867MPD2    H312782   2.263   0.535  16.346 -2.4894 -2.3673 -0.3748
  867MPD2     N12783   2.478   0.688  16.693  0.8436  0.4834  0.1456
  867MPD2    H512784   2.470   0.777  16.644  3.1864  1.6539  1.9023
  867MPD2    N112785   2.354   0.206  16.660 -0.5330 -0.0770  1.0010
  867MPD2    H712786   2.315   0.138  16.596  1.7362 -1.3260  0.9452
  868MPD2     C12787   0.014   4.558  13.188 -0.0478  0.2716  0.3058
  868MPD2    C112788   4.704   4.432  13.177 -0.3844  0.0362  0.3859
  868MPD2    C212789   4.573   4.409  13.213 -0.2349 -0.5727  0.5465
  868MPD2    C312790   4.492   4.510  13.262 -0.1198  0.6608  0.3309
  868MPD2    C412791   4.534   4.642  13.265  0.0914  0.1973 -0.7833
  868MPD2    C512792   4.664   4.664  13.215 -0.3824 -0.0503  0.2307
  868MPD2     H12793   4.533   4.308  13.221 -2.3054  0.0879 -1.3748
  868MPD2    H112794   4.469   4.725  13.293 -1.2769 -0.7653 -1.1323
  868MPD2    H212795   0.112   4.589  13.155  0.0949  1.5025  1.8249
  868MPD2    H312796   4.693   0.030  13.215  1.9833 -0.7216  0.2793
  868MPD2     N12797   4.364   4.469  13.304 -0.4316  0.1648 -0.3512
  868MPD2    H512798   4.344   4.370  13.296 -0.1313  0.0641  0.1786
  868MPD2    N112799   0.053   4.335  13.131 -0.7018  0.0659 -0.3876
  868MPD2    H712800   0.146   4.365  13.106  0.2673 -3.0938 -0.6055
  869MPD2     C12801   0.333   2.265   0.366  0.1070  0.2051  0.2437
  869MPD2    C112802   0.234   2.320   0.444  0.4163  0.5837 -0.0577
  869MPD2    C212803   0.221   2.457   0.472 -0.6080 -0.3403  0.0072
  869MPD2    C312804   0.316   2.539   0.421 -0.2348  0.5451  0.0139
  869MPD2    C412805   0.418   2.491   0.343  0.0637  0.2538  1.2319
  869MPD2    C512806   0.429   2.355   0.324  0.1104  0.0918 -0.2451
  869MPD2     H12807   0.134   2.499   0.521  2.2528  2.8402  2.3137
  869MPD2    H112808   0.501   2.557   0.319  3.0184 -3.1620  2.1135
  869MPD2    H212809   0.349   2.161   0.339  0.3515  0.8066 -1.9581
  869MPD2    H312810   0.511   2.321   0.260  2.2040  2.0304  1.4148
  869MPD2     N12811   0.313   2.683   0.440 -0.4329  0.1933  0.2321
  869MPD2    H512812   0.374   2.734   0.377 -2.8299 -0.2560 -2.4955
  869MPD2    N112813   0.139   2.224   0.487 -0.4815 -0.1803  0.0737
  869MPD2    H712814   0.154   2.124   0.481 -0.2267  0.0491 -2.9221
  870MPD2     C12815   0.941   2.064   1.461 -0.4383 -0.4996  0.1861
  870MPD2    C112816   0.829   1.990   1.429 -0.4206  0.4665 -0.6091
  870MPD2    C212817   0.732   2.031   1.330 -0.3298 -0.2758  0.2460
  870MPD2    C312818   0.752   2.157   1.266  0.1296 -1.0080  0.2581
  870MPD2    C412819   0.862   2.229   1.307  0.9217  0.0199  0.1193
  870MPD2    C512820   0.962   2.182   1.391 -0.0826 -0.4492 -0.1313
  870MPD2     H12821   0.637   1.983   1.308  0.2826 -0.6238 -1.6533
  870MPD2    H112822   0.880   2.324   1.258 -0.5328  0.7030  0.9287
  870MPD2    H212823   1.015   2.031   1.533  0.8831 -0.5185 -1.1820
  870MPD2    H312824   1.047   2.246   1.412 -0.8919  0.7019 -0.4241
  870MPD2     N12825   0.665   2.191   1.158 -0.4547  0.3272 -0.4927
  870MPD2    H512826   0.601   2.122   1.119  2.1178 -1.5378 -1.4532
  870MPD2    N112827   0.808   1.877   1.507  0.0118 -0.5031  0.1977
  870MPD2    H712828   0.880   1.850   1.575  1.0123  1.4743 -0.0826
  871MPD2     C12829   0.993   0.582  16.710 -0.4321  0.5471  0.1899
  871MPD2    C112830   1.074   0.570  16.819 -0.2544  0.3579 -0.0505
  871MPD2    C212831   1.154   0.455  16.841  0.3968 -0.0526 -0.4286
  871MPD2    C312832   1.157   0.361  16.742  0.6685  0.1521  0.6681
  871MPD2    C412833   1.077   0.377  16.630  0.7495  0.3901 -0.0995
  871MPD2    C512834   0.987   0.481  16.621 -0.1896  0.5845 -0.4892
  871MPD2     H12835   1.218   0.454  16.928 -0.5926  1.6874  0.2981
  871MPD2    H112836   1.066   0.315  16.541  1.7853 -2.3184  1.6403
  871MPD2    H212837   0.927   0.664  16.682 -0.0026  0.3150 -1.4682
  871MPD2    H312838   0.922   0.494  16.535 -0.5801 -0.1244 -0.3019
  871MPD2     N12839   1.232   0.248  16.746 -0.2408 -0.2142  0.1509
  871MPD2    H512840   1.282   0.231  16.832  0.0358  1.8188  0.3969
  871MPD2    N112841   1.071   0.688  16.901 -0.2710  0.2692 -0.9561
  871MPD2    H712842   1.003   0.761  16.883 -0.3621 -0.0539 -1.8852
  872MPD2     C12843   2.789   2.704  14.208 -0.6668 -0.6804  0.0738
  872MPD2    C112844   2.785   2.838  14.167 -0.3849 -0.2489 -0.1434
  872MPD2    C212845   2.661   2.904  14.148  0.3776  0.5614  0.2602
  872MPD2    C312846   2.551   2.829  14.183  0.1834 -0.5071  1.0824
  872MPD2    C412847   2.557   2.695  14.215 -0.8306  0.2415 -0.5170
  872MPD2    C512848   2.678   2.636  14.224  0.0577  0.1300  0.8339
  872MPD2     H12849   2.655   3.010  14.125  0.4465  0.2999 -0.9636
  872MPD2    H112850   2.466   2.641  14.237 -0.7544  1.0315  1.7277
  872MPD2    H212851   2.885   2.660  14.232 -0.3799 -1.8622 -3.2588
  872MPD2    H312852   2.688   2.536  14.263 -1.8698  0.2189  1.5544
  872MPD2     N12853   2.424   2.887  14.186 -0.3213  0.4676  0.5476
  872MPD2    H512854   2.351   2.818  14.168 -0.3168  0.8320 -0.9069
  872MPD2    N112855   2.895   2.899  14.111 -0.1232  0.2807 -0.2467
  872MPD2    H712856   2.878   2.984  14.058 -0.2768  0.5129  0.1700
  873MPD2     C12857   3.969   3.477   0.905 -0.2657 -0.0236  0.0582
  873MPD2    C112858   3.841   3.522   0.923  0.0107  0.2965  0.5138
  873MPD2    C212859   3.744   3.479   0.833  0.5460  1.0577 -0.8499
  873MPD2    C312860   3.772   3.387   0.731 -0.5855 -0.2647 -0.1039
  873MPD2    C412861   3.894   3.322   0.740  0.0252 -0.3647  0.3942
  873MPD2    C512862   3.996   3.366   0.824 -0.0504 -1.2023 -0.0341
  873MPD2     H12863   3.639   3.493   0.855  1.5753 -1.4904  5.6137
  873MPD2    H112864   3.914   3.250   0.661 -0.0040  0.3843 -0.2933
  873MPD2    H212865   4.048   3.514   0.970 -0.3110  1.1403 -0.5509
  873MPD2    H312866   4.091   3.314   0.830 -0.3092 -1.5616  0.9123
  873MPD2     N12867   3.680   3.327   0.645 -0.1686  0.3003 -0.0878
  873MPD2    H512868   3.710   3.245   0.593 -0.2552  1.1241 -1.4239
  873MPD2    N112869   3.810   3.610   1.029 -0.3737  0.4710 -0.2307
  873MPD2    H712870   3.884   3.617   1.098 -0.8089  1.2124  0.1612
  874MPD2     C12871   3.390   3.274  15.923 -1.0468  0.7479  0.1009
  874MPD2    C112872   3.438   3.186  16.012 -0.0287  0.4516 -0.4597
  874MPD2    C212873   3.544   3.240  16.089  0.9175  0.4523  0.4431
  874MPD2    C312874   3.599   3.371  16.066 -0.2230  0.1894 -0.6269
  874MPD2    C412875   3.535   3.449  15.972 -0.1185 -0.8584  0.7337
  874MPD2    C512876   3.436   3.399  15.890  0.8701  0.0201 -0.0917
  874MPD2     H12877   3.603   3.176  16.153 -0.0414 -0.1176  0.7456
  874MPD2    H112878   3.561   3.554  15.966  1.3298 -1.2956 -0.9516
  874MPD2    H212879   3.304   3.232  15.872 -0.9380 -0.5264  0.9723
  874MPD2    H312880   3.377   3.462  15.825 -0.8286  0.3611  1.7690
  874MPD2     N12881   3.708   3.421  16.142  0.2358 -0.0462 -0.8461
  874MPD2    H512882   3.741   3.375  16.226 -3.8364 -0.0214  0.7634
  874MPD2    N112883   3.394   3.048  15.993  1.0896 -0.1254  0.0618
  874MPD2    H712884   3.344   3.030  15.906  1.0585  0.9187 -0.1416
  875MPD2     C12885   0.649   1.409  14.810  0.2997  0.5347 -0.2324
  875MPD2    C112886   0.520   1.462  14.828  0.1586 -0.0883 -0.3242
  875MPD2    C212887   0.498   1.538  14.941  0.4113  0.1181 -0.2662
  875MPD2    C312888   0.607   1.578  15.021  0.8146  0.2771 -0.3054
  875MPD2    C412889   0.731   1.534  14.994  0.2302  0.1206 -0.0969
  875MPD2    C512890   0.754   1.447  14.885 -0.3898  0.1888  0.1765
  875MPD2     H12891   0.401   1.584  14.955  0.4331  0.1536 -0.2325
  875MPD2    H112892   0.812   1.559  15.063 -1.5075  3.1856  0.8284
  875MPD2    H212893   0.671   1.349  14.722 -0.5214  0.4203 -0.3593
  875MPD2    H312894   0.852   1.403  14.870  0.2541  1.5331  0.4202
  875MPD2     N12895   0.587   1.657  15.138  0.4709 -0.7108 -0.4498
  875MPD2    H512896   0.663   1.681  15.200 -0.6585 -0.6639  0.9110
  875MPD2    N112897   0.412   1.423  14.747  0.1921  0.5093 -0.3470
  875MPD2    H712898   0.319   1.458  14.768 -1.2376 -2.0281 -2.4092
  876MPD2     C12899   3.982   2.946  16.085  0.0010 -0.3021 -0.2268
  876MPD2    C112900   4.082   2.874  16.017 -0.2427  0.3830  0.4618
  876MPD2    C212901   4.106   2.743  16.048 -0.6172 -0.2567 -0.6529
  876MPD2    C312902   4.017   2.678  16.136  0.1901  0.0958 -0.5449
  876MPD2    C412903   3.926   2.755  16.206  0.0320  0.0855 -0.0688
  876MPD2    C512904   3.901   2.883  16.177 -0.3437  0.4679 -0.2701
  876MPD2     H12905   4.183   2.680  16.006  0.5414  0.7996 -0.1275
  876MPD2    H112906   3.862   2.714  16.282  0.4397 -0.3661  0.0292
  876MPD2    H212907   3.960   3.048  16.056  1.6291 -1.0127 -3.9336
  876MPD2    H312908   3.814   2.926  16.225  0.8173  2.2110  0.2909
  876MPD2     N12909   4.047   2.535  16.150 -0.3319  0.3415 -0.3804
  876MPD2    H512910   4.129   2.504  16.100 -1.3136 -0.2952 -1.5850
  876MPD2    N112911   4.157   2.944  15.916  0.4620  1.1785 -0.0825
  876MPD2    H712912   4.131   3.040  15.900  0.0315  0.8735 -1.1808
  877MPD2     C12913   3.970   3.408  15.375  0.1079 -0.0661 -0.4146
  877MPD2    C112914   4.085   3.365  15.323 -0.2730  0.1734  0.0328
  877MPD2    C212915   4.138   3.420  15.211 -0.1571 -0.1444  0.9281
  877MPD2    C312916   4.067   3.512  15.138 -0.2047  0.6640  0.3235
  877MPD2    C412917   3.947   3.553  15.180 -0.5653 -0.1995  0.1497
  877MPD2    C512918   3.905   3.498  15.297 -0.2175 -0.2932  0.3131
  877MPD2     H12919   4.237   3.392  15.176  0.2883  2.4978  0.0704
  877MPD2    H112920   3.875   3.618  15.130 -1.3349  0.2225  1.7796
  877MPD2    H212921   3.914   3.369  15.459  0.8899 -1.0464 -0.3427
  877MPD2    H312922   3.805   3.529  15.326  0.3799 -0.7227  2.8723
  877MPD2     N12923   4.118   3.566  15.018 -0.7686  0.1925  0.8877
  877MPD2    H512924   4.065   3.648  14.988 -0.2662  0.6695  1.3048
  877MPD2    N112925   4.171   3.280  15.395  0.4334  0.4350 -0.3844
  877MPD2    H712926   4.270   3.285  15.374  0.7354 -0.9778  0.6888
  878MPD2     C12927   4.084   2.365  12.958  0.0339  0.8673  0.1677
  878MPD2    C112928   4.047   2.501  12.968  0.2277 -0.0190  0.1123
  878MPD2    C212929   3.946   2.541  13.052 -0.5958 -0.4872 -0.0570
  878MPD2    C312930   3.888   2.444  13.134 -0.2230 -0.0838 -0.6326
  878MPD2    C412931   3.930   2.312  13.136  0.0740  0.4671 -0.5907
  878MPD2    C512932   4.028   2.271  13.046  0.9657 -0.2671  0.1016
  878MPD2     H12933   3.912   2.644  13.056 -1.3139 -0.6228 -2.7814
  878MPD2    H112934   3.876   2.236  13.190 -2.0651  2.4665  0.0801
  878MPD2    H212935   4.157   2.341  12.882  3.1036 -1.4960  3.8743
  878MPD2    H312936   4.051   2.167  13.030  0.4576 -0.6046  1.5918
  878MPD2     N12937   3.801   2.506  13.225 -0.2658 -0.3958 -0.1898
  878MPD2    H512938   3.770   2.596  13.189 -0.1833 -0.2574  0.0858
  878MPD2    N112939   4.098   2.587  12.864  0.0254  0.5881 -0.2285
  878MPD2    H712940   4.143   2.532  12.792  0.6265 -0.6743  1.1112
  879MPD2     C12941   3.804   4.069  17.122 -0.1805 -0.2480 -0.2510
  879MPD2    C112942   3.823   3.981  17.220  0.6103  0.0881  0.2388
  879MPD2    C212943   3.784   3.848  17.194  0.3994 -0.9284  0.0925
  879MPD2    C312944   3.700   3.819  17.084 -0.3093  0.0722  0.3824
  879MPD2    C412945   3.685   3.917  16.995  0.4466  0.5951 -0.1537
  879MPD2    C512946   3.748   4.036  17.005  0.1220 -0.1695 -0.3058
  879MPD2     H12947   3.814   3.771  17.265 -1.2731 -1.6466  0.0326
  879MPD2    H112948   3.628   3.891  16.906 -0.3152  0.5677  0.3454
  879MPD2    H212949   3.836   4.171  17.141  1.3631 -0.9613  1.0425
  879MPD2    H312950   3.725   4.105  16.924  1.7006  0.8501  0.1218
  879MPD2     N12951   3.652   3.688  17.073 -0.3184 -0.1752 -0.9475
  879MPD2    H512952   3.603   3.673  16.986 -0.4241  1.2708 -1.1493
  879MPD2    N112953   3.899   4.024  17.330 -0.2197  0.2649 -0.2427
  879MPD2    H712954   3.924   4.123  17.331  5.0352 -1.0561  0.8911
  880MPD2     C12955   0.381   1.000   0.235 -0.8389 -0.1442  0.2375
  880MPD2    C112956   0.497   1.076   0.239 -0.3003  0.1262 -0.5647
  880MPD2    C212957   0.613   1.024   0.304 -0.6730  0.0050 -0.8928
  880MPD2    C312958   0.610   0.887   0.334  0.0287 -0.9188  1.0221
  880MPD2    C412959   0.500   0.809   0.313  0.5217 -0.0370  0.5140
  880MPD2    C512960   0.386   0.868   0.258  0.7958 -0.1546 -0.6686
  880MPD2     H12961   0.700   1.085   0.322 -1.3555  0.4613  0.8262
  880MPD2    H112962   0.507   0.706   0.344 -1.2706 -0.1391  0.6014
  880MPD2    H212963   0.286   1.033   0.194 -0.7745  1.6824  1.5735
  880MPD2    H312964   0.298   0.808   0.235  1.0865 -0.4156 -1.0902
  880MPD2     N12965   0.722   0.831   0.405 -0.5088 -0.1074 -0.5162
  880MPD2    H512966   0.792   0.900   0.431 -1.2288  0.2100  0.6529
  880MPD2    N112967   0.484   1.209   0.209 -0.6213  0.4195  0.1186
  880MPD2    H712968   0.392   1.253   0.205 -0.3670  0.7816 -1.4498
  881MPD2     C12969   0.826   2.087  17.421 -0.3034  0.0720 -0.1758
  881MPD2    C112970   0.821   1.954  17.381 -0.0841 -0.1807 -0.5027
  881MPD2    C212971   0.766   1.866  17.480  0.2303 -0.4163  0.3673
  881MPD2    C312972   0.766   1.899  17.615 -0.0463  1.0216 -1.0029
  881MPD2    C412973   0.806   2.024  17.650  0.5462 -0.0288  0.2751
  881MPD2    C512974   0.833   2.117  17.553 -0.4325 -0.5102  0.5924
  881MPD2     H12975   0.722   1.775  17.442  0.5531 -0.7718  0.8401
  881MPD2    H112976   0.809   2.054   0.002  0.0976  0.6195  0.0951
  881MPD2    H212977   0.845   2.173  17.358 -1.3481 -0.6628 -1.4985
  881MPD2    H312978   0.861   2.218  17.582 -1.9956  0.8086 -2.5726
  881MPD2     N12979   0.722   1.805  17.715 -0.6694  0.5474 -0.6628
  881MPD2    H512980   0.722   1.831   0.061  1.3083  2.1888 -1.0961
  881MPD2    N112981   0.826   1.924  17.244  0.3026  0.4699 -0.4425
  881MPD2    H712982   0.856   1.995  17.178 -0.6433  1.1650 -0.1277
  882MPD2     C12983   3.947   3.285  14.209  0.2115  0.6651 -0.6294
  882MPD2    C112984   3.940   3.318  14.340  0.1828  0.3784  0.2243
  882MPD2    C212985   3.859   3.229  14.415  0.5433 -0.0019 -0.1000
  882MPD2    C312986   3.777   3.127  14.361  0.2567 -0.1750  0.5869
  882MPD2    C412987   3.789   3.101  14.225  0.6232  0.6954  0.1253
  882MPD2    C512988   3.874   3.181  14.153  0.4783  0.6178  0.2374
  882MPD2     H12989   3.868   3.233  14.523  1.9679  1.1866 -0.2595
  882MPD2    H112990   3.731   3.026  14.174 -0.4150  1.2584  0.4781
  882MPD2    H212991   4.009   3.346  14.145  0.7946  1.3736  0.6087
  882MPD2    H312992   3.889   3.164  14.047  1.4026  2.1618  0.1227
  882MPD2     N12993   3.708   3.034  14.437  0.2179  0.0211  0.3449
  882MPD2    H512994   3.654   2.967  14.383  0.9523 -1.8308  1.9544
  882MPD2    N112995   4.019   3.420  14.404 -0.7009  0.5250 -0.0289
  882MPD2    H712996   4.083   3.480  14.352 -3.5816  1.4364 -2.5171
  883MPD2     C12997   1.088   2.888  16.240  0.2531 -0.1657 -0.5708
  883MPD2    C112998   1.147   2.998  16.184  0.0839 -0.0332 -1.3000
  883MPD2    C212999   1.206   3.095  16.267 -0.1467  0.6083  0.4605
  883MPD2    C313000   1.199   3.082  16.406  0.8067  0.6429  0.7300
  883MPD2    C413001   1.135   2.974  16.457 -0.3250 -0.0709  0.3256
  883MPD2    C513002   1.091   2.873  16.376 -0.4345 -0.2177 -0.4193
  883MPD2     H13003   1.245   3.189  16.230  0.7863 -0.8464 -2.3113
  883MPD2    H113004   1.131   2.957  16.564  2.2695  0.3954  0.4964
  883MPD2    H213005   1.037   2.810  16.185  0.7462 -0.2953 -0.8466
  883MPD2    H313006   1.048   2.788  16.428  0.1794 -1.1076 -1.3583
  883MPD2     N13007   1.255   3.187  16.482 -0.6563 -0.7466  0.6089
  883MPD2    H513008   1.286   3.271  16.435 -2.8089 -0.8402 -0.9892
  883MPD2    N113009   1.156   3.021  16.043  0.0426 -0.2095  0.1107
  883MPD2    H713010   1.222   3.092  16.011  1.5220 -1.1532  1.0699
  884MPD2     C13011   3.235   3.771  15.383  0.6920 -0.3107 -0.7938
  884MPD2    C113012   3.183   3.903  15.367  0.4864  0.6061  0.1959
  884MPD2    C213013   3.055   3.917  15.319  0.3643 -0.2557  0.3642
  884MPD2    C313014   2.972   3.810  15.303  0.1676 -0.3984 -0.5831
  884MPD2    C413015   3.023   3.682  15.318  0.7409  1.0024  0.5800
  884MPD2    C513016   3.153   3.665  15.355 -0.3705  0.2013  0.2800
  884MPD2     H13017   3.025   4.020  15.301  0.1080 -0.4434 -0.2505
  884MPD2    H113018   2.968   3.590  15.304  1.6039  0.2977  1.9032
  884MPD2    H213019   3.339   3.749  15.408 -0.3772 -0.8684  3.0558
  884MPD2    H313020   3.189   3.566  15.377  2.3956  0.6877 -2.1339
  884MPD2     N13021   2.835   3.843  15.267 -0.4007  0.7167 -0.6941
  884MPD2    H513022   2.811   3.940  15.249  0.2572  1.1583  0.7977
  884MPD2    N113023   3.255   4.015  15.408  0.7901 -0.1532  0.1255
  884MPD2    H713024   3.211   4.106  15.397  1.2756 -0.0403 -0.8859
  885MPD2     C13025   0.860   0.072   0.582 -0.3682 -0.0879  0.8614
  885MPD2    C113026   0.959   4.719   0.558 -0.6552 -0.4528 -0.0098
  885MPD2    C213027   0.988   4.673   0.430 -0.3369 -0.0645 -0.0433
  885MPD2    C313028   0.914   4.723   0.326 -0.2252 -0.4303 -0.3981
  885MPD2    C413029   0.814   0.070   0.355  0.0666 -0.1734 -0.2894
  885MPD2    C513030   0.775   0.105   0.479  0.7013  0.3792 -0.2524
  885MPD2     H13031   1.067   4.603   0.407 -0.4062  0.1336 -0.8922
  885MPD2    H113032   0.740   0.106   0.284  2.0974 -0.0618 -2.3665
  885MPD2    H213033   0.829   0.109   0.679 -0.8724  1.7518 -0.0027
  885MPD2    H313034   0.684   0.155   0.509  0.3481 -0.5609  0.2773
  885MPD2     N13035   0.952   4.693   0.187 -0.0380 -0.4651  0.3506
  885MPD2    H513036   1.032   4.631   0.178  0.5360  0.2280  0.7360
  885MPD2    N113037   1.022   4.674   0.676  0.8893 -0.2370 -0.9540
  885MPD2    H713038   0.998   4.715   0.766  2.0843 -1.6172 -0.0080
  886MPD2     C13039   2.513   2.081  14.814  0.2340  0.0722 -0.1774
  886MPD2    C113040   2.630   2.084  14.883  0.6146  0.9649 -1.1127
  886MPD2    C213041   2.728   2.180  14.852  0.3886 -0.4454  0.7282
  886MPD2    C313042   2.698   2.279  14.757  0.1402 -0.6782  0.7238
  886MPD2    C413043   2.577   2.272  14.691  0.7590  0.0602 -0.2248
  886MPD2    C513044   2.487   2.178  14.722  0.1428 -0.4005  0.2074
  886MPD2     H13045   2.820   2.188  14.910  0.5395 -0.8179  0.5367
  886MPD2    H113046   2.554   2.343  14.612  1.8270 -2.1132 -2.4808
  886MPD2    H213047   2.423   2.035  14.852  0.5526 -0.2438  0.1901
  886MPD2    H313048   2.389   2.175  14.676  0.7052  1.9585 -1.1366
  886MPD2     N13049   2.796   2.381  14.725  0.9801  0.1496 -0.0168
  886MPD2    H513050   2.859   2.400  14.802 -0.3000  0.7620  0.8670
  886MPD2    N113051   2.658   2.001  14.992 -0.0178 -0.3189 -0.1325
  886MPD2    H713052   2.747   2.011  15.039  0.3001  0.3858 -0.8706
  887MPD2     C13053   3.219   2.038  15.253 -0.0871  0.2386 -0.4706
  887MPD2    C113054   3.101   2.077  15.311 -0.3555  0.0022  0.1954
  887MPD2    C213055   3.088   2.201  15.369 -0.3633  0.5036 -0.1631
  887MPD2    C313056   3.195   2.294  15.362 -0.2393  0.2645 -0.4777
  887MPD2    C413057   3.315   2.254  15.307 -0.2704  0.2513 -0.6499
  887MPD2    C513058   3.329   2.124  15.251  0.8526 -0.0548  0.6727
  887MPD2     H13059   2.993   2.221  15.416 -1.7970 -1.6960 -2.1378
  887MPD2    H113060   3.399   2.322  15.292 -1.3890  1.7428 -0.1521
  887MPD2    H213061   3.234   1.936  15.219  0.5874  0.1141  0.1963
  887MPD2    H313062   3.420   2.083  15.208  0.4059 -1.1851  0.7954
  887MPD2     N13063   3.168   2.423  15.416 -0.0595  0.0829 -0.3923
  887MPD2    H513064   3.074   2.446  15.445 -0.7694 -1.7981 -1.2427
  887MPD2    N113065   2.994   1.989  15.324 -0.1040  0.1635 -0.0305
  887MPD2    H713066   2.912   2.020  15.376  0.6659  2.0491  0.0631
  888MPD2     C13067   0.401   2.666  14.954  0.5163  0.2045  0.4094
  888MPD2    C113068   0.405   2.664  15.094  0.2261  0.5141  0.1052
  888MPD2    C213069   0.463   2.764  15.162 -0.2954  0.1738  0.5459
  888MPD2    C313070   0.506   2.877  15.093  0.1464  0.1701  0.2850
  888MPD2    C413071   0.502   2.888  14.951 -0.0974 -0.0254 -0.0441
  888MPD2    C513072   0.444   2.783  14.888  0.3600  0.1728  0.2173
  888MPD2     H13073   0.460   2.754  15.269  0.5000  0.3487  0.5855
  888MPD2    H113074   0.535   2.977  14.899  0.8273 -0.3073  0.0661
  888MPD2    H213075   0.343   2.593  14.899 -1.4399  0.9491  1.4663
  888MPD2    H313076   0.428   2.791  14.781  1.2589 -1.1000 -0.0091
  888MPD2     N13077   0.548   2.980  15.179  0.0953 -0.3210 -0.1342
  888MPD2    H513078   0.545   2.951  15.276 -0.1050  3.1705  0.9071
  888MPD2    N113079   0.360   2.553  15.168  0.1539 -0.2110 -0.0253
  888MPD2    H713080   0.368   2.555  15.269 -2.3487 -2.0801  0.2174
  889MPD2     C13081   4.577   2.381  12.493 -0.5761 -0.0672 -0.0042
  889MPD2    C113082   4.679   2.388  12.591  0.4463  0.4217 -0.1547
  889MPD2    C213083   4.736   2.509  12.637 -0.2615  0.3702 -0.0173
  889MPD2    C313084   4.697   2.627  12.570  0.7405 -0.0347  0.2004
  889MPD2    C413085   4.609   2.620  12.468 -0.0072  0.1630 -0.7288
  889MPD2    C513086   4.539   2.499  12.436  0.2630  0.2950 -0.8787
  889MPD2     H13087   0.057   2.521  12.726 -0.9147 -0.1463  0.4854
  889MPD2    H113088   4.573   2.706  12.412 -2.0075 -1.1190 -1.3836
  889MPD2    H213089   4.540   2.286  12.457 -0.4430 -0.5199  1.0649
  889MPD2    H313090   4.470   2.505  12.353  0.7090  1.2498 -1.1798
  889MPD2     N13091   0.007   2.749  12.617  0.8808 -0.1774  0.9414
  889MPD2    H513092   0.062   2.743  12.702  1.9385  1.7365  0.3764
  889MPD2    N113093   4.701   2.273  12.665 -0.3649 -0.4891 -0.0915
  889MPD2    H713094   4.640   2.195  12.640  1.6447 -0.9634 -3.5344
  890MPD2     C13095   3.611   3.987  15.183  0.1725  0.4278  0.1575
  890MPD2    C113096   3.692   4.048  15.278 -0.3712 -0.3667  0.1777
  890MPD2    C213097   3.737   3.972  15.383 -0.6179  0.4253 -0.0823
  890MPD2    C313098   3.708   3.838  15.397 -0.1777 -1.1455 -0.1284
  890MPD2    C413099   3.627   3.780  15.303  0.7738  0.5504  0.6838
  890MPD2    C513100   3.591   3.851  15.190 -0.0277 -0.4127  0.2708
  890MPD2     H13101   3.795   4.018  15.462  0.2753 -1.7967  0.5551
  890MPD2    H113102   3.588   3.680  15.317  1.8301 -0.0617 -0.7852
  890MPD2    H213103   3.559   4.040  15.104 -2.0766 -1.0489  0.6404
  890MPD2    H313104   3.516   3.811  15.122 -1.6293  1.1378  1.1115
  890MPD2     N13105   3.753   3.774  15.516  0.2352 -0.2610  0.1457
  890MPD2    H513106   3.812   3.835  15.573  0.8441 -3.2215  2.7184
  890MPD2    N113107   3.714   4.183  15.264 -0.5300 -0.0827 -0.3112
  890MPD2    H713108   3.657   4.229  15.194  0.1765  1.5766  0.2043
  891MPD2     C13109   2.193   2.775  16.386  0.0029 -0.2636  0.1414
  891MPD2    C113110   2.099   2.779  16.492 -0.4555 -0.3319  0.5064
  891MPD2    C213111   2.141   2.749  16.620 -0.1931  0.0272 -0.6203
  891MPD2    C313112   2.274   2.729  16.646  0.3537  0.2739  0.1896
  891MPD2    C413113   2.363   2.733  16.545  0.2642 -0.5047  0.7101
  891MPD2    C513114   2.317   2.750  16.418  0.3574 -0.0508  0.5329
  891MPD2     H13115   2.065   2.737  16.696  0.7785 -1.7952  0.0547
  891MPD2    H113116   2.466   2.710  16.566  0.7101 -0.4249 -1.4494
  891MPD2    H213117   2.171   2.780  16.280  0.9616 -1.2370 -0.1079
  891MPD2    H313118   2.392   2.755  16.339  0.2923  0.8167  0.5261
  891MPD2     N13119   2.310   2.684  16.785  0.3394 -0.3843 -0.2676
  891MPD2    H513120   2.232   2.667  16.847  1.7600 -2.2022  1.0163
  891MPD2    N113121   1.960   2.797  16.455 -0.4895 -0.0108 -0.2490
  891MPD2    H713122   1.936   2.794  16.357 -3.0585  0.7745  0.3604
  892MPD2     C13123   3.157   3.432  15.074  0.3148 -0.1219 -0.2618
  892MPD2    C113124   3.086   3.356  14.987 -0.3295  0.5620  0.0744
  892MPD2    C213125   3.147   3.251  14.929 -0.1143 -0.0296 -0.1193
  892MPD2    C313126   3.281   3.218  14.953 -0.3438 -0.0714  0.1913
  892MPD2    C413127   3.350   3.308  15.031  0.5956 -0.0015  0.5914
  892MPD2    C513128   3.290   3.413  15.095 -0.4697 -0.3588 -0.2922
  892MPD2     H13129   3.092   3.184  14.864  2.4282 -1.1699 -1.0651
  892MPD2    H113130   3.455   3.298  15.056  0.1049 -0.4308  2.4316
  892MPD2    H213131   3.111   3.509  15.134  2.1122  0.5346  0.2757
  892MPD2    H313132   3.350   3.480  15.156 -1.2914 -0.6104  0.7916
  892MPD2     N13133   3.345   3.116  14.891  0.7653 -0.4387  0.1516
  892MPD2    H513134   3.433   3.081  14.928  1.5029  0.7731 -0.4457
  892MPD2    N113135   2.950   3.378  14.960  0.1964  0.1117 -0.7751
  892MPD2    H713136   2.900   3.301  14.917 -0.4638  0.3302 -0.3998
  893MPD2     C13137   0.524   3.351   1.110  0.7449 -0.2232  0.2456
  893MPD2    C113138   0.497   3.240   1.039 -0.0943  0.1909 -0.4289
  893MPD2    C213139   0.498   3.250   0.901 -0.6347 -0.5545  0.5394
  893MPD2    C313140   0.548   3.364   0.839 -0.1053  0.5617 -0.8142
  893MPD2    C413141   0.582   3.474   0.911  0.1251 -0.2901  0.4751
  893MPD2    C513142   0.556   3.472   1.045  0.4268 -0.2104  0.2138
  893MPD2     H13143   0.471   3.170   0.834  0.3216 -1.4604  1.2296
  893MPD2    H113144   0.611   3.568   0.865 -1.0117 -0.3968 -0.4756
  893MPD2    H213145   0.520   3.337   1.217  2.6977  3.9540  0.8670
  893MPD2    H313146   0.577   3.561   1.103  0.9118  0.2455 -0.6584
  893MPD2     N13147   0.572   3.375   0.703 -0.2491 -0.4791 -0.2923
  893MPD2    H513148   0.614   3.464   0.676 -1.6916  0.5261  0.8099
  893MPD2    N113149   0.470   3.116   1.104  0.1474 -0.2917  0.6307
  893MPD2    H713150   0.490   3.105   1.203  2.4867 -0.7387  0.1027
  894MPD2     C13151   2.743   4.524   0.804 -0.5439  0.6919  0.2734
  894MPD2    C113152   2.744   4.533   0.941  0.1379 -1.0645  0.3561
  894MPD2    C213153   2.756   4.656   1.000  0.2898 -0.0927 -0.4803
  894MPD2    C313154   2.771   0.027   0.923 -0.4229 -0.5558  0.6413
  894MPD2    C413155   2.787   0.014   0.786 -0.0097 -0.4917 -0.3124
  894MPD2    C513156   2.767   4.636   0.728 -0.4682 -0.3000 -0.5046
  894MPD2     H13157   2.739   4.664   1.106  1.4361  1.0859 -0.3789
  894MPD2    H113158   2.811   0.103   0.729 -0.7731 -0.9516 -1.3374
  894MPD2    H213159   2.732   4.425   0.764 -0.4944  0.0960  1.7154
  894MPD2    H313160   2.784   4.625   0.621  0.3718 -1.1306 -0.2879
  894MPD2     N13161   2.770   0.146   0.986  0.1803 -0.6648 -0.1129
  894MPD2    H513162   2.763   0.141   1.087  0.2510 -1.4690 -0.1509
  894MPD2    N113163   2.710   4.424   1.035 -0.4037  0.0081 -0.6953
  894MPD2    H713164   2.711   4.449   1.133  1.5372 -0.2530 -0.6421
  895MPD2     C13165   2.818   2.391  13.483  0.4364 -0.3838 -0.1848
  895MPD2    C113166   2.696   2.452  13.446 -0.1870  0.0822 -0.5471
  895MPD2    C213167   2.593   2.369  13.416 -0.3094  0.0381 -0.4655
  895MPD2    C313168   2.598   2.230  13.426  0.6923 -0.0124 -0.7567
  895MPD2    C413169   2.718   2.174  13.454 -0.1137  0.0168 -0.7344
  895MPD2    C513170   2.822   2.256  13.482 -0.5391  0.3030  0.7732
  895MPD2     H13171   2.495   2.415  13.409  0.6762  2.3564  1.1785
  895MPD2    H113172   2.726   2.068  13.474  0.6152 -0.1789 -2.0676
  895MPD2    H213173   2.909   2.447  13.504 -1.1118  1.6476  1.1343
  895MPD2    H313174   2.913   2.203  13.507 -0.4283 -1.3530 -3.1524
  895MPD2     N13175   2.487   2.135  13.410 -0.8718  0.4048 -0.2400
  895MPD2    H513176   2.515   2.039  13.428 -1.0694  0.5559  0.9098
  895MPD2    N113177   2.678   2.590  13.448  0.1997  0.0019  0.9340
  895MPD2    H713178   2.584   2.627  13.438 -0.2830 -1.5246 -0.1837
  896MPD2     C13179   4.096   1.241   1.627  0.2783  0.1246  0.6833
  896MPD2    C113180   4.111   1.180   1.509 -0.0029  0.3833  0.0982
  896MPD2    C213181   4.026   1.074   1.474 -0.0568 -0.4217  0.5758
  896MPD2    C313182   3.922   1.037   1.559  0.0420 -0.0971 -0.4633
  896MPD2    C413183   3.904   1.110   1.673 -0.5674 -0.4086  0.4932
  896MPD2    C513184   4.000   1.206   1.719  0.1277  0.3864 -0.1058
  896MPD2     H13185   4.037   1.023   1.378 -1.8432 -1.2461  0.7974
  896MPD2    H113186   3.826   1.087   1.746  0.2265  1.1075  1.8284
  896MPD2    H213187   4.160   1.324   1.655  2.1289 -1.4443  1.1343
  896MPD2    H313188   3.999   1.257   1.815 -1.1153 -1.3539  0.8296
  896MPD2     N13189   3.825   0.937   1.527  0.0852 -0.1565  0.1772
  896MPD2    H513190   3.747   0.934   1.592  1.3902  0.4842  1.7666
  896MPD2    N113191   4.221   1.226   1.436 -0.4509 -0.4340 -0.5871
  896MPD2    H713192   4.283   1.299   1.471 -0.4510  0.1478 -1.7917
  897MPD2     C13193   1.436   2.536  10.885  0.1402  0.3521 -0.0521
  897MPD2    C113194   1.353   2.529  10.773 -0.1411  0.4228  0.2975
  897MPD2    C213195   1.221   2.485  10.797  0.4531 -0.1130 -0.4537
  897MPD2    C313196   1.182   2.445  10.923  0.5425 -0.3384  0.9085
  897MPD2    C413197   1.276   2.447  11.026  1.0422  0.3676 -0.3020
  897MPD2    C513198   1.403   2.492  11.004 -0.2380  0.4165 -0.0721
  897MPD2     H13199   1.153   2.468  10.714 -1.0171 -1.4879  1.0631
  897MPD2    H113200   1.255   2.405  11.123 -0.7988 -1.7300 -1.5959
  897MPD2    H213201   1.532   2.585  10.878  0.8983 -0.7671  2.7050
  897MPD2    H313202   1.478   2.496  11.081  0.2361 -0.7088 -0.4757
  897MPD2     N13203   1.045   2.408  10.951 -0.5176  0.4119  0.1544
  897MPD2    H513204   0.977   2.416  10.876  0.8572 -1.7776 -1.3296
  897MPD2    N113205   1.407   2.579  10.649  0.1780 -0.6404 -0.0383
  897MPD2    H713206   1.502   2.616  10.645 -0.0928 -0.2102 -2.6187
  898MPD2     C13207   1.837   2.923   0.171  0.3696  0.5600 -0.2652
  898MPD2    C113208   1.958   2.899   0.232 -0.3515  0.2299  0.1334
  898MPD2    C213209   2.057   2.995   0.212 -0.4088 -0.6860  0.0753
  898MPD2    C313210   2.027   3.117   0.149 -0.6217  0.0588 -1.2107
  898MPD2    C413211   1.903   3.140   0.095 -0.3125  0.0174  0.7857
  898MPD2    C513212   1.807   3.040   0.100 -0.1015 -0.5803  0.5325
  898MPD2     H13213   2.159   2.981   0.246 -0.6878  0.0726  1.2048
  898MPD2    H113214   1.865   3.226   0.042  2.5553  0.3219 -0.7675
  898MPD2    H213215   1.764   2.845   0.154 -0.4593  2.0659 -3.6071
  898MPD2    H313216   1.714   3.043   0.045  0.8507  0.5966 -0.9967
  898MPD2     N13217   2.134   3.213   0.141  0.2662 -0.6661  0.3247
  898MPD2    H513218   2.226   3.187   0.173 -0.5929 -2.7298  1.1387
  898MPD2    N113219   1.997   2.773   0.286 -0.2864  0.0764 -0.3682
  898MPD2    H713220   2.091   2.761   0.321 -0.1496 -1.3224 -1.2411
  899MPD2     C13221   3.108   3.567  17.596 -0.2130  0.4508  0.1610
  899MPD2    C113222   3.196   3.659  17.655 -1.0480  0.0325  0.3724
  899MPD2    C213223   3.192   3.680   0.044 -0.0134 -0.1152  0.1997
  899MPD2    C313224   3.137   3.578   0.121 -0.2401 -0.0563 -0.5639
  899MPD2    C413225   3.045   3.495   0.063  0.0060 -0.1799 -0.3077
  899MPD2    C513226   3.035   3.483  17.676 -0.5382  0.1734  0.0610
  899MPD2     H13227   3.242   3.764   0.090  3.1538 -1.4440 -0.7907
  899MPD2    H113228   2.985   3.428   0.123  0.1965  0.9017  1.0975
  899MPD2    H213229   3.104   3.560  17.488  1.3758 -1.8738  0.2475
  899MPD2    H313230   2.977   3.401  17.634 -0.6544 -0.6141  1.7727
  899MPD2     N13231   3.137   3.582   0.265  0.5732 -0.1149  0.1419
  899MPD2    H513232   3.093   3.506   0.316 -1.2309  1.0549  0.3261
  899MPD2    N113233   3.289   3.739  17.571  0.0104  0.3134 -0.4794
  899MPD2    H713234   3.277   3.727  17.471 -1.6931  0.6923 -0.3353
  900MPD2     C13235   3.449   0.613  12.738 -0.3898 -0.0335 -0.1968
  900MPD2    C113236   3.323   0.549  12.729  0.2346  0.5380  0.6184
  900MPD2    C213237   3.206   0.618  12.695  0.5464 -0.4404 -0.2722
  900MPD2    C313238   3.212   0.753  12.658  0.1833 -0.7386  0.5378
  900MPD2    C413239   3.332   0.825  12.678 -0.8968  0.1342  0.6002
  900MPD2    C513240   3.447   0.746  12.714  0.3910  0.5637 -0.3805
  900MPD2     H13241   3.118   0.560  12.669 -0.4683  1.6037 -1.4089
  900MPD2    H113242   3.348   0.927  12.646 -1.4181 -0.0571 -0.2483
  900MPD2    H213243   3.543   0.563  12.761 -1.4443 -1.4480  1.0673
  900MPD2    H313244   3.547   0.788  12.715  1.0355 -1.0065  0.9850
  900MPD2     N13245   3.094   0.814  12.604  0.1923 -0.4851 -0.3882
  900MPD2    H513246   3.014   0.753  12.594  0.0758 -0.5355  0.7602
  900MPD2    N113247   3.333   0.409  12.755  0.3558 -0.2401  0.0454
  900MPD2    H713248   3.426   0.369  12.756  0.0910 -0.8529  0.1395
  901MPD2     C13249   3.030   4.150  12.495  0.1834  0.1820 -0.3123
  901MPD2    C113250   3.161   4.162  12.512 -0.8566 -0.1464 -0.2311
  901MPD2    C213251   3.215   4.291  12.535 -0.2559  0.3653  0.1140
  901MPD2    C313252   3.132   4.399  12.555 -0.7988 -0.4224  0.2038
  901MPD2    C413253   2.994   4.377  12.551  0.7952  0.0777 -0.3293
  901MPD2    C513254   2.943   4.256  12.511 -0.0118  0.3493 -0.1159
  901MPD2     H13255   3.318   4.316  12.560  0.1416 -0.3821 -0.7860
  901MPD2    H113256   2.922   4.456  12.569 -0.1937 -1.0292  0.5570
  901MPD2    H213257   2.976   4.058  12.478 -0.1086  0.0532  1.3333
  901MPD2    H313258   2.836   4.242  12.504 -0.0563  1.3258 -1.3818
  901MPD2     N13259   3.197   4.510  12.595 -0.2094  1.0584 -0.2949
  901MPD2    H513260   3.297   4.495  12.593 -0.2839  0.6512 -1.2924
  901MPD2    N113261   3.232   4.041  12.509  0.0223  0.0405  0.1123
  901MPD2    H713262   3.177   3.962  12.478 -0.5352  0.4857 -0.0440
  902MPD2     C13263   3.021   3.121  12.791  0.1207  0.4280 -0.1318
  902MPD2    C113264   2.966   3.191  12.686  0.0950 -0.2351  0.1451
  902MPD2    C213265   3.014   3.166  12.560 -0.0710  0.0714  0.3629
  902MPD2    C313266   3.093   3.053  12.533 -0.7110 -0.4130  0.1681
  902MPD2    C413267   3.135   2.976  12.637  0.3696  0.1443  0.1765
  902MPD2    C513268   3.096   3.013  12.764  0.1041  0.3425 -0.6032
  902MPD2     H13269   2.985   3.237  12.484  0.2635  0.3233  0.4685
  902MPD2    H113270   3.192   2.886  12.621 -0.9276 -1.1008  2.6790
  902MPD2    H213271   2.997   3.149  12.893 -2.0875 -0.1680 -0.4930
  902MPD2    H313272   3.131   2.957  12.851 -0.1778  1.7609  0.4160
  902MPD2     N13273   3.142   3.018  12.401 -0.6390  0.1488 -0.3762
  902MPD2    H513274   3.192   2.929  12.404  0.0640  0.5425 -0.3957
  902MPD2    N113275   2.886   3.302  12.717 -0.4292  0.3867  0.2041
  902MPD2    H713276   2.881   3.330  12.814  2.0743 -0.5400  0.6012
  903MPD2     C13277   2.920   3.314  11.657 -0.7925 -0.5084 -0.2846
  903MPD2    C113278   2.884   3.252  11.777 -0.6011 -0.1377  0.0941
  903MPD2    C213279   2.747   3.224  11.793 -0.5947  0.9666 -0.1963
  903MPD2    C313280   2.650   3.246  11.701  0.2036  0.2843 -0.0145
  903MPD2    C413281   2.687   3.307  11.585 -0.1823 -0.1316 -0.1052
  903MPD2    C513282   2.817   3.342  11.568 -0.5805 -0.5987 -0.3405
  903MPD2     H13283   2.712   3.180  11.886 -2.8088  2.0818 -0.5056
  903MPD2    H113284   2.622   3.327  11.501 -0.0064 -1.0589 -0.4655
  903MPD2    H213285   3.022   3.339  11.629 -0.6807 -0.8504 -0.1798
  903MPD2    H313286   2.842   3.397  11.477  1.3931  0.0054  0.5529
  903MPD2     N13287   2.519   3.203  11.733 -1.2389  0.3392 -0.0307
  903MPD2    H513288   2.512   3.165  11.827  0.3983  0.2079  0.0272
  903MPD2    N113289   2.981   3.194  11.861  0.1315  0.6491 -0.1290
  903MPD2    H713290   2.941   3.143  11.940 -1.3079  1.5449 -0.2688
  904MPD2     C13291   1.921   2.028  13.880 -0.6770  0.3676  0.4475
  904MPD2    C113292   1.958   1.965  13.996  0.0533 -0.0990 -0.0020
  904MPD2    C213293   2.089   1.929  14.012  0.5498 -0.0056  0.3639
  904MPD2    C313294   2.185   1.958  13.906 -0.2266 -0.3129  0.4593
  904MPD2    C413295   2.145   2.028  13.793 -0.3417  0.0840 -0.0219
  904MPD2    C513296   2.009   2.062  13.787  0.3335  0.0727 -0.4476
  904MPD2     H13297   2.115   1.873  14.101 -2.5429 -0.2784  1.1005
  904MPD2    H113298   2.204   2.064  13.710  2.0941 -1.2806  1.1326
  904MPD2    H213299   1.819   2.035  13.845 -0.3788 -0.1605 -0.5383
  904MPD2    H313300   1.963   2.112  13.702  2.0652  0.3506 -1.2244
  904MPD2     N13301   2.323   1.930  13.921  0.6946 -0.3621 -0.0285
  904MPD2    H513302   2.351   1.884  14.007 -2.6198  0.2424  1.3538
  904MPD2    N113303   1.863   1.928  14.090  0.2884  0.5150  0.0785
  904MPD2    H713304   1.875   1.837  14.134  1.0297  0.7767  0.4094
  905MPD2     C13305   1.441   2.109  13.577  0.3809  0.9453  1.0399
  905MPD2    C113306   1.551   2.172  13.631 -0.0634 -0.6060  0.3586
  905MPD2    C213307   1.672   2.169  13.557 -1.1092 -0.6837 -0.0126
  905MPD2    C313308   1.688   2.095  13.444  0.6344 -0.4191 -0.8053
  905MPD2    C413309   1.579   2.028  13.392  0.0425 -0.1345  0.6673
  905MPD2    C513310   1.458   2.044  13.456  0.5511 -0.7957  0.8442
  905MPD2     H13311   1.760   2.216  13.600 -0.2206 -1.9115 -0.4692
  905MPD2    H113312   1.601   1.958  13.313 -2.3896  0.7878 -0.8165
  905MPD2    H213313   1.355   2.092  13.641 -1.8420  1.7929 -1.6828
  905MPD2    H313314   1.370   1.993  13.421  0.4353 -1.6584  2.4120
  905MPD2     N13315   1.811   2.056  13.392  0.1368  1.2809  0.0223
  905MPD2    H513316   1.815   1.999  13.308 -1.1721 -0.7077  1.3028
  905MPD2    N113317   1.537   2.226  13.763  0.2595  0.3560 -0.2815
  905MPD2    H713318   1.475   2.176  13.825  1.7553 -0.2487  0.7313
  906MPD2     C13319   4.585   2.064  11.392  0.8410  0.0084  0.5375
  906MPD2    C113320   4.500   2.042  11.287  0.2433  0.5751  0.7651
  906MPD2    C213321   4.373   1.983  11.310 -0.0802 -0.0716  0.5526
  906MPD2    C313322   4.322   1.984  11.435  0.1413  0.1684 -0.1449
  906MPD2    C413323   4.415   2.004  11.540  0.0805 -0.3994 -0.0844
  906MPD2    C513324   4.543   2.039  11.517  0.3848  0.3607 -0.0161
  906MPD2     H13325   4.312   1.958  11.224  0.4349 -0.0018  0.1685
  906MPD2    H113326   4.383   1.986  11.642 -0.7342 -1.7026 -0.5670
  906MPD2    H213327   4.690   2.087  11.381 -0.2511  4.0179 -1.2647
  906MPD2    H313328   4.616   2.041  11.597 -1.9418  0.6176  2.0864
  906MPD2     N13329   4.183   1.956  11.462  0.1350 -0.4328 -0.0885
  906MPD2    H513330   4.162   1.928  11.557 -0.1653  2.5965  0.7343
  906MPD2    N113331   4.532   2.085  11.158 -0.3593  0.6870  0.3430
  906MPD2    H713332   4.474   2.058  11.079 -3.0439  1.5221  2.0307
  907MPD2     C13333   3.013   1.284  15.680 -0.2161 -0.6416 -0.0859
  907MPD2    C113334   2.987   1.149  15.696  0.2518 -0.1963  0.3012
  907MPD2    C213335   3.026   1.083  15.810 -0.1597  0.0047 -0.0029
  907MPD2    C313336   3.096   1.143  15.907  0.0282  0.7421  0.0339
  907MPD2    C413337   3.133   1.273  15.878 -0.9422  0.1263  0.0391
  907MPD2    C513338   3.089   1.346  15.770 -0.4590  0.6874  0.2937
  907MPD2     H13339   2.995   0.980  15.822 -2.3343  0.7203  0.6090
  907MPD2    H113340   3.195   1.327  15.949  0.1167 -1.9126  0.6843
  907MPD2    H213341   2.973   1.342  15.599 -3.1798 -0.8716  1.2217
  907MPD2    H313342   3.102   1.453  15.766  2.0679  0.3309 -1.9247
  907MPD2     N13343   3.137   1.073  16.022 -0.0263 -0.3299 -0.3331
  907MPD2    H513344   3.114   0.975  16.035  0.2089 -0.3992 -0.4332
  907MPD2    N113345   2.935   1.069  15.593  0.1290  0.2216 -0.0133
  907MPD2    H713346   2.945   0.968  15.601 -0.1920  0.2013  0.1514
  908MPD2     C13347   1.218   2.416   9.699  0.0289 -0.1134  0.5073
  908MPD2    C113348   1.244   2.333   9.808 -0.6931  0.2099  0.2264
  908MPD2    C213349   1.286   2.395   9.927 -0.1778  0.4485 -0.0817
  908MPD2    C313350   1.302   2.534   9.940 -0.6185  0.0602  0.3943
  908MPD2    C413351   1.262   2.610   9.832  0.1586 -0.2428  0.0063
  908MPD2    C513352   1.231   2.551   9.711 -0.1078 -0.5501 -0.5047
  908MPD2     H13353   1.307   2.341  10.018  0.5533  0.7812 -0.0525
  908MPD2    H113354   1.273   2.718   9.836 -1.4203 -0.1294  1.4719
  908MPD2    H213355   1.209   2.370   9.601  1.6682  3.3661 -1.2703
  908MPD2    H313356   1.214   2.616   9.625 -2.1092 -2.2948 -1.4493
  908MPD2     N13357   1.346   2.587  10.059 -0.1862  0.5006  0.4029
  908MPD2    H513358   1.348   2.530  10.143  0.1792 -2.5672 -1.7150
  908MPD2    N113359   1.226   2.187   9.811  0.1199 -0.0902 -0.5027
  908MPD2    H713360   1.251   2.137   9.896 -0.8846  0.7997  0.3282
  909MPD2     C13361   1.736   4.701  11.627 -0.1746 -0.9066 -0.7706
  909MPD2    C113362   1.686   0.087  11.594 -0.3927  0.3295  1.4410
  909MPD2    C213363   1.613   0.155  11.682 -0.5938 -0.2031  0.2436
  909MPD2    C313364   1.574   0.100  11.804 -0.5695  0.8583  0.3950
  909MPD2    C413365   1.620   4.716  11.831  0.0027 -0.1257 -0.5764
  909MPD2    C513366   1.693   4.643  11.747 -0.3657 -0.2551 -0.3619
  909MPD2     H13367   1.582   0.256  11.657 -4.5542 -1.9299 -1.8311
  909MPD2    H113368   1.583   4.661  11.917 -1.3893  2.0196  0.1878
  909MPD2    H213369   1.792   4.642  11.555  0.5891 -0.9816 -0.1160
  909MPD2    H313370   1.734   4.545  11.767 -0.6572 -0.1243  0.8613
  909MPD2     N13371   1.488   0.177  11.892  0.5168  0.2047  0.7468
  909MPD2    H513372   1.476   0.272  11.859  0.0585  0.2149  0.9388
  909MPD2    N113373   1.699   0.149  11.467  0.6974  0.6881 -0.0298
  909MPD2    H713374   1.658   0.242  11.454 -1.5650 -0.2690  0.3573
  910MPD2     C13375   2.272   1.664  15.929 -0.9445 -0.2935 -0.1747
  910MPD2    C113376   2.395   1.623  15.874  0.0720  0.2571  0.2404
  910MPD2    C213377   2.405   1.607  15.739  0.3920  0.6296  1.0575
  910MPD2    C313378   2.291   1.633  15.658  0.3970 -0.1101  0.0307
  910MPD2    C413379   2.174   1.666  15.709  0.1077 -0.1238 -0.4911
  910MPD2    C513380   2.164   1.671  15.847  0.8517  0.2315 -0.6382
  910MPD2     H13381   2.499   1.568  15.702 -0.7188 -0.8261 -0.2403
  910MPD2    H113382   2.083   1.673  15.651 -0.9573 -0.1146  1.1620
  910MPD2    H213383   2.256   1.693  16.032  0.4409  0.8361 -0.2865
  910MPD2    H313384   2.073   1.716  15.888 -0.6723 -2.8539 -0.6628
  910MPD2     N13385   2.299   1.601  15.522 -0.1459 -0.1345  0.0573
  910MPD2    H513386   2.217   1.596  15.463 -0.6016 -1.3089  0.7950
  910MPD2    N113387   2.502   1.590  15.956 -0.0732 -0.0789  0.3582
  910MPD2    H713388   2.587   1.566  15.907  0.0441 -0.3627  0.6967
  911MPD2     C13389   0.432   2.381  16.108  1.1441 -0.2754  0.5416
  911MPD2    C113390   0.414   2.445  16.223  0.1004  0.4170  0.0458
  911MPD2    C213391   0.348   2.563  16.230  0.1329 -0.0618  0.1298
  911MPD2    C313392   0.298   2.620  16.113  0.2460 -0.0802 -0.0455
  911MPD2    C413393   0.318   2.553  15.997  0.4670 -0.3452 -0.5644
  911MPD2    C513394   0.389   2.434  15.992 -0.0320 -0.4400 -0.3519
  911MPD2     H13395   0.349   2.620  16.322  0.3589  2.2927 -1.3099
  911MPD2    H113396   0.295   2.599  15.902 -0.3240 -3.2467 -1.7783
  911MPD2    H213397   0.468   2.279  16.114  2.4907  0.2243  0.9009
  911MPD2    H313398   0.379   2.370  15.905 -0.4966  1.9174 -2.0437
  911MPD2     N13399   0.240   2.746  16.112  0.6100  0.3473  0.1759
  911MPD2    H513400   0.222   2.785  16.019 -0.1756  0.7021  0.4714
  911MPD2    N113401   0.473   2.376  16.332  0.1194 -0.0048 -0.3152
  911MPD2    H713402   0.517   2.286  16.312  0.7420 -0.2686  2.2122
  912MPD2     C13403   0.018   2.571  15.687  0.3533  0.4619 -0.3621
  912MPD2    C113404   4.715   2.588  15.814  0.9743 -0.3018  0.0782
  912MPD2    C213405   4.731   2.488  15.902 -0.8762 -0.3744 -0.3950
  912MPD2    C313406   0.057   2.373  15.867  0.3143  0.2507 -0.4816
  912MPD2    C413407   0.119   2.364  15.746  0.6625  0.6464  0.0515
  912MPD2    C513408   0.093   2.461  15.656  0.6948  0.1287 -0.3296
  912MPD2     H13409   4.702   2.501  16.006 -0.0307 -2.0537  0.0474
  912MPD2    H113410   0.180   2.276  15.728  0.9587  0.7364  0.6079
  912MPD2    H213411   0.011   2.653  15.616 -0.2174  0.7288  0.0025
  912MPD2    H313412   0.133   2.460  15.555 -1.1930 -2.5341 -1.0532
  912MPD2     N13413   0.075   2.283  15.973 -0.2342  0.1145  0.1177
  912MPD2    H513414   0.025   2.306  16.058  0.4371  1.4583  0.1627
  912MPD2    N113415   4.659   2.712  15.847  0.0443 -0.1355 -0.1580
  912MPD2    H713416   4.680   2.788  15.783 -2.0966 -0.6483 -1.4427
  913MPD2     C13417   0.956   4.210  11.810 -0.3033  0.1660  0.2242
  913MPD2    C113418   0.980   4.105  11.720 -0.5519 -0.4788 -0.8710
  913MPD2    C213419   0.974   4.144  11.582 -0.0522  0.6605 -0.8607
  913MPD2    C313420   0.957   4.276  11.540  0.6499  0.2271 -0.7666
  913MPD2    C413421   0.928   4.373  11.633  0.2147 -0.0662  0.3362
  913MPD2    C513422   0.925   4.336  11.766  0.1577 -0.6312 -0.1963
  913MPD2     H13423   0.985   4.071  11.503  1.2666  0.0611 -0.1140
  913MPD2    H113424   0.916   4.476  11.601  0.8697  0.3829  1.5241
  913MPD2    H213425   0.964   4.181  11.914  0.2863 -0.1316  0.0952
  913MPD2    H313426   0.897   4.398  11.851 -0.2006 -1.1253  0.0522
  913MPD2     N13427   0.972   4.306  11.406  0.0994 -0.1291 -0.4464
  913MPD2    H513428   0.992   4.403  11.383  0.5847 -0.3382 -0.9087
  913MPD2    N113429   1.022   3.974  11.759 -0.4712 -0.0223  0.7320
  913MPD2    H713430   1.053   3.968  11.856 -0.7314  0.7092  0.8640
  914MPD2     C13431   3.141   3.633  11.820 -0.4599  0.1856 -0.1319
  914MPD2    C113432   3.173   3.760  11.859 -0.1733  0.2014 -0.1777
  914MPD2    C213433   3.246   3.778  11.974  0.2721  0.4959  0.0911
  914MPD2    C313434   3.271   3.673  12.062  0.0986 -0.2445  0.0711
  914MPD2    C413435   3.246   3.544  12.017 -0.2298  0.3124  1.0670
  914MPD2    C513436   3.181   3.526  11.897 -0.2422 -0.0203 -0.1234
  914MPD2     H13437   3.273   3.877  12.009 -0.7708  0.5534  0.7323
  914MPD2    H113438   3.270   3.457  12.077 -1.4095 -1.2781 -0.7683
  914MPD2    H213439   3.084   3.603  11.732  1.9376 -4.0659 -0.2239
  914MPD2    H313440   3.146   3.431  11.859 -0.8739 -0.3392  1.2555
  914MPD2     N13441   3.344   3.699  12.178  0.8403  0.4918 -0.1528
  914MPD2    H513442   3.361   3.797  12.194  0.1668  0.4256  0.9698
  914MPD2    N113443   3.149   3.870  11.768 -0.2451  0.5081 -0.3130
  914MPD2    H713444   3.126   3.847  11.671 -1.9297  0.2767  0.1411
  915MPD2     C13445   1.474   3.869  15.940  0.1562  0.2892 -0.1247
  915MPD2    C113446   1.357   3.796  15.965  1.0061 -0.8531  0.1786
  915MPD2    C213447   1.289   3.826  16.082  0.1630 -0.0512 -0.2674
  915MPD2    C313448   1.331   3.915  16.173 -0.3498  0.6399 -0.2625
  915MPD2    C413449   1.450   3.980  16.147  0.6099  0.0114  0.7517
  915MPD2    C513450   1.527   3.952  16.033  0.5994 -0.5867 -0.3497
  915MPD2     H13451   1.196   3.777  16.109 -0.5042  0.6491 -1.2622
  915MPD2    H113452   1.491   4.056  16.214 -0.2981  0.3370  0.9394
  915MPD2    H213453   1.528   3.867  15.846 -0.1900 -1.1904 -0.2883
  915MPD2    H313454   1.623   3.994  16.006 -0.4543  1.5456 -0.7230
  915MPD2     N13455   1.253   3.949  16.282  0.0797 -0.5943  0.1446
  915MPD2    H513456   1.160   3.910  16.271 -0.1255  0.7236 -2.9208
  915MPD2    N113457   1.313   3.705  15.867  0.1762  0.0353 -0.3180
  915MPD2    H713458   1.360   3.703  15.777  0.0349  2.5063 -0.4567
  916MPD2     C13459   4.488   2.249  15.831 -0.3169 -0.3698  0.3765
  916MPD2    C113460   4.441   2.155  15.925 -0.1795 -0.3930 -0.4348
  916MPD2    C213461   4.472   2.023  15.899  0.7349 -0.0270  0.7078
  916MPD2    C313462   4.543   1.981  15.792 -0.1566  0.2649  0.0244
  916MPD2    C413463   4.588   2.076  15.704  0.0134 -0.6283  0.5206
  916MPD2    C513464   4.559   2.209  15.725 -0.2306  0.0352  0.2024
  916MPD2     H13465   4.445   1.939  15.962 -0.8184 -0.6595 -0.8227
  916MPD2    H113466   4.642   2.049  15.614  1.1918 -0.1158  1.0696
  916MPD2    H213467   4.473   2.356  15.844  1.5096 -0.2836  1.7630
  916MPD2    H313468   4.612   2.277  15.660 -1.1625 -0.4690 -1.0833
  916MPD2     N13469   4.559   1.845  15.772 -0.0486 -0.1300  0.5180
  916MPD2    H513470   4.528   1.795  15.855  0.3185 -1.6456 -0.2641
  916MPD2    N113471   4.363   2.200  16.036 -0.6126 -0.0963  0.2451
  916MPD2    H713472   4.325   2.294  16.041  0.8749  0.3998  2.1445
  917MPD2     C13473   0.104   4.627  11.893  0.2437  0.8000 -0.0514
  917MPD2    C113474   0.004   4.706  11.836 -0.3101  0.7802  0.2398
  917MPD2    C213475   0.044   0.064  11.745  0.8388  0.0690 -0.3423
  917MPD2    C313476   0.179   0.070  11.697  0.2736  0.3336 -0.3155
  917MPD2    C413477   0.272   4.727  11.756  0.0742 -0.1339  0.6092
  917MPD2    C513478   0.230   4.634  11.848  0.3110  0.2498 -0.3909
  917MPD2     H13479   4.712   0.140  11.712 -1.3398 -1.6728  0.3034
  917MPD2    H113480   0.378   4.728  11.734  0.1069 -0.5653  0.7498
  917MPD2    H213481   0.080   4.559  11.974 -1.3629 -1.7736 -2.6867
  917MPD2    H313482   0.307   4.561  11.873 -1.3398 -1.3408 -0.0128
  917MPD2     N13483   0.223   0.175  11.616 -0.4339  0.1681 -0.1861
  917MPD2    H513484   0.323   0.189  11.610 -0.6440  0.7918 -2.3566
  917MPD2    N113485   4.610   4.677  11.877 -0.3680 -0.5765 -0.0106
  917MPD2    H713486   4.588   4.610  11.951  0.3346  2.4744  2.9643
  918MPD2     C13487   4.516   0.032  12.731 -0.4009  0.6896 -0.4128
  918MPD2    C113488   4.607   0.069  12.635  0.7008  0.0744  0.2477
  918MPD2    C213489   4.575   0.044  12.498 -0.5214 -0.3440 -0.4210
  918MPD2    C313490   4.449   0.005  12.461 -0.0721 -0.2322 -0.6506
  918MPD2    C413491   4.358   4.711  12.561  0.7748 -0.1273  1.3734
  918MPD2    C513492   4.396   4.717  12.696 -0.3588 -0.1663 -0.1374
  918MPD2     H13493   4.645   0.056  12.416 -1.1115  0.0934 -0.8570
  918MPD2    H113494   4.258   4.675  12.541  0.5700  1.8148 -1.0282
  918MPD2    H213495   4.542   0.035  12.836 -2.2658  2.2155 -0.0043
  918MPD2    H313496   4.325   4.678  12.769 -0.4641  2.2581  1.0507
  918MPD2     N13497   4.415   0.016  12.327 -0.6275 -0.0774  0.0435
  918MPD2    H513498   4.492   0.034  12.263 -2.9569 -0.9957 -3.0207
  918MPD2    N113499   4.728   0.131  12.658 -0.5493 -0.6278  0.5441
  918MPD2    H713500   0.045   0.131  12.573 -0.9992 -0.7152  0.2497
  919MPD2     C13501   0.630   3.783  12.089  0.5511 -0.1061 -0.1008
  919MPD2    C113502   0.604   3.697  11.979 -0.8263  0.1869  0.2239
  919MPD2    C213503   0.628   3.743  11.849 -0.3712 -0.2317 -0.1149
  919MPD2    C313504   0.681   3.872  11.830 -0.6156  0.0534 -0.2260
  919MPD2    C413505   0.696   3.953  11.942  0.1010 -0.0882 -0.2894
  919MPD2    C513506   0.671   3.911  12.068 -0.1125  0.3430  0.0326
  919MPD2     H13507   0.589   3.691  11.762 -3.5856  0.6497  0.8034
  919MPD2    H113508   0.723   4.058  11.935 -1.2637  0.2648 -0.2979
  919MPD2    H213509   0.625   3.750  12.192  3.1270 -1.0283 -0.2712
  919MPD2    H313510   0.702   3.976  12.148  1.0091 -0.6087  0.3691
  919MPD2     N13511   0.707   3.930  11.708  0.4166 -0.5379  0.2102
  919MPD2    H513512   0.718   4.031  11.713 -0.3561 -0.5641  2.1008
  919MPD2    N113513   0.549   3.573  11.990  0.5317  0.3780 -0.5855
  919MPD2    H713514   0.532   3.522  11.904  2.4287  0.3686 -0.9345
  920MPD2     C13515   0.003   4.195  11.028  0.3315 -0.0297  0.1519
  920MPD2    C113516   0.099   4.149  10.942 -0.5299 -0.0677 -0.1468
  920MPD2    C213517   0.223   4.117  11.001 -0.8584 -0.0951 -0.3855
  920MPD2    C313518   0.247   4.127  11.134 -0.2301  0.5327 -0.2784
  920MPD2    C413519   0.151   4.180  11.222 -0.2876 -0.0173  0.2745
  920MPD2    C513520   0.031   4.206  11.160  0.0829  0.8759 -0.4447
  920MPD2     H13521   0.303   4.077  10.940  0.1667 -0.2880  1.0668
  920MPD2    H113522   0.152   4.186  11.330 -2.0757 -0.8756  0.3451
  920MPD2    H213523   4.644   4.231  10.997  0.2748  1.3368  1.9334
  920MPD2    H313524   4.693   4.251  11.222 -2.1026 -1.9541 -1.0792
  920MPD2     N13525   0.376   4.085  11.177  0.1793  0.2671  0.3134
  920MPD2    H513526   0.445   4.067  11.105 -0.7841 -2.1233 -0.0253
  920MPD2    N113527   0.077   4.126  10.803 -0.6735 -0.4814 -0.3361
  920MPD2    H713528   0.165   4.117  10.754 -0.9279 -0.2738 -0.8392
  921MPD2     C13529   1.190   2.850  16.829 -0.0431 -0.2423 -0.3577
  921MPD2    C113530   1.229   2.776  16.717 -0.3292 -0.5468 -0.1633
  921MPD2    C213531   1.149   2.666  16.676  0.3803 -0.2250 -0.2132
  921MPD2    C313532   1.044   2.626  16.756 -0.0472  0.1149 -0.8496
  921MPD2    C413533   1.011   2.704  16.870 -0.0611 -0.0455  1.2610
  921MPD2    C513534   1.086   2.819  16.905  0.1125 -0.0849 -0.3096
  921MPD2     H13535   1.170   2.600  16.592 -1.0423 -0.1609 -0.6100
  921MPD2    H113536   0.929   2.671  16.933  0.0098 -1.0080  0.8491
  921MPD2    H213537   1.241   2.939  16.865  0.4590 -0.4044 -0.6633
  921MPD2    H313538   1.068   2.873  16.998 -1.2755 -0.5688 -0.3062
  921MPD2     N13539   0.968   2.515  16.707 -0.0432  0.0919  0.0726
  921MPD2    H513540   0.994   2.467  16.622 -0.8939 -1.0166  0.4429
  921MPD2    N113541   1.343   2.814  16.644 -0.2721  0.1210 -0.2626
  921MPD2    H713542   1.393   2.893  16.682  0.5110 -0.1489 -0.7309
  922MPD2     C13543   1.853   0.953  17.190  0.9843  0.2085 -0.4526
  922MPD2    C113544   1.842   0.995  17.322 -0.6764 -0.0664  0.4836
  922MPD2    C213545   1.832   0.901  17.417  0.4471 -0.6123 -0.2779
  922MPD2    C313546   1.819   0.767  17.386 -0.2997 -0.1873 -0.1518
  922MPD2    C413547   1.826   0.732  17.252  0.2957 -0.6208 -0.2262
  922MPD2    C513548   1.848   0.819  17.159 -0.1839 -0.4990  0.6048
  922MPD2     H13549   1.845   0.924  17.523  2.1858 -0.3494 -0.5495
  922MPD2    H113550   1.819   0.628  17.221 -1.0199 -0.5232 -0.2513
  922MPD2    H213551   1.874   1.024  17.111  0.4905  1.0480  0.1708
  922MPD2    H313552   1.861   0.795  17.054 -2.3303  1.4629 -0.1129
  922MPD2     N13553   1.797   0.674  17.486  0.1794  0.2980  0.2247
  922MPD2    H513554   1.805   0.713  17.580 -1.5407 -0.2340  0.6071
  922MPD2    N113555   1.831   1.132  17.356 -0.5972 -0.3789 -0.2136
  922MPD2    H713556   1.815   1.147  17.455  0.8145 -0.1504 -0.0282
  923MPD2     C13557   3.918   3.278   9.026  0.1842 -0.5121 -0.4195
  923MPD2    C113558   3.906   3.239   9.160  0.9458 -0.0309  0.3361
  923MPD2    C213559   4.010   3.282   9.243 -0.2415 -0.3642  0.6866
  923MPD2    C313560   4.112   3.366   9.196  0.2976 -0.1748 -0.2981
  923MPD2    C413561   4.125   3.391   9.062  0.4266 -0.2373 -0.2341
  923MPD2    C513562   4.022   3.340   8.973 -0.1826  0.4866  0.9529
  923MPD2     H13563   4.010   3.258   9.349 -2.6253  0.6321  0.9096
  923MPD2    H113564   4.200   3.448   9.009 -0.5322  2.3847  1.2028
  923MPD2    H213565   3.843   3.236   8.959 -1.0465 -0.2645  0.8100
  923MPD2    H313566   4.017   3.361   8.867 -0.2505  1.1496  1.0874
  923MPD2     N13567   4.222   3.407   9.278 -0.5185 -0.3799  0.3950
  923MPD2    H513568   4.292   3.471   9.242 -0.6283 -0.3422  0.2495
  923MPD2    N113569   3.795   3.162   9.198 -0.1422  0.0068  0.0205
  923MPD2    H713570   3.737   3.141   9.118 -0.6928  1.1529  0.1298
  924MPD2     C13571   3.290   0.268  16.544  0.0036  0.6746 -0.2174
  924MPD2    C113572   3.207   0.338  16.464 -0.2060  0.3814 -1.0566
  924MPD2    C213573   3.230   0.462  16.406 -0.7825  0.2567  0.0911
  924MPD2    C313574   3.350   0.520  16.446 -0.0282 -0.2390  0.0752
  924MPD2    C413575   3.439   0.457  16.528 -0.8321 -0.9695  0.0605
  924MPD2    C513576   3.404   0.336  16.578  0.4172 -0.2790  0.1434
  924MPD2     H13577   3.153   0.512  16.349 -0.2719  0.0038 -0.8166
  924MPD2    H113578   3.528   0.506  16.567 -1.2158 -0.2720  0.0389
  924MPD2    H213579   3.263   0.178  16.597 -3.5567  1.2795 -0.9987
  924MPD2    H313580   3.472   0.304  16.657  1.6789  1.0170 -0.4062
  924MPD2     N13581   3.384   0.649  16.404 -0.0623 -0.6308 -0.1043
  924MPD2    H513582   3.468   0.689  16.445 -0.9538  0.1098  1.0238
  924MPD2    N113583   3.081   0.274  16.455 -0.0285 -0.0685 -0.6244
  924MPD2    H713584   3.059   0.201  16.523 -0.2332 -0.2619 -0.8978
  925MPD2     C13585   1.800   3.338  14.476  0.4390  0.2116  1.1828
  925MPD2    C113586   1.903   3.244  14.488  0.1106  0.2390  0.8703
  925MPD2    C213587   1.922   3.177  14.607  0.6901  0.7867  0.3092
  925MPD2    C313588   1.849   3.202  14.716 -0.0972 -0.4568 -0.2658
  925MPD2    C413589   1.753   3.302  14.707 -0.4416 -0.7526 -0.0052
  925MPD2    C513590   1.727   3.361  14.592 -0.2591  0.0708 -0.2474
  925MPD2     H13591   1.993   3.096  14.615 -1.3513 -0.9113  1.3139
  925MPD2    H113592   1.685   3.317  14.791 -1.4406 -0.2863 -0.8973
  925MPD2    H213593   1.789   3.399  14.387  0.2145 -3.0771 -1.0662
  925MPD2    H313594   1.644   3.430  14.605 -1.6320 -1.3084 -1.5740
  925MPD2     N13595   1.870   3.151  14.844 -0.1238  0.2301  0.4419
  925MPD2    H513596   1.799   3.162  14.916  1.9271  0.6056  2.4004
  925MPD2    N113597   1.993   3.207  14.380 -0.3757 -0.8087 -0.3324
  925MPD2    H713598   2.067   3.142  14.405  1.4067  0.7740 -1.5845
  926MPD2     C13599   1.112   1.468  13.437 -0.7759 -0.2159  0.5208
  926MPD2    C113600   1.074   1.603  13.436  0.2190 -0.2447 -0.4060
  926MPD2    C213601   1.145   1.693  13.366 -0.0572 -0.3108  0.1295
  926MPD2    C313602   1.253   1.661  13.286  0.6536  0.3513 -0.4057
  926MPD2    C413603   1.289   1.527  13.286 -0.1198  0.5148  0.5005
  926MPD2    C513604   1.215   1.432  13.358 -0.2613 -0.3926 -0.1506
  926MPD2     H13605   1.118   1.797  13.374  1.6334 -0.0353  2.4864
  926MPD2    H113606   1.384   1.502  13.240 -0.4433  1.0993 -0.4888
  926MPD2    H213607   1.069   1.391  13.500  0.9136 -0.9334  0.7749
  926MPD2    H313608   1.258   1.333  13.344  0.4182  0.1873 -2.2591
  926MPD2     N13609   1.331   1.749  13.206 -0.6137  0.1356 -0.0314
  926MPD2    H513610   1.417   1.711  13.169 -1.0130 -0.7488 -0.0446
  926MPD2    N113611   0.966   1.657  13.505  0.5610  0.4754 -0.1809
  926MPD2    H713612   0.951   1.756  13.489 -0.4291 -0.0400 -2.3231
  927MPD2     C13613   4.531   4.013  17.675  0.4464  0.2387  0.0920
  927MPD2    C113614   4.641   4.087  17.722  0.4150  0.3671 -0.9027
  927MPD2    C213615   0.003   4.122  17.632 -0.7538  0.1999 -0.1219
  927MPD2    C313616   4.727   4.094  17.493 -0.1717 -0.8580 -0.6226
  927MPD2    C413617   4.618   4.022  17.449  0.7084  0.4019 -0.0246
  927MPD2    C513618   4.524   3.991  17.542  0.7717  0.8938 -0.0624
  927MPD2     H13619   0.091   4.177  17.665 -1.8391  1.6723  0.3076
  927MPD2    H113620   4.606   3.993  17.345 -0.4062 -0.1643  0.2674
  927MPD2    H213621   4.456   3.981  17.747 -0.2917  0.7966 -0.4319
  927MPD2    H313622   4.442   3.928  17.509  0.0272  0.8450  1.8694
  927MPD2     N13623   0.088   4.143  17.412 -0.5636 -0.4130 -0.5357
  927MPD2    H513624   0.174   4.176  17.455 -1.9262  1.4136  0.7794
  927MPD2    N113625   4.641   4.123   0.109  0.2232 -0.1379 -0.4172
  927MPD2    H713626   4.565   4.097   0.172 -1.2234  1.5753 -1.4444
  928MPD2     C13627   3.320   2.134   1.078 -0.0662 -0.9290  0.3264
  928MPD2    C113628   3.436   2.207   1.031  0.7578 -0.2821  1.0747
  928MPD2    C213629   3.468   2.203   0.902  0.2163  0.1783 -0.0551
  928MPD2    C313630   3.401   2.130   0.813  0.8300  0.0836 -1.3293
  928MPD2    C413631   3.295   2.058   0.850  0.0602  0.6826  0.3394
  928MPD2    C513632   3.252   2.061   0.980  0.2638 -0.8692 -0.5015
  928MPD2     H13633   3.556   2.256   0.867 -1.0435  1.0185 -1.9618
  928MPD2    H113634   3.240   1.991   0.784 -0.2582 -0.2979  1.6016
  928MPD2    H213635   3.293   2.125   1.183  0.0041  0.0526  0.4335
  928MPD2    H313636   3.167   1.996   0.997 -0.3307 -0.0665 -0.4029
  928MPD2     N13637   3.430   2.131   0.675  0.2172 -0.4584  0.1906
  928MPD2    H513638   3.359   2.080   0.623 -1.3970  2.8227 -0.8172
  928MPD2    N113639   3.515   2.296   1.113 -0.0610 -0.2059 -0.5139
  928MPD2    H713640   3.598   2.335   1.068 -1.0884  2.1665 -0.3315
  929MPD2     C13641   3.968   2.425  10.406 -0.2170  0.4310  0.2526
  929MPD2    C113642   3.840   2.377  10.421 -0.1233  0.8139  0.9604
  929MPD2    C213643   3.746   2.425  10.330 -0.0797 -0.1773  0.4857
  929MPD2    C313644   3.777   2.513  10.230 -0.2034  0.3054  0.0354
  929MPD2    C413645   3.910   2.544  10.212  0.2935 -0.3634  0.4647
  929MPD2    C513646   4.000   2.510  10.307 -0.3364 -0.5224 -0.0736
  929MPD2     H13647   3.650   2.376  10.331  0.3906 -1.0814  0.7242
  929MPD2    H113648   3.942   2.607  10.129 -2.2881  0.5385  0.1608
  929MPD2    H213649   4.048   2.407  10.477 -0.4620 -1.5734  0.0242
  929MPD2    H313650   4.099   2.553  10.297 -1.8833  2.9011 -0.4469
  929MPD2     N13651   3.681   2.569  10.138 -0.4345 -0.4602  0.5475
  929MPD2    H513652   3.723   2.625  10.065 -1.4869  0.3229  0.5549
  929MPD2    N113653   3.819   2.294  10.535  0.0138 -0.5151 -0.4086
  929MPD2    H713654   3.891   2.270  10.602  0.9442 -1.5003 -1.7506
  930MPD2     C13655   0.087   4.164  14.487  0.0948 -0.3998  0.3691
  930MPD2    C113656   0.218   4.142  14.454 -0.9422 -0.4264  0.0842
  930MPD2    C213657   0.247   4.133  14.316  0.2850 -0.7659  0.3400
  930MPD2    C313658   0.146   4.136  14.217  0.2970 -0.8780  0.4587
  930MPD2    C413659   0.016   4.142  14.263 -0.5129  0.3865 -0.2068
  930MPD2    C513660   4.728   4.163  14.394 -0.3854 -0.3672  0.1356
  930MPD2     H13661   0.349   4.119  14.284  0.6638  2.4668  0.0932
  930MPD2    H113662   4.678   4.148  14.187 -0.7124 -1.5271 -0.1711
  930MPD2    H213663   0.063   4.164  14.593 -3.1688  1.5014 -0.3838
  930MPD2    H313664   4.626   4.171  14.431  0.0082  0.2158  1.0973
  930MPD2     N13665   0.171   4.123  14.073 -0.0314 -0.1724 -0.3163
  930MPD2    H513666   0.086   4.107  14.020 -0.9372  0.2639  1.0073
  930MPD2    N113667   0.322   4.163  14.555  0.7205  1.3419 -0.2690
  930MPD2    H713668   0.313   4.216  14.642  2.5549  2.1840 -0.5951
  931MPD2     C13669   0.413   4.177   0.746  0.4609  0.3875 -0.1450
  931MPD2    C113670   0.274   4.150   0.762 -0.1897 -0.4859  0.0207
  931MPD2    C213671   0.227   4.094   0.880 -0.4630 -0.1095 -0.2342
  931MPD2    C313672   0.317   4.034   0.965 -1.1755 -0.5110 -0.5198
  931MPD2    C413673   0.456   4.050   0.942  0.3214  0.2177  0.4799
  931MPD2    C513674   0.495   4.122   0.837 -0.6795 -0.2822 -0.2328
  931MPD2     H13675   0.122   4.068   0.884 -0.6814  0.8786  0.3991
  931MPD2    H113676   0.526   3.987   0.995 -2.0215 -1.6224  1.4282
  931MPD2    H213677   0.454   4.225   0.658  0.5408  0.3612 -0.1222
  931MPD2    H313678   0.603   4.130   0.845 -0.7095  0.1140 -0.2399
  931MPD2     N13679   0.264   3.957   1.071  1.2152 -0.5523 -0.4097
  931MPD2    H513680   0.323   3.889   1.118  1.3867  0.4786  0.8721
  931MPD2    N113681   0.191   4.207   0.660 -0.3611  0.4763  0.1229
  931MPD2    H713682   0.238   4.252   0.583 -0.1286 -2.3355 -1.3836
  932MPD2     C13683   2.101   3.318  11.044  0.2055 -0.5363 -0.5969
  932MPD2    C113684   2.229   3.307  11.082 -0.4072  0.6853 -0.2697
  932MPD2    C213685   2.269   3.191  11.141 -0.2254 -0.3469 -0.5892
  932MPD2    C313686   2.181   3.097  11.190 -0.0837 -0.2192 -0.0478
  932MPD2    C413687   2.051   3.129  11.172 -0.4433  0.2526  0.0398
  932MPD2    C513688   2.004   3.235  11.091 -0.0891 -0.6596 -0.1459
  932MPD2     H13689   2.369   3.195  11.184 -0.7595 -1.3358  0.7634
  932MPD2    H113690   1.968   3.072  11.213 -0.8680  1.2809  0.6226
  932MPD2    H213691   2.080   3.400  10.976 -0.0773 -0.6883 -0.6924
  932MPD2    H313692   1.900   3.257  11.073  0.6812  2.6055 -0.6374
  932MPD2     N13693   2.215   2.984  11.263  0.0840 -0.1493 -0.1948
  932MPD2    H513694   2.137   2.940  11.310 -0.1408  1.8761  1.3596
  932MPD2    N113695   2.321   3.419  11.064  0.1593 -0.2632 -0.7247
  932MPD2    H713696   2.408   3.419  11.116  0.5898 -1.1251 -1.4503
  933MPD2     C13697   3.744   3.064   1.563  0.7964  0.3611 -0.4831
  933MPD2    C113698   3.643   2.999   1.505  0.5026  0.4129  0.0873
  933MPD2    C213699   3.520   3.067   1.489 -0.2465 -0.0702 -0.3305
  933MPD2    C313700   3.503   3.198   1.524  0.3734 -0.5764 -0.0339
  933MPD2    C413701   3.611   3.258   1.578  0.3618 -0.6426  0.3634
  933MPD2    C513702   3.728   3.195   1.594  0.7498 -0.2827  0.5360
  933MPD2     H13703   3.435   3.013   1.448  0.7374 -0.4420 -1.8750
  933MPD2    H113704   3.596   3.360   1.613  1.0079 -0.0436 -1.1337
  933MPD2    H213705   3.837   3.013   1.580  0.4024 -0.8941 -2.1103
  933MPD2    H313706   3.811   3.245   1.644 -0.4951 -0.2732  2.5818
  933MPD2     N13707   3.378   3.255   1.512  0.4285 -0.1711  0.1097
  933MPD2    H513708   3.304   3.190   1.490 -1.7669  2.2307  0.4760
  933MPD2    N113709   3.673   2.862   1.473  0.3844  0.0171  1.0410
  933MPD2    H713710   3.768   2.828   1.484  0.7579  0.6329 -0.3025
  934MPD2     C13711   3.888   0.900   1.919  0.8264  0.5159 -0.1982
  934MPD2    C113712   3.972   0.827   1.832 -0.1948 -0.3449  0.5086
  934MPD2    C213713   3.931   0.705   1.777 -0.1361 -0.5414  0.0444
  934MPD2    C313714   3.804   0.657   1.801  0.0773  0.6006 -0.3759
  934MPD2    C413715   3.721   0.737   1.878  0.3527 -0.6015 -0.5770
  934MPD2    C513716   3.760   0.850   1.931  0.8928  0.6966  0.4273
  934MPD2     H13717   4.005   0.645   1.727  1.5451 -0.3248  2.2969
  934MPD2    H113718   3.617   0.717   1.902  0.5960  1.7563  2.4627
  934MPD2    H213719   3.907   0.995   1.968 -4.0799  1.2252  0.3654
  934MPD2    H313720   3.695   0.919   1.984 -0.0420  0.2383 -0.1319
  934MPD2     N13721   3.758   0.534   1.759 -0.3395  0.2020  0.2365
  934MPD2    H513722   3.657   0.522   1.764 -0.0146 -2.5775  0.2778
  934MPD2    N113723   4.108   0.857   1.823  0.0657 -0.3755  0.3899
  934MPD2    H713724   4.159   0.792   1.765 -0.3091 -0.0842 -0.2729
  935MPD2     C13725   4.208   4.617   1.128  0.3146 -0.2594  0.2984
  935MPD2    C113726   4.085   4.566   1.163 -0.3102 -0.1558 -0.3010
  935MPD2    C213727   3.998   4.640   1.240 -0.2816  0.0958 -0.4057
  935MPD2    C313728   4.028   0.030   1.277  0.0324  0.3717 -0.8500
  935MPD2    C413729   4.154   0.076   1.249 -0.4863  0.6788  0.0136
  935MPD2    C513730   4.245   4.734   1.174 -0.5786  0.3573  0.1849
  935MPD2     H13731   3.899   4.605   1.266  0.2510 -1.3806 -0.3777
  935MPD2    H113732   4.188   0.171   1.289  2.3847 -0.0600 -0.6122
  935MPD2    H213733   4.287   4.561   1.080 -0.5235 -0.3245 -1.0055
  935MPD2    H313734   4.344   0.036   1.154 -0.0794  0.4758  2.9201
  935MPD2     N13735   3.951   0.104   1.369  0.5079  0.1274 -0.1325
  935MPD2    H513736   3.980   0.200   1.384  0.5305  0.5625 -2.8713
  935MPD2    N113737   4.057   4.429   1.134 -0.0457  0.3003  0.4411
  935MPD2    H713738   3.962   4.398   1.153  0.1750 -1.4252 -1.2886
  936MPD2     C13739   3.101   1.043  13.121  0.2419 -0.5339  0.1798
  936MPD2    C113740   2.991   1.116  13.074  0.4818  0.1752  0.2783
  936MPD2    C213741   2.992   1.171  12.948 -0.4606  0.4922 -0.1108
  936MPD2    C313742   3.093   1.155  12.864  0.1248 -0.0704 -0.2100
  936MPD2    C413743   3.203   1.088  12.911 -0.0049 -0.0089  0.1392
  936MPD2    C513744   3.207   1.033  13.040 -0.5758  0.9614 -0.5450
  936MPD2     H13745   2.913   1.241  12.924  0.6584  1.0755 -2.1104
  936MPD2    H113746   3.297   1.088  12.858  0.3084 -1.1647  0.6982
  936MPD2    H213747   3.107   1.011  13.225 -0.7966  1.2975  0.7995
  936MPD2    H313748   3.296   0.979  13.071  0.0712  2.6056  0.4759
  936MPD2     N13749   3.107   1.216  12.737  0.8236 -0.3300 -0.2282
  936MPD2    H513750   3.190   1.199  12.681  1.1530  0.3878  0.0425
  936MPD2    N113751   2.885   1.153  13.155 -0.7091  0.3872  0.0147
  936MPD2    H713752   2.815   1.214  13.113  0.0807  0.9254 -0.5088
  937MPD2     C13753   0.656   2.994  11.588 -0.4647 -0.4276  0.3961
  937MPD2    C113754   0.680   3.121  11.642 -0.3276  0.7901 -0.0538
  937MPD2    C213755   0.801   3.181  11.610 -0.4567  0.1842  1.0767
  937MPD2    C313756   0.892   3.123  11.521  0.3052 -0.7288  0.2615
  937MPD2    C413757   0.864   2.992  11.476 -0.3968  0.0734  0.1225
  937MPD2    C513758   0.742   2.927  11.498 -0.3734  0.2127  0.0513
  937MPD2     H13759   0.825   3.277  11.656 -1.6478  0.9269  0.1592
  937MPD2    H113760   0.937   2.944  11.411  1.7127  0.4997  2.1341
  937MPD2    H213761   0.561   2.949  11.614 -1.4940  0.3860 -1.9588
  937MPD2    H313762   0.719   2.833  11.449 -1.0888 -0.0635  0.9263
  937MPD2     N13763   1.013   3.187  11.491  0.3541 -0.6561  0.4533
  937MPD2    H513764   1.028   3.277  11.535 -1.9056  1.4613 -3.0776
  937MPD2    N113765   0.614   3.162  11.761 -1.6523  0.1024 -0.1035
  937MPD2    H713766   0.623   3.258  11.793 -2.2269  0.4424 -0.9806
  938MPD2     C13767   3.013   4.538   0.433  0.3665 -0.3134 -0.8165
  938MPD2    C113768   3.084   4.585   0.544  0.6559 -0.7006  0.1015
  938MPD2    C213769   3.075   4.516   0.659  0.3710 -0.4757  0.4389
  938MPD2    C313770   3.009   4.388   0.667 -0.6627  0.3401 -0.3406
  938MPD2    C413771   2.945   4.348   0.555 -0.0828 -0.1617  0.1041
  938MPD2    C513772   2.937   4.425   0.443  0.3404 -0.3304 -0.3850
  938MPD2     H13773   3.139   4.562   0.734 -0.5066 -0.0096  0.9019
  938MPD2    H113774   2.875   4.265   0.556 -1.2349  0.8041 -0.2363
  938MPD2    H213775   3.008   4.591   0.338 -0.5321 -1.2592 -1.2972
  938MPD2    H313776   2.866   4.393   0.368 -0.4942 -2.8495  1.4789
  938MPD2     N13777   3.009   4.305   0.775 -0.5054 -0.4557 -0.0155
  938MPD2    H513778   2.962   4.215   0.770 -0.1754 -0.6701  0.6627
  938MPD2    N113779   3.147   4.708   0.543  0.2137 -0.3617 -0.5515
  938MPD2    H713780   3.189   4.735   0.631 -0.0406 -1.5642 -0.0617
  939MPD2     C13781   4.268   1.295   0.268  0.0591  0.1740 -0.1560
  939MPD2    C113782   4.245   1.220   0.382 -0.1314 -0.5489  0.5881
  939MPD2    C213783   4.223   1.084   0.371  1.0596 -0.2231 -0.2212
  939MPD2    C313784   4.230   1.024   0.246 -0.2566  0.1238  0.4557
  939MPD2    C413785   4.250   1.099   0.134  0.4842 -0.2244 -0.4406
  939MPD2    C513786   4.264   1.235   0.146  0.1871 -0.2702 -0.6600
  939MPD2     H13787   4.200   1.020   0.455 -0.2658  0.9019  0.2722
  939MPD2    H113788   4.258   1.052   0.037  2.4315  0.6410 -0.7048
  939MPD2    H213789   4.272   1.403   0.271  0.7074  0.1790 -1.1248
  939MPD2    H313790   4.279   1.281   0.049  0.4206 -0.1176 -0.5494
  939MPD2     N13791   4.224   0.883   0.240 -0.0484  0.1375  0.2101
  939MPD2    H513792   4.196   0.839   0.327  1.7585  1.7982  1.6195
  939MPD2    N113793   4.244   1.293   0.503  0.0961  0.8567 -0.6608
  939MPD2    H713794   4.269   1.391   0.496 -0.4492  1.1359  1.4165
  940MPD2     C13795   4.021   1.875  12.856 -0.2859 -0.1643  0.5479
  940MPD2    C113796   3.953   1.753  12.873 -0.0759  0.5236  0.3468
  940MPD2    C213797   3.990   1.645  12.798 -0.2089 -0.0537  0.4294
  940MPD2    C313798   4.094   1.650  12.708  0.5416  1.2586 -0.2347
  940MPD2    C413799   4.153   1.773  12.695 -0.4495  1.2304  0.3814
  940MPD2    C513800   4.122   1.887  12.768  0.2707 -0.0737  0.7541
  940MPD2     H13801   3.947   1.550  12.826  0.2822 -0.7910 -1.2613
  940MPD2    H113802   4.238   1.766  12.628  0.0766 -0.4308  1.2239
  940MPD2    H213803   3.999   1.963  12.915  1.3869  1.3423 -1.0795
  940MPD2    H313804   4.173   1.980  12.745  1.1019 -0.5617  0.6332
  940MPD2     N13805   4.143   1.537  12.636  0.0879 -0.2038 -0.1552
  940MPD2    H513806   4.232   1.553  12.590 -2.1125 -0.4693 -4.4927
  940MPD2    N113807   3.834   1.740  12.946  0.4760 -0.3954 -0.4021
  940MPD2    H713808   3.789   1.649  12.947 -1.8207  0.7613  0.0676
  941MPD2     C13809   3.099   0.814   9.833  0.3070  0.3236 -0.1158
  941MPD2    C113810   3.145   0.851   9.959 -0.4897  0.0427 -0.7164
  941MPD2    C213811   3.157   0.756  10.055  0.4939 -0.2318 -0.9917
  941MPD2    C313812   3.119   0.630  10.045 -0.6409 -0.0116 -0.0343
  941MPD2    C413813   3.062   0.599   9.924  0.6073  0.6531  0.6898
  941MPD2    C513814   3.045   0.686   9.823  0.4342 -0.8627 -0.1603
  941MPD2     H13815   3.175   0.791  10.156 -0.4571 -2.0139 -0.1832
  941MPD2    H113816   3.039   0.497   9.894  0.5606  0.2406  2.1367
  941MPD2    H213817   3.099   0.881   9.748 -1.0848 -1.6776 -1.6789
  941MPD2    H313818   3.007   0.644   9.731  1.2382 -1.1912 -0.3372
  941MPD2     N13819   3.149   0.534  10.142 -0.0029  0.4212  0.2889
  941MPD2    H513820   3.189   0.568  10.229  1.7447 -0.7003 -0.0913
  941MPD2    N113821   3.185   0.988   9.994  0.3340  0.2318 -0.3141
  941MPD2    H713822   3.212   1.011  10.089 -1.1155  2.1123 -0.3523
  942MPD2     C13823   2.770   2.858  10.254 -0.0338 -0.0957 -0.7800
  942MPD2    C113824   2.679   2.963  10.238  0.8370  0.2335 -0.3118
  942MPD2    C213825   2.709   3.055  10.138  0.1028 -0.0358  0.4713
  942MPD2    C313826   2.823   3.036  10.058 -0.3896  1.3321 -0.0438
  942MPD2    C413827   2.910   2.929  10.081 -0.3133 -0.5803 -0.0479
  942MPD2    C513828   2.883   2.835  10.176 -0.1486  0.0889 -0.6025
  942MPD2     H13829   2.643   3.135  10.107  0.1804  0.4330  1.5347
  942MPD2    H113830   2.991   2.910  10.011 -0.1508 -0.0648  0.0012
  942MPD2    H213831   2.755   2.787  10.335  0.8134 -0.8048 -1.2491
  942MPD2    H313832   2.951   2.758  10.211 -0.2334 -0.2097 -1.0975
  942MPD2     N13833   2.854   3.115   9.949  0.2713 -0.2984  0.3194
  942MPD2    H513834   2.937   3.083   9.900  0.2301  1.6822 -1.0637
  942MPD2    N113835   2.559   2.973  10.311  0.1538 -0.6276  1.0416
  942MPD2    H713836   2.496   3.049  10.288  3.1366  2.0363  1.7264
  943MPD2     C13837   1.646   0.831  10.354  0.3279 -0.2095 -0.2506
  943MPD2    C113838   1.641   0.737  10.453 -0.0495  0.0709  0.5795
  943MPD2    C213839   1.680   0.771  10.578 -0.5441  0.0976  0.0714
  943MPD2    C313840   1.732   0.895  10.611  0.7447 -0.0137  0.0311
  943MPD2    C413841   1.726   0.995  10.516 -0.4489 -0.0082  0.0116
  943MPD2    C513842   1.699   0.959  10.385  0.5121 -0.3721 -0.1129
  943MPD2     H13843   1.671   0.691  10.650 -3.8226 -0.5260 -1.0486
  943MPD2    H113844   1.755   1.099  10.529 -1.6137  0.2571  0.4760
  943MPD2    H213845   1.613   0.798  10.257  0.1738 -0.9711  0.0646
  943MPD2    H313846   1.714   1.031  10.306  1.8283 -1.8507 -1.2005
  943MPD2     N13847   1.759   0.933  10.744 -0.1263  0.1506  0.7904
  943MPD2    H513848   1.777   1.031  10.765 -0.2092  0.1489  0.8693
  943MPD2    N113849   1.582   0.612  10.422  0.4767 -0.4638  0.1264
  943MPD2    H713850   1.535   0.606  10.332  0.4886 -3.9303  0.3695
  944MPD2     C13851   1.481   4.368  11.697 -0.1365  0.1378  0.6561
  944MPD2    C113852   1.449   4.468  11.606  0.6363  0.1416 -0.0947
  944MPD2    C213853   1.349   4.561  11.633 -0.1101 -0.4394  0.7570
  944MPD2    C313854   1.281   4.545  11.751 -0.3196  0.4731 -0.0213
  944MPD2    C413855   1.310   4.443  11.841 -0.0965 -0.2949  0.7634
  944MPD2    C513856   1.410   4.359  11.816 -0.4647  0.3520  0.0341
  944MPD2     H13857   1.320   4.640  11.565 -0.6112 -0.2889  1.1412
  944MPD2    H113858   1.257   4.417  11.932 -1.3610 -0.7251 -0.0924
  944MPD2    H213859   1.557   4.292  11.685 -0.6426 -0.3927  0.8002
  944MPD2    H313860   1.438   4.280  11.886 -1.6425 -0.1974 -0.1173
  944MPD2     N13861   1.178   4.634  11.779  0.2978 -0.0973 -0.3539
  944MPD2    H513862   1.156   4.699  11.703 -0.6845  0.5999  0.5264
  944MPD2    N113863   1.525   4.478  11.486  0.0200 -0.2590 -1.0342
  944MPD2    H713864   1.582   4.396  11.471  0.2401 -0.3208  0.1802
    1TMC1    C113865   4.701   0.076  14.654  0.1887 -0.0941 -0.3740
    1TMC1    C213866   0.024   4.705  14.696  0.1449 -0.6861  0.0877
    1TMC1    C313867   4.718   4.586  14.644 -0.4382 -0.3797  0.3138
    1TMC1    C413868   4.605   0.084  14.556 -0.6520 -0.1903  0.2832
    1TMC1    C513869   4.561   4.706  14.510  0.2219  0.3385  0.2941
    1TMC1    C613870   4.618   4.587  14.553  0.4987  0.1823 -0.6567
    1TMC1     C13871   4.732   0.188  14.744  0.5582  0.2182 -0.4709
    1TMC1     O13872   0.097   0.187  14.808 -0.3188  0.0045 -0.5787
    1TMC1     H13873   0.093   4.711  14.780 -1.7905 -0.8765  1.7017
    1TMC1    H113874   4.586   0.178  14.505 -1.6835 -1.1298 -1.0631
    1TMC1    H213875   4.584   4.497  14.503 -2.0953  1.1245 -0.6345
    1TMC1    C713876   4.478   4.709  14.389 -0.1617 -0.5836 -0.0261
    1TMC1    C813877   0.023   4.460  14.689 -0.6648 -0.1046  0.1144
    1TMC1    O113878   4.466   4.607  14.327  0.1039  0.0288  0.0543
    1TMC1    O213879   4.685   4.367  14.718  0.5852  0.5689  0.6537
    1TMC1    O313880   4.390   0.068  14.387  0.0750 -0.5856 -0.5528
    1TMC1    H313881   4.398   0.131  14.461 -2.3232 -0.5309 -0.3610
    1TMC1    O513882   0.149   4.464  14.711 -0.5794  0.0667 -0.0739
    1TMC1    H513883   0.188   4.537  14.659 -0.4124 -0.3184 -0.4926
    2MPD2     C13884   4.584   0.638  14.966 -0.1881 -0.1946 -0.6197
    2MPD2    C113885   4.534   0.631  14.840  0.1826 -0.1464 -0.0324
    2MPD2    C213886   4.551   0.514  14.760 -0.0226 -0.2059 -0.2152
    2MPD2    C313887   4.628   0.404  14.810 -0.2396 -0.1873  0.7056
    2MPD2    C413888   4.683   0.413  14.933 -0.1248  0.1018 -0.5351
    2MPD2    C513889   4.668   0.534  15.004  0.3793 -0.2449 -0.3724
    2MPD2     H13890   4.508   0.511  14.660 -2.2665  3.8416  0.6238
    2MPD2    H113891   4.734   0.333  14.985  1.4855  0.4017 -1.6375
    2MPD2    H213892   4.587   0.730  15.024  2.8825 -1.3538  1.0629
    2MPD2    H313893   4.710   0.541  15.103  0.5208  2.6528 -0.6539
    2MPD2     N13894   4.634   0.286  14.734 -0.4772  0.1947  0.0781
    2MPD2    H513895   4.577   0.283  14.650 -2.1414 -2.3029  1.2855
    2MPD2    N113896   4.467   0.752  14.792 -0.0975 -0.1194 -0.4591
    2MPD2    H713897   4.427   0.814  14.861  0.6402  1.4985 -1.5008
    3TMC2    C113898   4.378   0.913  14.641 -0.2095 -0.7524 -0.1842
    3TMC2    C213899   4.374   1.011  14.735  0.0522  1.0602 -0.1004
    3TMC2    C313900   4.321   1.135  14.694  0.1945  0.5673 -0.0051
    3TMC2    C413901   4.321   0.928  14.517  0.5547  0.3048  0.5041
    3TMC2    C513902   4.266   1.044  14.473 -0.1906  0.8060 -0.0486
    3TMC2    C613903   4.266   1.152  14.564 -0.0223 -0.3056  0.2600
    3TMC2     C13904   4.456   0.787  14.656 -0.0953 -0.0792  0.3886
    3TMC2     O13905   4.490   0.723  14.561  0.4566  0.2494 -0.0457
    3TMC2     H13906   4.414   1.004  14.836 -1.5071  0.6023  0.4903
    3TMC2    H113907   4.323   0.850  14.442 -0.0722 -0.1042  0.9157
    3TMC2    H213908   4.246   1.253  14.530  0.0566 -1.3597 -2.9196
    3TMC2    C713909   4.197   1.048  14.348  0.3346 -0.5185 -0.1576
    3TMC2    C813910   4.349   1.250  14.778  0.1668  0.5234  0.7988
    3TMC2    O113911   4.160   0.937  14.311  0.1511  0.2299  0.2923
    3TMC2    O213912   4.425   1.252  14.871 -0.1171  0.3756  0.2914
    3TMC2    O513913   4.252   1.340  14.761  0.1665 -0.0040 -0.5938
    3TMC2    H513914   4.182   1.311  14.699  1.4011  0.5190 -2.2420
    4TMC2    C113915   3.720   1.874  13.972  0.4699 -0.4283 -0.2967
    4TMC2    C213916   3.793   1.992  13.989  0.3893 -0.2642  0.1932
    4TMC2    C313917   3.926   1.983  14.028  0.2234  0.7626  0.2426
    4TMC2    C413918   3.779   1.749  13.991  0.3299 -0.7658 -0.9438
    4TMC2    C513919   3.910   1.746  14.030 -0.0486  0.0870  0.5508
    4TMC2    C613920   3.980   1.861  14.059  0.0925 -0.4735 -0.0295
    4TMC2     C13921   3.595   1.889  13.910  0.1844  0.5838 -0.2727
    4TMC2     O13922   3.564   2.007  13.906 -0.1382 -0.3933 -0.3190
    4TMC2     H13923   3.744   2.088  13.992  2.0346  0.5997 -0.6208
    4TMC2    H113924   3.726   1.655  13.987  1.9009 -1.6416 -1.0726
    4TMC2    H213925   4.080   1.861  14.099  0.2325  0.9050 -0.3787
    4TMC2    C713926   3.961   1.625  14.100  0.3597  0.0442 -0.2372
    4TMC2    C813927   3.996   2.101  14.056  0.6918 -0.1178 -0.5496
    4TMC2    O113928   4.030   1.644  14.199 -0.4247  0.1583 -0.4178
    4TMC2    O213929   4.090   2.088  14.132 -0.2084  0.4024  0.1717
    4TMC2    O513930   3.999   2.166  13.934 -0.5610 -0.6622 -0.1126
    4TMC2    H513931   3.925   2.145  13.873  0.4972 -1.7982 -0.9926
    5MPD2     C13932   3.155   1.811  13.697 -0.0511  0.3979  0.7327
    5MPD2    C113933   3.245   1.721  13.642  0.5857 -0.7190 -0.0973
    5MPD2    C213934   3.368   1.705  13.696  0.5995  0.2936  0.1982
    5MPD2    C313935   3.404   1.784  13.807  0.1836  0.2290 -0.3642
    5MPD2    C413936   3.316   1.875  13.860 -0.2589  0.4165 -0.3208
    5MPD2    C513937   3.190   1.889  13.801 -0.1399 -0.5173  0.6312
    5MPD2     H13938   3.442   1.641  13.650  0.0859 -0.7838  0.8795
    5MPD2    H113939   3.335   1.922  13.955 -0.8048 -0.1804  0.0873
    5MPD2    H213940   3.057   1.814  13.649 -0.7813 -1.7239  2.0987
    5MPD2    H313941   3.112   1.955  13.837 -1.0037 -1.2257  0.0892
    5MPD2     N13942   3.537   1.779  13.856 -0.3546 -0.6997 -0.4328
    5MPD2    H513943   3.591   1.694  13.845 -0.7149 -0.8808 -0.8259
    5MPD2    N113944   3.208   1.664  13.525  0.3794  0.0486  0.4884
    5MPD2    H713945   3.116   1.690  13.491  0.5633  2.4479  1.8810
    6MPD1     C13946   3.430   2.303  11.854  0.1858 -0.0297  0.2084
    6MPD1    C113947   3.376   2.405  11.928  0.2490  0.3821  0.7625
    6MPD1    C213948   3.391   2.405  12.068 -0.4672 -0.4211 -0.7328
    6MPD1    C313949   3.436   2.290  12.126 -0.5773 -0.7144  0.6112
    6MPD1    C413950   3.476   2.187  12.050  0.6724  0.0424  0.0679
    6MPD1    C513951   3.471   2.191  11.914 -0.4523  0.7435 -0.1265
    6MPD1     H13952   3.358   2.495  12.119 -2.1375 -0.4107 -1.8322
    6MPD1    H113953   3.502   2.096  12.103 -0.7670 -0.5825 -0.2983
    6MPD1    H213954   3.427   2.316  11.746 -0.7821  2.3937  0.5168
    6MPD1    H313955   3.486   2.104  11.852 -4.1347 -1.2066  1.7459
    6MPD1     N13956   3.430   2.274  12.271 -0.4087 -0.2610  0.1682
    6MPD1    H513957   3.468   2.192  12.317  3.5247  1.2627 -0.4076
    6MPD1    N113958   3.335   2.525  11.858  0.3138 -0.2036  0.0788
    6MPD1    H613959   3.303   2.522  11.761 -1.2581  1.5279  0.5457
    6MPD1    H713960   3.268   2.568  11.921 -0.4477  1.5748 -1.9509
    7MPD2     C13961   3.025   2.245  13.047  0.2055  0.2953  0.6280
    7MPD2    C113962   3.102   2.153  12.980  0.0189  0.3194 -0.1925
    7MPD2    C213963   3.095   2.020  13.023  0.6324 -0.1611 -0.5249
    7MPD2    C313964   3.015   1.976  13.122 -0.1554 -0.0258  0.5748
    7MPD2    C413965   2.945   2.074  13.190  0.6137  0.2996 -0.5225
    7MPD2    C513966   2.946   2.207  13.149  0.8637 -0.0627 -0.8655
    7MPD2     H13967   3.151   1.951  12.961 -0.4444 -1.1619 -0.3964
    7MPD2    H113968   2.879   2.044  13.271  3.5723  1.6279  2.3403
    7MPD2    H213969   3.032   2.346  13.009  2.3525  0.1029  0.5331
    7MPD2    H313970   2.889   2.280  13.205  0.8101 -1.0146  0.3535
    7MPD2     N13971   3.000   1.838  13.163 -0.4701  0.5984 -0.2036
    7MPD2    H513972   2.942   1.809  13.241 -0.3173  0.9019  0.0243
    7MPD2    N113973   3.193   2.178  12.871  0.0796 -0.4906  0.0949
    7MPD2    H713974   3.224   2.094  12.825  0.3402 -1.7291  2.5388
    8TMC3    C113975   3.072   1.608  13.158  0.1263 -0.5766 -0.1841
    8TMC3    C213976   3.109   1.616  13.286 -0.2657  0.2196 -0.2042
    8TMC3    C313977   3.209   1.533  13.327  0.5701 -0.2492  0.1736
    8TMC3    C413978   3.118   1.508  13.072  0.2240 -0.2080 -0.6723
    8TMC3    C513979   3.226   1.434  13.118 -0.1849  0.0669  0.1391
    8TMC3    C613980   3.260   1.443  13.250 -0.3574  0.0568 -0.1290
    8TMC3     C13981   3.072   1.738  13.098 -0.5689  0.7257  0.4781
    8TMC3     O13982   3.120   1.734  12.986  0.9284  0.0492 -0.1697
    8TMC3     H13983   3.074   1.704  13.337 -2.4182 -0.5340 -0.3751
    8TMC3    H113984   3.072   1.496  12.975 -0.0284 -1.4137 -0.4047
    8TMC3    H213985   3.342   1.380  13.284  0.4607  1.1218 -0.1009
    8TMC3    C713986   3.339   1.440  13.028 -0.5505  0.0365 -0.1892
    8TMC3    C813987   3.269   1.558  13.453  0.6437 -0.1930  0.3103
    8TMC3    O113988   3.438   1.370  13.051 -0.6636 -0.4639  0.4355
    8TMC3    O213989   3.368   1.497  13.487 -0.5727  0.8428 -0.0333
    9TMC3    C113990   3.426   2.327  12.493 -0.9339  0.4586  0.7237
    9TMC3    C213991   3.507   2.214  12.503 -0.7274 -0.0714 -0.2221
    9TMC3    C313992   3.501   2.135  12.618 -0.2528 -0.3515 -0.0945
    9TMC3    C413993   3.347   2.362  12.602  0.3464  0.0552  0.4568
    9TMC3    C513994   3.339   2.278  12.709 -0.4670 -0.4076  0.2179
    9TMC3    C613995   3.417   2.164  12.719  0.2088  0.5378  0.0477
    9TMC3     C13996   3.379   2.357  12.357  0.3566 -0.0739 -0.3705
    9TMC3     O13997   3.306   2.455  12.346 -0.5347 -0.1149 -0.1392
    9TMC3     H13998   3.598   2.211  12.444  0.4997  3.1374  1.5289
    9TMC3    H113999   3.272   2.435  12.575  0.7159 -0.3109 -1.5347
    9TMC3    H214000   3.437   2.127  12.819 -0.0503  2.2484  0.7325
    9TMC3    C714001   3.234   2.296  12.817 -0.1555  0.0229  0.4277
    9TMC3    C814002   3.557   2.000  12.611  0.2680  0.2555  0.2976
    9TMC3    O114003   3.195   2.407  12.843 -0.2154  0.0435  0.0874
    9TMC3    O214004   3.647   1.965  12.541  0.1899 -0.1233  0.3693
   10MPD2     C14005   3.536   1.527  12.817 -0.6595  0.1887  0.2609
   10MPD2    C114006   3.428   1.600  12.864 -0.0111 -0.2202  0.4800
   10MPD2    C214007   3.407   1.726  12.817 -0.3087 -0.2502 -0.3649
   10MPD2    C314008   3.505   1.784  12.736  0.6791  0.5399 -0.2298
   10MPD2    C414009   3.619   1.719  12.695 -0.4265  0.1104  0.2470
   10MPD2    C514010   3.629   1.585  12.734  0.1365  0.1660  0.3108
   10MPD2     H14011   3.316   1.778  12.844  0.7084  1.5862 -0.4326
   10MPD2    H114012   3.704   1.758  12.640  0.5711 -0.4938  1.3738
   10MPD2    H214013   3.561   1.425  12.842 -3.4790 -1.0067 -1.7985
   10MPD2    H314014   3.711   1.517  12.713  0.8178  1.1609 -0.1993
   10MPD2     N14015   3.486   1.918  12.700  0.4937 -0.3435  0.0464
   10MPD2    H514016   3.402   1.949  12.748  0.4812  0.2438 -0.3674
   10MPD2    N114017   3.333   1.557  12.956  0.1416 -0.1540 -0.1308
   10MPD2    H714018   3.265   1.624  12.990  0.0244 -0.0222 -0.6140
   11MPD2     C14019   4.038   1.109  14.097 -0.1567  0.3458  0.1965
   11MPD2    C114020   4.073   1.207  14.195 -0.0208 -0.4396 -0.4364
   11MPD2    C214021   4.032   1.337  14.173  0.0158  0.4296  0.0297
   11MPD2    C314022   3.958   1.371  14.063  0.4117  0.7769  0.0587
   11MPD2    C414023   3.911   1.275  13.978 -0.0703 -0.2864  0.2736
   11MPD2    C514024   3.961   1.150  13.992  0.2031 -0.1956 -0.7245
   11MPD2     H14025   4.050   1.412  14.249 -2.6848 -0.5216  1.6188
   11MPD2    H114026   3.867   1.308  13.885 -1.6319 -0.5327  0.9198
   11MPD2    H214027   4.062   1.003  14.103 -1.2655  0.0635 -0.5167
   11MPD2    H314028   3.943   1.069  13.922  2.2747  0.3419 -1.8846
   11MPD2     N14029   3.923   1.511  14.036 -0.5683 -0.0460  0.5231
   11MPD2    H514030   3.882   1.531  13.945 -0.6092 -2.3150  0.0520
   11MPD2    N114031   4.158   1.177  14.309 -0.3271  0.9611  0.1127
   11MPD2    H714032   4.189   1.254  14.367  1.4403  0.6703 -0.4376
    1MPD1     C14033   1.657   3.177  17.217 -0.5057 -0.3914  0.0292
    1MPD1    C114034   1.681   3.142  17.350  0.4463 -0.5702 -0.4401
    1MPD1    C214035   1.815   3.134  17.386  0.5351  0.0274 -0.6125
    1MPD1    C314036   1.916   3.134  17.292 -0.3078  0.0373 -0.3916
    1MPD1    C414037   1.884   3.141  17.157  0.4118  0.3091 -0.6009
    1MPD1    C514038   1.751   3.168  17.123 -0.2927 -0.4425 -0.1363
    1MPD1     H14039   1.835   3.107  17.489 -1.4020 -1.8096 -0.7062
    1MPD1    H114040   1.956   3.146  17.077 -0.8022 -1.1640 -1.7697
    1MPD1    H214041   1.564   3.214  17.175  0.1095 -2.0790 -2.7879
    1MPD1    H314042   1.719   3.189  17.022  2.1893  2.2015 -0.3721
    1MPD1     N14043   2.051   3.134  17.322  0.2310 -0.1325  0.5225
    1MPD1    H514044   2.116   3.133  17.244 -1.0693  2.4930 -0.5664
    1MPD1    N114045   1.579   3.172  17.441  0.1871 -0.4134  0.1715
    1MPD1    H614046   1.583   3.124  17.531 -1.7323 -1.2473 -0.1798
    1MPD1    H714047   1.481   3.162  17.414  0.0244  0.5565  0.4077
    2MPD1     C14048   2.785   2.683   0.248 -0.5139 -0.7903 -0.2612
    2MPD1    C114049   2.820   2.638   0.120  0.3030  0.2209 -0.1182
    2MPD1    C214050   2.747   2.682   0.017 -0.6188  0.1918 -0.8946
    2MPD1    C314051   2.645   2.772   0.036  0.5466 -0.0357  1.0457
    2MPD1    C414052   2.626   2.823   0.161 -0.5051  0.5625 -0.6861
    2MPD1    C514053   2.699   2.782   0.266  0.5245  0.5103 -0.7521
    2MPD1     H14054   2.759   2.647  17.667 -2.1304 -1.7968 -0.3994
    2MPD1    H114055   2.554   2.899   0.188 -1.7701 -0.0189 -2.4120
    2MPD1    H214056   2.839   2.657   0.338  1.0682  0.7097 -0.7798
    2MPD1    H314057   2.680   2.821   0.365  0.2615 -3.2045  0.6711
    2MPD1     N14058   2.578   2.823  17.671  0.1505  0.0403 -0.4445
    2MPD1    H514059   2.588   2.786  17.576 -1.9310 -1.3679 -0.1192
    2MPD1    N114060   2.902   2.521   0.108  0.6536  1.5469 -0.5281
    2MPD1    H614061   2.978   2.516   0.175 -0.6802 -0.2663  0.8620
    2MPD1    H714062   2.962   2.520   0.026  2.9011 -2.6727  1.1738
    3TMC3    C114063   2.412   2.955  17.549 -0.1933 -0.3899 -0.1402
    3TMC3    C214064   2.483   2.943  17.435  0.2772  0.3165 -0.2925
    3TMC3    C314065   2.425   3.001  17.326  0.2702  0.4616 -0.1689
    3TMC3    C414066   2.293   3.025  17.560  0.2859  0.1483 -0.1965
    3TMC3    C514067   2.246   3.085  17.449 -0.1938 -0.1003 -0.2875
    3TMC3    C614068   2.316   3.075  17.328 -0.7760  0.6716  0.2317
    3TMC3     C14069   2.473   2.908  17.675  0.1888 -0.0282  0.0309
    3TMC3     O14070   2.410   2.948   0.025 -0.1941  0.0272 -0.3443
    3TMC3     H14071   2.575   2.885  17.434 -0.0639 -0.2150 -0.5946
    3TMC3    H114072   2.241   3.030  17.655 -0.2039 -0.0428 -0.4553
    3TMC3    H214073   2.282   3.128  17.239 -0.3648  0.3353 -0.1237
    3TMC3    C714074   2.104   3.129  17.448  0.1810  0.3335 -0.3441
    3TMC3    C814075   2.507   2.997  17.204  0.9293  0.3448 -0.8786
    3TMC3    O114076   2.046   3.130  17.560  0.1098 -0.7278 -0.2938
    3TMC3    O214077   2.632   2.974  17.217  0.1670  0.0102  0.0482
    4MPD1     C14078   2.566   3.101  16.717 -0.3621 -0.3203 -0.6116
    4MPD1    C114079   2.433   3.058  16.738  0.2749 -0.4101  0.7037
    4MPD1    C214080   2.396   3.022  16.862 -0.2703 -0.3840 -0.0674
    4MPD1    C314081   2.488   3.032  16.966  0.3222  0.7069  0.2251
    4MPD1    C414082   2.618   3.072  16.946 -0.4601 -0.5828 -0.2916
    4MPD1    C514083   2.655   3.114  16.822  1.1673 -0.9381  0.0587
    4MPD1     H14084   2.295   2.986  16.876  0.2988 -2.0137 -0.1408
    4MPD1    H114085   2.693   3.087  17.022  1.5812 -0.5804 -2.3207
    4MPD1    H214086   2.597   3.132  16.618  2.0831 -1.1273 -0.1013
    4MPD1    H314087   2.752   3.161  16.806 -0.6288  3.0069  0.7346
    4MPD1     N14088   2.433   3.006  17.091 -0.2545 -0.2324  0.7503
    4MPD1    H514089   2.334   2.995  17.108 -0.7106 -0.4606 -1.9888
    4MPD1    N114090   2.341   3.057  16.635  0.1166  0.1490  0.4837
    4MPD1    H614091   2.373   3.068  16.539 -1.8185  0.2887 -0.1331
    4MPD1    H714092   2.272   2.983  16.642 -1.1468  1.0705 -2.5108
    1TCq1    O114093   3.320   1.958  11.638  0.1881  0.0318  0.0635
    1TCq1    C114094   3.327   2.009  11.512 -0.1747  0.4881 -0.4598
    1TCq1    O214095   3.408   2.013  11.422  0.7628 -0.4870 -0.6020
    1TCq1    C214096   3.229   2.110  11.528 -0.2288  0.1890 -0.2278
    1TCq1    C314097   3.099   2.075  11.556  0.1146 -0.3773  0.5183
    1TCq1    C414098   3.002   2.166  11.537  0.3826 -0.5932 -0.0934
    1TCq1    C514099   3.030   2.293  11.510 -0.3719  0.6043  0.3875
    1TCq1    C614100   3.156   2.323  11.473  0.6521  0.4283 -0.1032
    1TCq1    C714101   3.260   2.231  11.482  0.4525 -0.3667  0.1114
    1TCq1    C814102   3.208   2.458  11.484 -0.1473 -0.4832  0.9574
    1TCq1    O414103   3.329   2.470  11.503 -0.5001 -0.4831  0.0517
    1TCq1    C914104   2.867   2.113  11.507 -0.2483 -0.4609  0.0164
    1TCq1    O514105   2.847   1.991  11.526 -0.4205 -0.1814 -0.2782
    1TCq1    O614106   2.790   2.194  11.450 -0.3588 -0.5713  0.4825
    1TCq1    H114107   3.237   1.985  11.682  0.5796  0.2697  0.6679
    1TCq1    H214108   3.077   1.970  11.540  0.9316 -0.0701 -2.5456
    1TCq1    H314109   2.950   2.360  11.482 -0.2372  0.7515  0.3564
    1TCq1    H414110   3.363   2.254  11.457  0.1451 -2.3131 -2.9182
    2MPD1     C14111   3.142   2.962  11.546  0.0300  0.0809  0.0158
    2MPD1    C114112   3.019   2.901  11.546  0.0876 -0.1966 -0.2702
    2MPD1    C214113   3.013   2.766  11.517  0.0233 -0.2915  0.3834
    2MPD1    C314114   3.119   2.686  11.518 -0.1945  0.2541  0.4497
    2MPD1    C414115   3.243   2.739  11.522 -0.5143  0.3919 -0.3141
    2MPD1    C514116   3.254   2.877  11.545  0.8458  0.0524  0.2699
    2MPD1     H14117   2.913   2.726  11.504 -0.4830  1.0392  0.1403
    2MPD1    H114118   3.333   2.680  11.534 -2.0971 -1.6387  1.6081
    2MPD1    H214119   3.165   3.068  11.545  0.0330  0.0770 -0.1913
    2MPD1    H314120   3.350   2.925  11.560  1.3573 -0.7819 -0.3775
    2MPD1     N14121   3.104   2.547  11.489  0.1722  0.6279 -0.4802
    2MPD1    H514122   3.012   2.506  11.474  0.6702 -0.4890 -0.4663
    2MPD1    N114123   2.903   2.979  11.536 -0.5519  0.1437  0.2045
    2MPD1    H614124   2.822   2.934  11.579 -0.4482 -1.3956 -1.2196
    2MPD1    H714125   2.911   3.066  11.588  2.0398 -0.5895  1.0445
    1TMC1    C114126   0.980   1.951   0.623 -0.0893  0.7691  0.9074
    1TMC1    C214127   0.918   1.871   0.525  1.1315 -0.1155  0.2761
    1TMC1    C314128   0.820   1.929   0.453 -0.7486  0.1057  0.0767
    1TMC1    C414129   0.948   2.085   0.630 -0.3774 -0.0841  0.0240
    1TMC1    C514130   0.852   2.138   0.543 -0.2235 -0.7280 -0.3051
    1TMC1    C614131   0.782   2.059   0.460  0.0452  0.4962 -0.0816
    1TMC1     C14132   1.082   1.890   0.702  0.8345 -0.5702 -0.0573
    1TMC1     O14133   1.146   1.793   0.663  0.3361 -0.5743 -0.2630
    1TMC1     H14134   0.952   1.768   0.528 -2.8960 -1.4359  2.0580
    1TMC1    H114135   0.970   2.148   0.715 -4.2583 -2.4669  2.8025
    1TMC1    H214136   0.701   2.090   0.395  0.7192 -1.6290 -1.9171
    1TMC1    C714137   0.790   2.258   0.586  0.3461  0.1991 -0.6203
    1TMC1    C814138   0.778   1.859   0.338  0.3757  0.1472  0.3945
    1TMC1    O114139   0.802   2.297   0.701  0.3481 -0.0331  0.6413
    1TMC1    O214140   0.764   1.918   0.227 -0.8347 -0.1183  0.1518
    1TMC1    O314141   0.721   2.311   0.488 -0.0971 -0.3532 -0.5641
    1TMC1    H314142   0.746   2.280   0.398 -1.7228 -0.7971 -0.8751
    1TMC1    O514143   0.820   1.728   0.350  0.2242 -0.2308  1.2717
    1TMC1    H514144   0.800   1.704   0.443 -0.1984  0.4083  1.3478
    2MPD1     C14145   1.385   1.917   1.113  0.1729 -1.0936  0.4478
    2MPD1    C114146   1.298   2.017   1.126  0.3462 -0.4491  0.1926
    2MPD1    C214147   1.188   2.020   1.036  0.0139  0.5352 -0.4589
    2MPD1    C314148   1.192   1.941   0.917 -1.3291  0.7032 -0.0665
    2MPD1    C414149   1.295   1.848   0.905 -0.0730 -0.5959  0.1016
    2MPD1    C514150   1.391   1.843   1.001 -0.1085 -0.4000  0.1483
    2MPD1     H14151   1.117   2.100   1.052 -0.5569 -0.0986  0.1806
    2MPD1    H114152   1.301   1.792   0.813 -1.1649  0.1219 -0.4126
    2MPD1    H214153   1.471   1.904   1.178 -0.4482  0.5968  1.6179
    2MPD1    H314154   1.468   1.770   0.978  0.3388  0.0090  0.3544
    2MPD1     N14155   1.094   1.961   0.816 -0.2744 -0.5969 -0.0852
    2MPD1    H514156   1.012   2.010   0.851 -0.6667 -0.6320 -0.9616
    2MPD1    N114157   1.288   2.080   1.248 -0.6413  0.3284  0.4120
    2MPD1    H614158   1.376   2.098   1.295 -0.2605  1.2958 -0.6777
    2MPD1    H714159   1.222   2.158   1.243 -2.4754 -1.3881 -1.9763
    1MPD1     C14160   3.916   3.768  11.245  0.4477 -0.6627  0.6322
    1MPD1    C114161   3.936   3.658  11.159  0.0413 -0.4865  0.1010
    1MPD1    C214162   4.060   3.646  11.099 -0.3035 -0.6671  0.5436
    1MPD1    C314163   4.155   3.746  11.121 -0.2880  0.0338 -0.0815
    1MPD1    C414164   4.141   3.850  11.214  0.0543  0.1128 -0.2401
    1MPD1    C514165   4.013   3.853  11.275 -0.0974 -0.8291  0.5642
    1MPD1     H14166   4.088   3.568  11.029  0.9134  1.1702 -0.9900
    1MPD1    H114167   4.213   3.922  11.252  0.6846 -0.0844 -1.0736
    1MPD1    H214168   3.821   3.785  11.296  1.1480 -0.6105  1.9242
    1MPD1    H314169   3.992   3.939  11.338 -2.2674 -1.0311  0.1344
    1MPD1     N14170   4.275   3.721  11.054  0.7671  0.1719  0.5511
    1MPD1    H514171   4.286   3.631  11.008 -0.0046  0.4740 -0.2402
    1MPD1    N114172   3.825   3.578  11.108 -0.3329 -0.4762 -0.1191
    1MPD1    H614173   3.747   3.565  11.172 -0.2393 -0.0294  0.0923
    1MPD1    H714174   3.843   3.481  11.086 -0.2610 -0.0338 -2.0199
    2MPD1     C14175   4.021   2.563  12.139  0.1193 -0.0399 -0.4966
    2MPD1    C114176   4.102   2.519  12.038  0.5533 -0.0771  0.3920
    2MPD1    C214177   4.179   2.611  11.968 -0.0322 -0.3843 -0.2081
    2MPD1    C314178   4.162   2.749  11.992  0.3231 -0.0589  0.4377
    2MPD1    C414179   4.076   2.789  12.091 -0.3427  0.8979  0.2204
    2MPD1    C514180   4.004   2.696  12.169  0.0660  0.0327 -0.0668
    2MPD1     H14181   4.249   2.581  11.891  0.4926 -0.6767  0.3846
    2MPD1    H114182   4.066   2.891  12.126  0.0057  0.9341  0.2151
    2MPD1    H214183   3.976   2.489  12.204  0.6773  1.4929  1.6103
    2MPD1    H314184   3.958   2.734  12.260  0.3833 -0.5006  0.3073
    2MPD1     N14185   4.237   2.847  11.925 -0.7041  0.8802  0.2058
    2MPD1    H514186   4.212   2.945  11.938 -3.5908 -0.1375  2.1834
    2MPD1    N114187   4.112   2.380  12.023  0.0477  0.3527  0.1596
    2MPD1    H614188   4.020   2.338  12.037 -0.1204  0.3582 -0.9669
    2MPD1    H714189   4.145   2.341  11.935  0.6200  0.4115  0.3524
    3MPD1     C14190   4.279   3.718  11.518  0.3341  0.8147  0.3643
    3MPD1    C114191   4.387   3.657  11.466  0.2382 -0.0237  0.8835
    3MPD1    C214192   4.441   3.546  11.534  0.2298  0.2771  0.2495
    3MPD1    C314193   4.388   3.493  11.645 -0.3264 -0.0861 -0.0827
    3MPD1    C414194   4.275   3.556  11.687 -0.7211  0.5129 -0.5335
    3MPD1    C514195   4.225   3.666  11.626 -0.6286 -0.1679  0.0132
    3MPD1     H14196   4.531   3.498  11.499  0.5265  0.0325  1.3553
    3MPD1    H114197   4.239   3.524  11.783  1.7482 -1.1214 -0.1369
    3MPD1    H214198   4.236   3.812  11.486 -1.9269 -1.2310 -2.5313
    3MPD1    H314199   4.153   3.723  11.684  0.9904  0.1453  1.7118
    3MPD1     N14200   4.447   3.378  11.694 -0.7785 -0.1420  0.1192
    3MPD1    H514201   4.527   3.345  11.641 -1.1719  2.2978 -1.9410
    3MPD1    N114202   4.455   3.719  11.362  0.0193  0.0468 -0.1322
    3MPD1    H614203   4.509   3.642  11.323 -0.3758 -0.3054  0.0109
    3MPD1    H714204   4.386   3.760  11.299 -0.3132 -0.0715  0.1552
    4MPD2     C14205   0.083   3.357  10.647  0.0378 -0.7501  0.7592
    4MPD2    C114206   0.122   3.440  10.748  0.8352 -0.1322 -0.0459
    4MPD2    C214207   0.236   3.399  10.816  0.5624 -0.2637 -0.5839
    4MPD2    C314208   0.298   3.280  10.784 -0.5695  0.3046  0.2207
    4MPD2    C414209   0.250   3.197  10.680  0.1994 -0.5884  0.4023
    4MPD2    C514210   0.136   3.230  10.625  0.4927  0.6434  0.2217
    4MPD2     H14211   0.276   3.462  10.895 -0.4595 -0.4684  0.0959
    4MPD2    H114212   0.294   3.105  10.643 -2.5499 -1.8027  0.0962
    4MPD2    H214213   0.004   3.385  10.578  1.2605  0.1163 -0.2922
    4MPD2    H314214   0.087   3.171  10.548 -1.5524  0.5314  1.5922
    4MPD2     N14215   0.421   3.241  10.849 -0.2776  0.4110 -0.3671
    4MPD2    H514216   0.454   3.150  10.819 -0.7493  0.2120 -0.2842
    4MPD2    N114217   0.054   3.559  10.784  0.1079 -0.1907 -0.0413
    4MPD2    H714218   0.111   3.617  10.846 -0.5524 -0.4443  0.8080
    5TMC3    C114219   4.632   3.728  10.797 -0.5354  0.4480 -0.6527
    5TMC3    C214220   4.514   3.716  10.860 -0.0248  0.5949  0.4327
    5TMC3    C314221   4.507   3.771  10.990  0.0743  0.7904 -0.2843
    5TMC3    C414222   0.005   3.788  10.850  0.3981 -0.0859 -0.1391
    5TMC3    C514223   4.737   3.828  10.982  0.5168  0.3933  0.0339
    5TMC3    C614224   4.622   3.818  11.048 -0.7333  0.0819  0.1675
    5TMC3     C14225   4.671   3.599  10.741 -0.4206  0.3917  0.1891
    5TMC3     O14226   4.585   3.551  10.666 -0.6025 -0.4161  0.5101
    5TMC3     H14227   4.426   3.665  10.821  1.0559  0.7200 -2.1469
    5TMC3    H114228   0.089   3.811  10.785  1.1011 -1.0106  0.4380
    5TMC3    H214229   4.631   3.853  11.150 -1.6409  0.2185  0.1962
    5TMC3    C714230   0.126   3.772  11.034  0.1437 -0.3969 -0.7599
    5TMC3    C814231   4.380   3.810  11.045  0.2389 -0.3607  0.5762
    5TMC3    O114232   0.201   3.721  10.955  0.1290 -0.3728  0.1273
    5TMC3    O214233   4.389   3.917  11.103 -0.6202 -0.3042 -0.0787
    6TMC3    C114234   4.445   2.934  11.815  0.4453  0.4576 -0.1360
    6TMC3    C214235   4.386   3.054  11.826 -0.0460  0.4219  0.0620
    6TMC3    C314236   4.456   3.167  11.785 -0.2334  0.0801 -0.0168
    6TMC3    C414237   4.576   2.916  11.774 -0.0163 -0.3183 -0.5419
    6TMC3    C514238   4.644   3.030  11.738  0.5741  0.2399 -0.0080
    6TMC3    C614239   4.588   3.154  11.751  0.1254  0.1670  0.0022
    6TMC3     C14240   4.354   2.818  11.848  0.1020 -0.3813 -0.8345
    6TMC3     O14241   4.409   2.711  11.819 -0.3450 -0.1739 -0.0923
    6TMC3     H14242   4.281   3.061  11.853 -0.0473 -0.2172  0.2283
    6TMC3    H114243   4.621   2.818  11.776  1.1163  0.2186  0.1808
    6TMC3    H214244   4.652   3.241  11.735  0.8523 -0.6076 -1.3056
    6TMC3    C714245   0.026   3.012  11.664  0.1548  0.5287 -0.6424
    6TMC3    C814246   4.392   3.291  11.787  0.6404 -0.3503  0.5302
    6TMC3    O114247   0.090   3.116  11.643 -0.1619 -0.6492 -0.2400
    6TMC3    O214248   4.288   3.297  11.844 -0.3782  0.0059 -0.4486
    7MPD2     C14249   0.427   3.645  11.415 -0.3405  0.0328  0.4860
    7MPD2    C114250   0.434   3.608  11.282  0.0701  0.8112 -0.7649
    7MPD2    C214251   0.341   3.660  11.196 -0.0202 -0.4726 -0.1612
    7MPD2    C314252   0.247   3.748  11.242  0.1598 -0.0119  0.2915
    7MPD2    C414253   0.252   3.798  11.372 -0.0117  0.1490  0.2470
    7MPD2    C514254   0.345   3.742  11.460 -0.0714 -0.0978  0.4938
    7MPD2     H14255   0.354   3.620  11.096  0.9244 -1.2973  0.2913
    7MPD2    H114256   0.179   3.863  11.417 -0.3969  0.8764 -1.4321
    7MPD2    H214257   0.494   3.601  11.488  0.8777 -0.6252 -1.0218
    7MPD2    H314258   0.345   3.759  11.567  0.8277  0.0619  0.4747
    7MPD2     N14259   0.141   3.796  11.165 -0.2248 -0.0356 -0.6628
    7MPD2    H514260   0.069   3.847  11.215  0.2813 -0.7975  0.8401
    7MPD2    N114261   0.519   3.509  11.236  0.7840  0.1731 -0.8306
    7MPD2    H714262   0.500   3.488  11.138 -2.6698  0.9628 -0.3208
    8TMC3    C114263   0.635   3.311  11.242  0.4311  0.0978  0.2966
    8TMC3    C214264   0.589   3.190  11.295 -0.4242 -0.0749  0.2131
    8TMC3    C314265   0.552   3.091  11.202 -0.4962  1.0826 -0.2109
    8TMC3    C414266   0.647   3.332  11.111  0.6260  0.5958 -0.0723
    8TMC3    C514267   0.590   3.244  11.021  0.3902  0.4967  0.5941
    8TMC3    C614268   0.548   3.119  11.063 -1.0816 -0.3306 -0.5113
    8TMC3     C14269   0.593   3.429  11.317 -0.4340 -0.4347  0.3694
    8TMC3     O14270   0.577   3.410  11.437  0.0214 -0.4176 -0.3990
    8TMC3     H14271   0.581   3.173  11.402  0.6658 -0.1783  0.2786
    8TMC3    H114272   0.688   3.427  11.078 -1.0051  1.5276  0.5917
    8TMC3    H214273   0.499   3.052  10.994 -1.8894 -1.3078  1.0215
    8TMC3    C714274   0.498   3.318  10.936  0.1055  0.4030 -0.0627
    8TMC3    C814275   0.503   2.971  11.245  0.7445 -0.4880 -0.2753
    8TMC3    O114276   0.491   3.439  10.950  0.0524  0.1029  0.6593
    8TMC3    O214277   0.511   2.883  11.165 -0.2924 -0.1861  0.1935
    9MPD2     C14278   0.344   2.749  11.369  0.9997  0.7772 -0.3290
    9MPD2    C114279   0.346   2.882  11.409  0.1898 -0.2444 -0.6462
    9MPD2    C214280   0.262   2.923  11.504  0.0210  0.3167 -0.4852
    9MPD2    C314281   0.181   2.832  11.567  0.4901 -0.7058 -0.2647
    9MPD2    C414282   0.187   2.698  11.538  0.0189 -0.4909  0.5603
    9MPD2    C514283   0.269   2.656  11.432 -0.2079 -0.2879  0.7403
    9MPD2     H14284   0.258   3.031  11.519 -0.6428  0.1247  0.7100
    9MPD2    H114285   0.145   2.622  11.603  0.0682  0.2430  1.4380
    9MPD2    H214286   0.413   2.705  11.297  0.8983  1.1149 -0.6325
    9MPD2    H314287   0.287   2.552  11.407  0.9458 -0.3519  1.8452
    9MPD2     N14288   0.065   2.880  11.633  0.4941 -0.1639  0.5502
    9MPD2    H514289   4.738   2.804  11.649 -0.7055  0.6495 -0.5152
    9MPD2    N114290   0.416   2.987  11.348 -0.5917 -0.4455  0.3650
    9MPD2    H714291   0.401   3.080  11.384  0.8546 -0.0791 -0.0044
    1MPD1     C14292   4.120   1.947  15.870  0.7288 -1.4297 -0.4177
    1MPD1    C114293   4.031   1.908  15.975  0.1141  0.0215 -0.3157
    1MPD1    C214294   3.928   1.993  16.009  0.7357  0.1051 -0.0237
    1MPD1    C314295   3.909   2.116  15.946 -0.2122 -0.4141 -0.3342
    1MPD1    C414296   4.000   2.157  15.844 -0.2038  0.7078  0.0891
    1MPD1    C514297   4.106   2.072  15.813 -0.0244  0.4050 -0.7917
    1MPD1     H14298   3.849   1.949  16.068  1.3593 -1.2924 -0.2426
    1MPD1    H114299   3.994   2.252  15.793  0.5045 -0.0894 -1.4955
    1MPD1    H214300   4.205   1.883  15.851 -0.3680 -2.9930 -0.0598
    1MPD1    H314301   4.172   2.084  15.728 -1.6576 -0.7458 -2.2263
    1MPD1     N14302   3.799   2.203  15.965 -0.1633  0.4243  0.2370
    1MPD1    H514303   3.801   2.292  15.915 -2.5335  0.2284 -0.2293
    1MPD1    N114304   4.040   1.777  16.024  0.2871  0.3205  0.3357
    1MPD1    H614305   4.140   1.758  16.029  0.3266  0.2415 -0.7805
    1MPD1    H714306   4.001   1.758  16.116 -1.9904 -0.7419 -0.8510
    2TMC2    C114307   3.334   2.275  16.113 -0.3101 -0.3967 -0.0791
    2TMC2    C214308   3.310   2.337  15.987 -0.4736 -0.2358 -0.6153
    2TMC2    C314309   3.418   2.368  15.903 -0.4556  0.2746  0.4468
    2TMC2    C414310   3.465   2.238  16.140 -0.1453  0.1176  0.3828
    2TMC2    C514311   3.566   2.258  16.045 -0.5858  0.3625 -0.3763
    2TMC2    C614312   3.542   2.329  15.934 -0.3591  1.1016 -0.2878
    2TMC2     C14313   3.232   2.269  16.216 -0.1197 -0.2613  0.0031
    2TMC2     O14314   3.115   2.280  16.180  0.3919  0.1054  0.1688
    2TMC2     H14315   3.217   2.392  15.988  0.1122  0.7405 -0.1748
    2TMC2    H114316   3.489   2.186  16.232 -1.7133 -0.4924  0.4482
    2TMC2    H214317   3.621   2.350  15.864 -0.1251  1.9358  0.2271
    2TMC2    C714318   3.689   2.176  16.052 -0.1859 -0.7734  0.6124
    2TMC2    C814319   3.414   2.460  15.797  0.6439 -0.3649  0.3020
    2TMC2    O114320   3.686   2.092  16.139 -0.2311 -0.1547 -0.2465
    2TMC2    O214321   3.504   2.531  15.768  0.4249  0.1155  0.7424
    2TMC2    O514322   3.290   2.504  15.777  0.2585 -0.1296  0.1603
    2TMC2    H514323   3.217   2.440  15.792 -0.1192  0.3045  0.1719
    3MPD1     C14324   3.100   2.278  16.712  0.7504 -0.6559 -0.8186
    3MPD1    C114325   3.235   2.282  16.696 -0.3463 -1.3495  0.1613
    3MPD1    C214326   3.297   2.253  16.572  0.5032 -0.3297 -0.2682
    3MPD1    C314327   3.223   2.265  16.460  0.0375  0.6602 -0.0302
    3MPD1    C414328   3.087   2.269  16.477 -0.3419  1.0126 -0.7579
    3MPD1    C514329   3.022   2.272  16.599 -0.0131  0.1856 -0.0686
    3MPD1     H14330   3.405   2.255  16.566  0.5533 -1.6757  0.0658
    3MPD1    H114331   3.017   2.270  16.394 -0.4785 -0.0931 -0.6497
    3MPD1    H214332   3.050   2.291  16.807  1.7894 -1.8131 -0.1218
    3MPD1    H314333   2.914   2.263  16.600  0.1689 -1.9323 -0.4289
    3MPD1     N14334   3.283   2.264  16.339  0.0029  0.3964  0.1132
    3MPD1    H514335   3.385   2.263  16.341  0.0373  3.4757  0.3289
    3MPD1    N114336   3.318   2.288  16.809  0.4262  0.3080 -0.5248
    3MPD1    H614337   3.392   2.353  16.785  0.0304  1.2140  0.7015
    3MPD1    H714338   3.269   2.313  16.895  0.1688 -1.2451 -0.2103
    1TMC1    C114339   2.276   0.386  13.476  0.0223 -0.4566 -0.8999
    1TMC1    C214340   2.222   0.410  13.601 -0.2247 -0.1957  0.0750
    1TMC1    C314341   2.143   0.315  13.654  0.2478  0.2081 -0.0920
    1TMC1    C414342   2.240   0.283  13.399  0.3969 -0.6321  0.4483
    1TMC1    C514343   2.131   0.217  13.447  0.5838 -0.7268 -0.2645
    1TMC1    C614344   2.094   0.214  13.580  1.2220  0.4156 -0.0544
    1TMC1     C14345   2.381   0.473  13.433  0.1067  0.2373  0.2371
    1TMC1     O14346   2.388   0.504  13.315 -0.1386 -0.1918 -0.2533
    1TMC1     H14347   2.252   0.496  13.660  0.0161  1.1143 -1.9427
    1TMC1    H114348   2.285   0.254  13.305  1.3836  1.5304  0.2584
    1TMC1    H214349   2.006   0.158  13.610  1.8212 -0.0407  0.8685
    1TMC1    C714350   2.084   0.104  13.367  0.4504  0.1376 -0.7615
    1TMC1    C814351   2.066   0.355  13.770 -0.0012  0.5950  0.0059
    1TMC1    O114352   1.975   0.118  13.309  0.1906 -0.4555  0.0533
    1TMC1    O214353   1.949   0.371  13.768  0.5361 -0.5176 -0.5858
    1TMC1    O314354   2.106   0.012  13.462  0.0040  0.6332 -0.4468
    1TMC1    H314355   2.198   0.021  13.495 -0.2898 -0.5757  0.6633
    1TMC1    O514356   2.156   0.376  13.865 -0.1434 -0.2998  0.1176
    1TMC1    H514357   2.237   0.322  13.855 -0.2310 -0.5118  0.5480
    2MPD2     C14358   2.594   0.692  13.425 -0.4553 -0.8260  0.0582
    2MPD2    C114359   2.578   0.598  13.520 -0.4639 -0.0637  0.0946
    2MPD2    C214360   2.669   0.595  13.623 -0.2954 -0.4578  0.6935
    2MPD2    C314361   2.783   0.677  13.619  0.2244  0.2458  0.3681
    2MPD2    C414362   2.796   0.763  13.512  0.1154 -0.6304 -0.0011
    2MPD2    C514363   2.698   0.778  13.425 -0.2591 -0.1986 -0.2544
    2MPD2     H14364   2.660   0.530  13.709  1.6134  0.4406  1.5773
    2MPD2    H114365   2.883   0.825  13.490 -0.2462 -0.8758 -2.1791
    2MPD2    H214366   2.517   0.711  13.351 -0.2735 -0.6653 -0.0878
    2MPD2    H314367   2.717   0.833  13.334  0.9905  0.7908  0.5999
    2MPD2     N14368   2.884   0.657  13.716 -0.1857 -0.0018  0.0470
    2MPD2    H514369   2.876   0.582  13.784  1.2862  0.0585  0.2961
    2MPD2    N114370   2.477   0.504  13.532  0.5314  0.0401  0.7886
    2MPD2    H714371   2.468   0.449  13.617  1.0041  1.2416  1.6144
    3TCq1    O114372   3.448   0.386  13.872 -0.7984  0.0694 -0.2844
    3TCq1    C114373   3.378   0.455  13.773  0.4545  1.2392  0.3689
    3TCq1    O214374   3.405   0.466  13.654 -0.3297  0.3359  0.0008
    3TCq1    C214375   3.248   0.491  13.824  0.8537 -0.4235  1.0577
    3TCq1    C314376   3.193   0.438  13.933 -0.2352  0.7868 -0.3752
    3TCq1    C414377   3.083   0.502  13.984 -0.2182  0.3786 -0.6607
    3TCq1    C514378   3.029   0.612  13.923  0.1025 -0.1396  0.1418
    3TCq1    C614379   3.091   0.671  13.824 -0.4835  0.1426 -0.0491
    3TCq1    C714380   3.202   0.611  13.775  0.0054  0.3101 -0.1840
    3TCq1    C814381   3.001   0.731  13.723  0.0427  0.1179  0.2072
    3TCq1    O414382   3.057   0.805  13.636 -0.0623  0.1351 -0.0371
    3TCq1    C914383   3.027   0.462  14.108 -0.2048 -0.8143 -0.3009
    3TCq1    O514384   3.086   0.363  14.160  0.2697  0.6527 -0.2434
    3TCq1    O614385   2.960   0.547  14.170  0.1238 -0.1755  0.3506
    3TCq1    H114386   3.409   0.385  13.962 -0.8566  1.0792 -0.2908
    3TCq1    H214387   3.240   0.353  13.981 -0.4453 -0.8109 -2.9840
    3TCq1    H314388   2.943   0.665  13.963  0.0448 -1.1396  1.3482
    3TCq1    H414389   3.241   0.653  13.683 -1.9281 -0.9849 -1.5928
    1MPD2     C14390   2.053   1.549  14.633  0.0632 -0.2210 -0.3244
    1MPD2    C114391   1.921   1.538  14.623  0.9036  0.0160  0.2629
    1MPD2    C214392   1.859   1.448  14.705 -0.1852  0.1399 -0.3543
    1MPD2    C314393   1.930   1.373  14.795  0.6861  0.0332  0.4072
    1MPD2    C414394   2.067   1.402  14.813  0.4726 -0.2245  0.2247
    1MPD2    C514395   2.128   1.489  14.732  0.7596  0.4424  0.6037
    1MPD2     H14396   1.752   1.455  14.719 -0.2770 -0.9772 -0.4879
    1MPD2    H114397   2.124   1.348  14.888  1.8240 -0.0610 -0.6814
    1MPD2    H214398   2.106   1.617  14.567  1.3644  0.1148  1.0627
    1MPD2    H314399   2.235   1.505  14.739  0.6633  0.9715  0.8619
    1MPD2     N14400   1.874   1.262  14.870  0.1466  0.3505 -0.3687
    1MPD2    H514401   1.930   1.213  14.938 -2.1142 -1.3887  0.2479
    1MPD2    N114402   1.854   1.617  14.523 -0.1297  0.4735  0.4119
    1MPD2    H714403   1.902   1.690  14.472 -2.2847  3.2351  2.3796
    2TMC3    C114404   1.662   1.702  14.411 -0.3866 -0.1563 -0.5274
    2TMC3    C214405   1.535   1.653  14.374 -0.2708  0.4608 -0.0424
    2TMC3    C314406   1.422   1.729  14.389 -0.3300 -0.5395 -0.0754
    2TMC3    C414407   1.662   1.828  14.467 -0.3151  0.2874  0.1105
    2TMC3    C514408   1.550   1.902  14.474 -0.5336  0.0468  0.1265
    2TMC3    C614409   1.428   1.856  14.450  0.4710 -0.5442 -0.1856
    2TMC3     C14410   1.722   1.597  14.488 -0.7475 -0.2750  0.0089
    2TMC3     O14411   1.645   1.508  14.511  0.8790 -0.1983 -0.5349
    2TMC3     H14412   1.521   1.555  14.330 -2.2832  0.2928  0.9952
    2TMC3    H114413   1.751   1.873  14.508  1.3283 -2.2074 -0.7152
    2TMC3    H214414   1.338   1.914  14.467  2.7006  2.4032  1.6275
    2TMC3    C714415   1.564   2.050  14.481  0.7073  0.3567 -0.3050
    2TMC3    C814416   1.315   1.655  14.453  0.1405  0.9245  0.3968
    2TMC3    O114417   1.459   2.109  14.499  0.1188  0.0060 -0.6692
    2TMC3    O214418   1.200   1.685  14.432  0.3873  0.6471 -0.3135
    3TCq1    O114419   2.405   3.028  14.568 -0.1285 -0.3956 -0.3342
    3TCq1    C114420   2.277   2.984  14.550  0.2643 -0.1890 -0.0798
    3TCq1    O214421   2.184   3.045  14.508 -0.0209 -0.1819 -0.1926
    3TCq1    C214422   2.290   2.842  14.533  0.7498 -0.2687  0.3223
    3TCq1    C314423   2.357   2.768  14.627  0.0101 -0.4760  0.5940
    3TCq1    C414424   2.315   2.634  14.641  0.4901  0.0349  0.2198
    3TCq1    C514425   2.223   2.576  14.563  0.1039 -0.1888  0.5220
    3TCq1    C614426   2.157   2.649  14.468 -0.3781  0.8948  0.1252
    3TCq1    C714427   2.185   2.786  14.457 -0.2884 -0.1428 -0.6189
    3TCq1    C814428   2.040   2.604  14.396  0.1137  0.2420 -0.2137
    3TCq1    O414429   1.984   2.686  14.324 -0.1859  0.4713  0.4012
    3TCq1    C914430   2.365   2.554  14.752 -0.0763 -0.1904 -0.2878
    3TCq1    O514431   2.293   2.456  14.771  0.0495  0.1092  0.2610
    3TCq1    O614432   2.438   2.606  14.843 -0.0884 -0.1572 -0.0885
    3TCq1    H114433   2.477   2.962  14.556  1.3942  0.7005  2.7213
    3TCq1    H214434   2.420   2.810  14.704  1.1032  1.1757 -1.2257
    3TCq1    H314435   2.191   2.472  14.569 -0.8133 -0.0492 -1.9430
    3TCq1    H414436   2.136   2.843  14.379 -0.9090 -4.2235 -3.1855
    4MPD2     C14437   1.757   2.520  14.370  0.1409  0.3033  0.2458
    4MPD2    C114438   1.856   2.436  14.418  0.0350  0.4948  0.0468
    4MPD2    C214439   1.829   2.303  14.458  0.3311 -0.3909  0.5958
    4MPD2    C314440   1.705   2.248  14.439 -0.5129 -0.0895 -0.3674
    4MPD2    C414441   1.604   2.330  14.390  0.1570 -0.7790  0.0110
    4MPD2    C514442   1.631   2.465  14.358 -0.3825  0.3664 -0.7375
    4MPD2     H14443   1.903   2.229  14.484 -0.2564 -1.5397 -0.9719
    4MPD2    H114444   1.508   2.284  14.367 -0.3912 -0.6941  2.1599
    4MPD2    H214445   1.773   2.620  14.332  3.3811  0.1275  1.1322
    4MPD2    H314446   1.542   2.514  14.321  0.5168  2.3088 -0.2922
    4MPD2     N14447   1.687   2.107  14.464  0.5919  0.4325  0.2542
    4MPD2    H514448   1.772   2.056  14.486  0.9319  0.7227 -0.3576
    4MPD2    N114449   1.997   2.477  14.434  0.3806  0.0685  0.0581
    4MPD2    H714450   2.065   2.412  14.471  0.2050 -0.9784 -1.4345
    5TMC2    C114451   1.473   1.060  14.969 -0.8083  0.2132  0.2410
    5TMC2    C214452   1.473   1.087  15.101  0.9207  0.1635 -0.4454
    5TMC2    C314453   1.593   1.120  15.156  0.4344 -0.1925 -1.1774
    5TMC2    C414454   1.587   1.070  14.891  0.2537  0.0690  0.1549
    5TMC2    C514455   1.701   1.121  14.943 -0.0904  0.1115  0.1135
    5TMC2    C614456   1.702   1.156  15.079  0.1171 -0.0356 -0.0695
    5TMC2     C14457   1.352   1.084  14.893 -0.1583 -0.2449 -0.4710
    5TMC2     O14458   1.246   1.083  14.950  0.1866 -0.3994  0.6197
    5TMC2     H14459   1.380   1.083  15.155  1.3803 -1.6115  0.2206
    5TMC2    H114460   1.585   1.039  14.787  1.8861  2.4575 -0.5849
    5TMC2    H214461   1.789   1.201  15.126 -0.1618 -1.3373  1.7282
    5TMC2    C714462   1.748   1.220  14.854  0.5912 -0.5712  0.0023
    5TMC2    C814463   1.572   1.197  15.277 -0.2660  0.8364 -0.2846
    5TMC2    O114464   1.668   1.252  14.769  0.0872 -1.0149  0.1170
    5TMC2    O214465   1.464   1.252  15.300  0.1389 -0.2543 -0.4843
    5TMC2    O514466   1.645   1.125  15.365  0.2148  0.2266 -0.3387
    5TMC2    H514467   1.734   1.101  15.331  0.5537  0.0268  0.6851
    6MPD2     C14468   1.148   1.453  14.597  0.3829  0.1755  0.5676
    6MPD2    C114469   1.283   1.456  14.597 -0.1034 -0.2386  0.1018
    6MPD2    C214470   1.361   1.369  14.666 -0.4261 -0.1267 -0.7426
    6MPD2    C314471   1.304   1.271  14.744 -0.6544 -0.0760  0.2078
    6MPD2    C414472   1.167   1.265  14.745 -0.4273  0.0603  0.5073
    6MPD2    C514473   1.091   1.348  14.667  0.1086 -0.6404 -0.3023
    6MPD2     H14474   1.468   1.370  14.649 -0.5338 -1.8535 -1.4865
    6MPD2    H114475   1.108   1.183  14.784 -1.3480  0.0216 -0.9591
    6MPD2    H214476   1.086   1.520  14.539  0.4064 -0.2718  0.0173
    6MPD2    H314477   0.984   1.338  14.657  0.0640  0.4517 -0.9268
    6MPD2     N14478   1.383   1.166  14.793 -0.8505 -0.0324 -0.3010
    6MPD2    H514479   1.482   1.183  14.780 -0.7956 -0.2466 -0.1514
    6MPD2    N114480   1.364   1.555  14.534  0.3031  0.0905 -0.2405
    6MPD2    H714481   1.465   1.546  14.527  0.4136 -0.7527  2.4605
  945NH4     N114482   1.492   2.709  13.667  0.2101 -0.7534  0.5128
  945NH4     H214483   1.541   2.730  13.756 -1.2855 -1.9618  1.6262
  945NH4     H314484   1.400   2.661  13.673  0.1218 -0.8466 -1.6067
  945NH4     H414485   1.548   2.640  13.613 -0.3321 -1.4945  0.9020
  945NH4     H514486   1.488   2.797  13.610  0.7420 -0.9626  0.1591
  946SOD     NA14487   2.932   2.249  12.308 -0.0587  0.5538  0.0380
  947SOD     NA14488   4.416   4.471  16.560 -0.2097 -0.1680  0.5226
  948SOD     NA14489   4.219   2.920  13.124 -0.1168  0.4513 -0.1923
  949SOD     NA14490   4.129   4.620   7.107 -0.2068 -0.0147  0.5569
  950SOD     NA14491   4.469   4.390   1.004 -0.6824 -0.3220  0.4420
  951SOD     NA14492   3.642   4.311  11.278 -0.3333  0.3021 -0.9400
  952SOD     NA14493   3.197   4.065  13.446 -0.3451 -0.4929  0.0606
  953SOL     OW14494   4.651   3.821   9.179 -0.1813 -0.0249 -0.0783
  953SOL    HW114495   4.676   3.775   9.099 -0.9129 -4.0028  1.9659
  953SOL    HW214496   4.686   3.771   9.253 -0.7286 -0.5158 -0.1631
  954SOL     OW14497   0.668   2.141   4.881 -0.0672 -0.5623  0.6343
  954SOL    HW114498   0.638   2.120   4.970 -1.1298 -0.8724  0.2008
  954SOL    HW214499   0.737   2.206   4.899  0.1318 -1.2433  2.3365
  955SOL     OW14500   1.791   1.382   3.243 -0.0953  0.1214  0.3962
  955SOL    HW114501   1.857   1.390   3.175 -1.3149  3.9840 -0.3213
  955SOL    HW214502   1.787   1.287   3.235 -0.6867 -0.0408  2.5440
  956SOL     OW14503   2.865   3.063  14.977  0.6715 -0.2770  0.2716
  956SOL    HW114504   2.771   3.069  14.958  0.5490  0.4424  1.0813
  956SOL    HW214505   2.856   3.100  15.065  0.4864 -3.1447  1.4452
  957SOL     OW14506   4.506   4.003   0.499  0.2674 -0.4934 -0.1457
  957SOL    HW114507   4.489   3.910   0.508  0.9209 -0.5960  0.0498
  957SOL    HW214508   4.470   4.031   0.583 -1.0779 -0.9542 -0.5751
  958SOL     OW14509   3.802   1.728   8.856  0.1440  0.5596 -0.4800
  958SOL    HW114510   3.886   1.705   8.893 -2.0697 -0.2509  4.0073
  958SOL    HW214511   3.826   1.728   8.763  0.8503  0.8454 -0.2928
  959SOL     OW14512   0.691   0.007   8.709  0.3141  0.2866 -0.3791
  959SOL    HW114513   0.610   0.057   8.713  0.0590 -0.2837  1.3714
  959SOL    HW214514   0.661   4.655   8.713 -1.1113  0.8056  0.4255
  960SOL     OW14515   3.770   1.338   6.148 -1.0394  0.0331 -0.4308
  960SOL    HW114516   3.828   1.279   6.195 -0.0500  2.6928  1.6827
  960SOL    HW214517   3.717   1.363   6.224  1.6692 -0.5694  1.6459
  961SOL     OW14518   3.088   1.868   4.931 -0.6590 -0.1018 -0.3206
  961SOL    HW114519   3.011   1.887   4.985  0.7200  2.3811  0.7522
  961SOL    HW214520   3.157   1.916   4.977 -0.2290 -1.0652  0.0471
  962SOL     OW14521   2.488   3.788   4.973 -0.5318 -0.0702 -0.2039
  962SOL    HW114522   2.432   3.793   5.050 -0.7066  0.0920 -0.3390
  962SOL    HW214523   2.418   3.791   4.907  0.6066  0.8190 -1.3770
  963SOL     OW14524   1.803   2.991   5.390 -0.3074  0.3611 -0.1887
  963SOL    HW114525   1.810   2.945   5.307 -2.0352  0.3285 -0.3192
  963SOL    HW214526   1.762   3.072   5.358 -2.1964 -1.4995 -2.5270
  964SOL     OW14527   0.147   1.593   0.028  1.1412  0.1241 -0.2825
  964SOL    HW114528   0.065   1.575  17.736  0.9615  1.2311 -0.3988
  964SOL    HW214529   0.193   1.632  17.706  1.5406 -1.5258 -0.8982
  965SOL     OW14530   4.607   2.675   0.995  0.8054  0.2581 -0.0405
  965SOL    HW114531   4.672   2.649   0.930  0.4163  0.7236 -0.6329
  965SOL    HW214532   4.626   2.612   1.063  1.0829  1.4559  0.9885
  966SOL     OW14533   1.602   4.038  13.315  0.0639  0.0665  0.2053
  966SOL    HW114534   1.526   3.980  13.306 -0.1247  0.1087  1.5233
  966SOL    HW214535   1.589   4.084  13.232 -1.1061 -1.4674 -0.4430
  967SOL     OW14536   1.879   2.611   8.799  0.3531 -0.2089 -0.0429
  967SOL    HW114537   1.818   2.551   8.843  2.8110 -2.6897  0.0301
  967SOL    HW214538   1.939   2.617   8.873 -1.3900  3.0918  1.1106
  968SOL     OW14539   2.900   0.222   2.052  0.2180  0.5059  0.1421
  968SOL    HW114540   2.977   0.165   2.041 -1.7023 -1.8474 -0.9626
  968SOL    HW214541   2.908   0.229   2.147  0.2386 -1.5436  0.2821
  969SOL     OW14542   2.671   0.408   2.536 -0.0314  0.5352 -0.1454
  969SOL    HW114543   2.642   0.369   2.453  0.5377 -0.0749 -0.0556
  969SOL    HW214544   2.639   0.498   2.537 -0.5027  0.3338  2.1768
  970SOL     OW14545   0.488   1.231   5.373 -0.0802  0.2656 -0.0781
  970SOL    HW114546   0.508   1.302   5.435 -1.3205 -0.0775  0.7136
  970SOL    HW214547   0.560   1.240   5.310  1.3672  1.7103  1.7751
  971SOL     OW14548   1.732   3.003   2.686 -0.2203  0.2697  0.3412
  971SOL    HW114549   1.765   2.972   2.602 -2.4612  2.0541 -1.2185
  971SOL    HW214550   1.779   3.086   2.689 -0.7354  0.7252 -4.7382
  972SOL     OW14551   3.129   1.289   1.863  0.6620 -0.2477  0.1394
  972SOL    HW114552   3.166   1.232   1.931  0.3066  0.0928  0.6248
  972SOL    HW214553   3.034   1.278   1.873  0.4609  0.0711 -1.5143
  973SOL     OW14554   1.761   1.329   7.324 -0.7419  0.8286  0.0922
  973SOL    HW114555   1.681   1.355   7.371  0.6105  2.9884  1.1860
  973SOL    HW214556   1.839   1.385   7.326 -0.0480 -0.1771  1.0831
  974SOL     OW14557   1.612   1.123   2.475  0.3278 -0.1675 -0.2792
  974SOL    HW114558   1.583   1.093   2.389 -1.0497  1.1740 -0.3020
  974SOL    HW214559   1.564   1.206   2.477 -0.3361 -0.5471 -0.3951
  975SOL     OW14560   1.512   1.056   6.839  0.1807  0.5905 -0.3902
  975SOL    HW114561   1.418   1.074   6.835 -0.5587 -3.2602 -0.7559
  975SOL    HW214562   1.509   1.027   6.930 -0.1674  1.5952 -0.0811
  976SOL     OW14563   1.880   1.483   5.391  0.1806  0.0570 -0.1412
  976SOL    HW114564   1.812   1.465   5.455 -0.3523  0.9281 -0.4757
  976SOL    HW214565   1.921   1.561   5.428 -1.2478 -0.3693  2.3205
  977SOL     OW14566   1.765   4.579   1.576  0.5310 -0.4114 -0.4887
  977SOL    HW114567   1.859   4.563   1.564  1.1151  1.3220  1.9035
  977SOL    HW214568   1.720   4.495   1.581 -2.2819  1.2398  1.5085
  978SOL     OW14569   2.055   3.085   1.833 -0.0075  0.1066  0.5598
  978SOL    HW114570   2.040   3.175   1.802  1.9100  0.4612  0.6621
  978SOL    HW214571   1.989   3.040   1.780  2.1557 -1.1872 -1.0040
  979SOL     OW14572   2.756   3.393   3.906  0.1011  0.1767  0.0528
  979SOL    HW114573   2.775   3.420   3.996  0.3043 -0.4617  0.2022
  979SOL    HW214574   2.831   3.338   3.885 -0.4377  0.0463 -1.5408
  980SOL     OW14575   3.858   2.567   7.485  0.0173 -0.0777  0.0208
  980SOL    HW114576   3.831   2.475   7.481 -1.5494  0.3308  1.2764
  980SOL    HW214577   3.862   2.589   7.392  1.4397 -1.5379 -0.2570
  981SOL     OW14578   2.701   2.754   3.010  0.3492  0.3416  0.0959
  981SOL    HW114579   2.759   2.762   3.086 -0.9306  0.1802  1.0892
  981SOL    HW214580   2.736   2.809   2.940 -0.7020  0.2096 -0.5316
  982SOL     OW14581   3.894   2.091  10.070  0.0116 -0.4206  0.1369
  982SOL    HW114582   3.886   2.088   9.975 -1.5422  1.0520  0.2075
  982SOL    HW214583   3.923   2.000  10.074  1.1967 -0.0402  0.0652
  983SOL     OW14584   0.619   0.892   1.441 -0.0101 -0.6117  0.0751
  983SOL    HW114585   0.669   0.864   1.517 -0.6170 -0.8739  0.3806
  983SOL    HW214586   0.532   0.894   1.482 -0.4278 -0.2397 -0.8265
  984SOL     OW14587   4.407   4.017   6.267  0.3224  0.1071  0.2945
  984SOL    HW114588   4.407   3.947   6.333  0.0263 -2.1592 -2.0892
  984SOL    HW214589   4.320   4.007   6.227  1.3870 -0.6026 -1.8430
  985SOL     OW14590   4.454   2.323   1.390  0.1838  0.3042  0.0103
  985SOL    HW114591   4.503   2.371   1.323  1.8476 -0.0501  0.9649
  985SOL    HW214592   4.364   2.337   1.361  0.1718 -0.9963 -0.5623
  986SOL     OW14593   4.386   1.805  17.698  0.1407 -0.1355  0.0657
  986SOL    HW114594   4.354   1.844  17.617 -1.5467  0.4286  1.0034
  986SOL    HW214595   4.395   1.710  17.685 -1.7564 -0.6359  2.5299
  987SOL     OW14596   1.299   0.120   4.734  0.5716 -0.3617  0.4360
  987SOL    HW114597   1.354   0.107   4.811  0.8523  1.6438  0.5844
  987SOL    HW214598   1.273   0.029   4.722 -1.7765  0.2606  0.8577
  988SOL     OW14599   2.532   1.704   9.058  0.0064  0.9544  0.5086
  988SOL    HW114600   2.507   1.655   9.136  3.9659  0.6933  1.5888
  988SOL    HW214601   2.593   1.764   9.102  3.1074 -2.1606  0.3965
  989SOL     OW14602   4.474   2.160  17.714 -0.0035  0.0230 -0.3546
  989SOL    HW114603   4.409   2.138  17.648 -2.1111 -0.0086  1.7076
  989SOL    HW214604   4.557   2.155  17.666 -0.3373 -1.5964 -0.7802
  990SOL     OW14605   0.869   1.785   3.740  0.2287  0.3259  0.7099
  990SOL    HW114606   0.901   1.876   3.734 -0.6920  0.4503 -2.4597
  990SOL    HW214607   0.927   1.745   3.675 -1.4551 -0.2115 -0.4584
  991SOL     OW14608   2.917   3.895   9.433  0.1370 -1.1105  0.2141
  991SOL    HW114609   2.868   3.814   9.422  0.1833 -1.1307  0.1619
  991SOL    HW214610   2.996   3.849   9.459 -0.4091 -1.9790  0.3302
  992SOL     OW14611   1.792   3.464  10.345 -0.5689 -0.1560 -0.1993
  992SOL    HW114612   1.859   3.472  10.412 -1.2709  0.2298  0.4665
  992SOL    HW214613   1.790   3.371  10.325  0.9288 -0.1545 -0.3027
  993SOL     OW14614   2.646   2.944  15.230 -0.2427  0.3496 -0.1129
  993SOL    HW114615   2.551   2.939  15.240 -0.3604  0.2642 -1.3265
  993SOL    HW214616   2.655   2.906  15.143  0.8816 -0.0849  0.1809
  994SOL     OW14617   0.437   4.567   0.675 -0.1944 -0.5038  0.0875
  994SOL    HW114618   0.477   4.577   0.589  0.2927  1.5208  0.5423
  994SOL    HW214619   0.459   4.475   0.688  1.0583 -0.2736 -0.4781
  995SOL     OW14620   2.073   2.406   4.498  0.7583 -0.4252 -0.0593
  995SOL    HW114621   2.123   2.411   4.580  1.2342  0.4227 -0.4007
  995SOL    HW214622   2.082   2.313   4.478  2.4536 -0.3752  0.4509
  996SOL     OW14623   2.011   2.646   9.368 -0.0680 -0.0924  0.0166
  996SOL    HW114624   2.056   2.599   9.438  0.2879 -0.9411 -0.7899
  996SOL    HW214625   1.923   2.607   9.369  0.3642 -1.0719 -1.9802
  997SOL     OW14626   3.283   0.430   3.567  0.0344 -0.0719 -0.5509
  997SOL    HW114627   3.264   0.466   3.653  0.8102  0.7974 -0.7426
  997SOL    HW214628   3.311   0.341   3.590 -1.3538 -0.0992  1.0440
  998SOL     OW14629   3.644   0.587   2.680 -0.0047  0.5267 -0.6400
  998SOL    HW114630   3.632   0.632   2.597 -0.4005  3.2764  0.8974
  998SOL    HW214631   3.602   0.654   2.735  0.2857 -0.0312  0.2642
  999SOL     OW14632   3.642   3.350   7.507  0.3952 -0.1386  0.6048
  999SOL    HW114633   3.605   3.387   7.427 -1.7953 -0.2222  1.5580
  999SOL    HW214634   3.571   3.291   7.533  1.1098 -1.5901 -0.7432
 1000SOL     OW14635   4.297   3.140   5.651 -0.5335 -0.5786 -0.2135
 1000SOL    HW114636   4.375   3.161   5.600 -0.0979 -1.4807  0.0718
 1000SOL    HW214637   4.321   3.175   5.737  1.7982 -0.9549 -0.7319
 1001SOL     OW14638   3.247   1.701   1.599  0.6818  1.1993 -0.0384
 1001SOL    HW114639   3.242   1.770   1.665  0.7035  0.3139  0.8807
 1001SOL    HW214640   3.223   1.755   1.523 -2.7886  1.1584  1.0462
 1002SOL     OW14641   4.208   2.230   9.764  0.8698  0.3855  0.3115
 1002SOL    HW114642   4.167   2.307   9.803  0.1012 -0.0136  0.3054
 1002SOL    HW214643   4.128   2.177   9.756  0.2934  1.5224 -1.3840
 1003SOL     OW14644   4.093   1.392   5.116  0.2073  0.3784  0.4027
 1003SOL    HW114645   4.163   1.359   5.171 -2.2240  0.0299  3.2716
 1003SOL    HW214646   4.084   1.482   5.145 -0.6436  0.7860 -1.1339
 1004SOL     OW14647   1.776   0.836   9.214  0.1037  0.5967  0.0117
 1004SOL    HW114648   1.709   0.905   9.207 -0.9341 -0.5170 -1.1395
 1004SOL    HW214649   1.724   0.775   9.161 -1.7850  1.0141  1.3745
 1005SOL     OW14650   3.905   2.153   1.358 -0.1315 -0.2579 -0.3271
 1005SOL    HW114651   3.919   2.172   1.451  1.1028  0.0724 -0.5750
 1005SOL    HW214652   3.912   2.058   1.345  0.4532 -0.2913  0.2411
 1006SOL     OW14653   2.751   3.064   7.916 -0.2709 -0.1627 -0.0772
 1006SOL    HW114654   2.840   3.027   7.921 -0.7986 -1.3545  0.4433
 1006SOL    HW214655   2.746   3.135   7.853 -2.4703 -1.7575 -1.6914
 1007SOL     OW14656   3.109   1.609   6.890  0.2495 -0.2434  0.3201
 1007SOL    HW114657   3.019   1.642   6.899  1.0442  1.8522  0.7574
 1007SOL    HW214658   3.091   1.516   6.885 -0.1636 -0.3049  2.6963
 1008SOL     OW14659   3.889   0.519   8.003  0.4067 -0.3016 -0.4541
 1008SOL    HW114660   3.903   0.425   7.989 -2.9164 -0.9735  0.7070
 1008SOL    HW214661   3.909   0.527   8.096 -0.0762 -0.2828 -0.3483
 1009SOL     OW14662   2.083   4.206  10.931 -0.3418 -0.5740  0.5617
 1009SOL    HW114663   2.129   4.282  10.896 -1.0843 -0.7741 -0.8534
 1009SOL    HW214664   2.026   4.250  10.994  1.6819 -0.8197  2.5305
 1010SOL     OW14665   2.291   1.115   3.148 -0.1254 -0.3585 -0.5695
 1010SOL    HW114666   2.280   1.194   3.202 -0.2216 -1.8662  1.6188
 1010SOL    HW214667   2.250   1.052   3.208 -0.9943 -0.3209 -1.1284
 1011SOL     OW14668   3.995   4.507   8.104  0.3024  0.2898 -0.4027
 1011SOL    HW114669   4.050   4.459   8.166 -0.1283  0.6172  0.2313
 1011SOL    HW214670   4.056   4.559   8.052 -0.4722  2.4220  0.8131
 1012SOL     OW14671   4.603   1.779   3.523  0.5161 -0.1409  0.2129
 1012SOL    HW114672   4.557   1.846   3.473 -0.6570 -1.7782 -0.8732
 1012SOL    HW214673   4.697   1.791   3.506  0.2946  0.4676 -0.5441
 1013SOL     OW14674   1.521   0.815   3.634 -0.3107 -0.6096 -0.3486
 1013SOL    HW114675   1.429   0.815   3.606  0.1161 -0.8352 -1.7931
 1013SOL    HW214676   1.559   0.760   3.565 -0.5377 -0.5782 -0.5014
 1014SOL     OW14677   1.789   2.326  12.514 -0.0179 -0.4394 -0.4855
 1014SOL    HW114678   1.859   2.314  12.449  2.5314 -0.1262  2.2113
 1014SOL    HW214679   1.847   2.343  12.588 -0.8279 -0.7274  0.2076
 1015SOL     OW14680   1.710   3.588  11.154  0.1882 -0.3097  0.1713
 1015SOL    HW114681   1.631   3.544  11.123  1.0338 -0.6292 -1.5271
 1015SOL    HW214682   1.684   3.598  11.246  3.1806 -2.0402  1.2010
 1016SOL     OW14683   3.622   0.642   8.832 -0.2497 -0.0476  0.4417
 1016SOL    HW114684   3.697   0.657   8.890 -0.1838  2.4924 -0.3112
 1016SOL    HW214685   3.547   0.623   8.889  0.9988 -0.0981  2.0867
 1017SOL     OW14686   2.120   1.924   5.976 -0.8289  0.2380 -0.1215
 1017SOL    HW114687   2.183   1.859   5.945 -0.0950  1.2209 -0.6557
 1017SOL    HW214688   2.153   1.928   6.066  1.0556  0.0939 -0.8184
 1018SOL     OW14689   3.256   3.831  16.786  0.2109  0.1001 -0.0358
 1018SOL    HW114690   3.313   3.892  16.739 -0.0541 -1.2088 -2.0532
 1018SOL    HW214691   3.164   3.856  16.771  0.0996 -0.7363 -0.7334
 1019SOL     OW14692   4.211   0.188   9.272 -0.3705  0.1016  0.0532
 1019SOL    HW114693   4.228   0.223   9.184  0.7789 -1.7609 -0.4493
 1019SOL    HW214694   4.272   0.246   9.318  0.5557  0.6042 -1.7977
 1020SOL     OW14695   0.692   0.332   2.845 -0.3208  0.2198 -0.1465
 1020SOL    HW114696   0.647   0.416   2.835 -0.9597  0.0464  1.2478
 1020SOL    HW214697   0.777   0.354   2.884  0.6372 -2.2133 -0.8208
 1021SOL     OW14698   2.133   0.288   5.565 -0.8443 -0.3216  0.0985
 1021SOL    HW114699   2.095   0.258   5.647  0.2414  0.2905  0.8437
 1021SOL    HW214700   2.224   0.293   5.595 -0.4913  0.6353 -1.1069
 1022SOL     OW14701   2.306   1.802  14.796  0.3088 -0.1337  0.1478
 1022SOL    HW114702   2.326   1.832  14.884  0.3410  1.5066 -0.4137
 1022SOL    HW214703   2.356   1.720  14.801 -0.0540 -0.2654  1.5435
 1023SOL     OW14704   3.056   3.866  15.814 -0.0666 -0.4481 -0.1918
 1023SOL    HW114705   3.143   3.838  15.843 -1.0295 -0.9050  2.2796
 1023SOL    HW214706   3.009   3.783  15.824 -1.7918  0.7555  1.5532
 1024SOL     OW14707   3.115   3.123  16.212  0.2992 -0.0130 -0.3186
 1024SOL    HW114708   3.091   3.157  16.126 -1.0194 -0.5310 -0.1622
 1024SOL    HW214709   3.037   3.071  16.233  0.7297 -0.2926  0.6131
 1025SOL     OW14710   1.016   3.724  10.087  0.1414 -0.2957 -0.1024
 1025SOL    HW114711   0.938   3.689  10.043 -0.3373  0.3670  0.2297
 1025SOL    HW214712   0.991   3.814  10.108  0.6284  0.0659 -1.0518
 1026SOL     OW14713   4.454   0.800   4.039  0.1808 -0.0469 -0.1285
 1026SOL    HW114714   4.506   0.723   4.062 -1.2666 -1.7869 -2.6628
 1026SOL    HW214715   4.378   0.785   4.095  0.2589  0.5367  0.1389
 1027SOL     OW14716   4.402   2.057   5.029 -0.2575  0.1661  0.3770
 1027SOL    HW114717   4.357   2.137   5.002 -1.0236 -0.7509 -1.0996
 1027SOL    HW214718   4.481   2.049   4.975  1.6337  0.6316  3.0852
 1028SOL     OW14719   3.673   3.617  17.588 -0.0961 -0.3648 -0.5807
 1028SOL    HW114720   3.653   3.631  17.496 -0.6487 -0.6191 -0.4967
 1028SOL    HW214721   3.591   3.591  17.630 -1.3521 -0.2084 -2.9242
 1029SOL     OW14722   0.735   3.339   8.246  0.6810  0.4025  0.5598
 1029SOL    HW114723   0.753   3.283   8.321 -0.1742 -0.7392 -0.0844
 1029SOL    HW214724   0.823   3.375   8.230  0.3384  0.8925 -0.2218
 1030SOL     OW14725   0.621   2.963   4.190 -0.0098  0.1986 -0.0108
 1030SOL    HW114726   0.563   3.038   4.202  1.0617  1.1901 -0.9583
 1030SOL    HW214727   0.561   2.894   4.218  0.5064 -0.3501 -0.2323
 1031SOL     OW14728   4.028   0.286  13.584 -0.0889 -0.6157  0.0301
 1031SOL    HW114729   4.082   0.211  13.560 -2.3309 -2.8999  2.2376
 1031SOL    HW214730   3.969   0.261  13.655  1.9919 -2.7945  0.9868
 1032SOL     OW14731   4.250   4.411   7.925  0.1441 -0.0175  0.1206
 1032SOL    HW114732   4.256   4.405   7.830 -1.5157 -0.6845  0.0722
 1032SOL    HW214733   4.261   4.505   7.940  3.7865 -0.6081  1.2903
 1033SOL     OW14734   1.063   2.658  15.462  0.0294  0.0208 -0.8085
 1033SOL    HW114735   1.132   2.725  15.463 -1.5176  1.5581  0.6934
 1033SOL    HW214736   0.991   2.698  15.414 -2.1157 -1.4031  1.2301
 1034SOL     OW14737   3.674   0.914  12.271  0.4641  0.2226 -0.4281
 1034SOL    HW114738   3.723   0.880  12.346 -1.0674  0.7021  0.7709
 1034SOL    HW214739   3.595   0.945  12.316 -0.4947 -1.4517 -0.9915
 1035SOL     OW14740   4.523   1.685   8.709 -0.3413 -0.2850 -0.2621
 1035SOL    HW114741   4.487   1.772   8.724 -2.8323 -1.4611  0.5139
 1035SOL    HW214742   4.499   1.648   8.794 -1.1161 -3.0661 -1.6945
 1036SOL     OW14743   1.064   3.452   5.304 -0.2166  0.4184  0.1630
 1036SOL    HW114744   1.072   3.401   5.384 -0.7773 -1.5436 -1.0319
 1036SOL    HW214745   0.974   3.434   5.277  0.5006  2.1754 -3.4493
 1037SOL     OW14746   2.309   1.466   5.576 -0.5108  0.4676  0.0392
 1037SOL    HW114747   2.393   1.424   5.556  0.0314  1.6028 -0.0507
 1037SOL    HW214748   2.287   1.491   5.486 -1.5428 -3.6471 -0.8314
 1038SOL     OW14749   0.796   3.554   0.640  0.4415  0.5586  0.1250
 1038SOL    HW114750   0.858   3.534   0.711 -2.3830 -0.4260  2.3160
 1038SOL    HW214751   0.754   3.630   0.682  0.8662  0.5907  0.4971
 1039SOL     OW14752   1.350   3.650   4.499  0.7027 -0.3951  0.1882
 1039SOL    HW114753   1.291   3.606   4.559  1.4631 -1.0570  0.4458
 1039SOL    HW214754   1.283   3.670   4.434 -0.4489 -2.9340  0.6091
 1040SOL     OW14755   2.789   1.815   6.275 -0.0540  0.5517 -0.0050
 1040SOL    HW114756   2.801   1.722   6.257 -1.5421  0.3193  0.1597
 1040SOL    HW214757   2.879   1.845   6.271  0.4105 -1.2228 -2.8049
 1041SOL     OW14758   0.788   3.365   5.197  0.4606  0.6727 -0.2097
 1041SOL    HW114759   0.792   3.291   5.136 -0.9035  0.1242  0.3617
 1041SOL    HW214760   0.726   3.329   5.260  0.3181  3.4797  1.2395
 1042SOL     OW14761   3.666   1.790   9.831 -0.5442  1.0183 -0.0553
 1042SOL    HW114762   3.734   1.855   9.815  1.4583 -1.1388 -0.2392
 1042SOL    HW214763   3.668   1.737   9.752 -0.6682 -0.5647  1.0015
 1043SOL     OW14764   1.900   3.842   3.783  0.0650  0.2470 -0.1900
 1043SOL    HW114765   1.894   3.746   3.782 -1.8384  0.3408  1.5345
 1043SOL    HW214766   1.938   3.871   3.701 -0.1706 -0.3018 -0.4897
 1044SOL     OW14767   0.105   4.268   6.536  0.0273 -0.6022  0.3193
 1044SOL    HW114768   0.135   4.180   6.560  1.4114 -0.0569  0.5799
 1044SOL    HW214769   0.110   4.262   6.441  2.0208 -1.8056  0.5060
 1045SOL     OW14770   0.926   4.379   6.153 -0.1729 -0.2981  0.2262
 1045SOL    HW114771   0.880   4.455   6.187 -0.2555  0.1339 -0.8718
 1045SOL    HW214772   1.018   4.401   6.167 -0.4485  1.1048 -0.2670
 1046SOL     OW14773   2.551   3.925   2.324 -0.4071 -0.0546  0.1790
 1046SOL    HW114774   2.494   4.002   2.318 -0.2681  0.1149  1.1053
 1046SOL    HW214775   2.629   3.963   2.284 -0.2195  0.8477  1.3882
 1047SOL     OW14776   0.684   2.327  13.121  0.3164 -0.0339 -0.5321
 1047SOL    HW114777   0.683   2.331  13.025 -0.4590  2.2046 -0.4407
 1047SOL    HW214778   0.624   2.401  13.133  1.7041  1.1928 -1.1306
 1048SOL     OW14779   2.216   2.261   2.256 -0.3496 -0.6442  0.2682
 1048SOL    HW114780   2.253   2.173   2.264 -1.8009 -1.0557  2.3685
 1048SOL    HW214781   2.227   2.296   2.345  0.3554  0.7495 -0.3574
 1049SOL     OW14782   2.117   3.787   9.658  0.1345 -0.3821  0.5411
 1049SOL    HW114783   2.184   3.720   9.677  0.0925 -0.6266 -0.1598
 1049SOL    HW214784   2.043   3.730   9.637  0.5649 -1.1484  1.1052
 1050SOL     OW14785   1.825   2.741   7.101  0.8539  0.8851  0.4133
 1050SOL    HW114786   1.890   2.728   7.169  0.0179  0.1300  1.0658
 1050SOL    HW214787   1.852   2.686   7.027 -0.2298  1.2130 -0.2423
 1051SOL     OW14788   1.636   2.428   4.330  0.2386  0.2602 -0.3540
 1051SOL    HW114789   1.642   2.349   4.277  1.7805 -0.3378  0.6937
 1051SOL    HW214790   1.654   2.490   4.259 -0.5712 -0.5358 -1.2511
 1052SOL     OW14791   1.640   0.714  12.049 -0.2831 -0.4384  0.5212
 1052SOL    HW114792   1.650   0.629  12.093 -2.2615 -1.5474 -1.1650
 1052SOL    HW214793   1.546   0.704  12.034  0.0512 -1.5226 -0.8327
 1053SOL     OW14794   3.276   4.092   5.891  0.5931 -0.1102 -0.5471
 1053SOL    HW114795   3.225   4.027   5.940 -0.9544  0.0569 -1.9165
 1053SOL    HW214796   3.208   4.152   5.859 -0.7844 -0.7018  1.2863
 1054SOL     OW14797   2.777   0.750  17.553  0.1325 -0.3975  0.0099
 1054SOL    HW114798   2.830   0.687  17.503 -0.0996  0.5342 -1.4044
 1054SOL    HW214799   2.708   0.762  17.489  0.9125 -0.2578 -0.8072
 1055SOL     OW14800   1.771   3.617  15.236 -0.3184 -0.1973  0.2272
 1055SOL    HW114801   1.703   3.684  15.232  0.3350  0.3876 -0.9374
 1055SOL    HW214802   1.720   3.543  15.269 -1.3386 -0.3634 -1.7589
 1056SOL     OW14803   0.579   2.360   3.756 -0.3154 -0.6092  0.0571
 1056SOL    HW114804   0.584   2.274   3.798  2.2871  0.1869  1.3464
 1056SOL    HW214805   0.501   2.354   3.700  0.3552 -0.5721 -0.8726
 1057SOL     OW14806   1.850   1.560  12.136 -0.0074 -0.2227 -0.0376
 1057SOL    HW114807   1.823   1.564  12.044  1.5877  0.9173 -0.4768
 1057SOL    HW214808   1.933   1.513  12.122 -0.9373 -1.8543 -0.0106
 1058SOL     OW14809   1.349   1.904   0.532 -0.5023  0.3087 -0.2482
 1058SOL    HW114810   1.297   1.840   0.579  1.2997 -0.0308  1.2679
 1058SOL    HW214811   1.432   1.909   0.580  0.9893 -0.5270 -2.7157
 1059SOL     OW14812   4.573   1.168   5.058  0.1128 -0.0489  0.2705
 1059SOL    HW114813   4.603   1.128   4.977  0.0807  1.4687 -0.5000
 1059SOL    HW214814   4.485   1.130   5.058 -0.2460  0.7789 -0.6038
 1060SOL     OW14815   1.697   2.779   0.883 -0.0181  0.2965 -0.1056
 1060SOL    HW114816   1.768   2.825   0.838  0.7306 -0.8445 -0.0622
 1060SOL    HW214817   1.739   2.767   0.968  1.2463  1.1426 -0.6023
 1061SOL     OW14818   2.327   1.250   8.922 -0.5191  0.3528 -0.1035
 1061SOL    HW114819   2.327   1.344   8.903 -0.2249  0.0043 -1.8030
 1061SOL    HW214820   2.329   1.202   8.839  0.4926  0.2430 -0.0099
 1062SOL     OW14821   3.351   3.796  14.519  0.1362  0.3319 -0.1103
 1062SOL    HW114822   3.329   3.820  14.429  0.0645 -1.0699 -0.4518
 1062SOL    HW214823   3.446   3.789  14.513  0.3355  2.8526 -0.0568
 1063SOL     OW14824   1.546   4.082   2.037 -0.5840  0.7004 -0.3526
 1063SOL    HW114825   1.498   4.065   2.118 -0.0452  0.3614 -0.1020
 1063SOL    HW214826   1.628   4.038   2.060 -0.3858  0.3008 -1.7859
 1064SOL     OW14827   4.179   3.785   7.137 -0.3147  0.2979 -0.2116
 1064SOL    HW114828   4.177   3.694   7.108 -1.1177  0.3016 -0.1572
 1064SOL    HW214829   4.115   3.768   7.205 -1.1445  2.0138 -0.5746
 1065SOL     OW14830   0.777   2.264   1.764 -0.8765 -0.2178  0.0833
 1065SOL    HW114831   0.860   2.310   1.760 -0.7037 -0.6098 -0.8844
 1065SOL    HW214832   0.711   2.333   1.775 -1.0696 -0.4743  0.5661
 1066SOL     OW14833   4.145   1.949   0.394  0.4099  0.1858 -0.0913
 1066SOL    HW114834   4.193   1.985   0.468 -0.8717  1.4018  0.1496
 1066SOL    HW214835   4.207   1.977   0.327 -0.0171  1.5258  0.0821
 1067SOL     OW14836   3.943   1.396   8.299  0.3592  0.1035 -0.1966
 1067SOL    HW114837   3.900   1.421   8.381  0.3264 -3.4155  0.8566
 1067SOL    HW214838   3.870   1.358   8.251  1.1224 -2.0071  0.3482
 1068SOL     OW14839   2.442   0.200   1.347  0.6931 -0.0834  0.2975
 1068SOL    HW114840   2.391   0.269   1.389  1.1758  1.0651 -1.0072
 1068SOL    HW214841   2.384   0.167   1.278  0.1507  3.0909 -0.7566
 1069SOL     OW14842   3.952   3.960  15.656 -0.0987  0.1965 -0.5498
 1069SOL    HW114843   3.914   3.910  15.728  1.5278 -1.6026 -0.9255
 1069SOL    HW214844   3.984   4.045  15.687 -1.3271  0.1171  0.9531
 1070SOL     OW14845   3.147   3.512  17.023 -0.0955  0.9941  0.3891
 1070SOL    HW114846   3.206   3.587  17.021  1.8009 -0.5774 -2.6666
 1070SOL    HW214847   3.064   3.557  17.038 -1.4466 -1.5234  0.5496
 1071SOL     OW14848   0.403   1.413  12.959 -0.6061 -0.1318  0.7198
 1071SOL    HW114849   0.491   1.376  12.971 -0.9735 -1.3470 -0.3814
 1071SOL    HW214850   0.346   1.352  13.007  0.1558  0.0133  1.8186
 1072SOL     OW14851   2.497   0.094   2.064 -0.4451  0.3264 -0.0233
 1072SOL    HW114852   2.473   0.175   2.019  0.5911  0.8605  0.3904
 1072SOL    HW214853   2.542   0.044   1.995 -0.9731 -0.9871  0.5787
 1073SOL     OW14854   2.807   4.195   5.640 -0.7913 -0.8847 -0.5420
 1073SOL    HW114855   2.821   4.194   5.545 -1.3868  0.3522 -0.6388
 1073SOL    HW214856   2.767   4.281   5.656  0.7195  0.0328 -1.5983
 1074SOL     OW14857   0.759   1.678   3.016 -0.1243  0.8573 -0.3220
 1074SOL    HW114858   0.670   1.645   3.020  0.2664 -0.1854 -0.2803
 1074SOL    HW214859   0.755   1.773   3.029  1.1813  0.8688  0.0174
 1075SOL     OW14860   2.642   1.270  13.026  0.1054 -0.4219  0.1735
 1075SOL    HW114861   2.605   1.188  13.058 -1.3715 -0.0664 -0.6212
 1075SOL    HW214862   2.605   1.260  12.938 -0.9460  2.0479  0.3302
 1076SOL     OW14863   0.544   0.258   9.791 -0.1590  0.5459 -0.1026
 1076SOL    HW114864   0.611   0.222   9.732 -1.4649 -1.7131 -0.2148
 1076SOL    HW214865   0.597   0.300   9.858 -0.3563  0.4344  0.1222
 1077SOL     OW14866   1.278   0.076   8.250  0.0208  0.1294 -0.0498
 1077SOL    HW114867   1.269   0.013   8.321  1.7359  1.1201  1.0189
 1077SOL    HW214868   1.372   0.073   8.237 -0.0405 -0.8307 -0.2316
 1078SOL     OW14869   1.914   0.730  17.735  0.1942 -0.0145 -0.0529
 1078SOL    HW114870   1.993   0.735  17.681  0.0999  2.0776  0.0106
 1078SOL    HW214871   1.940   0.772   0.066 -0.0589  1.3707 -0.6825
 1079SOL     OW14872   0.189   1.497   8.663 -0.4873 -0.0534  0.1550
 1079SOL    HW114873   0.134   1.517   8.587  0.8165 -1.4993 -1.1882
 1079SOL    HW214874   0.248   1.572   8.656  0.5673 -1.0754 -2.0309
 1080SOL     OW14875   3.326   3.607   7.319 -0.9402  0.0247 -0.3196
 1080SOL    HW114876   3.300   3.654   7.240 -0.0732 -2.2886 -1.9531
 1080SOL    HW214877   3.239   3.572   7.338 -0.6193 -1.0952 -0.9288
 1081SOL     OW14878   1.998   3.565   5.036 -0.2491 -0.2965  0.3712
 1081SOL    HW114879   1.946   3.645   5.031  1.1423  0.6207  0.7844
 1081SOL    HW214880   1.932   3.498   5.019 -1.6709  1.1172  0.3447
 1082SOL     OW14881   1.457   4.719   3.005 -0.0146 -0.0907  0.4350
 1082SOL    HW114882   1.511   4.639   3.008 -0.2404 -0.2434  0.4549
 1082SOL    HW214883   1.526   0.044   3.024  0.9749 -1.4342  1.3499
 1083SOL     OW14884   2.905   4.467   3.160 -0.1790  0.1350 -0.4144
 1083SOL    HW114885   2.981   4.480   3.216 -0.9429 -5.5395  1.9843
 1083SOL    HW214886   2.858   4.537   3.205  0.3140  0.2589 -0.1005
 1084SOL     OW14887   2.340   3.156   3.527 -0.3883 -0.2345  0.6865
 1084SOL    HW114888   2.391   3.103   3.588 -1.4321 -1.0564  0.8382
 1084SOL    HW214889   2.376   3.120   3.446 -1.0716  4.2241 -1.6078
 1085SOL     OW14890   0.955   1.233   6.538  0.3171 -0.2821  0.0937
 1085SOL    HW114891   0.915   1.236   6.625 -1.1702  1.5750 -0.6421
 1085SOL    HW214892   0.940   1.141   6.517 -1.1033  0.1143 -0.6636
 1086SOL     OW14893   1.963   1.065   0.433  0.5772 -0.5487  0.6513
 1086SOL    HW114894   1.968   1.134   0.500  0.6180 -1.2561  1.3713
 1086SOL    HW214895   2.029   1.108   0.378  0.1451  0.3364  0.8171
 1087SOL     OW14896   4.724   2.627  12.053  0.1971 -0.1562  0.2467
 1087SOL    HW114897   0.015   2.718  12.046  1.2269 -0.3823  1.5254
 1087SOL    HW214898   0.056   2.579  12.010 -0.4986 -0.2307 -0.8033
 1088SOL     OW14899   3.120   1.619  17.191  0.3908  0.4537  0.2587
 1088SOL    HW114900   3.048   1.676  17.218  1.1078  2.2572 -1.6472
 1088SOL    HW214901   3.155   1.610  17.280 -1.4492 -0.7962  0.8728
 1089SOL     OW14902   4.599   1.280   4.248  0.3133  0.3460 -0.0976
 1089SOL    HW114903   4.691   1.278   4.275  0.1236  0.1638  0.5460
 1089SOL    HW214904   4.584   1.187   4.231  2.1533  0.5121 -2.7017
 1090SOL     OW14905   2.985   2.584  17.111  0.0185 -0.1369 -0.3636
 1090SOL    HW114906   2.998   2.566  17.018 -2.0521 -0.3163 -0.6183
 1090SOL    HW214907   2.935   2.665  17.107  1.7527  1.0987  3.1498
 1091SOL     OW14908   4.699   1.916  13.198  0.3275  0.0732  0.0041
 1091SOL    HW114909   0.035   1.923  13.259  0.1211  1.0213  0.1400
 1091SOL    HW214910   4.708   1.822  13.181  1.4600  0.3399 -0.9333
 1092SOL     OW14911   0.753   3.869  13.977 -0.6075 -0.2211 -0.0819
 1092SOL    HW114912   0.829   3.825  14.013 -0.1958  1.0729  0.6607
 1092SOL    HW214913   0.785   3.956  14.002  0.4759 -1.0429  1.3978
 1093SOL     OW14914   4.663   1.601   7.780 -0.1971 -0.0314  0.0700
 1093SOL    HW114915   4.583   1.549   7.786 -1.0019  1.0025 -1.8424
 1093SOL    HW214916   4.621   1.685   7.762  2.3785  1.0438 -1.0774
 1094SOL     OW14917   3.215   2.022   8.833 -0.2830 -0.1074 -0.4278
 1094SOL    HW114918   3.203   1.994   8.742 -0.3738  0.1371 -0.4908
 1094SOL    HW214919   3.300   2.065   8.821  0.6767 -1.1262  2.7414
 1095SOL     OW14920   4.059   4.142   2.295 -0.0263  0.6852  0.3434
 1095SOL    HW114921   4.142   4.175   2.261 -0.9018  1.8906 -0.6178
 1095SOL    HW214922   4.090   4.129   2.384  0.3325 -0.1219  0.0930
 1096SOL     OW14923   1.971   0.451   3.412  0.7255 -0.1812  0.2485
 1096SOL    HW114924   1.997   0.470   3.502  2.2786 -0.2445 -0.1936
 1096SOL    HW214925   1.962   0.541   3.382  0.0588  0.5223  2.6034
 1097SOL     OW14926   4.598   1.009   4.200 -0.6240 -0.3959  0.4074
 1097SOL    HW114927   4.580   0.966   4.117  1.9189 -2.3166  0.8659
 1097SOL    HW214928   4.570   0.940   4.261  0.2681 -0.3601  0.8540
 1098SOL     OW14929   1.214   3.141   5.405 -0.2891 -0.2231  0.6064
 1098SOL    HW114930   1.252   3.070   5.354 -0.3109  0.4349 -0.3391
 1098SOL    HW214931   1.121   3.128   5.387 -0.5732 -0.0902  2.0022
 1099SOL     OW14932   4.223   1.493  16.298  0.9564 -0.3643 -0.0430
 1099SOL    HW114933   4.277   1.521  16.372 -0.9862  0.9414  0.8829
 1099SOL    HW214934   4.263   1.534  16.222 -1.7163  0.5543 -0.9560
 1100SOL     OW14935   1.903   4.623   7.018 -0.4449  0.3577  0.1830
 1100SOL    HW114936   1.810   4.607   7.005 -0.0704 -1.0410 -0.7606
 1100SOL    HW214937   1.931   4.534   6.998 -0.1561  0.1246  1.5730
 1101SOL     OW14938   0.126   4.306   1.712  0.7397  0.0779  0.0801
 1101SOL    HW114939   0.198   4.352   1.754 -1.0387  1.4755  1.5833
 1101SOL    HW214940   0.083   4.274   1.791 -0.6980 -3.0793 -1.9762
 1102SOL     OW14941   1.445   0.453   9.764 -0.0635 -0.4280 -0.0856
 1102SOL    HW114942   1.531   0.487   9.739 -1.0121  1.5722 -0.5836
 1102SOL    HW214943   1.395   0.534   9.777  0.1593 -0.6378  2.1611
 1103SOL     OW14944   2.880   1.728  13.456  0.2888  0.4083 -0.0377
 1103SOL    HW114945   2.853   1.700  13.542  1.8971 -0.2155  0.2697
 1103SOL    HW214946   2.796   1.716  13.413 -0.1397  1.9853  0.3556
 1104SOL     OW14947   2.751   2.880   1.741 -0.1460 -0.1155 -0.3644
 1104SOL    HW114948   2.805   2.892   1.662 -0.2334 -0.9535 -0.5476
 1104SOL    HW214949   2.675   2.838   1.700 -0.1333 -0.7360  0.2438
 1105SOL     OW14950   2.672   2.543   9.240  0.0864 -0.5621 -0.6717
 1105SOL    HW114951   2.763   2.515   9.243  0.2374  0.0030 -0.0438
 1105SOL    HW214952   2.647   2.564   9.330  0.8125 -0.4851 -0.4874
 1106SOL     OW14953   0.562   4.322   7.990 -0.7117 -0.6661  0.4183
 1106SOL    HW114954   0.518   4.238   7.974 -1.2154 -0.0795 -1.2913
 1106SOL    HW214955   0.496   4.387   7.965  0.7552  1.0280  0.9424
 1107SOL     OW14956   0.457   4.102   3.601 -0.2154 -0.1981 -0.6042
 1107SOL    HW114957   0.376   4.120   3.648 -0.1492 -0.6616 -0.3222
 1107SOL    HW214958   0.427   4.019   3.565  0.6191 -0.9621  0.4760
 1108SOL     OW14959   4.224   4.701  15.080  0.3318  0.0204 -0.1506
 1108SOL    HW114960   4.248   4.614  15.112 -0.5666 -0.2240 -0.1151
 1108SOL    HW214961   4.311   4.730  15.054  0.5529  0.5620  1.1999
 1109SOL     OW14962   4.651   3.951   7.983 -0.3110 -0.0165 -0.2193
 1109SOL    HW114963   4.727   3.895   7.966 -0.9280 -0.7795 -0.4325
 1109SOL    HW214964   4.694   4.037   7.989  1.3488 -0.8875  0.2734
 1110SOL     OW14965   1.280   0.098   6.130 -0.0373 -0.0155 -0.0065
 1110SOL    HW114966   1.198   0.116   6.177  0.7559  1.3982  0.8458
 1110SOL    HW214967   1.334   0.173   6.155  1.6670 -0.7412 -1.5566
 1111SOL     OW14968   4.334   2.258   8.883  0.4336 -0.2931 -0.1408
 1111SOL    HW114969   4.326   2.238   8.977  4.4900 -2.6963 -0.2944
 1111SOL    HW214970   4.307   2.350   8.885  1.1195 -0.0637 -1.8791
 1112SOL     OW14971   1.818   1.906   9.212 -0.1560 -0.5904 -0.3715
 1112SOL    HW114972   1.724   1.924   9.210  0.4195  2.7748  1.0452
 1112SOL    HW214973   1.831   1.915   9.307  2.0733  1.9656 -0.9001
 1113SOL     OW14974   1.313   1.724   5.696  0.4519 -0.1622  0.4304
 1113SOL    HW114975   1.367   1.741   5.773  0.5534 -0.9502  0.5362
 1113SOL    HW214976   1.305   1.628   5.698 -0.5059 -0.0669  1.2176
 1114SOL     OW14977   3.543   3.047   0.106  0.6914  0.1822 -0.5379
 1114SOL    HW114978   3.626   3.065   0.062  0.2511  0.8356 -1.0861
 1114SOL    HW214979   3.568   2.973   0.162 -1.5722 -0.9207 -1.0023
 1115SOL     OW14980   2.799   3.174   4.939 -0.3685  0.1605 -0.1457
 1115SOL    HW114981   2.748   3.174   4.858 -2.8187  1.9271  1.3832
 1115SOL    HW214982   2.735   3.158   5.008  0.8745 -1.9594  0.5050
 1116SOL     OW14983   4.292   2.612   5.079  0.0818  0.3274  0.2998
 1116SOL    HW114984   4.316   2.682   5.019  0.4151 -0.8182 -0.9017
 1116SOL    HW214985   4.199   2.594   5.063  0.6911 -0.2520 -2.6028
 1117SOL     OW14986   0.039   1.800   1.270 -0.2560  0.1880  0.4892
 1117SOL    HW114987   0.001   1.886   1.289 -1.9854 -0.4915  0.0763
 1117SOL    HW214988   0.130   1.809   1.297 -0.3848 -1.1311  1.3070
 1118SOL     OW14989   2.155   2.353  12.882  0.6424  0.4323 -0.1025
 1118SOL    HW114990   2.232   2.306  12.847  0.7733 -0.4379  1.3416
 1118SOL    HW214991   2.197   2.389  12.960  1.3964  0.8526 -0.7033
 1119SOL     OW14992   1.505   3.743  10.479  0.3686 -0.0484 -0.1454
 1119SOL    HW114993   1.575   3.734  10.544 -0.1114 -0.2723  0.3367
 1119SOL    HW214994   1.543   3.696  10.405  1.4725 -1.6527  1.4334
 1120SOL     OW14995   1.359   2.949   7.839 -0.0452 -0.4540  0.0375
 1120SOL    HW114996   1.426   2.936   7.771  0.3950  1.7784  0.0407
 1120SOL    HW214997   1.355   2.859   7.872  0.1565 -0.4951 -0.0464
 1121SOL     OW14998   3.226   0.836   6.817 -0.0488 -0.2607  0.1166
 1121SOL    HW114999   3.201   0.858   6.727  0.3226 -0.0358  0.0710
 1121SOL    HW215000   3.198   0.745   6.814  0.6601 -0.5696  2.8624
 1122SOL     OW15001   2.986   0.147   3.248 -0.4389  0.0396  0.6052
 1122SOL    HW115002   2.901   0.184   3.223  0.2665  1.0491 -0.3358
 1122SOL    HW215003   3.004   0.219   3.308 -0.8008  1.1106 -0.5659
 1123SOL     OW15004   0.311   2.389   1.628 -0.2552  0.0828  0.7628
 1123SOL    HW115005   0.233   2.347   1.591 -0.6579 -0.7290  2.5283
 1123SOL    HW215006   0.334   2.333   1.702 -0.7115  0.6092  1.2986
 1124SOL     OW15007   2.438   0.676   7.974  0.1715  0.3242  0.3847
 1124SOL    HW115008   2.500   0.725   8.027  1.4074 -1.2966  0.4193
 1124SOL    HW215009   2.470   0.697   7.886 -0.3211 -5.7650 -1.2936
 1125SOL     OW15010   3.886   0.081   8.880 -0.2845 -0.0182  0.2907
 1125SOL    HW115011   3.834   0.045   8.952  0.7537 -1.0328  0.5463
 1125SOL    HW215012   3.969   0.034   8.892  0.4912  1.6863  1.4777
 1126SOL     OW15013   4.732   1.700   2.683  0.1469  0.3691  0.3696
 1126SOL    HW115014   4.685   1.701   2.599 -0.1756  0.3249  0.5524
 1126SOL    HW215015   0.037   1.782   2.657 -0.2696  0.6329  0.5111
 1127SOL     OW15016   4.058   0.751   6.113 -0.1245  0.6426 -0.4094
 1127SOL    HW115017   4.141   0.799   6.107  0.4298 -0.1689  0.6963
 1127SOL    HW215018   4.030   0.745   6.204 -0.0228 -1.6801 -0.5314
 1128SOL     OW15019   1.435   1.165   7.900  0.2621 -0.0201  0.5916
 1128SOL    HW115020   1.484   1.173   7.982  0.2438  0.6066  0.5453
 1128SOL    HW215021   1.500   1.174   7.830  1.7504  1.5861  2.1724
 1129SOL     OW15022   4.156   0.087  16.850 -0.5728 -0.9901  0.1114
 1129SOL    HW115023   4.240   0.132  16.842 -1.6842  1.1984  0.8860
 1129SOL    HW215024   4.099   0.161  16.869 -1.9146 -2.0982  0.3643
 1130SOL     OW15025   3.646   2.497   3.554  0.3908  0.5321 -1.0905
 1130SOL    HW115026   3.723   2.478   3.501  0.2750 -1.8904 -0.3820
 1130SOL    HW215027   3.655   2.592   3.561  0.9462  0.3850  0.0818
 1131SOL     OW15028   2.529   1.994  16.734 -0.0650 -0.6515  0.0828
 1131SOL    HW115029   2.506   2.074  16.687  1.2022  0.6248  1.6413
 1131SOL    HW215030   2.585   1.950  16.670  3.6544  3.8839  0.2388
 1132SOL     OW15031   0.864   1.150   9.286 -0.7235  0.1836  0.2803
 1132SOL    HW115032   0.793   1.182   9.341 -1.9411 -1.3060 -0.4059
 1132SOL    HW215033   0.812   1.107   9.218 -0.7930 -1.3621  1.2935
 1133SOL     OW15034   0.455   0.591   4.692  0.9659  0.1964 -0.1625
 1133SOL    HW115035   0.542   0.624   4.667  0.6462  1.1734  0.0333
 1133SOL    HW215036   0.481   0.512   4.740 -0.9232  1.7777  3.4515
 1134SOL     OW15037   3.291   3.088   0.047 -0.3906 -1.0963 -0.1817
 1134SOL    HW115038   3.303   3.180   0.021 -0.0219 -1.4518 -1.2469
 1134SOL    HW215039   3.383   3.062   0.054  0.3659  1.2730 -1.3760
 1135SOL     OW15040   0.071   3.737   9.390 -0.1463 -0.2667 -0.1012
 1135SOL    HW115041   0.110   3.791   9.459 -2.2623  2.4175 -0.9968
 1135SOL    HW215042   0.134   3.666   9.400 -1.3738 -1.4382 -0.6100
 1136SOL     OW15043   0.513   0.120  11.469  0.1209 -0.8104  0.3345
 1136SOL    HW115044   0.579   0.082  11.411 -0.0361  0.1586 -0.4873
 1136SOL    HW215045   0.486   0.190  11.409 -0.9969 -0.0643  1.7253
 1137SOL     OW15046   0.262   0.867   7.095 -0.4176 -0.3545  0.4377
 1137SOL    HW115047   0.340   0.832   7.139 -0.5606 -0.3345  0.7050
 1137SOL    HW215048   0.222   0.905   7.173  0.3392  1.2778  0.0391
 1138SOL     OW15049   3.967   2.133   6.344 -0.4340  0.5135 -0.1060
 1138SOL    HW115050   3.956   2.219   6.384  0.2198  0.9247 -0.8238
 1138SOL    HW215051   4.040   2.100   6.397 -0.5926  0.2446 -0.0512
 1139SOL     OW15052   2.205   2.006  15.550  0.0735 -0.2193  0.3326
 1139SOL    HW115053   2.275   2.014  15.485 -0.6456 -1.3506 -0.5737
 1139SOL    HW215054   2.241   1.931  15.598 -0.5903  0.5491  2.0132
 1140SOL     OW15055   3.259   3.691   4.108  0.0293  0.2701  0.6358
 1140SOL    HW115056   3.180   3.727   4.149 -0.6169 -0.6709  0.2210
 1140SOL    HW215057   3.230   3.714   4.020  0.1695 -0.4733  0.3967
 1141SOL     OW15058   0.867   3.121   2.433  0.8413  0.5225 -0.1984
 1141SOL    HW115059   0.868   3.064   2.510  1.5802  2.0757  0.9491
 1141SOL    HW215060   0.895   3.206   2.465 -0.1880  0.2303  1.4539
 1142SOL     OW15061   3.842   2.477  15.885 -0.0090 -0.2053  0.3678
 1142SOL    HW115062   3.846   2.535  15.961 -0.8786 -0.3316  0.5070
 1142SOL    HW215063   3.920   2.512  15.841 -0.6661  2.0069  0.9488
 1143SOL     OW15064   1.240   0.703   1.712  0.4728 -0.1857 -0.0565
 1143SOL    HW115065   1.199   0.642   1.651  1.4911  0.7017 -1.6206
 1143SOL    HW215066   1.193   0.687   1.794 -0.1914  0.4069 -0.3257
 1144SOL     OW15067   4.074   0.402  10.560  0.6167  0.5999 -0.2100
 1144SOL    HW115068   4.003   0.465  10.566  0.5457  0.4123  0.9371
 1144SOL    HW215069   4.096   0.386  10.651  1.6839 -0.8408 -0.7233
 1145SOL     OW15070   0.126   1.973  14.091 -0.1445 -0.1417 -0.0211
 1145SOL    HW115071   0.042   1.988  14.134  0.6781  0.3894  1.4186
 1145SOL    HW215072   0.171   1.916  14.154  1.7363  0.8426 -0.4738
 1146SOL     OW15073   4.036   0.892   9.302  0.1575  0.0683  0.2536
 1146SOL    HW115074   4.117   0.924   9.341  0.3893  0.0335 -0.2009
 1146SOL    HW215075   4.049   0.800   9.323  1.9516  0.7285  2.0395
 1147SOL     OW15076   2.466   2.906   6.916  0.0191  0.5491  0.4331
 1147SOL    HW115077   2.560   2.913   6.901 -0.2681  0.8795 -1.1878
 1147SOL    HW215078   2.448   2.828   6.863 -2.8403 -0.7141  3.2488
 1148SOL     OW15079   4.043   4.543   4.549 -0.1192  0.3227  0.0747
 1148SOL    HW115080   3.980   4.513   4.484 -0.5888  0.6137  0.3954
 1148SOL    HW215081   4.122   4.555   4.495  1.7321 -1.7879  2.3649
 1149SOL     OW15082   1.895   3.561   2.276  0.1729  0.0550 -0.4627
 1149SOL    HW115083   1.896   3.571   2.180  1.1977 -0.5854 -0.5164
 1149SOL    HW215084   1.874   3.647   2.312  0.1809 -0.8993  1.7796
 1150SOL     OW15085   0.790   0.123   9.054  0.6486  0.3070 -0.3735
 1150SOL    HW115086   0.840   0.049   9.019 -0.9663 -0.5709 -0.8515
 1150SOL    HW215087   0.835   0.200   9.019  2.5321  0.2888  2.0277
 1151SOL     OW15088   4.455   1.175  15.121  0.0414 -0.2761 -0.1653
 1151SOL    HW115089   4.437   1.209  15.034  2.7816  0.0759 -0.5907
 1151SOL    HW215090   4.538   1.128  15.108  1.2434  1.2235  1.8614
 1152SOL     OW15091   1.715   4.222   1.755  0.4498  0.2828  0.4514
 1152SOL    HW115092   1.804   4.190   1.740 -0.3525 -2.2232  0.9588
 1152SOL    HW215093   1.702   4.224   1.850 -0.4440 -1.0637  0.3717
 1153SOL     OW15094   1.719   3.634   2.645  0.9219 -0.1047 -0.0357
 1153SOL    HW115095   1.717   3.710   2.703 -0.5861 -0.4953  0.4151
 1153SOL    HW215096   1.708   3.676   2.559 -1.9010 -0.6296  0.0584
 1154SOL     OW15097   3.596   3.615   5.385 -0.0923 -0.1465 -0.2178
 1154SOL    HW115098   3.598   3.560   5.307 -1.4975  0.6998 -0.8435
 1154SOL    HW215099   3.625   3.554   5.453 -1.1644 -0.9910 -0.5346
 1155SOL     OW15100   1.328   2.331   5.044 -0.3674  0.5511 -0.9340
 1155SOL    HW115101   1.364   2.243   5.035  0.5959  0.5867  2.4335
 1155SOL    HW215102   1.274   2.333   5.123  2.4909 -0.7602  1.0493
 1156SOL     OW15103   0.569   0.655  14.812 -0.1865  0.0772 -0.2969
 1156SOL    HW115104   0.496   0.611  14.855 -0.1073  1.0847  0.8682
 1156SOL    HW215105   0.636   0.663  14.879  2.7043 -0.4727 -3.1055
 1157SOL     OW15106   1.656   2.373  16.751  0.2836 -0.4377  0.0807
 1157SOL    HW115107   1.587   2.437  16.765 -0.5031 -1.2382 -0.1590
 1157SOL    HW215108   1.696   2.419  16.677 -0.6852 -0.6119 -0.5480
 1158SOL     OW15109   0.517   2.288   0.023  0.4732 -0.0626  0.3628
 1158SOL    HW115110   0.459   2.361   0.046  1.0588  0.6132 -0.3323
 1158SOL    HW215111   0.450   2.221   0.039  1.0436 -0.6661  0.2127
 1159SOL     OW15112   2.390   3.559   4.639 -0.7560  0.0790  0.2101
 1159SOL    HW115113   2.335   3.481   4.629  1.7693 -1.9454  2.1770
 1159SOL    HW215114   2.352   3.590   4.722 -2.8126  1.6394 -1.2953
 1160SOL     OW15115   4.565   1.824   8.029 -0.0366 -0.3803  0.6201
 1160SOL    HW115116   4.631   1.846   8.094  0.4299  0.7485 -0.2346
 1160SOL    HW215117   4.484   1.871   8.051  0.0482 -0.2436  0.6335
 1161SOL     OW15118   0.403   2.119   3.564 -0.1471  0.4600  0.6349
 1161SOL    HW115119   0.455   2.081   3.494  0.1485  0.8470  0.6465
 1161SOL    HW215120   0.320   2.131   3.517  1.6074 -0.4364 -2.6359
 1162SOL     OW15121   3.036   0.458   5.561  0.7283  0.3642 -0.9618
 1162SOL    HW115122   2.977   0.503   5.500 -1.3432 -0.7485  0.2016
 1162SOL    HW215123   3.019   0.510   5.639  0.2479  0.5608 -1.1924
 1163SOL     OW15124   0.142   3.784  15.244 -0.2589 -0.5080  0.2108
 1163SOL    HW115125   0.104   3.784  15.156 -0.8393 -1.9931  0.4535
 1163SOL    HW215126   0.108   3.865  15.281  3.6686  0.2830  2.0726
 1164SOL     OW15127   2.645   3.747  12.115  0.5072  0.3969  0.0713
 1164SOL    HW115128   2.738   3.770  12.114  0.2650  1.3929  0.2953
 1164SOL    HW215129   2.633   3.717  12.026 -0.3695  1.1057 -0.0554
 1165SOL     OW15130   0.046   4.119   9.496  0.4771 -0.2545  0.6200
 1165SOL    HW115131   4.730   4.118   9.418  1.1197 -1.1957  0.1921
 1165SOL    HW215132   0.135   4.109   9.463  0.3300  0.6465 -0.0552
 1166SOL     OW15133   1.494   0.466   4.241  0.1566 -0.2291  0.9861
 1166SOL    HW115134   1.470   0.556   4.263 -0.3225 -0.3874  1.1238
 1166SOL    HW215135   1.560   0.475   4.172  2.0850 -1.1556  2.7531
 1167SOL     OW15136   3.303   2.144   1.882  0.1758 -0.3934 -0.1033
 1167SOL    HW115137   3.252   2.090   1.943  1.6073 -2.5404 -0.7787
 1167SOL    HW215138   3.380   2.087   1.882  0.7034  0.3230 -0.3271
 1168SOL     OW15139   4.502   3.030   0.715  0.2414 -0.5787  0.0837
 1168SOL    HW115140   4.406   3.025   0.715  0.0472  3.1549  1.6210
 1168SOL    HW215141   4.513   3.031   0.811 -2.6457  0.3083  0.4107
 1169SOL     OW15142   3.931   3.401   3.269 -0.2953  0.9827  0.4846
 1169SOL    HW115143   3.857   3.346   3.244  0.5645  0.7161 -1.4832
 1169SOL    HW215144   3.990   3.386   3.195  2.1094  0.6046  2.4918
 1170SOL     OW15145   0.526   2.459   6.027  0.1107  0.2860  0.0747
 1170SOL    HW115146   0.454   2.395   6.026  0.8481 -0.5483 -0.1567
 1170SOL    HW215147   0.599   2.401   6.004 -0.7780  0.2806 -2.7411
 1171SOL     OW15148   1.474   1.683   5.402 -0.9253  0.5373  0.4477
 1171SOL    HW115149   1.530   1.741   5.453 -0.9406  2.3962 -1.6664
 1171SOL    HW215150   1.422   1.751   5.359  1.7475  1.8913 -0.6141
 1172SOL     OW15151   2.979   4.610   5.741  0.9702 -0.2479  0.2163
 1172SOL    HW115152   2.937   4.678   5.793  0.1008 -0.2886 -0.4485
 1172SOL    HW215153   3.069   4.608   5.776  1.2930  0.6299 -0.5660
 1173SOL     OW15154   4.325   2.821   8.252 -0.0871 -0.0038 -0.2497
 1173SOL    HW115155   4.239   2.862   8.241  0.0424 -0.1381 -1.7228
 1173SOL    HW215156   4.357   2.874   8.325  2.1406  0.7278 -1.7742
 1174SOL     OW15157   4.009   3.828   4.422 -0.4183 -0.3750  0.1495
 1174SOL    HW115158   3.973   3.756   4.371  1.3455  1.1123 -3.2014
 1174SOL    HW215159   4.063   3.789   4.491 -1.3998 -2.1410 -0.0990
 1175SOL     OW15160   3.898   2.997   6.900  0.0160 -0.4250  0.1506
 1175SOL    HW115161   3.961   2.998   6.828  0.0577 -1.3944  0.1670
 1175SOL    HW215162   3.930   3.069   6.955  1.2153 -1.2094  0.4912
 1176SOL     OW15163   0.724   0.556   7.095 -0.5430  0.2054  0.7735
 1176SOL    HW115164   0.662   0.521   7.032 -0.1418 -1.3043  1.2332
 1176SOL    HW215165   0.706   0.514   7.179  0.4226 -3.1228 -0.7061
 1177SOL     OW15166   1.354   4.140   1.135 -0.0267 -0.2400  0.0650
 1177SOL    HW115167   1.400   4.134   1.052 -0.2715 -1.2930  0.0026
 1177SOL    HW215168   1.280   4.192   1.104  0.6549  0.3190 -0.6378
 1178SOL     OW15169   1.891   4.724   8.320  0.2343  0.1665  0.0853
 1178SOL    HW115170   1.872   4.636   8.287 -0.4230 -0.6923  2.7775
 1178SOL    HW215171   1.912   4.703   8.411 -1.5530  1.1084  0.7081
 1179SOL     OW15172   3.925   0.289   4.407  0.2634 -0.4760 -0.2582
 1179SOL    HW115173   3.926   0.318   4.498  0.1665  2.2044 -1.1198
 1179SOL    HW215174   3.951   0.196   4.407  2.8542  0.2528 -1.8561
 1180SOL     OW15175   2.174   4.700   5.562 -0.3206  0.0890  0.6510
 1180SOL    HW115176   2.186   4.694   5.657 -2.3130  3.1558  1.1275
 1180SOL    HW215177   2.175   4.607   5.541 -0.1643 -0.0578  1.2883
 1181SOL     OW15178   3.498   4.511   4.982  0.5789 -0.2014  0.1833
 1181SOL    HW115179   3.500   4.559   5.065  0.8122 -1.4685  0.9090
 1181SOL    HW215180   3.456   4.564   4.914  2.7316  3.3497  1.6314
 1182SOL     OW15181   1.241   0.093   5.752  0.1262 -0.3025 -0.0316
 1182SOL    HW115182   1.217   0.183   5.770 -2.1937 -1.0613  0.6059
 1182SOL    HW215183   1.181   0.048   5.812 -1.3539  0.5639 -0.8641
 1183SOL     OW15184   4.652   2.070   1.381 -0.1672 -0.2439 -0.0321
 1183SOL    HW115185   4.651   2.018   1.461 -0.4493 -0.9319 -0.4824
 1183SOL    HW215186   4.564   2.105   1.374 -0.6653 -1.2590  1.1812
 1184SOL     OW15187   2.051   0.538   9.511  0.5427  0.1945  0.5658
 1184SOL    HW115188   1.981   0.570   9.454  3.7805  2.1469 -2.3423
 1184SOL    HW215189   2.056   0.445   9.493 -1.6557 -0.0272  1.1182
 1185SOL     OW15190   3.230   0.115   2.910 -0.4396 -0.4913  0.2485
 1185SOL    HW115191   3.217   0.080   2.998 -0.6271  1.7281  1.0954
 1185SOL    HW215192   3.293   0.184   2.928  0.0271 -1.5858  2.8860
 1186SOL     OW15193   3.730   4.122  11.386  0.2221 -0.5130  0.1540
 1186SOL    HW115194   3.701   4.168  11.464  0.1228 -0.3736  0.0337
 1186SOL    HW215195   3.825   4.132  11.391  0.2126 -0.7505  0.8137
 1187SOL     OW15196   3.793   2.714   9.493  0.6178 -0.2271  0.3340
 1187SOL    HW115197   3.864   2.772   9.469  1.5762  0.2015  4.2849
 1187SOL    HW215198   3.742   2.720   9.412  2.1329 -0.0167 -0.6070
 1188SOL     OW15199   3.520   1.434  17.239 -0.1660  0.3754 -0.3467
 1188SOL    HW115200   3.446   1.442  17.179 -1.3195 -1.0889  0.8484
 1188SOL    HW215201   3.502   1.351  17.285  1.4020  0.0812 -0.2638
 1189SOL     OW15202   4.206   4.285   4.405 -0.1393 -0.1627 -0.0268
 1189SOL    HW115203   4.200   4.374   4.372 -1.9239 -0.8518 -1.5663
 1189SOL    HW215204   4.211   4.284   4.500 -0.6795  0.4457  0.0050
 1190SOL     OW15205   1.525   0.775   4.456 -0.3678 -0.5331  0.7225
 1190SOL    HW115206   1.493   0.704   4.512 -1.4112 -0.4121  0.2914
 1190SOL    HW215207   1.439   0.794   4.417  0.1222  2.5978  1.2255
 1191SOL     OW15208   1.245   1.104   6.773 -0.6238 -0.6261 -1.0520
 1191SOL    HW115209   1.188   1.148   6.837 -0.1270 -1.1608 -0.2480
 1191SOL    HW215210   1.255   1.180   6.717  1.2230 -1.0432 -1.2907
 1192SOL     OW15211   2.586   1.263   9.122 -0.0766  0.4525 -0.1892
 1192SOL    HW115212   2.537   1.241   9.043  1.9946  0.0351 -1.3674
 1192SOL    HW215213   2.520   1.238   9.186  0.7213 -2.8524 -0.6290
 1193SOL     OW15214   3.230   1.984  14.197  0.3976  0.0934  0.2421
 1193SOL    HW115215   3.237   2.049  14.128  4.1176  0.2198  0.7044
 1193SOL    HW215216   3.241   2.038  14.276 -1.2886 -1.0920  1.2836
 1194SOL     OW15217   4.668   1.370   3.993  0.0954 -0.0973 -0.1347
 1194SOL    HW115218   4.614   1.315   4.050  1.5910 -1.3660  0.0622
 1194SOL    HW215219   4.672   1.304   3.925  3.5996 -2.2056  2.0972
 1195SOL     OW15220   1.365   1.918   5.525 -0.5460 -0.0301  0.1953
 1195SOL    HW115221   1.339   1.858   5.595 -1.2099  0.2372  0.1744
 1195SOL    HW215222   1.454   1.941   5.555 -0.6456  1.2075 -0.4331
 1196SOL     OW15223   2.407   0.034  12.551  0.3840 -0.1519 -0.2999
 1196SOL    HW115224   2.479   4.724  12.592  1.0402  0.8835 -0.2251
 1196SOL    HW215225   2.363   4.712  12.492 -2.5185  1.4110  0.2851
 1197SOL     OW15226   0.076   3.567   1.654 -0.5506  0.0182  0.4817
 1197SOL    HW115227   0.122   3.651   1.658  2.8789 -1.7670 -1.6193
 1197SOL    HW215228   0.150   3.510   1.675 -0.3022 -0.0195 -0.4935
 1198SOL     OW15229   2.321   3.053   4.682 -0.0076 -0.1733  0.1114
 1198SOL    HW115230   2.381   3.099   4.741  1.5298 -1.5818 -0.3610
 1198SOL    HW215231   2.238   3.098   4.697  0.6816  0.9027  0.7648
 1199SOL     OW15232   3.896   3.321   8.221 -0.4277 -0.6505  0.0351
 1199SOL    HW115233   3.924   3.260   8.153  2.4520  0.3170  0.3424
 1199SOL    HW215234   3.812   3.286   8.249 -1.6945  2.1251 -0.2702
 1200SOL     OW15235   3.337   2.594   3.414 -0.0014 -0.1926 -0.2959
 1200SOL    HW115236   3.398   2.635   3.353  0.6810 -2.3926 -1.0716
 1200SOL    HW215237   3.294   2.673   3.447 -0.1456  0.3266 -1.7237
 1201SOL     OW15238   0.597   0.809   0.793 -0.4834  0.2885 -0.0793
 1201SOL    HW115239   0.613   0.714   0.793 -0.2405  0.3315  0.8209
 1201SOL    HW215240   0.682   0.844   0.820 -2.6125  3.0110  3.0278
 1202SOL     OW15241   2.031   0.442  15.826 -0.2136  0.1045 -0.3117
 1202SOL    HW115242   1.998   0.427  15.737  0.5501  0.3891 -0.6437
 1202SOL    HW215243   2.065   0.531  15.813  0.0025  0.1580  0.6781
 1203SOL     OW15244   2.733   4.598   6.863  0.6583  0.0359 -0.6967
 1203SOL    HW115245   2.723   4.580   6.769  1.0102 -0.8487 -0.5603
 1203SOL    HW215246   2.643   4.574   6.889 -0.1142  2.4297 -1.1554
 1204SOL     OW15247   4.049   4.578   5.395  0.2125  0.2420  0.0752
 1204SOL    HW115248   3.978   4.541   5.447 -1.2035  0.8495 -1.4561
 1204SOL    HW215249   3.994   4.624   5.332 -0.4352 -0.2463  0.2805
 1205SOL     OW15250   4.478   0.211   6.865 -0.2037  0.3250 -0.6290
 1205SOL    HW115251   4.555   0.166   6.832  0.3809 -0.3710  1.7082
 1205SOL    HW215252   4.407   0.183   6.806 -1.3706 -0.0085  0.9277
 1206SOL     OW15253   2.328   2.704   6.691  0.3830 -0.0633  0.0394
 1206SOL    HW115254   2.237   2.709   6.661  0.1732 -1.3520  0.4617
 1206SOL    HW215255   2.383   2.728   6.616  1.3303 -0.9220  0.4695
 1207SOL     OW15256   4.072   0.219  10.348 -0.4564 -0.3550 -0.8011
 1207SOL    HW115257   4.071   0.282  10.276 -1.9255  0.7626  0.2182
 1207SOL    HW215258   4.085   0.278  10.422  0.6842 -0.2322 -1.0993
 1208SOL     OW15259   4.571   0.325   8.137 -0.5684  0.2218 -0.0878
 1208SOL    HW115260   4.516   0.264   8.187  0.1061  1.4922  2.1713
 1208SOL    HW215261   4.627   0.350   8.210 -1.8087 -3.5949  2.1609
 1209SOL     OW15262   0.352   0.888   3.425 -0.3619  0.1469 -0.5936
 1209SOL    HW115263   0.422   0.891   3.361  0.2245  0.7580  0.0816
 1209SOL    HW215264   0.285   0.851   3.367 -0.2055  1.4108 -1.5699
 1210SOL     OW15265   1.230   3.564   6.807  0.1828 -0.0149 -0.0051
 1210SOL    HW115266   1.253   3.647   6.848 -0.1533  1.1309 -2.1227
 1210SOL    HW215267   1.199   3.590   6.720 -0.9046 -2.0942 -0.2316
 1211SOL     OW15268   1.104   1.269   9.402  0.1192 -0.1778 -0.3883
 1211SOL    HW115269   1.024   1.220   9.383  0.2074  0.3932 -2.2571
 1211SOL    HW215270   1.153   1.187   9.406 -1.2323 -0.9703 -0.0444
 1212SOL     OW15271   4.424   3.264   4.183  0.0116  0.3616  0.0135
 1212SOL    HW115272   4.467   3.248   4.099 -2.4648 -0.3194 -1.1257
 1212SOL    HW215273   4.492   3.243   4.248 -0.8463 -0.7328  0.5650
 1213SOL     OW15274   0.322   3.717   4.555 -0.1517 -0.1441 -0.2420
 1213SOL    HW115275   0.238   3.741   4.517 -0.3195 -2.9973 -1.6899
 1213SOL    HW215276   0.380   3.691   4.483  0.4133 -0.2985  0.2680
 1214SOL     OW15277   3.320   2.735   7.642  0.0891  0.2300 -0.7292
 1214SOL    HW115278   3.345   2.643   7.640  0.7507  0.3844  0.5273
 1214SOL    HW215279   3.262   2.744   7.566  0.0121  0.4005 -0.6512
 1215SOL     OW15280   1.486   0.275  16.984 -1.3266 -0.4147 -0.1651
 1215SOL    HW115281   1.503   0.367  17.003  1.7769 -1.2952  1.4094
 1215SOL    HW215282   1.532   0.247  17.063 -0.6613 -0.0262 -0.4135
 1216SOL     OW15283   3.693   3.077   7.322 -0.9721 -0.5242 -0.4753
 1216SOL    HW115284   3.774   3.110   7.283 -0.6168  0.4886  1.1097
 1216SOL    HW215285   3.639   3.139   7.273  0.2390  3.0560  2.7711
 1217SOL     OW15286   2.397   3.028  16.127 -0.7672 -0.1217 -0.0383
 1217SOL    HW115287   2.420   3.109  16.081  0.5011 -0.6423 -0.3143
 1217SOL    HW215288   2.315   3.005  16.082 -1.0472  0.9573 -0.0711
 1218SOL     OW15289   4.193   4.367  11.192  0.6957 -0.1831  0.0209
 1218SOL    HW115290   4.186   4.306  11.119  0.0237  0.5885 -0.5538
 1218SOL    HW215291   4.114   4.419  11.179  1.2890  0.6220 -0.4122
 1219SOL     OW15292   2.371   3.837   8.839  0.2166 -0.0933  0.2237
 1219SOL    HW115293   2.364   3.886   8.921  2.5508 -0.3455  0.5834
 1219SOL    HW215294   2.286   3.850   8.797  0.7876 -3.0239 -1.8235
 1220SOL     OW15295   3.597   4.728   3.535  0.5424  0.2819  0.2802
 1220SOL    HW115296   3.559   4.645   3.507 -0.2871  0.6870  0.2148
 1220SOL    HW215297   3.543   4.736   3.613  0.9356 -0.4090  0.6286
 1221SOL     OW15298   0.108   0.887   0.703  0.3579 -0.1886 -0.2103
 1221SOL    HW115299   0.162   0.962   0.675  1.3424  0.4381  3.3452
 1221SOL    HW215300   0.151   0.817   0.654  2.4061 -0.3927  1.8561
 1222SOL     OW15301   1.313   1.794   7.575 -0.4932  0.4540  0.0421
 1222SOL    HW115302   1.273   1.880   7.583  0.0263  0.4831  2.4029
 1222SOL    HW215303   1.326   1.790   7.481  2.0619  0.4794  0.3934
 1223SOL     OW15304   1.850   0.517   8.436  0.9240  0.1660  0.0974
 1223SOL    HW115305   1.778   0.515   8.373  0.3241  0.9061  0.7828
 1223SOL    HW215306   1.919   0.557   8.383  0.1514  1.0776 -0.2035
 1224SOL     OW15307   2.847   1.177   9.154  0.5588 -0.0064 -0.7687
 1224SOL    HW115308   2.818   1.107   9.213 -2.0182 -2.2311 -4.6209
 1224SOL    HW215309   2.765   1.222   9.135 -0.0894  0.2973  2.7312
 1225SOL     OW15310   3.086   1.264   2.274  0.5138  0.0978  0.0196
 1225SOL    HW115311   3.078   1.349   2.231 -1.3601 -1.3530 -2.4587
 1225SOL    HW215312   3.154   1.267   2.341 -0.6853  1.9777  1.1407
 1226SOL     OW15313   0.419   3.428   3.818 -0.1877 -0.2552  0.0992
 1226SOL    HW115314   0.424   3.342   3.860  0.3246 -0.4847 -0.4316
 1226SOL    HW215315   0.330   3.445   3.847  0.2370 -0.4516  1.5004
 1227SOL     OW15316   4.384   0.886  12.903 -0.0244  0.3817 -0.2802
 1227SOL    HW115317   4.413   0.960  12.957 -0.5634  1.8572 -2.0009
 1227SOL    HW215318   4.356   0.818  12.963 -0.3328  1.1218  0.4190
 1228SOL     OW15319   0.159   2.150  12.407  0.1359  0.5723 -0.3399
 1228SOL    HW115320   0.076   2.131  12.363  0.5265  1.3008 -1.3950
 1228SOL    HW215321   0.212   2.072  12.396 -2.4665 -1.6246  2.6799
 1229SOL     OW15322   0.341   0.147  14.832 -0.4980  0.0393  0.0384
 1229SOL    HW115323   0.247   0.162  14.819 -0.5315  0.2168  0.5070
 1229SOL    HW215324   0.371   0.151  14.741  3.0961  1.4623  1.3008
 1230SOL     OW15325   0.891   2.471  17.088 -0.3118  0.2899 -0.4770
 1230SOL    HW115326   0.837   2.483  17.010 -0.8144 -2.3499 -0.5573
 1230SOL    HW215327   0.900   2.560  17.119 -3.0027  0.5750 -0.5500
 1231SOL     OW15328   1.007   3.254   6.924 -0.2024  0.1495 -0.0725
 1231SOL    HW115329   1.090   3.209   6.907 -0.7784 -0.7124 -0.5848
 1231SOL    HW215330   1.045   3.333   6.964  1.0604 -0.0844 -0.8122
 1232SOL     OW15331   3.627   3.963   3.681  0.5338  0.1750  0.4639
 1232SOL    HW115332   3.657   3.979   3.592 -0.9526  1.8718  0.2526
 1232SOL    HW215333   3.676   4.031   3.729  1.8966 -0.8976  0.5962
 1233SOL     OW15334   1.118   0.997  12.964  0.5087  0.0927  0.2025
 1233SOL    HW115335   1.108   0.952  12.880  0.7248 -0.3443  0.4080
 1233SOL    HW215336   1.199   0.955  12.994  0.5422  0.8709  1.2000
 1234SOL     OW15337   3.124   4.019   4.325 -0.2840 -0.3033  0.1835
 1234SOL    HW115338   3.124   4.103   4.371  1.2291 -0.0150 -0.3245
 1234SOL    HW215339   3.032   3.997   4.313 -0.4958  0.1959  0.9093
 1235SOL     OW15340   3.941   3.882   3.768  0.3637 -0.3369 -0.4699
 1235SOL    HW115341   3.918   3.970   3.738  1.3005 -1.1696 -3.7219
 1235SOL    HW215342   3.935   3.834   3.685 -1.2691 -0.3893 -0.3178
 1236SOL     OW15343   0.267   0.316   2.813  0.1986 -0.0307 -0.4300
 1236SOL    HW115344   0.329   0.247   2.837 -0.5390 -1.1136 -1.6381
 1236SOL    HW215345   0.230   0.283   2.731 -1.3982  0.1536  0.2279
 1237SOL     OW15346   0.329   3.923   5.806  0.9670  0.2532 -0.2323
 1237SOL    HW115347   0.244   3.937   5.846  2.6952  1.0533  3.1703
 1237SOL    HW215348   0.299   3.929   5.715 -0.2679 -0.7861  0.1130
 1238SOL     OW15349   0.017   3.827   5.751 -0.1410 -0.6367  0.2238
 1238SOL    HW115350   4.676   3.876   5.731 -0.0809 -0.3467  0.6894
 1238SOL    HW215351   0.058   3.882   5.818  0.0402  0.9664 -1.2271
 1239SOL     OW15352   4.355   2.406   0.358 -0.1106 -0.6898 -0.1625
 1239SOL    HW115353   4.323   2.473   0.299 -0.3751  0.4023  1.2204
 1239SOL    HW215354   4.432   2.377   0.308  0.1277 -2.2056  1.0660
 1240SOL     OW15355   3.367   4.434   7.579 -0.1799  0.1220 -0.0133
 1240SOL    HW115356   3.411   4.510   7.541  1.5479 -0.9194 -0.1209
 1240SOL    HW215357   3.322   4.472   7.655 -2.7659 -2.1368 -0.4112
 1241SOL     OW15358   0.697   2.974   1.586 -0.1468  0.3110  0.4437
 1241SOL    HW115359   0.669   2.892   1.625  0.0292  0.7871  1.5801
 1241SOL    HW215360   0.744   2.962   1.504  0.6973  0.5897  0.8798
 1242SOL     OW15361   0.911   0.899   8.538 -0.1606 -0.0748 -0.0305
 1242SOL    HW115362   0.923   0.993   8.554 -1.1594  0.1464 -0.5968
 1242SOL    HW215363   0.842   0.881   8.602  0.3174 -3.3012 -0.4359
 1243SOL     OW15364   4.132   2.499   7.662 -0.4231  0.4347  0.2504
 1243SOL    HW115365   4.181   2.570   7.703  0.6590 -0.8595  1.1858
 1243SOL    HW215366   4.106   2.540   7.579  0.4594 -2.2931 -1.3664
 1244SOL     OW15367   2.247   2.131   0.021 -0.1941  0.1235  0.0679
 1244SOL    HW115368   2.316   2.171   0.073  0.6918 -1.9923  0.5355
 1244SOL    HW215369   2.178   2.129   0.088  0.2810 -0.0030  0.5527
 1245SOL     OW15370   0.494   2.245   5.334 -0.1855 -0.3260  0.0430
 1245SOL    HW115371   0.405   2.280   5.345  0.4384  1.1377  0.4746
 1245SOL    HW215372   0.530   2.271   5.419 -2.3250  0.1101  0.8264
 1246SOL     OW15373   2.369   0.305  17.134 -0.0780 -0.1592 -0.3898
 1246SOL    HW115374   2.454   0.329  17.173 -0.6807  1.6886 -0.2244
 1246SOL    HW215375   2.390   0.295  17.041  0.3065  0.3379 -0.3591
 1247SOL     OW15376   4.676   0.761   2.495 -0.5245 -0.0897 -0.5693
 1247SOL    HW115377   4.587   0.743   2.527 -0.1280  0.7021  0.9399
 1247SOL    HW215378   4.722   0.694   2.545  0.4541  0.6084 -0.5423
 1248SOL     OW15379   4.373   3.715   7.784  0.4233 -0.1754  0.2477
 1248SOL    HW115380   4.398   3.625   7.763 -0.3496 -0.8173  2.1171
 1248SOL    HW215381   4.319   3.707   7.862  0.4916  0.7108  0.3857
 1249SOL     OW15382   0.817   3.554   3.998  0.0063  0.4888  0.1678
 1249SOL    HW115383   0.911   3.568   4.009  0.1290  1.1517 -1.8994
 1249SOL    HW215384   0.809   3.468   4.041 -1.8264  0.1540 -0.8393
 1250SOL     OW15385   1.709   3.820   9.004  0.1779 -0.0600  0.5670
 1250SOL    HW115386   1.804   3.828   8.991  0.1699  0.8639  1.0353
 1250SOL    HW215387   1.697   3.914   9.019 -0.4464 -0.1464  0.5941
 1251SOL     OW15388   2.234   3.582  17.486  0.4203 -0.0332 -0.0652
 1251SOL    HW115389   2.227   3.677  17.479 -0.4708 -0.0546  0.3902
 1251SOL    HW215390   2.141   3.558  17.493  0.6864 -1.0226  0.1102
 1252SOL     OW15391   0.981   3.408   8.216  0.1658  0.3624 -0.0530
 1252SOL    HW115392   1.070   3.373   8.220  0.2776  0.6187 -0.2951
 1252SOL    HW215393   0.974   3.424   8.122  1.8376 -1.3217 -0.4597
 1253SOL     OW15394   2.265   2.974   5.476 -0.3850 -0.2384 -0.7117
 1253SOL    HW115395   2.288   2.910   5.409  1.2042  1.0993 -1.4465
 1253SOL    HW215396   2.169   2.976   5.474 -0.3590  2.1033 -0.0714
 1254SOL     OW15397   4.182   2.363   9.315 -0.3176 -0.3782 -0.0738
 1254SOL    HW115398   4.157   2.445   9.359  0.4321 -1.8342  3.0490
 1254SOL    HW215399   4.102   2.336   9.270 -2.5315  2.3791  2.1529
 1255SOL     OW15400   2.634   2.338   5.164 -0.0282 -0.0291  0.0032
 1255SOL    HW115401   2.676   2.316   5.248  1.8078  0.0681 -0.8920
 1255SOL    HW215402   2.666   2.428   5.159  0.7901 -0.3049  0.3292
 1256SOL     OW15403   3.786   0.427   6.103 -0.0628  0.4504  0.2842
 1256SOL    HW115404   3.761   0.517   6.127  2.1358  1.5797 -1.5931
 1256SOL    HW215405   3.795   0.433   6.008  2.3748  0.2260  0.5089
 1257SOL     OW15406   0.529   1.565   6.852 -0.5832 -0.1196 -0.0195
 1257SOL    HW115407   0.449   1.568   6.800 -2.2270 -2.1929  2.3657
 1257SOL    HW215408   0.511   1.610   6.934 -1.1049  0.5051 -0.4805
 1258SOL     OW15409   2.253   2.530   7.856 -0.7708  0.0120  0.0304
 1258SOL    HW115410   2.287   2.473   7.788  0.9410 -0.3475  1.1761
 1258SOL    HW215411   2.170   2.486   7.876 -1.2463  1.1810  0.6533
 1259SOL     OW15412   4.119   1.102   2.259  0.3344 -0.3524  0.4878
 1259SOL    HW115413   4.141   1.051   2.181  2.5956 -0.3325  1.1124
 1259SOL    HW215414   4.048   1.156   2.224 -1.1447 -0.5223  3.2394
 1260SOL     OW15415   2.211   2.079   6.336 -0.1966 -0.0675 -0.2375
 1260SOL    HW115416   2.178   1.995   6.367  1.2366 -0.0606  1.3158
 1260SOL    HW215417   2.304   2.062   6.345 -0.6261 -2.7820 -1.0593
 1261SOL     OW15418   2.848   3.025   4.665 -0.5123 -0.5746  0.1095
 1261SOL    HW115419   2.770   3.010   4.611  0.1334 -0.1102 -0.9443
 1261SOL    HW215420   2.857   2.945   4.717 -3.4796 -1.6026 -0.9434
 1262SOL     OW15421   1.407   0.727   9.552  0.2362 -0.6270  0.0259
 1262SOL    HW115422   1.425   0.687   9.467  0.7567  2.3015 -1.2274
 1262SOL    HW215423   1.495   0.738   9.590  0.3726 -0.9536 -0.1954
 1263SOL     OW15424   3.663   1.695   3.065  0.2266 -0.3327  0.2344
 1263SOL    HW115425   3.656   1.624   3.129 -1.7771 -2.8288 -2.8056
 1263SOL    HW215426   3.676   1.773   3.119 -1.2685 -0.0274  0.1600
 1264SOL     OW15427   0.384   1.436   7.838 -0.3131  0.0659  0.2606
 1264SOL    HW115428   0.363   1.407   7.926 -1.7397  0.6143  0.1037
 1264SOL    HW215429   0.444   1.504   7.868 -0.4898 -0.1954  1.1947
 1265SOL     OW15430   2.920   0.496   6.584  0.0557 -0.1200  0.6238
 1265SOL    HW115431   2.902   0.440   6.508  0.1703 -0.0238  0.5247
 1265SOL    HW215432   3.010   0.472   6.607  0.1621 -0.5365 -0.2009
 1266SOL     OW15433   0.029   1.645   1.036 -0.2437 -0.1599 -0.0730
 1266SOL    HW115434   0.062   1.733   1.018 -1.1093 -0.0247 -0.9703
 1266SOL    HW215435   0.049   1.644   1.130 -1.0894 -0.1791  0.1061
 1267SOL     OW15436   4.396   2.554   8.190 -0.2799  0.4981  0.1746
 1267SOL    HW115437   4.313   2.557   8.142  0.5134  0.2867 -1.1895
 1267SOL    HW215438   4.381   2.628   8.249  3.9274 -0.2210  2.1478
 1268SOL     OW15439   0.529   3.957   2.923  0.0628 -0.2718  0.0848
 1268SOL    HW115440   0.607   3.961   2.868 -0.1654 -2.5393 -0.4344
 1268SOL    HW215441   0.561   3.916   3.003 -0.0100 -0.0695  0.2173
 1269SOL     OW15442   1.460   0.935   2.879 -0.6116 -0.0061  0.0686
 1269SOL    HW115443   1.414   1.001   2.828 -1.1214 -2.0856 -2.1538
 1269SOL    HW215444   1.521   0.898   2.814  0.2290 -0.9043  1.3719
 1270SOL     OW15445   3.699   3.509  12.163 -0.4489  0.1582  0.6931
 1270SOL    HW115446   3.634   3.475  12.101  1.2437 -3.1216  0.6923
 1270SOL    HW215447   3.687   3.604  12.169  1.7470  0.3647  1.8999
 1271SOL     OW15448   3.949   1.346  15.283 -0.5362 -0.0010 -0.3236
 1271SOL    HW115449   3.958   1.269  15.340  2.4754  0.2343 -0.4972
 1271SOL    HW215450   3.904   1.409  15.339 -1.6184  0.7857 -2.1026
 1272SOL     OW15451   2.399   1.478   0.867  0.3509 -0.3418 -0.0729
 1272SOL    HW115452   2.480   1.427   0.877  0.1270 -1.0972 -1.9204
 1272SOL    HW215453   2.409   1.549   0.930 -1.8374 -0.0496 -0.0670
 1273SOL     OW15454   0.278   0.660   5.570 -0.2454 -0.1922 -0.3856
 1273SOL    HW115455   0.233   0.743   5.560 -0.3246 -0.3117 -0.9901
 1273SOL    HW215456   0.208   0.614   5.617  0.2521 -0.5089  0.0623
 1274SOL     OW15457   3.588   2.925   8.021  0.3919  0.1721  0.3547
 1274SOL    HW115458   3.537   2.933   7.941  0.0195  0.5803  0.6287
 1274SOL    HW215459   3.521   2.932   8.089 -0.6976 -0.5602 -0.6410
 1275SOL     OW15460   1.801   3.268   3.148  0.1866 -0.0718  0.2546
 1275SOL    HW115461   1.842   3.306   3.070 -1.4010  1.3214  0.0895
 1275SOL    HW215462   1.811   3.174   3.135  0.9397  0.3643 -2.2634
 1276SOL     OW15463   3.308   3.283   5.565 -0.0231 -0.1227 -0.2421
 1276SOL    HW115464   3.277   3.280   5.474  0.5538  1.8444 -0.4945
 1276SOL    HW215465   3.322   3.376   5.578 -1.2818  0.1643 -0.8835
 1277SOL     OW15466   4.577   2.137   3.179 -0.1239 -0.1698  0.3675
 1277SOL    HW115467   4.520   2.152   3.104  0.7283  1.1094 -0.0218
 1277SOL    HW215468   4.610   2.226   3.192 -0.8859 -0.1475  2.1352
 1278SOL     OW15469   1.000   3.888   7.964  0.1665  0.3326  0.5250
 1278SOL    HW115470   1.066   3.957   7.956  2.4618 -1.9472 -0.0960
 1278SOL    HW215471   1.055   3.815   7.938 -0.0607  0.1878  0.4548
 1279SOL     OW15472   4.201   3.671  10.703  0.0289 -0.4790 -0.0153
 1279SOL    HW115473   4.200   3.685  10.608 -2.1165 -0.3518  0.0293
 1279SOL    HW215474   4.117   3.626  10.710 -0.5488  0.6268  0.1003
 1280SOL     OW15475   2.922   3.447   9.190  0.0861  0.3375 -0.2848
 1280SOL    HW115476   2.890   3.392   9.262 -1.8418  2.8256  0.7448
 1280SOL    HW215477   2.967   3.379   9.140 -2.1340 -0.1126 -1.6509
 1281SOL     OW15478   4.467   0.364  10.692  0.2115 -0.8240  0.3716
 1281SOL    HW115479   4.373   0.366  10.707  0.1414  0.7422 -0.2927
 1281SOL    HW215480   4.466   0.275  10.656  2.5938 -0.2652 -1.0594
 1282SOL     OW15481   0.100   2.198   1.599  0.3785 -0.3615  0.3095
 1282SOL    HW115482   0.029   2.257   1.622  0.1498 -0.0955 -1.0573
 1282SOL    HW215483   0.056   2.160   1.523 -2.0074  1.8600  0.5705
 1283SOL     OW15484   2.132   0.225   8.990 -0.0244  1.3779 -0.1426
 1283SOL    HW115485   2.226   0.207   8.997 -0.2609  0.0706 -0.4267
 1283SOL    HW215486   2.100   0.182   9.069 -0.4178 -0.8625 -1.5156
 1284SOL     OW15487   3.536   3.731   5.682  0.4175  0.0569  0.0853
 1284SOL    HW115488   3.614   3.764   5.637  1.3154  1.0552  2.3727
 1284SOL    HW215489   3.482   3.809   5.698 -2.3319 -2.0548  1.0590
 1285SOL     OW15490   4.066   3.145   6.342  0.7441  0.4237  0.6988
 1285SOL    HW115491   4.104   3.194   6.414 -2.0129  3.0571  0.3849
 1285SOL    HW215492   4.123   3.163   6.268  2.1396  0.0949  1.7047
 1286SOL     OW15493   1.679   3.263  15.055  0.1149 -0.0051  0.2043
 1286SOL    HW115494   1.606   3.213  15.090 -0.1842  0.0144 -0.3996
 1286SOL    HW215495   1.714   3.311  15.131 -0.1979  2.3453 -1.1220
 1287SOL     OW15496   4.107   3.135  12.005  0.3560  0.3798  0.0447
 1287SOL    HW115497   4.160   3.180  11.939 -0.4396 -0.0621 -0.9036
 1287SOL    HW215498   4.027   3.185  12.022 -2.1609 -2.8689 -2.2725
 1288SOL     OW15499   4.127   1.477   6.536  0.1661  0.3223  0.3278
 1288SOL    HW115500   4.097   1.568   6.526 -1.3007 -0.0065  1.8691
 1288SOL    HW215501   4.072   1.424   6.478  0.4914  1.4057 -0.9876
 1289SOL     OW15502   4.704   2.124   4.562  0.2520  0.3634  0.2925
 1289SOL    HW115503   0.054   2.120   4.526  0.2265  0.9441  0.1661
 1289SOL    HW215504   4.657   2.097   4.483 -0.8007  1.8963  0.3854
 1290SOL     OW15505   2.358   2.689   1.261  0.0642  0.1014  0.5188
 1290SOL    HW115506   2.307   2.769   1.254  1.8583  1.1873 -0.3927
 1290SOL    HW215507   2.422   2.697   1.189  0.0742  3.2983  0.8899
 1291SOL     OW15508   0.268   0.613   1.852 -0.2892 -0.0056  0.5328
 1291SOL    HW115509   0.312   0.624   1.768  0.5750 -1.2248  0.8240
 1291SOL    HW215510   0.323   0.543   1.888 -1.2359 -0.9394  0.1677
 1292SOL     OW15511   1.737   2.608   1.467 -0.3933 -0.3164 -0.2887
 1292SOL    HW115512   1.701   2.567   1.388 -1.1718 -1.5840  0.7312
 1292SOL    HW215513   1.762   2.693   1.431 -0.8258  1.2596  3.1515
 1293SOL     OW15514   0.225   3.299   9.003 -0.0415 -0.0032 -0.0517
 1293SOL    HW115515   0.275   3.217   9.002 -0.4775 -0.2685 -0.1694
 1293SOL    HW215516   0.161   3.282   9.072 -0.7203 -1.8945 -1.1391
 1294SOL     OW15517   4.072   2.626   9.437  1.2962 -0.1367  0.3901
 1294SOL    HW115518   4.134   2.675   9.384  0.1464 -0.6609 -1.4575
 1294SOL    HW215519   4.014   2.600   9.365  2.5450  0.0902 -0.6854
 1295SOL     OW15520   0.260   2.035   9.575  0.3405  0.4523 -0.2433
 1295SOL    HW115521   0.271   2.126   9.604 -3.3679  0.3745  1.4122
 1295SOL    HW215522   0.212   1.987   9.642 -0.0359  1.5760  0.2978
 1296SOL     OW15523   0.621   0.286  15.381 -0.2632 -0.3487 -0.2220
 1296SOL    HW115524   0.644   0.197  15.407  1.5177  0.1064 -0.2749
 1296SOL    HW215525   0.694   0.337  15.417 -2.5835  2.7275  0.1501
 1297SOL     OW15526   4.592   3.505   3.802  0.1999 -0.0178  0.7419
 1297SOL    HW115527   4.553   3.581   3.758  0.2963 -1.7545 -2.3830
 1297SOL    HW215528   4.660   3.544   3.856  0.4357  2.3407 -1.2521
 1298SOL     OW15529   3.485   3.085   6.858 -0.3449 -0.8716  0.1237
 1298SOL    HW115530   3.542   3.085   6.782  0.0572 -0.1088  0.4238
 1298SOL    HW215531   3.454   2.995   6.855 -1.2197 -0.6691  2.5567
 1299SOL     OW15532   1.912   4.500   7.367  0.0429 -0.1528 -0.0422
 1299SOL    HW115533   1.838   4.440   7.370 -2.0883  2.5288  2.3651
 1299SOL    HW215534   1.873   4.587   7.359 -0.2567 -0.3355 -0.5822
 1300SOL     OW15535   2.527   2.358   5.421  0.0137  0.0696 -0.6707
 1300SOL    HW115536   2.559   2.427   5.364 -2.5910  1.2378 -0.7263
 1300SOL    HW215537   2.444   2.355   5.373 -0.5211 -0.2236  0.2708
 1301SOL     OW15538   4.023   0.263   6.823 -0.3443 -0.0583  0.0658
 1301SOL    HW115539   4.110   0.256   6.782 -0.8534 -1.4682 -0.7492
 1301SOL    HW215540   3.964   0.246   6.750  1.2898  0.4741 -1.3975
 1302SOL     OW15541   4.232   4.193   1.577  0.4874  0.0162  0.5669
 1302SOL    HW115542   4.191   4.163   1.496  0.7460  1.1240  0.0278
 1302SOL    HW215543   4.306   4.133   1.591 -0.0669 -0.3118  2.0755
 1303SOL     OW15544   2.772   0.774   7.309  0.3126  0.3258  0.3081
 1303SOL    HW115545   2.754   0.687   7.275  0.7618 -0.1134  1.1913
 1303SOL    HW215546   2.853   0.758   7.357  1.2826  1.2058 -1.0476
 1304SOL     OW15547   3.410   4.717   9.038 -0.0705  0.3572  0.0304
 1304SOL    HW115548   3.473   0.013   9.102 -1.0202  0.2730  1.0298
 1304SOL    HW215549   3.370   4.659   9.103 -2.6621  1.0990 -0.9029
 1305SOL     OW15550   4.583   3.848   3.899 -0.2565  0.0554  0.9532
 1305SOL    HW115551   4.595   3.891   3.984  0.7719  1.3501  0.1623
 1305SOL    HW215552   4.490   3.825   3.906 -0.7075  0.9472 -2.0861
 1306SOL     OW15553   1.593   4.427   1.909 -0.2453  0.0251  0.1054
 1306SOL    HW115554   1.621   4.399   1.822 -2.3747  0.8377 -0.8350
 1306SOL    HW215555   1.527   4.494   1.893  0.8716  1.1363  0.1728
 1307SOL     OW15556   0.363   2.500   7.186  0.7976 -0.6683 -0.2710
 1307SOL    HW115557   0.286   2.556   7.193  2.9911  2.3611 -0.4219
 1307SOL    HW215558   0.319   2.435   7.133 -1.1046  0.7776 -0.4569
 1308SOL     OW15559   2.817   0.519   3.434  0.4239  0.2374 -0.7622
 1308SOL    HW115560   2.744   0.572   3.401  0.5616 -0.3343 -2.0016
 1308SOL    HW215561   2.867   0.581   3.486  1.3099  1.3351 -2.9135
 1309SOL     OW15562   0.191   2.851  12.077 -0.4026 -0.0004  0.1033
 1309SOL    HW115563   0.201   2.783  12.144  1.1877 -0.1712 -0.3018
 1309SOL    HW215564   0.259   2.823  12.015 -0.7800 -1.4122  0.3148
 1310SOL     OW15565   4.348   0.248   1.940  0.3685  0.6761 -0.4588
 1310SOL    HW115566   4.391   0.196   1.872  0.1141  1.6979 -1.3876
 1310SOL    HW215567   4.388   0.333   1.926 -1.0061  1.1657 -1.3469
 1311SOL     OW15568   2.765   1.209   8.105 -0.1628 -0.4799  0.1969
 1311SOL    HW115569   2.703   1.183   8.036  1.7078 -0.8691 -1.3424
 1311SOL    HW215570   2.815   1.277   8.059  1.3734 -2.4631 -1.0414
 1312SOL     OW15571   4.128   2.170   5.911 -0.3081  0.3450 -0.2974
 1312SOL    HW115572   4.177   2.089   5.894  0.1768  0.3697  0.9552
 1312SOL    HW215573   4.042   2.134   5.889 -0.8382 -0.4380  3.0078
 1313SOL     OW15574   1.143   4.640   6.732 -0.0651  0.2879 -0.2846
 1313SOL    HW115575   1.070   4.581   6.714  0.0062  1.1078 -3.1980
 1313SOL    HW215576   1.108   4.672   6.816 -1.7795  0.5714 -1.1161
 1314SOL     OW15577   1.242   2.352   8.608 -0.2805  0.3431  0.5240
 1314SOL    HW115578   1.159   2.380   8.647 -0.3474  0.1362  0.5314
 1314SOL    HW215579   1.254   2.407   8.531  2.3080 -0.5064  0.3300
 1315SOL     OW15580   0.954   2.333   6.932 -0.2327  0.7682 -0.5015
 1315SOL    HW115581   1.007   2.410   6.952  1.2215  0.2740 -2.4465
 1315SOL    HW215582   0.971   2.321   6.839 -2.5626 -1.6196 -0.6070
 1316SOL     OW15583   4.332   1.968   9.700 -0.4125  0.0047  0.5160
 1316SOL    HW115584   4.311   2.057   9.729  0.2562  0.1914  0.4233
 1316SOL    HW215585   4.361   1.984   9.611 -0.5071  0.4558  0.5690
 1317SOL     OW15586   4.664   1.246  10.306 -0.0890  0.3653  0.0748
 1317SOL    HW115587   4.716   1.193  10.246 -1.0572 -0.6219  0.1044
 1317SOL    HW215588   4.578   1.207  10.292 -0.1753  0.0540  1.4314
 1318SOL     OW15589   2.947   3.762  11.511  0.1298  0.0243  0.4277
 1318SOL    HW115590   2.886   3.695  11.543 -2.3202  0.8167 -2.6407
 1318SOL    HW215591   2.922   3.768  11.419  2.0484 -0.6453 -0.1440
 1319SOL     OW15592   2.775   2.883   4.883  0.3464  0.4402  0.2437
 1319SOL    HW115593   2.694   2.839   4.909  0.9587 -1.3932 -0.9271
 1319SOL    HW215594   2.767   2.970   4.922 -0.7374  0.4004  0.0966
 1320SOL     OW15595   3.580   1.688  15.865  0.4956  0.9728  0.2323
 1320SOL    HW115596   3.509   1.626  15.885  0.4715  0.4599 -1.4311
 1320SOL    HW215597   3.583   1.747  15.940  1.7304  2.8980 -1.3401
 1321SOL     OW15598   0.258   2.316   2.996  0.4214  0.0766  0.5059
 1321SOL    HW115599   0.347   2.338   3.024  0.7717  0.0162 -0.5546
 1321SOL    HW215600   0.258   2.339   2.903 -0.8752 -2.8650 -0.2230
 1322SOL     OW15601   4.471   3.219   7.655 -0.1809  0.6460 -0.2982
 1322SOL    HW115602   4.564   3.223   7.634  0.0140  0.4840  0.5150
 1322SOL    HW215603   4.450   3.310   7.675 -1.4591  0.3642 -0.3806
 1323SOL     OW15604   1.778   3.428   8.040 -0.0952  1.0771 -0.2748
 1323SOL    HW115605   1.785   3.333   8.027  0.2044  0.9389  0.8134
 1323SOL    HW215606   1.864   3.446   8.079  0.4930 -1.2213 -0.5326
 1324SOL     OW15607   1.532   1.652  16.703 -0.0572  1.0761  0.3328
 1324SOL    HW115608   1.618   1.692  16.692 -0.7603  2.7689  0.9190
 1324SOL    HW215609   1.485   1.695  16.631 -0.5872 -1.8164 -1.0617
 1325SOL     OW15610   3.502   1.173   6.933  0.6132 -0.4180 -0.2394
 1325SOL    HW115611   3.522   1.212   6.847  1.0421 -0.8743 -0.3450
 1325SOL    HW215612   3.448   1.103   6.897 -2.4687  2.1607 -0.6203
 1326SOL     OW15613   1.086   2.766  11.590 -0.4374  0.5822  0.4863
 1326SOL    HW115614   1.074   2.764  11.685  2.4369 -2.1251  0.7686
 1326SOL    HW215615   1.151   2.836  11.594 -0.2075  0.3570  0.6855
 1327SOL     OW15616   1.231   1.255   7.477 -0.8027  0.2814 -0.1938
 1327SOL    HW115617   1.248   1.161   7.474  1.3146  0.6334  0.5153
 1327SOL    HW215618   1.268   1.266   7.565  0.8516 -4.1581 -0.3009
 1328SOL     OW15619   4.306   2.134  12.970 -0.2800  0.0272  0.3369
 1328SOL    HW115620   4.274   2.127  13.060  0.8784 -1.8724  0.6106
 1328SOL    HW215621   4.337   2.045  12.954  0.3266  0.5653 -1.4184
 1329SOL     OW15622   0.794   2.551  11.994 -0.0297 -0.0139  0.2744
 1329SOL    HW115623   0.743   2.618  11.950  0.0805 -1.0416 -1.4008
 1329SOL    HW215624   0.820   2.499  11.919  2.3780 -0.9852  1.7594
 1330SOL     OW15625   0.135   3.113  11.117 -0.1516 -0.3714  0.7639
 1330SOL    HW115626   0.165   3.058  11.044  1.4631  2.0603 -0.3980
 1330SOL    HW215627   0.085   3.043  11.160 -2.1313  0.9800  0.6321
 1331SOL     OW15628   1.553   4.580   3.752 -0.5488  0.0780 -0.1213
 1331SOL    HW115629   1.505   4.658   3.726  0.6020  0.5244 -0.9127
 1331SOL    HW215630   1.631   4.614   3.797  0.6617 -2.4666 -0.2724
 1332SOL     OW15631   2.363   0.329   1.888  0.0595 -0.4303 -0.2816
 1332SOL    HW115632   2.356   0.403   1.949  1.7749 -1.3816  1.0754
 1332SOL    HW215633   2.274   0.338   1.854 -0.0932 -0.2966  0.1502
 1333SOL     OW15634   4.567   1.985   8.546  0.1807 -0.0552  0.1787
 1333SOL    HW115635   4.569   2.071   8.589  1.8570 -0.0486  0.0780
 1333SOL    HW215636   4.503   1.941   8.602 -0.9288 -1.0250 -1.8777
 1334SOL     OW15637   3.792   2.831   4.943 -0.6632  0.0799  0.3686
 1334SOL    HW115638   3.836   2.845   5.027 -0.6304  0.1607  0.3383
 1334SOL    HW215639   3.763   2.921   4.928  0.9334  0.3796 -0.9172
 1335SOL     OW15640   0.759   4.094   6.664 -0.0241  0.4976  0.4767
 1335SOL    HW115641   0.852   4.117   6.664  0.6399 -2.2100 -1.1382
 1335SOL    HW215642   0.766   4.028   6.733  1.8273  0.1906  0.0031
 1336SOL     OW15643   3.242   0.395   7.577 -0.1465  0.2464 -0.2645
 1336SOL    HW115644   3.274   0.463   7.636  0.4049 -0.6226  0.4563
 1336SOL    HW215645   3.147   0.407   7.584  0.0278  1.8992 -0.7077
 1337SOL     OW15646   2.386   3.863   5.667  0.1348 -0.0730 -0.4988
 1337SOL    HW115647   2.444   3.929   5.704 -0.6337  0.0595  0.5003
 1337SOL    HW215648   2.454   3.814   5.622 -0.5166  0.2014 -1.7647
 1338SOL     OW15649   1.489   4.582   4.494  0.4258  0.3926  0.0395
 1338SOL    HW115650   1.544   4.621   4.561 -0.2987 -0.3527  1.0688
 1338SOL    HW215651   1.447   4.656   4.450 -0.7133 -0.4768 -0.3161
 1339SOL     OW15652   3.330   4.554   6.632 -0.5164  0.0417 -0.0578
 1339SOL    HW115653   3.368   4.487   6.575  0.9552 -0.2744  1.2943
 1339SOL    HW215654   3.250   4.577   6.586  0.6092  1.9900 -1.0216
 1340SOL     OW15655   2.340   4.658   5.174 -0.1081  0.5425  0.4835
 1340SOL    HW115656   2.259   4.680   5.127  0.2848 -0.7958 -0.8467
 1340SOL    HW215657   2.351   4.736   5.228  1.5208  1.6778 -1.4844
 1341SOL     OW15658   4.670   1.960   5.668 -0.5421 -0.2257  0.0618
 1341SOL    HW115659   4.649   2.023   5.600 -2.0537 -1.7471 -0.8833
 1341SOL    HW215660   0.005   1.913   5.629  0.9723  1.7846  0.5141
 1342SOL     OW15661   0.465   0.780   7.238  0.1737 -0.6642 -0.6066
 1342SOL    HW115662   0.451   0.722   7.313  0.9237  0.6147  0.5050
 1342SOL    HW215663   0.524   0.850   7.265 -0.0293  0.2229 -2.4874
 1343SOL     OW15664   2.362   3.005   4.393  0.3500  0.2681 -0.0455
 1343SOL    HW115665   2.361   3.029   4.485  1.0354 -0.3251  0.1075
 1343SOL    HW215666   2.280   2.957   4.386  0.0756  0.2224  3.5569
 1344SOL     OW15667   4.163   1.500   1.868 -0.0594  0.2516  0.0979
 1344SOL    HW115668   4.114   1.579   1.892 -0.1372  0.5154 -0.9180
 1344SOL    HW215669   4.113   1.485   1.788  0.5206 -1.4795  0.0779
 1345SOL     OW15670   2.455   3.658   0.403 -0.2409 -0.3707  0.2333
 1345SOL    HW115671   2.432   3.743   0.366  0.0925 -1.6828 -2.9578
 1345SOL    HW215672   2.550   3.658   0.416 -0.3507 -2.1743  1.0187
 1346SOL     OW15673   1.378   3.353   6.187 -0.5522  0.1137  0.8834
 1346SOL    HW115674   1.289   3.376   6.215 -0.8292  0.3089 -0.1813
 1346SOL    HW215675   1.416   3.440   6.173 -0.0278  0.0345  1.7554
 1347SOL     OW15676   0.884   0.916  16.841 -0.0066 -0.0695  0.1831
 1347SOL    HW115677   0.868   1.010  16.847 -2.7680 -0.6783  2.3742
 1347SOL    HW215678   0.829   0.891  16.767  0.6290 -0.4632 -0.1554
 1348SOL     OW15679   4.049   1.417   4.116  0.6677  0.8059  0.1661
 1348SOL    HW115680   4.074   1.475   4.188  0.1697  0.2711  0.7741
 1348SOL    HW215681   3.960   1.391   4.140  1.0220 -0.0027  0.5995
 1349SOL     OW15682   1.806   3.621   1.254 -0.3986 -0.1802  0.1413
 1349SOL    HW115683   1.855   3.542   1.277 -1.4261 -0.8807 -0.0625
 1349SOL    HW215684   1.874   3.677   1.216  1.2397 -0.3597  2.8419
 1350SOL     OW15685   3.130   3.307   3.948 -0.6452 -0.1726 -0.1575
 1350SOL    HW115686   3.092   3.257   3.876  1.1809  0.4866 -1.5839
 1350SOL    HW215687   3.200   3.340   3.892 -0.0110  1.3158  1.5509
 1351SOL     OW15688   2.265   3.240   7.527  0.1991  0.1531  0.0210
 1351SOL    HW115689   2.215   3.260   7.605  0.8316  0.3703  0.3692
 1351SOL    HW215690   2.232   3.310   7.470 -0.8950  0.4222  0.9936
 1352SOL     OW15691   1.286   3.835   3.302 -0.0592 -0.0792 -0.0944
 1352SOL    HW115692   1.337   3.756   3.289  2.1077  1.0049  1.8988
 1352SOL    HW215693   1.354   3.902   3.299 -0.4794  0.4080  1.1910
 1353SOL     OW15694   2.580   2.443   5.718  0.3585  0.0408 -0.5115
 1353SOL    HW115695   2.543   2.428   5.631 -0.7405 -1.6042  0.2253
 1353SOL    HW215696   2.656   2.500   5.709 -0.2485  0.6749 -1.6434
 1354SOL     OW15697   3.743   4.093  12.694  0.2264  0.7409  0.6338
 1354SOL    HW115698   3.825   4.143  12.691 -0.0439  1.1652  0.2117
 1354SOL    HW215699   3.712   4.081  12.604 -1.2221 -1.6059  1.4697
 1355SOL     OW15700   4.629   2.037   4.296 -0.3888 -0.4017 -0.1703
 1355SOL    HW115701   4.643   1.943   4.309  0.4104 -0.1983  0.4302
 1355SOL    HW215702   4.568   2.039   4.222 -0.2735  0.4286 -0.2425
 1356SOL     OW15703   3.243   3.761   5.890  0.3564  0.2398 -0.2521
 1356SOL    HW115704   3.251   3.833   5.829 -0.6044  0.1152 -0.5222
 1356SOL    HW215705   3.198   3.693   5.840 -0.9884  3.6731 -3.6369
 1357SOL     OW15706   2.971   1.872   5.990 -0.2641  0.0860 -0.5280
 1357SOL    HW115707   2.888   1.895   6.031 -0.1394 -0.7934  0.2216
 1357SOL    HW215708   3.018   1.862   6.072 -0.6491 -1.4193 -0.4880
 1358SOL     OW15709   2.502   3.415  17.103 -0.0364 -0.1986  0.2092
 1358SOL    HW115710   2.519   3.510  17.107 -0.1696 -0.0601 -2.6748
 1358SOL    HW215711   2.469   3.398  17.192 -0.7736 -1.1548 -0.2548
 1359SOL     OW15712   0.127   1.842   7.870 -0.4153  0.7813 -0.2033
 1359SOL    HW115713   0.076   1.923   7.868  0.1639  1.2186  3.1830
 1359SOL    HW215714   0.069   1.774   7.834  2.1302 -0.5838 -1.6943
 1360SOL     OW15715   3.418   4.129   9.363  0.2287 -0.1891 -0.0876
 1360SOL    HW115716   3.505   4.138   9.324  0.6586  0.2666  0.9865
 1360SOL    HW215717   3.356   4.118   9.290  0.5246  2.2374 -0.7147
 1361SOL     OW15718   0.249   0.756  13.442  0.2999 -0.0750 -0.3924
 1361SOL    HW115719   0.206   0.841  13.441 -0.2837 -0.3569  0.7389
 1361SOL    HW215720   0.284   0.757  13.353 -0.2253  4.4562 -0.5207
 1362SOL     OW15721   0.010   2.035   6.413  0.3031  0.0190 -0.7039
 1362SOL    HW115722   4.719   2.124   6.393  1.5772  0.4230 -0.7883
 1362SOL    HW215723   4.674   1.992   6.455  0.1822  0.9323  0.0069
 1363SOL     OW15724   0.308   1.691  16.327  0.1430  0.1597 -0.0578
 1363SOL    HW115725   0.317   1.658  16.238 -2.3997 -2.2240  0.5441
 1363SOL    HW215726   0.403   1.690  16.342  0.1154  0.7474  0.1427
 1364SOL     OW15727   1.292   1.334   0.191  0.1724 -0.4304 -0.2411
 1364SOL    HW115728   1.212   1.351   0.140  0.5067  0.9233 -0.3161
 1364SOL    HW215729   1.363   1.336   0.127 -2.5185 -4.4145 -3.3365
 1365SOL     OW15730   3.028   4.256   5.195  0.2956  0.3329  0.1689
 1365SOL    HW115731   2.999   4.329   5.141 -2.3745  0.2665  1.4995
 1365SOL    HW215732   3.031   4.188   5.128  2.5609  0.4384  0.1816
 1366SOL     OW15733   4.403   2.437  13.594 -0.0836 -0.4225 -0.2036
 1366SOL    HW115734   4.406   2.426  13.689  0.5631  0.9652 -0.0613
 1366SOL    HW215735   4.486   2.399  13.563  0.4761  0.9334 -0.3804
 1367SOL     OW15736   4.344   3.360   6.720  0.4534  0.2511  0.4605
 1367SOL    HW115737   4.363   3.449   6.749  0.7157  0.4156 -0.2341
 1367SOL    HW215738   4.427   3.344   6.677 -0.3855  1.9818 -1.7600
 1368SOL     OW15739   1.434   1.240   5.239  0.2179 -0.1822  0.1997
 1368SOL    HW115740   1.403   1.310   5.297 -1.3333 -0.6828 -0.0292
 1368SOL    HW215741   1.375   1.169   5.264 -0.5534  1.4794  3.2516
 1369SOL     OW15742   1.450   2.496   5.932 -0.2071  0.0531  0.1841
 1369SOL    HW115743   1.539   2.491   5.968 -0.4701 -0.8936  0.7206
 1369SOL    HW215744   1.467   2.495   5.838 -0.3550 -2.2372  0.1785
 1370SOL     OW15745   3.181   3.730   4.456  0.3773 -0.1309  0.4674
 1370SOL    HW115746   3.253   3.790   4.477 -0.8936  1.3418  0.6494
 1370SOL    HW215747   3.129   3.742   4.536  0.9067 -1.1772  0.9631
 1371SOL     OW15748   3.920   1.584   4.763  0.1364 -0.2385  0.2954
 1371SOL    HW115749   3.917   1.655   4.828  1.2547  1.4026 -1.4604
 1371SOL    HW215750   4.012   1.558   4.761  1.1788  3.1974  2.8617
 1372SOL     OW15751   2.263   3.591   8.895  0.1359 -0.5333 -1.0295
 1372SOL    HW115752   2.297   3.559   8.978 -1.2494  0.3073 -0.1432
 1372SOL    HW215753   2.321   3.664   8.873 -1.1179  0.1805 -2.0010
 1373SOL     OW15754   2.281   3.974  16.652 -0.8539  0.5555  0.3257
 1373SOL    HW115755   2.295   4.067  16.669  2.3971  0.3341 -1.1415
 1373SOL    HW215756   2.187   3.965  16.668 -1.0673  2.8434  0.3070
 1374SOL     OW15757   4.297   4.007   8.266 -0.1076 -0.0074 -0.4555
 1374SOL    HW115758   4.244   3.942   8.312 -2.3236  0.7776 -1.8464
 1374SOL    HW215759   4.236   4.082   8.261  0.8325  1.0451  3.9407
 1375SOL     OW15760   0.362   4.067   5.069  0.5689 -0.4922 -0.0341
 1375SOL    HW115761   0.443   4.067   5.120  1.4006 -2.0878 -1.3126
 1375SOL    HW215762   0.388   4.056   4.977  0.4783  0.0216 -0.1155
 1376SOL     OW15763   1.695   2.010   5.008  0.6841 -0.3869 -0.1992
 1376SOL    HW115764   1.676   1.967   5.091 -2.0405 -2.7845 -2.0553
 1376SOL    HW215765   1.774   1.959   4.989  0.8880 -0.1674  0.0572
 1377SOL     OW15766   0.954   0.670   4.458  0.1042  0.0395 -0.2462
 1377SOL    HW115767   0.986   0.705   4.542 -0.0101  0.1998 -0.2703
 1377SOL    HW215768   0.985   0.750   4.415 -0.5418  0.4150 -0.0119
 1378SOL     OW15769   3.073   3.861   1.996  0.5814  0.1443 -0.4665
 1378SOL    HW115770   3.079   3.943   2.045 -0.4559  0.3449 -0.6914
 1378SOL    HW215771   2.994   3.887   1.949  0.8727  0.7499 -0.6136
 1379SOL     OW15772   0.369   4.482   2.842  0.2269 -0.2331 -0.5530
 1379SOL    HW115773   0.401   4.441   2.923  1.9152 -0.7496 -1.4873
 1379SOL    HW215774   0.315   4.408   2.816  0.5047 -1.2323  1.6437
 1380SOL     OW15775   0.243   2.839   1.409 -0.1292 -0.2812  0.5078
 1380SOL    HW115776   0.278   2.785   1.480  0.2781 -0.1336  0.4172
 1380SOL    HW215777   0.286   2.925   1.416  0.0505 -0.2452 -1.0218
 1381SOL     OW15778   3.479   3.516   8.463  0.5904  0.3827  0.2293
 1381SOL    HW115779   3.453   3.433   8.502 -1.6981  0.1885 -1.7200
 1381SOL    HW215780   3.532   3.550   8.534 -0.2774  2.2574 -0.0304
 1382SOL     OW15781   0.359   3.840   3.606 -0.5052  0.2182  0.3384
 1382SOL    HW115782   0.269   3.810   3.595 -0.1852 -1.0418  1.1322
 1382SOL    HW215783   0.395   3.767   3.658  1.9716  1.5973  0.5809
 1383SOL     OW15784   4.094   2.956   7.773  0.1459 -0.3856  0.4187
 1383SOL    HW115785   4.185   2.928   7.787 -0.2876 -0.5141  2.8761
 1383SOL    HW215786   4.051   2.908   7.843  0.2943 -2.4122 -0.8644
 1384SOL     OW15787   2.456   1.009   6.593  0.0936  0.0778 -0.5898
 1384SOL    HW115788   2.535   0.955   6.589  2.4141  3.5904 -2.4347
 1384SOL    HW215789   2.417   0.984   6.509 -0.3830 -1.8919  0.2141
 1385SOL     OW15790   4.220   0.511  13.574 -0.3024  0.3835 -0.6263
 1385SOL    HW115791   4.163   0.435  13.585  0.3799 -0.3052 -1.8227
 1385SOL    HW215792   4.166   0.577  13.531 -1.6786 -0.4630 -0.1790
 1386SOL     OW15793   1.542   1.812   2.682 -0.0419  0.4743 -0.1571
 1386SOL    HW115794   1.561   1.758   2.759  0.8082  2.8609  1.2982
 1386SOL    HW215795   1.629   1.821   2.644  0.7886 -2.2018  1.1470
 1387SOL     OW15796   2.885   2.188   5.626  0.2836 -0.0429 -0.1497
 1387SOL    HW115797   2.879   2.282   5.645  0.0196  0.1305 -1.0709
 1387SOL    HW215798   2.955   2.170   5.688 -2.4554 -0.0377  2.9597
 1388SOL     OW15799   0.938   3.231   8.835  0.5214 -0.3071 -0.1050
 1388SOL    HW115800   0.891   3.184   8.904  0.2632  0.4700  0.2435
 1388SOL    HW215801   0.909   3.322   8.845  0.5829 -0.1161 -1.6053
 1389SOL     OW15802   2.246   1.507   6.617 -0.5686 -0.4219 -0.5318
 1389SOL    HW115803   2.257   1.421   6.658  0.5694  0.1844  0.4408
 1389SOL    HW215804   2.152   1.525   6.620 -0.4238  0.1182  0.7448
 1390SOL     OW15805   2.618   0.479   6.388 -0.1890  0.7542  0.1643
 1390SOL    HW115806   2.606   0.483   6.483  0.5065  1.4129  0.2292
 1390SOL    HW215807   2.537   0.436   6.363 -1.5675  2.5193  1.6100
 1391SOL     OW15808   1.649   1.040   1.637  0.4469  0.1920  0.1131
 1391SOL    HW115809   1.606   0.957   1.621 -0.1280  0.8867 -1.9925
 1391SOL    HW215810   1.590   1.089   1.579  1.5886  1.0314 -0.3495
 1392SOL     OW15811   3.762   1.616   5.852 -0.3926  0.1002 -0.0014
 1392SOL    HW115812   3.694   1.553   5.875  0.6666 -1.5823 -1.4321
 1392SOL    HW215813   3.834   1.582   5.905 -0.0647  1.1256  0.2129
 1393SOL     OW15814   0.114   0.362   9.038  0.1354 -0.8959 -0.4115
 1393SOL    HW115815   0.024   0.378   9.008 -0.0623  0.8838  1.1339
 1393SOL    HW215816   0.116   0.431   9.104 -0.5575 -1.2246 -0.0472
 1394SOL     OW15817   0.588   0.758   7.664 -0.1255 -0.1128 -0.3012
 1394SOL    HW115818   0.544   0.842   7.675 -0.5907 -0.4327  0.2986
 1394SOL    HW215819   0.554   0.723   7.583  0.0071 -0.2059 -0.3166
 1395SOL     OW15820   3.879   3.954   2.388 -0.1724  0.1298  0.4299
 1395SOL    HW115821   3.911   4.016   2.322  0.4485  0.9480  1.5057
 1395SOL    HW215822   3.785   3.963   2.371 -0.1848 -0.2031  0.3232
 1396SOL     OW15823   3.620   3.978  12.913  0.0532  0.1303 -0.6811
 1396SOL    HW115824   3.618   3.896  12.863  2.9803 -0.0925 -0.4207
 1396SOL    HW215825   3.659   4.026  12.840 -0.9011  0.9973 -0.6134
 1397SOL     OW15826   3.937   0.750   2.974  0.0786 -0.1662 -0.1545
 1397SOL    HW115827   3.995   0.817   3.010 -0.4447 -0.9736  2.1616
 1397SOL    HW215828   3.888   0.799   2.907 -1.2958 -1.0287  0.2285
 1398SOL     OW15829   0.887   2.912   6.926 -0.1116 -0.1491  0.1211
 1398SOL    HW115830   0.902   2.900   6.832  1.3493  0.1288  0.3253
 1398SOL    HW215831   0.813   2.853   6.940  0.5174 -1.5247 -2.3535
 1399SOL     OW15832   2.128   0.758   3.631 -0.2397  0.1904 -0.6859
 1399SOL    HW115833   2.221   0.780   3.633  0.4422 -2.6743 -1.3556
 1399SOL    HW215834   2.096   0.817   3.699 -2.2727 -1.4908 -0.1734
 1400SOL     OW15835   2.063   1.452   1.821  0.2331 -0.5129  0.5858
 1400SOL    HW115836   2.034   1.504   1.896  1.6736 -0.7072  1.2628
 1400SOL    HW215837   2.061   1.366   1.862 -1.4398  0.0736  1.7547
 1401SOL     OW15838   4.021   2.981   9.800  0.2171 -0.8156  0.2197
 1401SOL    HW115839   4.106   2.939   9.794  1.4726  1.7321  0.3611
 1401SOL    HW215840   3.997   2.964   9.891 -3.0279  1.7891 -0.1353
 1402SOL     OW15841   2.556   2.321   8.178 -0.1114  0.5969 -0.0227
 1402SOL    HW115842   2.501   2.399   8.171 -1.9056 -0.6849 -0.3341
 1402SOL    HW215843   2.487   2.266   8.216  0.5843 -2.4629 -3.1301
 1403SOL     OW15844   1.533   4.485   3.441 -0.6254 -0.4086 -0.6340
 1403SOL    HW115845   1.595   4.558   3.446 -0.8517 -0.1464 -1.7136
 1403SOL    HW215846   1.581   4.424   3.498 -0.8261  0.6838  0.7203
 1404SOL     OW15847   4.015   3.287   7.012 -0.0602  0.6710  0.1968
 1404SOL    HW115848   4.088   3.233   6.984  0.2745  0.4782  1.4515
 1404SOL    HW215849   4.029   3.287   7.107  2.3491  0.3447 -0.1706
 1405SOL     OW15850   4.248   3.064   8.987  0.1399 -0.0439  0.4109
 1405SOL    HW115851   4.193   3.117   9.044 -1.0140  0.0085 -0.7410
 1405SOL    HW215852   4.252   3.124   8.912 -0.7332 -0.7801 -0.2264
 1406SOL     OW15853   3.232   0.599   4.167  0.1813  0.1430  0.3378
 1406SOL    HW115854   3.206   0.642   4.085  0.0557  0.6688  0.6587
 1406SOL    HW215855   3.270   0.514   4.142 -0.8066 -1.0262  2.8660
 1407SOL     OW15856   2.600   2.343  11.523 -0.0098 -0.4680 -0.2156
 1407SOL    HW115857   2.674   2.298  11.481 -0.8931 -1.6077 -0.5487
 1407SOL    HW215858   2.584   2.283  11.595 -0.0553  2.5475  2.2719
 1408SOL     OW15859   3.188   0.041   8.376 -0.0449 -0.5502  0.2743
 1408SOL    HW115860   3.208   0.095   8.299  2.9059 -1.4807  0.3988
 1408SOL    HW215861   3.242   0.082   8.444 -1.5871  1.2504  0.4140
 1409SOL     OW15862   2.040   3.672  10.436 -0.1363 -0.2067 -0.3689
 1409SOL    HW115863   1.963   3.702  10.483 -0.4352 -1.7603  0.1488
 1409SOL    HW215864   2.000   3.672  10.349 -0.1209 -0.9845 -0.3783
 1410SOL     OW15865   4.327   3.176   4.852  0.3514  0.4616  0.5505
 1410SOL    HW115866   4.387   3.102   4.840 -1.9545 -0.8152 -2.9634
 1410SOL    HW215867   4.256   3.152   4.793 -1.2510  0.4016  2.4880
 1411SOL     OW15868   3.047   1.721  11.808  0.2452  0.0014  0.1078
 1411SOL    HW115869   3.010   1.731  11.721  1.9853  0.9469 -0.5392
 1411SOL    HW215870   3.120   1.660  11.791  1.9456  1.4038  2.2956
 1412SOL     OW15871   1.972   1.947   8.270 -0.1793  0.6724 -0.4913
 1412SOL    HW115872   2.011   1.883   8.210 -1.3870 -0.7076  0.2044
 1412SOL    HW215873   1.980   2.022   8.212  1.6275 -0.3767 -1.5982
 1413SOL     OW15874   2.915   3.914  17.079  0.0009 -0.0606 -0.2934
 1413SOL    HW115875   2.938   3.936  17.170  0.0885 -1.4902  0.0301
 1413SOL    HW215876   2.919   3.999  17.035 -0.6977 -0.2410 -0.6972
 1414SOL     OW15877   0.505   2.038   6.718 -0.2214  0.7912  0.2047
 1414SOL    HW115878   0.460   1.996   6.790  3.1775  1.0261  2.4738
 1414SOL    HW215879   0.432   2.060   6.660 -0.2222  1.7413  0.5690
 1415SOL     OW15880   2.786   2.197  15.219  0.2844 -0.2142 -1.1146
 1415SOL    HW115881   2.700   2.226  15.250 -0.7116 -0.7374 -3.3649
 1415SOL    HW215882   2.836   2.279  15.226  0.6052 -0.4228 -0.9986
 1416SOL     OW15883   0.798   3.719   9.454 -0.2337 -0.1510 -0.5489
 1416SOL    HW115884   0.728   3.682   9.507  0.3800  2.6880  2.2444
 1416SOL    HW215885   0.767   3.808   9.435 -0.6191 -0.4171 -1.1770
 1417SOL     OW15886   2.647   2.795  12.336  0.1939 -0.3300  0.1416
 1417SOL    HW115887   2.697   2.876  12.347  3.0596 -2.0531 -0.0782
 1417SOL    HW215888   2.713   2.736  12.298  1.8985  1.6437  0.0015
 1418SOL     OW15889   3.413   1.307   8.084 -0.3278  0.4482  0.5916
 1418SOL    HW115890   3.379   1.221   8.059  0.2243 -0.3234  2.5441
 1418SOL    HW215891   3.412   1.288   8.177  1.6501 -2.3243  0.0667
 1419SOL     OW15892   1.436   1.507   7.745 -0.0033  0.2192  0.2909
 1419SOL    HW115893   1.493   1.551   7.682 -0.1789 -0.2776 -0.2166
 1419SOL    HW215894   1.469   1.553   7.822 -0.2962 -1.5139  1.4339
 1420SOL     OW15895   0.100   4.595  14.311 -0.5454 -0.8993  0.1252
 1420SOL    HW115896   0.166   4.589  14.380 -1.1292  2.4834  0.9985
 1420SOL    HW215897   0.137   4.664  14.255 -0.8237 -1.7768 -1.1522
 1421SOL     OW15898   1.851   1.079   0.111  0.6701  0.4849  0.2994
 1421SOL    HW115899   1.898   1.001   0.142 -1.5355 -1.4556 -1.2763
 1421SOL    HW215900   1.895   1.153   0.153 -0.7908  1.4345  0.1436
 1422SOL     OW15901   4.376   3.788   3.235  0.2264 -0.3239 -0.4649
 1422SOL    HW115902   4.330   3.846   3.296 -0.1146 -0.3069 -0.7404
 1422SOL    HW215903   4.342   3.808   3.148 -1.8230  0.8808  0.5937
 1423SOL     OW15904   1.827   1.471   9.049 -0.2753  0.5134  0.3648
 1423SOL    HW115905   1.760   1.442   9.111 -2.1971  1.3396 -1.3349
 1423SOL    HW215906   1.880   1.396   9.022 -0.6921  0.0587  0.8040
 1424SOL     OW15907   0.805   2.597   7.046 -0.5237  0.2413 -0.3981
 1424SOL    HW115908   0.841   2.664   7.103 -0.1770 -0.8117  0.6310
 1424SOL    HW215909   0.822   2.515   7.093  0.4896  0.9266  0.4183
 1425SOL     OW15910   0.547   1.736   9.282 -0.0694 -0.5771 -0.5758
 1425SOL    HW115911   0.574   1.819   9.321  1.1752 -1.2111 -0.0544
 1425SOL    HW215912   0.618   1.733   9.217  0.7405  2.2120  0.1670
 1426SOL     OW15913   4.630   2.087   8.953 -0.3373  0.5411  0.3377
 1426SOL    HW115914   4.683   2.078   9.033  1.0741  0.5516 -0.6061
 1426SOL    HW215915   4.696   2.085   8.884  0.1520  0.3565  0.8083
 1427SOL     OW15916   2.614   4.352   7.186  0.1943  0.3121 -0.4512
 1427SOL    HW115917   2.691   4.365   7.130  0.4019  0.9786 -0.0118
 1427SOL    HW215918   2.626   4.425   7.247  1.6393 -1.7329  1.6542
 1428SOL     OW15919   0.866   0.903   9.812  0.0182  0.0282 -0.1886
 1428SOL    HW115920   0.786   0.858   9.840  0.0647 -1.3841 -2.3149
 1428SOL    HW215921   0.873   0.971   9.879  3.2158 -2.3926  1.9478
 1429SOL     OW15922   2.508   2.668   1.957 -0.4081  0.1661 -0.3740
 1429SOL    HW115923   2.468   2.729   1.895  2.6984  0.6598 -1.8902
 1429SOL    HW215924   2.510   2.581   1.918  1.3162 -0.5763  1.3651
 1430SOL     OW15925   0.479   2.426   3.061 -0.1140  0.5498  0.0729
 1430SOL    HW115926   0.447   2.510   3.029  1.2753  1.9554  2.3971
 1430SOL    HW215927   0.551   2.459   3.114  1.4047 -0.7209 -1.1912
 1431SOL     OW15928   3.108   1.430   2.623  0.5971 -0.4599  0.6348
 1431SOL    HW115929   3.166   1.385   2.561  1.8430 -0.7390  2.0158
 1431SOL    HW215930   3.135   1.396   2.708  0.3089 -0.4268  0.7403
 1432SOL     OW15931   3.702   4.526   2.640  0.2383  0.0543  0.5860
 1432SOL    HW115932   3.678   4.619   2.636 -0.9548 -0.1941  1.8309
 1432SOL    HW215933   3.768   4.524   2.571 -0.1468 -1.8031  0.2802
 1433SOL     OW15934   3.120   0.579  11.789 -0.1721  0.2405 -0.4524
 1433SOL    HW115935   3.148   0.576  11.697  0.1801  0.2782 -0.3485
 1433SOL    HW215936   3.079   0.664  11.778 -0.9141  0.2965  2.7557
 1434SOL     OW15937   0.195   1.364   2.168  0.3591 -0.2786  0.0496
 1434SOL    HW115938   0.205   1.306   2.093 -0.6846 -0.8762  0.3709
 1434SOL    HW215939   0.263   1.430   2.156  0.9142 -1.0273 -0.8451
 1435SOL     OW15940   0.286   4.322   7.105 -0.7888  0.4811  0.0474
 1435SOL    HW115941   0.373   4.299   7.075 -1.1966  0.5243 -1.1480
 1435SOL    HW215942   0.281   4.417   7.114  0.2854  0.4798  0.7018
 1436SOL     OW15943   0.486   2.117  14.379  0.7595 -0.3449 -0.1439
 1436SOL    HW115944   0.526   2.199  14.409  1.1132 -1.4414  2.3684
 1436SOL    HW215945   0.525   2.120  14.292 -1.1311 -0.0395 -0.9696
 1437SOL     OW15946   0.239   1.771  16.786  0.6013 -0.4076  0.8062
 1437SOL    HW115947   0.265   1.807  16.871  2.3525 -1.3367  0.6816
 1437SOL    HW215948   0.146   1.759  16.802  0.2992  1.0363  0.0848
 1438SOL     OW15949   3.690   1.561   5.292 -0.3339 -0.0988  0.1063
 1438SOL    HW115950   3.727   1.643   5.326  0.5171 -0.7972  0.8899
 1438SOL    HW215951   3.607   1.576   5.337  0.1821 -2.4173  1.8658
 1439SOL     OW15952   0.988   1.490   7.393  0.1214 -0.2986  0.6068
 1439SOL    HW115953   1.020   1.491   7.303  0.5538  0.1460  0.7632
 1439SOL    HW215954   1.070   1.462   7.435  2.2002  2.1322 -1.7727
 1440SOL     OW15955   2.503   3.117   7.150  0.0785  0.6050 -0.1586
 1440SOL    HW115956   2.459   3.091   7.069 -0.3803 -3.1128  1.3062
 1440SOL    HW215957   2.456   3.064   7.214  1.6861  1.1762  1.4827
 1441SOL     OW15958   2.831   2.130   2.898  0.6065  0.4805  0.3945
 1441SOL    HW115959   2.907   2.128   2.840  0.9958 -1.1386  0.9771
 1441SOL    HW215960   2.868   2.119   2.985  0.2616  1.5005  0.6725
 1442SOL     OW15961   1.283   4.242  12.504  0.2118 -0.3438 -0.1595
 1442SOL    HW115962   1.289   4.248  12.409 -0.2274 -0.5742 -0.1996
 1442SOL    HW215963   1.334   4.319  12.531 -0.8877  0.8205 -1.4260
 1443SOL     OW15964   3.364   2.147   6.520 -0.1109  0.2718 -0.6571
 1443SOL    HW115965   3.314   2.228   6.532  0.2266  0.2259  1.0847
 1443SOL    HW215966   3.437   2.168   6.462 -1.3182  2.1062 -1.5150
 1444SOL     OW15967   2.209   2.146   8.780 -0.0623  0.2438  0.4936
 1444SOL    HW115968   2.211   2.160   8.874 -1.3107  0.5863  0.4820
 1444SOL    HW215969   2.142   2.078   8.776 -0.1569  0.3532  0.2322
 1445SOL     OW15970   4.080   2.626   6.832 -0.4592  0.3632  0.6649
 1445SOL    HW115971   4.030   2.545   6.817  0.7724 -0.2333 -0.1676
 1445SOL    HW215972   4.046   2.657   6.916  0.1275  1.9071  0.3314
 1446SOL     OW15973   1.959   1.932   3.094  0.6198 -0.3652 -0.1841
 1446SOL    HW115974   2.022   2.000   3.070  3.6347 -2.4972  1.7826
 1446SOL    HW215975   1.881   1.986   3.083 -0.9754 -3.0323 -1.9506
 1447SOL     OW15976   3.724   3.990   6.358  0.2320  0.3088 -0.0611
 1447SOL    HW115977   3.734   4.015   6.266  0.7414  0.5710  0.0631
 1447SOL    HW215978   3.698   3.900   6.340 -1.0534  0.8538 -0.9397
 1448SOL     OW15979   3.057   1.761   8.287  0.0495  0.1062 -0.3478
 1448SOL    HW115980   2.990   1.702   8.253  0.1239  0.2072 -0.6654
 1448SOL    HW215981   3.020   1.784   8.372 -1.0264  0.3908 -0.9085
 1449SOL     OW15982   3.462   2.044   7.937  0.2816  0.1114  0.2915
 1449SOL    HW115983   3.527   1.978   7.913 -1.1237 -1.2385  0.1571
 1449SOL    HW215984   3.523   2.112   7.967  2.1182 -0.9183 -1.1244
 1450SOL     OW15985   1.698   4.458   2.830  0.1085 -0.1221  0.3741
 1450SOL    HW115986   1.762   4.511   2.877  0.5805  0.9061 -1.4245
 1450SOL    HW215987   1.669   4.499   2.748  3.4137 -0.7039 -1.0425
 1451SOL     OW15988   4.383   1.634   3.417 -0.7809 -0.3162  0.0906
 1451SOL    HW115989   4.336   1.563   3.461  0.0425 -1.1892 -0.4449
 1451SOL    HW215990   4.446   1.641   3.488  1.2799  3.0588 -2.0925
 1452SOL     OW15991   1.040   2.717   2.040 -0.9129 -0.5383 -0.2353
 1452SOL    HW115992   0.980   2.708   2.113 -0.2628 -0.2872  0.3324
 1452SOL    HW215993   1.045   2.626   2.010  2.2833 -0.2983 -0.4441
 1453SOL     OW15994   2.958   0.272  14.882 -0.0887 -0.5380 -0.3420
 1453SOL    HW115995   3.011   0.260  14.804  0.9535 -1.3996  0.5105
 1453SOL    HW215996   2.994   0.360  14.896  1.3433 -0.9753 -1.3495
 1454SOL     OW15997   0.946   3.814   3.763  0.0908  0.2512 -0.2504
 1454SOL    HW115998   0.992   3.831   3.680 -3.2468  2.7847 -1.5525
 1454SOL    HW215999   0.938   3.903   3.796  0.1737 -0.7350  2.4296
 1455SOL     OW16000   3.100   2.177   4.723 -0.1130 -0.2959 -0.2926
 1455SOL    HW116001   3.139   2.236   4.658  1.9434 -2.3030 -0.8516
 1455SOL    HW216002   3.008   2.204   4.723  0.0293  0.2044  1.6902
 1456SOL     OW16003   1.973   3.944   2.774 -0.2968 -0.3240  0.2291
 1456SOL    HW116004   2.000   3.922   2.684 -0.0413  1.8696 -0.2375
 1456SOL    HW216005   1.879   3.931   2.765 -0.5628  0.3806  2.0379
 1457SOL     OW16006   2.439   3.105   8.193 -0.1257 -0.0488  0.1768
 1457SOL    HW116007   2.534   3.094   8.198 -0.3868 -0.8127  3.8816
 1457SOL    HW216008   2.429   3.183   8.139  0.0278 -0.6010 -0.6463
 1458SOL     OW16009   3.195   2.750   5.054  0.1471 -0.3700 -0.1382
 1458SOL    HW116010   3.231   2.668   5.019  1.1992  0.5029 -1.0858
 1458SOL    HW216011   3.223   2.739   5.144  0.2332  1.7961  0.1039
 1459SOL     OW16012   0.805   1.889   4.437  0.3071 -0.0350  0.1444
 1459SOL    HW116013   0.749   1.863   4.365  0.5829  0.7253 -0.3518
 1459SOL    HW216014   0.842   1.802   4.445 -2.1970 -1.0946  0.1608
 1460SOL     OW16015   4.398   0.693   9.317 -0.0098  0.2471 -0.0692
 1460SOL    HW116016   4.436   0.678   9.404  1.4732 -1.0331 -0.9457
 1460SOL    HW216017   4.315   0.739   9.332 -0.4061 -0.5480  0.1966
 1461SOL     OW16018   0.766   1.642  12.665 -0.5756 -0.1342 -0.3088
 1461SOL    HW116019   0.686   1.638  12.717  1.3282 -0.9319  2.5550
 1461SOL    HW216020   0.828   1.646  12.738 -0.3013  0.4774 -0.5720
 1462SOL     OW16021   3.422   3.985   0.292  0.1694  0.0617  0.7365
 1462SOL    HW116022   3.352   3.920   0.290  0.2936 -0.0594  0.2344
 1462SOL    HW216023   3.481   3.921   0.332  0.7326  0.1784  0.1007
 1463SOL     OW16024   2.824   2.833  17.114 -0.1110  0.3654  0.0936
 1463SOL    HW116025   2.755   2.882  17.158 -1.1286  0.4117 -1.5671
 1463SOL    HW216026   2.807   2.870  17.028  0.5342 -0.2326 -0.2970
 1464SOL     OW16027   1.231   2.603  13.038 -0.4953 -0.4310 -0.2063
 1464SOL    HW116028   1.314   2.558  13.057 -0.2421 -0.0463 -0.3985
 1464SOL    HW216029   1.171   2.532  13.061 -0.9920  0.5322  1.4764
 1465SOL     OW16030   1.881   2.012   8.521 -0.1236 -0.6073 -0.2308
 1465SOL    HW116031   1.888   2.104   8.544  2.2724 -0.6270 -0.9169
 1465SOL    HW216032   1.896   2.012   8.426 -0.0847 -0.8210 -0.2255
 1466SOL     OW16033   0.753   4.507   3.089 -0.2965  0.0151 -0.1199
 1466SOL    HW116034   0.848   4.504   3.094 -0.2522  2.1325  0.5124
 1466SOL    HW216035   0.739   4.488   3.182 -1.4078  0.5694 -0.1654
 1467SOL     OW16036   2.553   3.831  17.486  0.2542 -0.4396  0.1160
 1467SOL    HW116037   2.602   3.913  17.484 -2.9973  1.5044  1.0444
 1467SOL    HW216038   2.491   3.843  17.558 -0.6250 -2.4767 -0.3039
 1468SOL     OW16039   3.303   3.804  16.468 -0.2403  0.0664 -0.1892
 1468SOL    HW116040   3.326   3.877  16.525 -1.6100  0.3824 -0.0382
 1468SOL    HW216041   3.380   3.746  16.466 -1.7911 -2.0486  0.9194
 1469SOL     OW16042   3.217   2.301   5.489 -0.4762 -0.3079  0.2728
 1469SOL    HW116043   3.198   2.272   5.578 -1.0385 -1.1693 -0.1294
 1469SOL    HW216044   3.190   2.222   5.442 -0.5915  0.1269 -0.3920
 1470SOL     OW16045   3.992   2.651   9.706 -0.3683  0.0946  0.2752
 1470SOL    HW116046   3.956   2.650   9.617  1.3139  1.1446 -0.4297
 1470SOL    HW216047   4.083   2.674   9.687  0.1974 -0.3859  2.4666
 1471SOL     OW16048   1.824   1.040   6.512  0.8810  0.6047  0.5590
 1471SOL    HW116049   1.754   1.097   6.543 -1.1573 -0.4307 -2.0198
 1471SOL    HW216050   1.816   1.028   6.417  2.8574  0.9539  0.3397
 1472SOL     OW16051   3.911   4.472   6.494  0.3426 -0.5371  0.4932
 1472SOL    HW116052   3.942   4.519   6.417  2.9564 -1.3064  1.0545
 1472SOL    HW216053   3.857   4.401   6.460  2.1359 -1.8623  0.3912
 1473SOL     OW16054   1.670   3.926   6.199  0.3110 -0.3393  0.3733
 1473SOL    HW116055   1.657   3.850   6.255  1.7467 -0.8525  0.0154
 1473SOL    HW216056   1.639   3.998   6.254 -0.8077  0.5354 -1.3864
 1474SOL     OW16057   3.564   3.244   4.866  0.0265  0.3579 -0.3517
 1474SOL    HW116058   3.541   3.294   4.788  2.9518  0.8969 -0.8766
 1474SOL    HW216059   3.482   3.204   4.894 -0.2708  0.3505 -1.2248
 1475SOL     OW16060   3.337   2.025  16.915 -0.5336 -0.7564 -0.7055
 1475SOL    HW116061   3.332   2.116  16.888 -0.4596 -0.9403 -1.3456
 1475SOL    HW216062   3.369   2.039  17.004 -2.3485 -4.0701  0.4712
 1476SOL     OW16063   2.577   2.431   3.537  0.5335 -0.4557 -0.2325
 1476SOL    HW116064   2.655   2.474   3.569 -1.5734  0.5889  3.4772
 1476SOL    HW216065   2.547   2.498   3.476 -2.2170 -0.5291  1.0231
 1477SOL     OW16066   1.631   3.791  10.740  0.8046 -0.4291 -0.0005
 1477SOL    HW116067   1.584   3.871  10.762 -0.3874 -0.9030 -0.8496
 1477SOL    HW216068   1.691   3.780  10.813  0.2726 -0.9454  0.3569
 1478SOL     OW16069   4.046   1.731   1.959  0.0986  0.1868 -0.7987
 1478SOL    HW116070   4.091   1.741   2.043 -1.0265  1.0161 -0.3036
 1478SOL    HW216071   4.005   1.817   1.954 -0.1686  0.0119 -1.6355
 1479SOL     OW16072   2.972   4.045  13.476 -0.3875 -0.0931  0.0972
 1479SOL    HW116073   2.910   4.076  13.410 -1.8835  0.5657  1.8178
 1479SOL    HW216074   2.917   4.058  13.553  1.5897  2.1430  1.1228
 1480SOL     OW16075   2.427   3.112   8.494 -0.1348 -0.2264 -0.3572
 1480SOL    HW116076   2.492   3.044   8.510  0.4456  0.1871 -0.9663
 1480SOL    HW216077   2.415   3.109   8.399  0.5415 -1.1778 -0.4071
 1481SOL     OW16078   0.351   2.693   5.016  0.0447  0.1038 -0.6700
 1481SOL    HW116079   0.337   2.787   5.015 -0.8391 -0.0336 -1.0820
 1481SOL    HW216080   0.329   2.669   5.106  0.7366  1.8039 -0.0448
 1482SOL     OW16081   1.770   0.534   3.769  0.1236 -0.0289 -0.2077
 1482SOL    HW116082   1.787   0.621   3.805  0.3302  0.6839 -2.0006
 1482SOL    HW216083   1.858   0.511   3.739  0.6333  1.0892  0.4418
 1483SOL     OW16084   0.774   2.662  14.717 -0.1474 -0.6056 -0.4683
 1483SOL    HW116085   0.821   2.602  14.775 -1.3062 -0.7773  0.2967
 1483SOL    HW216086   0.694   2.613  14.701 -0.3631 -0.2884 -0.3649
 1484SOL     OW16087   1.723   3.972   4.568 -0.0566  0.4886 -0.3664
 1484SOL    HW116088   1.645   4.019   4.539 -1.1248 -1.9546 -1.4583
 1484SOL    HW216089   1.781   4.026   4.514  2.0162 -1.3604  0.0142
 1485SOL     OW16090   0.687   1.203   2.644 -0.2423  0.2878  0.5737
 1485SOL    HW116091   0.690   1.298   2.656 -1.1134  0.3934 -0.1022
 1485SOL    HW216092   0.642   1.158   2.715 -0.4744 -0.3207  0.0390
 1486SOL     OW16093   1.854   4.397   4.537  0.3857 -0.7863  0.1099
 1486SOL    HW116094   1.939   4.431   4.567 -0.1088  0.5524 -0.0080
 1486SOL    HW216095   1.841   4.473   4.480  1.3544 -2.1814 -1.9699
 1487SOL     OW16096   3.716   4.346   2.871  0.8159 -0.0201  0.0956
 1487SOL    HW116097   3.692   4.397   2.794 -1.7044  0.3286  1.1001
 1487SOL    HW216098   3.755   4.272   2.824  0.6647 -0.2528  0.3351
 1488SOL     OW16099   4.027   3.151   0.174 -0.2209 -0.7908 -0.2028
 1488SOL    HW116100   4.107   3.200   0.156 -1.3835  2.1391  2.4341
 1488SOL    HW216101   4.002   3.107   0.093 -1.5669 -0.3645 -0.0317
 1489SOL     OW16102   2.204   1.033  10.071 -0.7776 -0.3769 -0.3720
 1489SOL    HW116103   2.128   0.981  10.045 -2.2686  1.5809  0.0992
 1489SOL    HW216104   2.159   1.108  10.109 -3.4033 -1.1502 -1.9486
 1490SOL     OW16105   3.475   1.806   9.565  0.5814 -0.0340 -0.0038
 1490SOL    HW116106   3.546   1.750   9.596 -0.6761 -2.0666 -0.8581
 1490SOL    HW216107   3.465   1.789   9.471  2.1654  0.1601 -0.2087
 1491SOL     OW16108   1.433   1.871   7.350  0.1016 -0.3354 -0.1621
 1491SOL    HW116109   1.493   1.822   7.294  0.5669 -0.1840  0.2029
 1491SOL    HW216110   1.363   1.895   7.290 -1.2067 -1.5392  0.8769
 1492SOL     OW16111   2.443   4.624   4.130  0.0659  0.0277  0.0431
 1492SOL    HW116112   2.477   4.699   4.081  2.9819 -0.4349  1.3634
 1492SOL    HW216113   2.413   4.575   4.054  0.5670 -0.5104  0.1959
 1493SOL     OW16114   2.619   1.424   3.022 -0.0388 -0.6056 -0.1930
 1493SOL    HW116115   2.676   1.495   2.993 -1.2115  0.4623  0.1101
 1493SOL    HW216116   2.537   1.452   2.980 -1.6145 -1.7197  2.1603
 1494SOL     OW16117   2.769   2.593   5.245 -0.0223  0.0008  0.4953
 1494SOL    HW116118   2.829   2.668   5.248 -1.6419  1.3112  0.3436
 1494SOL    HW216119   2.831   2.528   5.279 -1.4771 -1.2996  0.6302
 1495SOL     OW16120   0.734   2.714   9.055 -0.5672  0.7925 -0.5117
 1495SOL    HW116121   0.653   2.678   9.020 -0.8326  2.3354 -1.4946
 1495SOL    HW216122   0.786   2.634   9.046  0.6235  1.5085 -0.0628
 1496SOL     OW16123   4.693   2.991  10.115  0.3470 -0.2487 -0.2770
 1496SOL    HW116124   0.013   3.016  10.186  0.9694 -1.8589 -0.2257
 1496SOL    HW216125   0.020   2.945  10.063  1.2226  1.8215 -0.9797
 1497SOL     OW16126   1.773   3.652   5.695 -0.3802 -0.5056  0.6005
 1497SOL    HW116127   1.859   3.647   5.654 -1.2582  0.8309 -1.4124
 1497SOL    HW216128   1.781   3.747   5.699 -2.2725 -0.2881 -0.8005
 1498SOL     OW16129   0.741   2.096   5.565  0.3928  0.7854 -0.8505
 1498SOL    HW116130   0.802   2.091   5.639 -0.8105 -0.4597  0.0529
 1498SOL    HW216131   0.736   2.191   5.553  1.2900  1.1132  1.3131
 1499SOL     OW16132   1.895   1.032  15.348  0.3582 -0.0193  0.2351
 1499SOL    HW116133   1.959   1.011  15.281  1.2393 -0.6518  1.2687
 1499SOL    HW216134   1.918   0.966  15.414  2.5097  1.5357  1.0331
 1500SOL     OW16135   0.564   4.271   4.978  0.2057 -0.2651  0.2280
 1500SOL    HW116136   0.635   4.269   5.042 -0.4928  0.2717  1.0205
 1500SOL    HW216137   0.610   4.283   4.895  0.5762 -0.4603  0.4035
 1501SOL     OW16138   2.732   2.723  10.948 -0.8834  0.4872  0.5035
 1501SOL    HW116139   2.821   2.744  10.920 -1.2565  0.2522 -0.8541
 1501SOL    HW216140   2.748   2.630  10.964 -0.2692  0.6395  0.7727
 1502SOL     OW16141   4.151   0.892   0.775  0.6216  0.0273  0.4629
 1502SOL    HW116142   4.098   0.900   0.854  3.8038  0.9456  2.5029
 1502SOL    HW216143   4.120   0.968   0.726 -0.9032 -2.3831 -2.3409
 1503SOL     OW16144   3.782   3.156  15.422  0.5637 -0.2625  0.2298
 1503SOL    HW116145   3.776   3.065  15.391 -1.2950  0.4495 -1.4847
 1503SOL    HW216146   3.869   3.157  15.461  0.2385  0.0402  0.9426
 1504SOL     OW16147   0.560   0.387   8.884 -0.0832  0.1280 -0.0975
 1504SOL    HW116148   0.641   0.378   8.834  0.2859  0.3378  0.4629
 1504SOL    HW216149   0.537   0.479   8.876  0.1596  0.1104 -1.0169
 1505SOL     OW16150   4.278   0.618  13.007 -0.4468  0.6941  0.5504
 1505SOL    HW116151   4.343   0.573  13.061 -1.0333  0.2138  0.8633
 1505SOL    HW216152   4.206   0.555  13.005 -1.0580  1.3687  1.3446
 1506SOL     OW16153   0.800   4.652  10.720  0.3338 -0.5426 -0.3113
 1506SOL    HW116154   0.839   4.701  10.647 -3.1651  2.1579 -0.3490
 1506SOL    HW216155   0.880   4.632  10.769  0.7990  0.4423 -0.6658
 1507SOL     OW16156   1.792   1.350  10.495  0.1090  0.1434  0.1432
 1507SOL    HW116157   1.798   1.334  10.589 -1.9304  1.5934  0.5263
 1507SOL    HW216158   1.820   1.442  10.492  0.7134 -0.1226 -2.3946
 1508SOL     OW16159   3.365   0.626   5.738  0.1286 -0.0843 -0.0778
 1508SOL    HW116160   3.347   0.625   5.644 -0.4000 -0.0964  0.0188
 1508SOL    HW216161   3.276   0.631   5.773  0.9275  1.3811  1.7232
 1509SOL     OW16162   4.324   0.861   6.094  0.0686 -0.2364  0.0505
 1509SOL    HW116163   4.407   0.894   6.127  0.2725 -2.0928  1.4191
 1509SOL    HW216164   4.332   0.873   5.999 -0.4139  1.4986  0.2420
 1510SOL     OW16165   1.175   1.364   5.120  0.1349 -0.3186 -0.1766
 1510SOL    HW116166   1.226   1.418   5.181 -1.6307 -1.1499  2.0168
 1510SOL    HW216167   1.098   1.418   5.103  0.4691  0.5367  1.0410
 1511SOL     OW16168   0.639   3.927   1.489  0.3888 -0.7068 -0.1552
 1511SOL    HW116169   0.637   3.858   1.555 -1.7300  1.1621  1.7162
 1511SOL    HW216170   0.710   3.885   1.440  0.0428  0.6745 -1.8227
 1512SOL     OW16171   4.066   2.619   3.384  0.4266 -0.0162  0.6480
 1512SOL    HW116172   3.984   2.651   3.346  1.1018  0.7915 -0.1279
 1512SOL    HW216173   4.032   2.573   3.461 -0.0469  1.6630  1.4464
 1513SOL     OW16174   4.495   3.342   1.979 -0.2458 -0.0708 -0.0509
 1513SOL    HW116175   4.555   3.392   1.924 -1.1565 -0.2276 -1.1824
 1513SOL    HW216176   4.564   3.338   2.045  1.2440 -1.1638 -1.6808
 1514SOL     OW16177   1.225   1.331   7.773  0.5595  0.9177 -0.0629
 1514SOL    HW116178   1.274   1.269   7.827 -0.8095  1.4763  1.8529
 1514SOL    HW216179   1.299   1.389   7.754  0.5757  1.1277  0.6239
 1515SOL     OW16180   4.221   3.219   6.151 -0.4072  0.5509 -0.3768
 1515SOL    HW116181   4.264   3.177   6.077 -0.5075  0.1671 -0.2201
 1515SOL    HW216182   4.185   3.290   6.099  0.6945  0.5819 -1.1001
 1516SOL     OW16183   2.561   1.358   3.299 -0.1265 -0.0660 -0.0052
 1516SOL    HW116184   2.529   1.278   3.339 -2.6347  0.5067 -0.8892
 1516SOL    HW216185   2.525   1.354   3.210  0.1921 -0.6176 -0.1080
 1517SOL     OW16186   4.428   2.102   2.913 -0.1685  0.1829  0.5682
 1517SOL    HW116187   4.373   2.071   2.841 -0.1205  2.4097 -0.4070
 1517SOL    HW216188   4.487   2.027   2.903 -0.7476 -0.3493  1.1275
 1518SOL     OW16189   1.284   1.888  11.412  0.0652 -0.0937  0.4202
 1518SOL    HW116190   1.192   1.907  11.431 -0.0250  0.1180 -0.2082
 1518SOL    HW216191   1.320   1.835  11.483 -0.2983  0.9675  1.3941
 1519SOL     OW16192   1.671   0.680   9.661 -0.1908  0.8623  0.1325
 1519SOL    HW116193   1.721   0.759   9.643 -0.4806  0.8587 -0.7215
 1519SOL    HW216194   1.671   0.678   9.757 -0.5370  1.1895  0.1402
 1520SOL     OW16195   2.727   4.039   2.964  0.1606 -0.2098 -0.1302
 1520SOL    HW116196   2.812   4.081   2.949  0.7088 -1.8846 -1.7007
 1520SOL    HW216197   2.751   3.951   2.992  0.4591  0.3016  1.2125
 1521SOL     OW16198   4.042   2.721  14.806  0.1007  0.2975  0.2239
 1521SOL    HW116199   4.134   2.703  14.791 -0.5676 -2.1157 -0.9050
 1521SOL    HW216200   4.033   2.809  14.767 -1.6187  0.6016  1.2938
 1522SOL     OW16201   1.233   4.095  15.519 -0.2438  0.5379 -0.4461
 1522SOL    HW116202   1.258   4.187  15.531  2.2563  0.0086 -1.4669
 1522SOL    HW216203   1.241   4.077  15.426 -0.4294  1.1169 -0.5689
 1523SOL     OW16204   4.518   2.256   5.219 -0.2518  0.4873 -0.1689
 1523SOL    HW116205   4.464   2.330   5.248 -0.5275 -0.0666  0.7571
 1523SOL    HW216206   4.454   2.189   5.192 -0.5038  0.5644  0.2317
 1524SOL     OW16207   1.183   1.767  14.704  0.6589 -0.1204 -0.2466
 1524SOL    HW116208   1.178   1.698  14.638 -2.8114 -1.1425  1.0890
 1524SOL    HW216209   1.159   1.845  14.655 -1.1025 -0.2342  0.4390
 1525SOL     OW16210   1.874   0.859   0.801  0.0996 -0.3534  0.0319
 1525SOL    HW116211   1.924   0.892   0.727 -3.1480  1.8702 -1.1865
 1525SOL    HW216212   1.805   0.810   0.757 -0.3430  0.0558  0.2679
 1526SOL     OW16213   4.459   0.972  17.628 -0.2999  0.6444 -0.0850
 1526SOL    HW116214   4.410   0.913  17.685  2.1636  0.2798  1.6707
 1526SOL    HW216215   4.482   0.914  17.556  0.3607 -0.0105  0.6422
 1527SOL     OW16216   2.154   4.480   3.746  0.1739 -0.4997  0.0205
 1527SOL    HW116217   2.193   4.529   3.673 -1.4499  0.0611 -0.4657
 1527SOL    HW216218   2.062   4.506   3.741 -0.0613 -1.2685  0.2965
 1528SOL     OW16219   4.154   0.275   4.923  0.1075 -0.0209  0.5281
 1528SOL    HW116220   4.098   0.351   4.938  0.6336  0.5691 -0.5185
 1528SOL    HW216221   4.238   0.320   4.930 -0.6495  1.2330  1.6131
 1529SOL     OW16222   4.025   2.511   4.797  0.5049 -0.1321  0.0985
 1529SOL    HW116223   4.048   2.601   4.775  0.4667  0.1621  1.2636
 1529SOL    HW216224   3.970   2.468   4.732 -0.2631  0.9500  0.0460
 1530SOL     OW16225   3.372   2.198   5.932 -0.2681 -0.0505 -0.0873
 1530SOL    HW116226   3.403   2.139   6.001 -0.2266 -0.5873 -0.5692
 1530SOL    HW216227   3.456   2.207   5.887 -1.4236  0.1236 -2.2026
 1531SOL     OW16228   4.418   0.374   5.414  0.1407 -0.2513 -0.8418
 1531SOL    HW116229   4.392   0.290   5.452  0.4988 -0.8583 -1.9494
 1531SOL    HW216230   4.383   0.357   5.327  0.5132  1.1840 -1.2651
 1532SOL     OW16231   2.917   4.401  10.874  0.0069  0.4639 -0.1981
 1532SOL    HW116232   2.925   4.415  10.779 -2.7086  3.2237 -0.0192
 1532SOL    HW216233   2.899   4.495  10.884  0.8170  0.4983  0.9461
 1533SOL     OW16234   4.511   1.191   2.863  0.3240  0.4910 -0.4950
 1533SOL    HW116235   4.542   1.275   2.832  0.3115  0.1626 -1.4073
 1533SOL    HW216236   4.473   1.169   2.778  0.8862 -0.5395 -0.4855
 1534SOL     OW16237   1.790   2.271   5.601  0.4660 -0.1654  0.3742
 1534SOL    HW116238   1.815   2.248   5.690 -0.9865  0.1339  0.8647
 1534SOL    HW216239   1.858   2.220   5.557  1.1102  1.1110 -0.0964
 1535SOL     OW16240   3.661   3.347   4.415  0.1090  0.6851 -0.0327
 1535SOL    HW116241   3.603   3.353   4.491 -1.4138  0.6193 -1.2011
 1535SOL    HW216242   3.624   3.275   4.363 -0.8637  1.2717 -0.1382
 1536SOL     OW16243   3.896   3.559   3.741 -0.5133 -0.4592 -0.3246
 1536SOL    HW116244   3.979   3.530   3.779 -0.8232 -0.5885  0.2617
 1536SOL    HW216245   3.853   3.580   3.825  1.8629 -1.3180  1.0950
 1537SOL     OW16246   1.876   3.236   8.689  0.0009 -0.1854  0.5164
 1537SOL    HW116247   1.861   3.269   8.777  0.4705  2.9053 -0.5550
 1537SOL    HW216248   1.967   3.208   8.696 -0.5417 -1.9631  0.5304
 1538SOL     OW16249   1.424   0.557   9.341 -0.5303 -0.1441  0.4319
 1538SOL    HW116250   1.489   0.568   9.272 -0.5875  0.9318  0.5433
 1538SOL    HW216251   1.447   0.469   9.369 -3.6315 -1.9400 -2.7324
 1539SOL     OW16252   1.238   2.214  13.234  0.6519  0.6087 -0.1056
 1539SOL    HW116253   1.236   2.131  13.281  0.5604  2.0756  2.4992
 1539SOL    HW216254   1.252   2.281  13.301 -0.6184  0.1447  0.6345
 1540SOL     OW16255   1.734   2.135   2.301  0.4145 -0.1118  1.0435
 1540SOL    HW116256   1.768   2.171   2.383  0.9020  0.9025  0.3928
 1540SOL    HW216257   1.778   2.050   2.308 -1.2924 -1.0081  0.8772
 1541SOL     OW16258   0.661   0.680  15.762 -0.2821 -0.0034  0.3222
 1541SOL    HW116259   0.698   0.640  15.683  0.2926  0.1775  0.5003
 1541SOL    HW216260   0.728   0.649  15.823  1.5415  2.7025 -0.3118
 1542SOL     OW16261   3.282   1.030  14.837  0.8802 -0.3355 -0.6067
 1542SOL    HW116262   3.197   0.992  14.811 -0.6477  1.0327  2.3889
 1542SOL    HW216263   3.328   1.007  14.756 -0.4166 -0.7706 -1.2294
 1543SOL     OW16264   0.329   2.477  13.786 -0.1795  0.3286 -0.4439
 1543SOL    HW116265   0.286   2.408  13.836  1.6591 -1.0201 -0.6908
 1543SOL    HW216266   0.369   2.527  13.857  3.1243  1.8738 -3.3769
 1544SOL     OW16267   4.397   2.668   2.571 -0.4976  0.6430  0.0942
 1544SOL    HW116268   4.471   2.607   2.562 -0.8249 -0.0986  2.2039
 1544SOL    HW216269   4.390   2.701   2.482 -2.1903 -0.9160 -0.3703
 1545SOL     OW16270   0.036   2.190  17.069 -0.2572 -0.2241 -0.0221
 1545SOL    HW116271   0.055   2.100  17.094  1.3432 -0.0664 -0.7038
 1545SOL    HW216272   0.114   2.229  17.110 -1.2703 -0.7984  2.4997
 1546SOL     OW16273   1.114   1.634  12.223  0.5487 -0.0609 -0.2979
 1546SOL    HW116274   1.068   1.694  12.282 -2.1410 -2.9674  0.5576
 1546SOL    HW216275   1.125   1.547  12.262  0.3845 -0.3593 -0.9046
 1547SOL     OW16276   2.007   2.894   6.341  0.4467  0.4225  0.2870
 1547SOL    HW116277   2.082   2.949   6.362  0.6506  0.5881 -0.8767
 1547SOL    HW216278   2.026   2.867   6.251  0.9601  0.5761  0.3502
 1548SOL     OW16279   2.618   0.854   8.093  0.3355  0.8114  0.3062
 1548SOL    HW116280   2.643   0.888   8.179 -2.1633  0.4462  1.1551
 1548SOL    HW216281   2.703   0.852   8.048 -0.5260 -0.5647 -1.2198
 1549SOL     OW16282   0.220   3.642   6.880 -0.2442 -0.1758  0.1433
 1549SOL    HW116283   0.154   3.578   6.852 -0.7765  1.5354 -2.6029
 1549SOL    HW216284   0.298   3.608   6.836  0.1548  0.8214  0.0941
 1550SOL     OW16285   3.960   4.735  12.450 -0.3872  0.2621 -0.0932
 1550SOL    HW116286   4.045   0.004  12.406  0.1356 -0.3135  0.8055
 1550SOL    HW216287   3.950   4.643  12.474  1.1413 -0.2660 -1.4585
 1551SOL     OW16288   2.328   2.894  12.962  0.7729  0.1963 -0.0066
 1551SOL    HW116289   2.292   2.966  13.014 -1.6347 -1.6134  0.8031
 1551SOL    HW216290   2.309   2.924  12.873 -0.3361  1.4575  0.6663
 1552SOL     OW16291   2.780   3.701   8.003 -0.5185  0.0110  0.6403
 1552SOL    HW116292   2.719   3.689   7.930  0.9350 -0.5166 -0.5098
 1552SOL    HW216293   2.762   3.622   8.053 -1.4140 -0.1760  0.0242
 1553SOL     OW16294   4.073   4.688  10.228 -0.1825 -0.3867  0.1504
 1553SOL    HW116295   4.069   0.033  10.274  3.7465 -0.1985  0.1557
 1553SOL    HW216296   4.017   4.624  10.273 -0.6025  0.6642  1.1237
 1554SOL     OW16297   2.246   0.224  16.085  0.7694 -0.0887 -0.3187
 1554SOL    HW116298   2.161   0.179  16.080 -1.7721  4.2442  4.4761
 1554SOL    HW216299   2.221   0.315  16.099 -1.9116 -1.1878  2.0116
 1555SOL     OW16300   1.844   1.819   7.533 -0.4206 -0.2033 -0.3076
 1555SOL    HW116301   1.847   1.723   7.538  0.7856 -0.0727  1.3878
 1555SOL    HW216302   1.756   1.827   7.497 -0.6721 -1.0678  0.1055
 1556SOL     OW16303   3.122   4.464   4.411 -0.0780 -0.5473 -0.3980
 1556SOL    HW116304   3.158   4.551   4.394  0.5804 -0.6555  0.4576
 1556SOL    HW216305   3.111   4.480   4.504 -0.0843 -0.9806 -0.3235
 1557SOL     OW16306   1.373   3.248   2.228  0.2960  0.1526 -0.4175
 1557SOL    HW116307   1.468   3.241   2.216  0.1182 -1.0393 -1.1066
 1557SOL    HW216308   1.341   3.184   2.164 -0.0195  0.7617 -0.8715
 1558SOL     OW16309   2.695   1.634   0.868  0.5291  0.2464 -0.6130
 1558SOL    HW116310   2.687   1.540   0.855  1.9370 -0.1611  1.3940
 1558SOL    HW216311   2.790   1.643   0.877  0.3347 -0.0437  1.7490
 1559SOL     OW16312   3.801   4.307  14.602 -0.5691  0.2853  0.6835
 1559SOL    HW116313   3.883   4.263  14.626 -0.0952  0.8437  0.1012
 1559SOL    HW216314   3.749   4.283  14.678  0.6694 -1.1515  1.0846
 1560SOL     OW16315   2.854   4.113  13.736  0.0172 -0.8886 -0.7255
 1560SOL    HW116316   2.941   4.091  13.768 -1.1513 -1.6505  2.0054
 1560SOL    HW216317   2.799   4.068  13.801  0.2658 -0.6083 -0.3147
 1561SOL     OW16318   1.165   3.594   4.714 -0.4155 -0.4401 -0.5526
 1561SOL    HW116319   1.185   3.624   4.802  1.1830 -0.4180 -0.9283
 1561SOL    HW216320   1.138   3.676   4.673 -1.9850 -0.6835 -0.0101
 1562SOL     OW16321   1.608   1.703   4.283 -0.0836  0.0561 -0.2021
 1562SOL    HW116322   1.530   1.694   4.338  0.5083 -0.5679  0.5516
 1562SOL    HW216323   1.570   1.763   4.220 -0.4897 -0.2500 -0.2439
 1563SOL     OW16324   1.494   3.275   7.383  0.4373 -0.4996 -0.6153
 1563SOL    HW116325   1.477   3.259   7.290  0.7221  2.9580 -1.2490
 1563SOL    HW216326   1.531   3.362   7.371  2.8616 -1.4045  0.3963
 1564SOL     OW16327   3.801   4.622   4.976 -0.0494 -0.5863 -0.3676
 1564SOL    HW116328   3.854   4.659   4.907  1.2569  0.7245  1.3623
 1564SOL    HW216329   3.735   4.691   4.977  0.6832  0.1292 -1.8158
 1565SOL     OW16330   2.467   1.069  16.152 -0.1467  0.4505 -0.2404
 1565SOL    HW116331   2.528   1.070  16.225 -0.7127 -0.5646  0.2560
 1565SOL    HW216332   2.519   1.055  16.073  1.2588  3.2561  0.2260
 1566SOL     OW16333   0.896   0.993   2.001 -0.0092 -0.0672 -0.5943
 1566SOL    HW116334   0.825   0.950   2.049 -0.5146  0.2771 -1.0250
 1566SOL    HW216335   0.842   1.016   1.926  0.7224  2.4926 -0.3399
 1567SOL     OW16336   0.044   4.099   2.752 -0.2973 -0.3801  0.0722
 1567SOL    HW116337   4.700   4.056   2.732  0.8189 -2.0850 -0.8702
 1567SOL    HW216338   0.077   4.044   2.822 -1.4371 -1.4587 -0.2496
 1568SOL     OW16339   0.953   3.069   7.657 -0.1943  0.0343 -0.3696
 1568SOL    HW116340   0.946   3.081   7.562 -1.1646 -0.8779 -0.4060
 1568SOL    HW216341   1.043   3.100   7.668 -0.6466  0.7509  1.2238
 1569SOL     OW16342   3.709   2.124   6.592 -0.3775  0.0726  0.3313
 1569SOL    HW116343   3.758   2.201   6.564 -0.8548  0.0943 -0.4357
 1569SOL    HW216344   3.779   2.087   6.646 -1.5317  0.7942  2.3119
 1570SOL     OW16345   4.026   1.732  17.649  0.3206 -0.1045  0.7879
 1570SOL    HW116346   4.045   1.690  17.733  1.8894  1.1265  1.0418
 1570SOL    HW216347   4.013   1.659  17.589 -0.4208 -0.1887  1.0479
 1571SOL     OW16348   0.033   2.188   5.201  0.2911  0.5440 -0.5022
 1571SOL    HW116349   0.085   2.228   5.132  0.3294 -0.1875 -0.9022
 1571SOL    HW216350   4.687   2.232   5.194  0.3377  0.9622  1.4450
 1572SOL     OW16351   4.194   2.564   7.984 -0.4245  0.2982 -0.0888
 1572SOL    HW116352   4.132   2.493   7.967 -2.4255  1.8332  0.7304
 1572SOL    HW216353   4.138   2.642   7.979 -0.6965 -0.0259 -1.9655
 1573SOL     OW16354   1.744   3.702   4.305 -0.7826 -0.2281  0.4466
 1573SOL    HW116355   1.817   3.647   4.334 -3.6975 -2.9465  2.5519
 1573SOL    HW216356   1.782   3.784   4.271 -0.6993  1.5426  4.7924
 1574SOL     OW16357   1.813   3.597   0.697 -0.0916 -0.0899 -0.0128
 1574SOL    HW116358   1.874   3.664   0.727  0.1320  1.1816 -3.2745
 1574SOL    HW216359   1.849   3.512   0.719  1.1194  0.7086  1.0804
 1575SOL     OW16360   2.200   3.523   5.894 -0.2528 -0.5924 -0.1372
 1575SOL    HW116361   2.254   3.593   5.930 -1.3690  0.5698 -0.7106
 1575SOL    HW216362   2.121   3.542   5.945  1.0698 -0.0804  1.6993
 1576SOL     OW16363   1.992   1.915  16.446  0.1024  0.1974  0.3386
 1576SOL    HW116364   2.027   1.997  16.412 -1.3842  1.3567  1.6323
 1576SOL    HW216365   2.005   1.921  16.540 -2.3285  1.1333  0.6188
 1577SOL     OW16366   3.338   0.177   3.708  0.2735 -0.3992 -0.1612
 1577SOL    HW116367   3.380   0.096   3.737  0.9610 -0.8575 -2.3806
 1577SOL    HW216368   3.260   0.135   3.672 -0.1230  0.9123 -0.8259
 1578SOL     OW16369   4.167   2.670   7.333 -0.5821  0.5286  0.1479
 1578SOL    HW116370   4.134   2.711   7.413 -0.0860  0.5215  0.3561
 1578SOL    HW216371   4.248   2.624   7.356 -0.2162  0.4120 -1.3301
 1579SOL     OW16372   1.337   1.243  11.967 -0.3224 -0.0867  0.7447
 1579SOL    HW116373   1.409   1.215  12.024 -0.6772 -0.5167  0.9869
 1579SOL    HW216374   1.384   1.293  11.901 -1.5011  2.6316  1.9703
 1580SOL     OW16375   3.616   1.261  15.432 -0.3394  0.4334  0.4590
 1580SOL    HW116376   3.553   1.274  15.502  0.1950  1.8388  0.6848
 1580SOL    HW216377   3.559   1.214  15.372  0.2793  0.7637 -0.3898
 1581SOL     OW16378   1.757   3.233   0.530 -0.3542 -0.2156  0.4635
 1581SOL    HW116379   1.685   3.239   0.593 -0.2616  0.4997  0.5011
 1581SOL    HW216380   1.757   3.137   0.521 -2.5038  0.1418 -3.3199
 1582SOL     OW16381   4.334   1.153   6.651 -0.1190  0.2225 -0.0315
 1582SOL    HW116382   4.355   1.169   6.744 -0.5279  0.1146  0.0753
 1582SOL    HW216383   4.376   1.068   6.638 -0.7887 -0.3748  1.6725
 1583SOL     OW16384   3.621   1.266   5.729  0.5963 -0.6601  0.4975
 1583SOL    HW116385   3.612   1.185   5.678  2.8743 -0.7711  0.2413
 1583SOL    HW216386   3.662   1.332   5.673  0.0737 -0.1452  0.7191
 1584SOL     OW16387   4.328   0.200  11.389 -0.5630  0.1993 -0.1277
 1584SOL    HW116388   4.415   0.200  11.349 -0.6147 -0.5925 -0.2245
 1584SOL    HW216389   4.354   0.233  11.475 -0.0599 -0.7660  0.0827
 1585SOL     OW16390   1.174   2.838   1.823 -0.0555 -0.4969 -0.8218
 1585SOL    HW116391   1.125   2.804   1.898  0.5840  1.8290  0.6441
 1585SOL    HW216392   1.252   2.783   1.826 -0.0949 -0.5150 -0.0859
 1586SOL     OW16393   1.045   1.313   8.111  0.3477 -0.7471 -0.0917
 1586SOL    HW116394   0.992   1.392   8.126  0.9624  0.0584 -2.2707
 1586SOL    HW216395   1.115   1.344   8.053 -0.3030  0.6883 -0.1004
 1587SOL     OW16396   1.625   4.625   7.914  0.2688  0.3666 -0.0498
 1587SOL    HW116397   1.545   4.597   7.871  0.1601 -0.3889  0.6424
 1587SOL    HW216398   1.594   4.657   7.999  0.8426  3.2166 -0.9185
 1588SOL     OW16399   4.137   0.495   8.461  0.5463  0.1423 -0.3919
 1588SOL    HW116400   4.116   0.439   8.535  1.3375 -0.8595 -0.9289
 1588SOL    HW216401   4.187   0.429   8.414  3.8612  1.5417  1.1538
 1589SOL     OW16402   4.285   1.440  14.431 -0.5757  0.4647  0.7600
 1589SOL    HW116403   4.361   1.410  14.381 -1.4754 -0.2523 -0.1704
 1589SOL    HW216404   4.240   1.513  14.388  0.3682  1.5745  1.6471
 1590SOL     OW16405   3.906   1.729   8.026 -0.0171  0.6011 -0.4415
 1590SOL    HW116406   3.986   1.780   8.039  2.0645 -1.7726 -4.1255
 1590SOL    HW216407   3.886   1.743   7.934 -0.3545  3.2213  0.0393
 1591SOL     OW16408   0.248   0.817   0.947  0.1259  0.3259  0.5652
 1591SOL    HW116409   0.238   0.751   0.879  1.2227 -0.9090  1.6003
 1591SOL    HW216410   0.198   0.888   0.907 -0.6133 -0.4710  0.0780
 1592SOL     OW16411   2.435   3.808   3.012  0.4878 -0.1803 -0.9671
 1592SOL    HW116412   2.341   3.800   2.996  0.2435  0.3549  0.2481
 1592SOL    HW216413   2.443   3.736   3.074  0.5011 -0.3416 -1.1564
 1593SOL     OW16414   1.971   3.833   1.539 -0.0340 -0.4749  0.2685
 1593SOL    HW116415   1.900   3.815   1.601  0.9294 -0.5158  1.3606
 1593SOL    HW216416   1.925   3.896   1.484 -0.1947  0.1511  1.1099
 1594SOL     OW16417   0.903   0.505   3.973 -0.0935  0.4878  0.0441
 1594SOL    HW116418   0.871   0.416   3.988  1.0117  0.1749  0.5502
 1594SOL    HW216419   0.826   0.549   3.936 -0.4559  1.0746  1.5252
 1595SOL     OW16420   1.927   3.701   8.016 -0.7666 -0.4519  0.3853
 1595SOL    HW116421   1.902   3.644   7.943 -1.6163  1.0669 -0.5155
 1595SOL    HW216422   2.017   3.667   8.020 -0.7397 -0.3585  0.5844
 1596SOL     OW16423   4.456   1.127   8.790  0.2558  0.0227  0.1714
 1596SOL    HW116424   4.456   1.205   8.734  3.8955  0.4169  0.7231
 1596SOL    HW216425   4.370   1.127   8.831  0.0728 -0.6593 -0.2058
 1597SOL     OW16426   3.985   3.766   8.988  0.1205  0.1454 -0.3097
 1597SOL    HW116427   4.021   3.808   9.066  0.7145 -2.0475  0.6128
 1597SOL    HW216428   4.061   3.719   8.955  0.6861 -0.4754  1.8837
 1598SOL     OW16429   2.308   0.174   8.072  0.0274  0.4467  0.5647
 1598SOL    HW116430   2.336   0.258   8.036  2.6200 -1.3194 -1.5560
 1598SOL    HW216431   2.218   0.176   8.103  0.5984 -0.9311  2.3614
 1599SOL     OW16432   1.665   3.516   0.962  0.3034  0.0403 -0.1980
 1599SOL    HW116433   1.608   3.593   0.953 -0.5563 -0.2407  2.7494
 1599SOL    HW216434   1.724   3.534   0.889  1.4029  0.1737  0.7206
 1600SOL     OW16435   1.987   0.096  16.205 -0.0247  0.5782  0.1112
 1600SOL    HW116436   1.896   0.119  16.184 -0.5447 -0.4859  1.2396
 1600SOL    HW216437   1.972   0.056  16.290 -1.1534 -0.5644 -0.6168
 1601SOL     OW16438   4.391   2.030  13.558 -0.1379 -0.3484 -0.0703
 1601SOL    HW116439   4.338   1.958  13.592 -2.5421  1.3825 -0.1155
 1601SOL    HW216440   4.314   2.083  13.534  1.2947  1.7784  0.0575
 1602SOL     OW16441   2.060   2.031   2.359  0.1263  0.3665  0.2277
 1602SOL    HW116442   2.035   2.117   2.325 -0.9478 -0.7020 -1.7121
 1602SOL    HW216443   2.102   2.052   2.443  0.4540 -4.2006  1.1639
 1603SOL     OW16444   4.562   4.219   6.618  0.6254  0.2697 -0.0942
 1603SOL    HW116445   4.468   4.209   6.601  0.7701 -0.7553 -0.2857
 1603SOL    HW216446   4.580   4.312   6.602  3.0008  0.0007  0.9644
 1604SOL     OW16447   3.063   0.456  15.553 -0.4231 -0.3984 -0.1751
 1604SOL    HW116448   3.076   0.368  15.588  0.5136 -0.3381 -0.3746
 1604SOL    HW216449   3.058   0.495  15.640  2.6692 -2.2814  0.8326
 1605SOL     OW16450   0.533   0.209   9.110 -0.4279  0.1603 -0.7657
 1605SOL    HW116451   0.560   0.255   9.031  0.3805  2.2298  0.6983
 1605SOL    HW216452   0.589   0.132   9.109 -1.0909 -0.3545  0.4528
 1606SOL     OW16453   0.161   3.125   4.649  0.3706  0.1956 -0.0968
 1606SOL    HW116454   0.187   3.208   4.691  0.3652  1.0458 -1.7928
 1606SOL    HW216455   0.172   3.149   4.557  0.9970 -0.0592 -0.0889
 1607SOL     OW16456   3.785   0.004   8.041 -0.2178 -0.6002  0.3572
 1607SOL    HW116457   3.740   4.681   7.983  0.8945 -1.2880  0.2133
 1607SOL    HW216458   3.831   4.687   8.104 -2.9769 -2.8622  0.3709
 1608SOL     OW16459   4.578   2.978   4.988 -0.2835  0.3566  0.0059
 1608SOL    HW116460   4.573   2.939   4.901 -0.4985 -3.0655  1.5464
 1608SOL    HW216461   4.660   3.027   4.985  0.0279 -0.2272 -1.0626
 1609SOL     OW16462   3.660   0.071   2.401 -0.0095 -0.6338 -0.0070
 1609SOL    HW116463   3.672   0.130   2.475 -0.6125 -0.1183 -0.3221
 1609SOL    HW216464   3.566   0.076   2.381 -0.0688 -3.4656 -0.4155
 1610SOL     OW16465   1.761   3.930   7.288 -0.6995 -0.1661  0.4103
 1610SOL    HW116466   1.823   3.930   7.360  0.6752 -0.4638 -0.7865
 1610SOL    HW216467   1.743   4.021   7.265 -0.2882 -0.1132  0.3121
 1611SOL     OW16468   3.664   1.867  15.269 -0.2198 -0.2912 -0.0027
 1611SOL    HW116469   3.721   1.944  15.273 -1.1398  0.5345 -2.4276
 1611SOL    HW216470   3.636   1.869  15.361  1.7055  1.4214  0.5472
 1612SOL     OW16471   3.623   2.278  16.417  0.7584 -0.5995  0.1787
 1612SOL    HW116472   3.652   2.282  16.508 -2.8750 -0.7561  1.3788
 1612SOL    HW216473   3.579   2.361  16.399  0.8322 -0.6663 -0.2879
 1613SOL     OW16474   4.485   0.245  17.019 -0.3632  0.3762  0.6969
 1613SOL    HW116475   4.470   0.215  17.109 -0.7781 -1.8014 -0.0798
 1613SOL    HW216476   4.490   0.339  17.038  1.4146  0.3772  0.1126
 1614SOL     OW16477   4.361   4.290   8.517 -0.4684  0.1808 -0.2920
 1614SOL    HW116478   4.432   4.226   8.513 -0.4238  0.2157 -0.0224
 1614SOL    HW216479   4.281   4.239   8.505 -1.4438  1.3044  1.5456
 1615SOL     OW16480   2.571   0.465   1.722 -0.0865  0.5228 -0.3037
 1615SOL    HW116481   2.637   0.438   1.658  1.8728  2.1098  1.0329
 1615SOL    HW216482   2.527   0.389   1.760  0.8121 -0.0272 -0.3704
 1616SOL     OW16483   2.785   2.777   3.302  0.2770 -0.0480  0.2463
 1616SOL    HW116484   2.776   2.807   3.393  0.7940  1.5405 -0.2424
 1616SOL    HW216485   2.880   2.788   3.297  0.2663 -0.5646 -0.9556
 1617SOL     OW16486   0.590   3.365   8.657 -0.4579  0.4594 -0.2874
 1617SOL    HW116487   0.597   3.301   8.727  1.7442  0.9906 -0.0062
 1617SOL    HW216488   0.607   3.313   8.579  0.6985 -0.8834  0.8640
 1618SOL     OW16489   1.929   3.043   1.031 -0.2494  0.0175 -0.6410
 1618SOL    HW116490   1.844   3.084   1.049  0.7502  1.9586 -0.4074
 1618SOL    HW216491   1.915   2.960   1.076 -3.2499 -0.6839 -2.7935
 1619SOL     OW16492   4.738   1.064  10.097 -0.2580  0.0237  0.0289
 1619SOL    HW116493   4.720   1.140  10.043  1.4698  0.2137 -0.2733
 1619SOL    HW216494   4.673   1.012  10.050  2.5279 -1.8547 -1.7336
 1620SOL     OW16495   4.076   4.242  14.997  0.4022 -0.4752  0.0281
 1620SOL    HW116496   4.088   4.333  15.026 -1.9871  0.7528 -2.8296
 1620SOL    HW216497   4.108   4.238  14.907  0.0512 -0.8968 -0.0749
 1621SOL     OW16498   2.803   2.358   8.734  0.0771 -0.0549  0.2052
 1621SOL    HW116499   2.820   2.265   8.718 -0.2079 -0.2349  0.9609
 1621SOL    HW216500   2.844   2.371   8.819  0.7924 -0.0307 -0.1448
 1622SOL     OW16501   2.409   0.385   0.502 -0.2264 -0.2348  0.2594
 1622SOL    HW116502   2.490   0.368   0.551  0.6927  0.7138 -0.9303
 1622SOL    HW216503   2.403   0.314   0.438  2.1268 -1.3130  1.2404
 1623SOL     OW16504   3.887   1.904  12.560 -0.1140  0.4879 -0.2535
 1623SOL    HW116505   3.892   1.870  12.649 -2.2580  0.1118 -0.2649
 1623SOL    HW216506   3.793   1.924  12.552  0.1005  0.3025 -3.1381
 1624SOL     OW16507   2.760   0.288  12.205  0.2236  0.6292  0.4960
 1624SOL    HW116508   2.675   0.281  12.247  1.0553 -0.0647  2.0677
 1624SOL    HW216509   2.810   0.258  12.281  0.7717  0.8640  0.2310
 1625SOL     OW16510   1.842   0.584  11.563  0.2968 -0.7132 -0.2238
 1625SOL    HW116511   1.913   0.640  11.592  0.4757 -1.2525  0.3737
 1625SOL    HW216512   1.862   0.575  11.470  1.8077 -0.3949  0.0728
 1626SOL     OW16513   2.590   2.343   9.018 -0.3517 -0.3614  0.3675
 1626SOL    HW116514   2.668   2.374   8.972  0.3131 -0.2738  1.5536
 1626SOL    HW216515   2.604   2.393   9.099 -0.2921 -0.9403  0.7177
 1627SOL     OW16516   3.562   3.592   9.450  0.0047 -0.3470  0.4831
 1627SOL    HW116517   3.628   3.530   9.480  2.8375  1.6597 -1.5816
 1627SOL    HW216518   3.610   3.675   9.455 -0.1375 -0.2255 -0.2404
 1628SOL     OW16519   1.716   4.342   5.166 -0.1430  0.0092 -0.0150
 1628SOL    HW116520   1.733   4.305   5.079 -0.2892  0.0848 -0.0759
 1628SOL    HW216521   1.758   4.428   5.172  0.8598 -0.1559 -4.5621
 1629SOL     OW16522   3.680   0.266   0.007 -0.5811  0.2287 -0.2144
 1629SOL    HW116523   3.699   0.173   0.022  1.8269  0.5699 -1.1688
 1629SOL    HW216524   3.615   0.278   0.077 -0.8202  1.6031 -0.6852
 1630SOL     OW16525   1.741   0.517   2.915  0.2332  0.2359 -0.6381
 1630SOL    HW116526   1.687   0.541   2.840  0.3394  3.0194  0.1909
 1630SOL    HW216527   1.811   0.462   2.878 -0.4047 -3.0405  2.9789
 1631SOL     OW16528   0.295   3.948   9.068  0.5418  0.5071 -0.7045
 1631SOL    HW116529   0.200   3.952   9.066  0.4721  0.4828  2.0338
 1631SOL    HW216530   0.314   4.023   9.012  1.3160 -0.3359 -1.5643
 1632SOL     OW16531   2.479   0.643  17.163  0.0185 -0.2799  0.2687
 1632SOL    HW116532   2.510   0.623  17.075 -0.5644  2.1113 -0.4882
 1632SOL    HW216533   2.528   0.570  17.200  1.0219  0.5047  0.5025
 1633SOL     OW16534   3.834   2.751   3.563 -0.4831  0.8765 -0.6689
 1633SOL    HW116535   3.757   2.797   3.597 -0.6957 -0.0201  0.0540
 1633SOL    HW216536   3.832   2.786   3.474 -0.0181  0.7632 -0.7258
 1634SOL     OW16537   3.768   1.565   7.604 -0.1599  0.4029  0.3995
 1634SOL    HW116538   3.735   1.556   7.514  2.0685  0.5303 -0.4441
 1634SOL    HW216539   3.687   1.555   7.653 -1.1710  0.7925 -1.1864
 1635SOL     OW16540   3.118   0.599   6.856 -0.0017  0.3643  0.2843
 1635SOL    HW116541   3.182   0.541   6.898 -1.0338 -0.8065  0.2287
 1635SOL    HW216542   3.039   0.552   6.883  0.9984 -2.6798 -2.1218
 1636SOL     OW16543   1.112   4.569  11.383  0.0005 -0.4078 -0.6407
 1636SOL    HW116544   1.206   4.584  11.391  0.2405 -2.3043  0.1946
 1636SOL    HW216545   1.085   4.633  11.449  0.6177  1.2307 -2.0024
 1637SOL     OW16546   4.277   0.761   6.780 -0.5013 -0.5372  0.2075
 1637SOL    HW116547   4.184   0.738   6.770 -1.3621  3.4903 -1.1722
 1637SOL    HW216548   4.307   0.675   6.811  2.5189  1.3847  2.5195
 1638SOL     OW16549   3.188   3.697  14.705 -0.2437  0.0162 -0.1221
 1638SOL    HW116550   3.261   3.755  14.685  1.1505 -0.8593  2.3610
 1638SOL    HW216551   3.233   3.613  14.690 -2.0082 -0.7420 -1.1761
 1639SOL     OW16552   2.989   1.156   0.336 -0.0492  0.3148 -0.4661
 1639SOL    HW116553   3.002   1.075   0.385  0.3197  0.0706 -0.9734
 1639SOL    HW216554   2.918   1.128   0.278  1.2562 -1.4740 -1.1846
 1640SOL     OW16555   3.330   2.088  11.194  0.3061 -0.0257  0.3152
 1640SOL    HW116556   3.376   2.056  11.271 -2.3370  0.9981  2.3465
 1640SOL    HW216557   3.363   2.178  11.195 -1.6522  0.6810  1.1353
 1641SOL     OW16558   4.066   3.124   3.043  0.1863 -0.2723  0.1827
 1641SOL    HW116559   4.000   3.139   3.111 -0.7248  0.0536 -0.7864
 1641SOL    HW216560   4.127   3.196   3.058 -0.4629 -0.0964  1.9517
 1642SOL     OW16561   0.226   4.669   1.002 -0.2458  0.2072 -0.4001
 1642SOL    HW116562   0.218   4.665   1.097 -0.2025  0.4144 -0.3878
 1642SOL    HW216563   0.243   4.577   0.979  0.2585  0.0110  0.7134
 1643SOL     OW16564   0.261   4.353   5.396 -0.1892 -0.2438 -0.6705
 1643SOL    HW116565   0.305   4.427   5.436  0.1751  0.9269 -3.2155
 1643SOL    HW216566   0.260   4.378   5.303  2.2178 -1.5710 -1.0708
 1644SOL     OW16567   3.473   2.233   5.460 -0.6865 -0.4238 -0.1831
 1644SOL    HW116568   3.386   2.267   5.477 -0.9832 -0.3314 -1.8238
 1644SOL    HW216569   3.528   2.311   5.470  0.7111 -1.6061  1.3824
 1645SOL     OW16570   0.721   0.027   1.217  0.4793 -0.0656  0.3179
 1645SOL    HW116571   0.701   0.088   1.288 -3.1145 -1.8991  0.9013
 1645SOL    HW216572   0.800   4.723   1.251 -1.2763 -3.1856  0.4375
 1646SOL     OW16573   3.737   4.109   8.963  0.0548  0.8155 -0.4072
 1646SOL    HW116574   3.646   4.085   8.944  0.7125 -0.7011 -1.6531
 1646SOL    HW216575   3.787   4.064   8.895  3.0191  0.5695  1.9155
 1647SOL     OW16576   2.389   2.133  16.532  0.0738 -0.4401  0.2937
 1647SOL    HW116577   2.300   2.164  16.543  0.0197  0.6405 -3.2050
 1647SOL    HW216578   2.427   2.211  16.493  0.4610 -1.3775 -1.2170
 1648SOL     OW16579   3.771   3.004   2.754 -0.0034 -0.2579 -0.3484
 1648SOL    HW116580   3.767   2.958   2.670  0.1842  0.3817 -0.7073
 1648SOL    HW216581   3.753   3.098   2.751 -1.1686 -0.4543  0.3191
 1649SOL     OW16582   3.371   0.683   5.454  0.0228  0.1482  0.5658
 1649SOL    HW116583   3.316   0.732   5.393 -1.2037 -0.5508  1.1148
 1649SOL    HW216584   3.455   0.726   5.437 -0.1329  0.1015 -0.2970
 1650SOL     OW16585   1.495   4.225  11.181 -0.1208 -0.4009  0.1166
 1650SOL    HW116586   1.506   4.192  11.270  0.8020 -0.8133 -0.1578
 1650SOL    HW216587   1.562   4.170  11.140 -0.8098  0.1556 -1.7618
 1651SOL     OW16588   3.255   0.928   0.686  0.1453 -0.1762  0.6631
 1651SOL    HW116589   3.200   0.912   0.762 -1.1964  2.0947  0.1571
 1651SOL    HW216590   3.303   1.007   0.711  0.0159 -0.1062  0.6915
 1652SOL     OW16591   1.006   4.724   7.392 -0.2960 -0.7545  0.6404
 1652SOL    HW116592   1.014   4.653   7.456 -1.4993 -1.1290  0.3791
 1652SOL    HW216593   1.092   0.022   7.375 -0.2724  0.1825  2.7184
 1653SOL     OW16594   1.801   1.397   4.160 -0.0780  0.0932 -0.1760
 1653SOL    HW116595   1.870   1.357   4.213 -1.0046  0.1740  1.0909
 1653SOL    HW216596   1.738   1.377   4.229 -0.2592  0.6731 -0.1735
 1654SOL     OW16597   1.357   4.426   5.560  0.5894 -0.0483  0.0294
 1654SOL    HW116598   1.319   4.456   5.478 -2.6293 -0.2260  1.4439
 1654SOL    HW216599   1.282   4.421   5.619  1.1747 -0.7681  0.7030
 1655SOL     OW16600   0.441   1.625  13.471 -0.6591  0.4208 -0.2338
 1655SOL    HW116601   0.350   1.599  13.457  0.0439 -1.8609 -0.5504
 1655SOL    HW216602   0.490   1.545  13.492 -0.5054  0.3355 -0.9028
 1656SOL     OW16603   4.407   3.839   6.514 -0.0036 -0.0216  0.1682
 1656SOL    HW116604   4.490   3.873   6.549 -0.3386  0.1784  0.7791
 1656SOL    HW216605   4.350   3.842   6.591 -1.3151  0.5042 -0.8357
 1657SOL     OW16606   2.840   0.204   2.937  0.1202  0.2265 -0.1169
 1657SOL    HW116607   2.763   0.197   2.993  1.9682  0.7856  2.5356
 1657SOL    HW216608   2.906   0.250   2.989 -0.5586  0.5900  0.4112
 1658SOL     OW16609   0.014   3.619   6.073  0.6498  0.7013  0.4425
 1658SOL    HW116610   4.730   3.648   6.162  0.0174 -1.4327  0.9692
 1658SOL    HW216611   4.668   3.624   6.028  0.7443  4.1140  0.5900
 1659SOL     OW16612   2.885   2.007   2.571  0.4928  0.1472 -0.4276
 1659SOL    HW116613   2.857   1.916   2.574 -0.2485  0.4225  1.2368
 1659SOL    HW216614   2.800   2.051   2.573  0.1597 -0.5400  1.0369
 1660SOL     OW16615   0.465   0.451   8.496 -0.6175 -0.7100 -0.5290
 1660SOL    HW116616   0.523   0.417   8.428  0.9083 -0.9803  0.9278
 1660SOL    HW216617   0.531   0.485   8.556 -1.3767 -0.4938  0.1873
 1661SOL     OW16618   2.100   0.700   9.733  0.3694 -0.5359  0.2032
 1661SOL    HW116619   2.104   0.632   9.666  2.3427  1.9920 -2.2794
 1661SOL    HW216620   2.177   0.753   9.713  1.1528 -1.5393  0.5611
 1662SOL     OW16621   1.073   2.049   6.047  0.0532 -0.4807  0.4721
 1662SOL    HW116622   1.008   2.120   6.054 -1.8635 -2.3715  1.8049
 1662SOL    HW216623   1.134   2.086   5.984 -0.8838  1.3049  0.6040
 1663SOL     OW16624   1.398   0.787   8.160 -0.0061 -0.0188 -0.1603
 1663SOL    HW116625   1.342   0.825   8.092  1.4365 -0.1654 -1.4462
 1663SOL    HW216626   1.432   0.867   8.198 -1.5649  0.6244 -0.1346
 1664SOL     OW16627   4.400   3.817   7.433 -0.0325 -0.4532  0.4703
 1664SOL    HW116628   4.342   3.838   7.506 -1.2501  0.5840 -0.7790
 1664SOL    HW216629   4.337   3.831   7.362 -1.4394 -0.4704  1.7007
 1665SOL     OW16630   4.717   3.648   7.940 -0.3121  0.0126  0.3552
 1665SOL    HW116631   0.051   3.711   7.931 -0.8830  0.5639 -0.3688
 1665SOL    HW216632   4.724   3.620   7.849 -0.5248  0.3708  0.2294
 1666SOL     OW16633   2.154   3.836  10.619  0.0577  0.3818  0.6948
 1666SOL    HW116634   2.120   3.780  10.549  0.2784 -0.7401  1.4676
 1666SOL    HW216635   2.132   3.782  10.695  0.3532  0.2007  0.6551
 1667SOL     OW16636   3.328   2.495  17.739  0.7594 -0.0109 -0.4784
 1667SOL    HW116637   3.406   2.494  17.684  0.1573 -0.3946 -1.3199
 1667SOL    HW216638   3.335   2.581   0.029 -0.4907 -1.1165  1.9690
 1668SOL     OW16639   3.719   1.906   7.490  0.4268  0.1167 -0.2201
 1668SOL    HW116640   3.686   1.905   7.580  0.8796 -1.5574 -0.0773
 1668SOL    HW216641   3.635   1.918   7.446  0.4236  1.6619  0.2175
 1669SOL     OW16642   0.834   1.119   1.743  0.0162  0.4412  0.3240
 1669SOL    HW116643   0.820   1.149   1.653  1.3559 -0.8565 -0.3313
 1669SOL    HW216644   0.888   1.190   1.776  2.0817 -1.7519  1.6612
 1670SOL     OW16645   3.127   2.790   7.391  0.2441  0.5054  0.3081
 1670SOL    HW116646   3.125   2.699   7.361 -0.5498  0.2791  1.0326
 1670SOL    HW216647   3.034   2.812   7.389  0.3363  0.8554 -0.0260
 1671SOL     OW16648   0.095   2.277   9.622 -0.2501  0.6314 -0.4544
 1671SOL    HW116649   0.002   2.297   9.608 -0.5215 -0.6679 -0.4934
 1671SOL    HW216650   0.119   2.349   9.680  1.3112 -0.2718 -0.0016
 1672SOL     OW16651   0.753   0.209   5.428  0.5941 -0.3363 -1.0054
 1672SOL    HW116652   0.721   0.162   5.505 -0.8727  1.3921 -0.5538
 1672SOL    HW216653   0.843   0.231   5.451 -0.0781 -0.0250  1.2863
 1673SOL     OW16654   0.248   0.203   2.345 -0.1118  0.1890  0.1287
 1673SOL    HW116655   0.227   0.143   2.417 -0.0496 -0.3104 -0.2782
 1673SOL    HW216656   0.290   0.283   2.378 -0.8483  0.1834  1.1028
 1674SOL     OW16657   4.231   4.333  14.560  0.3013  0.0671  0.1212
 1674SOL    HW116658   4.281   4.384  14.624 -0.0739  0.6694 -0.0673
 1674SOL    HW216659   4.251   4.385  14.482  0.5505  2.2269  1.6279
 1675SOL     OW16660   1.710   3.689   3.290 -0.2108 -0.2725  0.3285
 1675SOL    HW116661   1.794   3.651   3.313  1.2000  1.6871 -1.6072
 1675SOL    HW216662   1.704   3.766   3.347  0.5366  1.7649 -2.3626
 1676SOL     OW16663   3.067   0.687   8.572 -0.0472 -0.0926  0.3702
 1676SOL    HW116664   3.156   0.656   8.553 -0.7741 -2.0880  0.2399
 1676SOL    HW216665   3.079   0.725   8.659 -2.6861 -0.0765  0.7261
 1677SOL     OW16666   3.397   0.643   2.995 -0.1279 -0.3020 -0.1254
 1677SOL    HW116667   3.428   0.605   3.077  2.5798  1.4386 -0.3410
 1677SOL    HW216668   3.339   0.572   2.967  0.1380 -0.6696  0.2654
 1678SOL     OW16669   4.600   3.933   4.185 -0.0588 -0.0196 -0.0683
 1678SOL    HW116670   4.617   3.956   4.276 -0.7258 -0.7707  0.2500
 1678SOL    HW216671   4.622   4.013   4.138  1.6174 -0.3394  0.1501
 1679SOL     OW16672   1.517   0.826   4.085 -0.3398 -0.1030  0.3282
 1679SOL    HW116673   1.554   0.914   4.081  2.0261 -0.9516  3.1652
 1679SOL    HW216674   1.444   0.832   4.148  0.0661  0.3403  0.7617
 1680SOL     OW16675   4.000   2.715   7.082  0.4317 -0.5010  0.3345
 1680SOL    HW116676   4.040   2.703   7.168 -0.6304  4.3338  1.4693
 1680SOL    HW216677   3.908   2.717   7.110 -0.7493  0.0781 -3.6045
 1681SOL     OW16678   2.040   0.266  12.897 -0.1412 -0.4872  0.4293
 1681SOL    HW116679   2.111   0.323  12.927 -0.3989 -0.3888  0.8581
 1681SOL    HW216680   2.015   0.299  12.811  0.2108 -0.6612  0.2616
 1682SOL     OW16681   2.438   1.967   8.687 -0.3088  0.1623 -0.8458
 1682SOL    HW116682   2.482   2.045   8.654 -0.5385 -0.4281 -2.5577
 1682SOL    HW216683   2.456   1.975   8.780 -1.6053 -1.0415 -0.4811
 1683SOL     OW16684   4.395   3.908   7.010  0.9359 -0.4711 -0.0392
 1683SOL    HW116685   4.330   3.855   7.056  2.0381 -2.1707 -0.4258
 1683SOL    HW216686   4.364   3.996   7.031 -1.9653 -1.5809  0.2723
 1684SOL     OW16687   3.165   2.412   1.077  0.4213  0.6289 -0.7435
 1684SOL    HW116688   3.224   2.468   1.127  1.9730 -1.5913 -0.1077
 1684SOL    HW216689   3.225   2.340   1.058  0.8719  0.4368  1.4333
 1685SOL     OW16690   3.113   3.535   5.728  0.1566  0.0823  0.0309
 1685SOL    HW116691   3.045   3.542   5.660 -0.0907 -0.3161  0.2396
 1685SOL    HW216692   3.184   3.564   5.671  0.1304 -0.4114 -0.2506
 1686SOL     OW16693   4.514   4.699   7.149  0.5247  0.0632 -0.1846
 1686SOL    HW116694   4.502   0.011   7.068 -2.5151  0.6541  0.6208
 1686SOL    HW216695   4.556   0.020   7.210  2.3963 -0.9571 -0.4957
 1687SOL     OW16696   2.049   3.211   1.478 -0.5570 -0.6034  0.3691
 1687SOL    HW116697   2.069   3.256   1.396  1.7219 -1.7122  0.3079
 1687SOL    HW216698   2.030   3.278   1.543  0.3168  0.4836 -0.4902
 1688SOL     OW16699   0.009   0.548   8.758  0.1545  0.7522  0.7321
 1688SOL    HW116700   4.662   0.572   8.723  0.5675  1.8264  0.4497
 1688SOL    HW216701   4.724   0.515   8.845  1.6729 -1.5801  0.2532
 1689SOL     OW16702   4.307   3.382  11.185 -0.0961 -0.6884  0.1848
 1689SOL    HW116703   4.256   3.427  11.253 -0.1224  0.5850 -0.6793
 1689SOL    HW216704   4.286   3.423  11.101 -0.9814  1.6298  1.5485
 1690SOL     OW16705   1.420   3.841   2.730 -0.4700 -0.1778 -0.3413
 1690SOL    HW116706   1.342   3.872   2.775 -1.7252 -0.6145 -2.2443
 1690SOL    HW216707   1.387   3.837   2.640 -4.2506  0.2372  1.0242
 1691SOL     OW16708   2.691   1.890   7.716  0.1215 -0.6103  0.2726
 1691SOL    HW116709   2.756   1.888   7.786  0.2630  0.6508  0.1908
 1691SOL    HW216710   2.749   1.893   7.639  0.4594  1.6415  0.6203
 1692SOL     OW16711   4.151   3.917   2.127 -0.5505 -0.0146  0.3630
 1692SOL    HW116712   4.146   3.976   2.202  1.4999  1.1938 -0.4443
 1692SOL    HW216713   4.137   3.986   2.062  0.3545  0.4028  0.6039
 1693SOL     OW16714   3.484   4.006   4.881 -0.0674 -0.6766  0.7023
 1693SOL    HW116715   3.489   4.085   4.827  1.4296 -2.0040 -1.0562
 1693SOL    HW216716   3.575   3.979   4.871  0.5064  1.5828 -0.1038
 1694SOL     OW16717   3.179   4.486   3.743  0.2806 -0.3655  0.1313
 1694SOL    HW116718   3.132   4.418   3.791  0.2824  0.2546  0.9984
 1694SOL    HW216719   3.264   4.497   3.786  0.5081  3.8172 -1.3462
 1695SOL     OW16720   3.612   0.514   2.118 -0.0501  0.0813 -0.0847
 1695SOL    HW116721   3.606   0.477   2.206  2.3391 -2.5639 -1.0130
 1695SOL    HW216722   3.645   0.600   2.145 -0.2905  0.2718 -0.3885
 1696SOL     OW16723   4.069   1.790  17.015 -0.1424  0.0973 -0.4338
 1696SOL    HW116724   4.012   1.721  16.983  0.1248  0.4270 -1.6020
 1696SOL    HW216725   4.136   1.781  16.948  1.5516  2.9519  0.8575
 1697SOL     OW16726   4.126   4.119   1.960 -0.4037  0.0006 -0.4984
 1697SOL    HW116727   4.219   4.111   1.938  0.4217  0.2856  2.9847
 1697SOL    HW216728   4.108   4.202   1.915  4.3914  1.8440  1.0081
 1698SOL     OW16729   2.826   1.954   5.241  0.1945  0.3298  0.3515
 1698SOL    HW116730   2.905   1.909   5.271  0.7858  0.5286 -0.9102
 1698SOL    HW216731   2.786   1.969   5.327  0.1027 -1.7357  0.6677
 1699SOL     OW16732   1.973   3.575   3.291  0.6165 -0.4773  0.3397
 1699SOL    HW116733   2.036   3.648   3.285  1.3357 -1.1409 -0.1719
 1699SOL    HW216734   1.987   3.534   3.206 -0.6106 -4.1313  1.9189
 1700SOL     OW16735   0.586   2.853   4.549  0.2348  0.5426 -0.4974
 1700SOL    HW116736   0.518   2.796   4.512  1.1377 -1.1560  0.4272
 1700SOL    HW216737   0.602   2.803   4.629 -0.4305  0.6238 -0.3184
 1701SOL     OW16738   2.120   1.463   0.829 -0.4301 -0.5780  0.2533
 1701SOL    HW116739   2.085   1.544   0.791  1.4492 -0.0810 -0.4147
 1701SOL    HW216740   2.214   1.476   0.811 -1.1811 -0.2448 -3.5010
 1702SOL     OW16741   4.152   0.828   8.238  0.0815 -0.1221 -0.2708
 1702SOL    HW116742   4.241   0.795   8.227 -0.3963 -0.5667 -2.8260
 1702SOL    HW216743   4.137   0.881   8.159 -0.0510 -0.0407 -0.1903
 1703SOL     OW16744   2.818   0.975   9.346 -0.0600 -0.2235 -0.2771
 1703SOL    HW116745   2.805   0.882   9.329 -0.4842 -0.2469  0.1485
 1703SOL    HW216746   2.769   0.979   9.429  0.6498  0.2615  0.1258
 1704SOL     OW16747   1.570   0.398  11.416 -0.1753  0.1039  0.1378
 1704SOL    HW116748   1.629   0.468  11.387 -1.5550  0.9774 -0.5779
 1704SOL    HW216749   1.486   0.439  11.392  1.6630  2.6435 -1.9379
 1705SOL     OW16750   1.275   3.558   4.088 -0.0485  0.1140  0.0526
 1705SOL    HW116751   1.251   3.584   3.999  0.6473 -0.8452 -0.4119
 1705SOL    HW216752   1.299   3.642   4.127 -0.0275 -0.1384  0.5844
 1706SOL     OW16753   3.000   2.432   6.838  0.1179  0.0518 -0.1561
 1706SOL    HW116754   3.073   2.452   6.896  0.1293  1.8490 -0.7923
 1706SOL    HW216755   3.026   2.466   6.752  1.4509  0.9505  0.6109
 1707SOL     OW16756   4.622   2.470  16.223 -0.4059  0.3672 -0.4232
 1707SOL    HW116757   4.590   2.554  16.190 -2.7673 -0.5828 -0.4970
 1707SOL    HW216758   4.540   2.441  16.263 -0.3453  1.1853  0.3236
 1708SOL     OW16759   4.430   2.892   5.347 -0.2866  0.2738  0.1121
 1708SOL    HW116760   4.502   2.848   5.302 -1.2864  1.9712 -3.1630
 1708SOL    HW216761   4.390   2.931   5.269 -0.8283 -1.2869 -0.3772
 1709SOL     OW16762   0.546   0.200   6.350  0.2961  0.3865  0.6878
 1709SOL    HW116763   0.498   0.147   6.286  0.0631 -0.1575  1.3073
 1709SOL    HW216764   0.485   0.217   6.423 -1.3442 -1.5018 -0.2474
 1710SOL     OW16765   0.974   4.288   3.217 -0.3768 -0.1918 -0.0780
 1710SOL    HW116766   1.005   4.301   3.307 -0.3055 -0.7157 -0.0255
 1710SOL    HW216767   0.891   4.242   3.231  0.3681 -1.6868 -0.5023
 1711SOL     OW16768   0.632   1.483   2.599  0.6277  0.6151  0.2218
 1711SOL    HW116769   0.708   1.541   2.594  0.1690  1.1537 -0.4750
 1711SOL    HW216770   0.612   1.454   2.510 -1.4988 -0.9953  1.2374
 1712SOL     OW16771   1.653   0.125   6.352 -0.0936  0.3293  0.3193
 1712SOL    HW116772   1.632   0.032   6.363 -0.3706  0.6128  2.3006
 1712SOL    HW216773   1.665   0.134   6.258  2.9266 -2.1050  0.4766
 1713SOL     OW16774   3.434   0.507   8.008 -0.2226  0.1766  0.1473
 1713SOL    HW116775   3.507   0.502   8.070 -0.7674  0.7739  0.8350
 1713SOL    HW216776   3.373   0.557   8.062  0.1418  1.2128 -0.4085
 1714SOL     OW16777   0.125   2.674   6.080 -0.0081 -0.1080  0.0510
 1714SOL    HW116778   0.098   2.615   6.150  0.3381 -1.1576 -0.6958
 1714SOL    HW216779   0.212   2.703   6.109 -0.1882 -0.7729  1.2251
 1715SOL     OW16780   4.720   1.600  13.997 -0.0308 -0.2018  0.5083
 1715SOL    HW116781   0.041   1.613  14.071 -0.2105 -3.3904  1.1847
 1715SOL    HW216782   4.634   1.616  14.035 -0.0091  1.0266  0.0513
 1716SOL     OW16783   4.634   2.673   4.510  0.6944  0.1383 -0.5404
 1716SOL    HW116784   4.646   2.649   4.602 -0.3556  0.8674 -0.2094
 1716SOL    HW216785   4.591   2.758   4.521  3.3011  1.1866  1.4997
 1717SOL     OW16786   3.042   2.774   8.843  0.8007 -0.2209  0.1439
 1717SOL    HW116787   3.082   2.725   8.771  1.1981  0.5359 -0.1422
 1717SOL    HW216788   3.082   2.860   8.832  0.6211 -0.0726  0.6301
 1718SOL     OW16789   1.701   3.452   3.610  0.3090 -0.4506  0.0167
 1718SOL    HW116790   1.708   3.372   3.559  0.6187 -0.3860 -0.0419
 1718SOL    HW216791   1.793   3.466   3.635 -0.3583  1.2030  1.5598
 1719SOL     OW16792   4.179   0.914  11.571 -0.1937  0.6517 -0.0491
 1719SOL    HW116793   4.219   0.848  11.628 -0.1565 -1.3158 -2.3372
 1719SOL    HW216794   4.250   0.920  11.506 -0.0454 -1.5546 -0.0903
 1720SOL     OW16795   3.036   4.696   1.235 -0.2183  0.0726  0.2594
 1720SOL    HW116796   2.990   4.616   1.259 -0.3751  0.6351  1.7932
 1720SOL    HW216797   3.054   4.685   1.141 -1.6006 -0.6760  0.0773
 1721SOL     OW16798   3.539   1.481  16.489  0.0292  0.2472  0.1502
 1721SOL    HW116799   3.466   1.431  16.451 -0.9382  0.3237  1.8768
 1721SOL    HW216800   3.593   1.516  16.419 -1.1467  0.3074 -0.7336
 1722SOL     OW16801   1.742   2.532   5.564 -0.3415  0.0524 -0.3814
 1722SOL    HW116802   1.678   2.512   5.496  0.5482 -0.9148 -0.9375
 1722SOL    HW216803   1.783   2.447   5.583  3.4429  2.0482  0.4121
 1723SOL     OW16804   1.025   3.061  17.188  0.2719 -0.0445  0.1219
 1723SOL    HW116805   1.047   2.968  17.174 -0.8727 -0.2445 -0.3605
 1723SOL    HW216806   1.069   3.096  17.111  0.8708  0.7567  0.8328
 1724SOL     OW16807   3.956   0.175   2.381  0.0653  0.5973  0.2564
 1724SOL    HW116808   3.868   0.136   2.376  1.1339 -1.8502  0.7120
 1724SOL    HW216809   3.967   0.216   2.295  0.3734 -3.8764 -1.8104
 1725SOL     OW16810   2.943   1.730  17.605 -0.1824  0.1185 -0.0035
 1725SOL    HW116811   2.983   1.746  17.691  2.4049 -1.9554 -0.8182
 1725SOL    HW216812   2.857   1.772  17.608  0.4999  1.6234 -1.7684
 1726SOL     OW16813   3.002   0.433   5.112  0.7217 -0.4470 -0.6721
 1726SOL    HW116814   3.082   0.474   5.080  0.8573 -0.9773 -1.0077
 1726SOL    HW216815   3.019   0.342   5.090 -0.2160 -0.4612 -1.3268
 1727SOL     OW16816   4.211   3.056   0.773 -0.5094  0.0261 -0.0635
 1727SOL    HW116817   4.128   3.059   0.820 -0.8775 -0.2721 -0.6961
 1727SOL    HW216818   4.184   3.112   0.700 -2.3486  3.1095  2.9766
 1728SOL     OW16819   0.261   2.988   9.353 -0.1579  0.7036 -0.7433
 1728SOL    HW116820   0.291   2.951   9.270  0.8508  0.9652 -0.4916
 1728SOL    HW216821   0.168   2.967   9.361  0.0403 -0.5758 -1.7453
 1729SOL     OW16822   0.789   1.679   7.439  0.2793 -0.4424  0.1891
 1729SOL    HW116823   0.837   1.751   7.398  2.0237 -2.5449 -1.4677
 1729SOL    HW216824   0.842   1.603   7.416  1.6269  0.8487 -1.0020
 1730SOL     OW16825   1.638   1.269  12.024 -0.2596 -0.0122 -0.3901
 1730SOL    HW116826   1.600   1.324  12.092 -1.8273 -0.8347 -0.6183
 1730SOL    HW216827   1.679   1.200  12.077  0.5427  0.5032 -0.3336
 1731SOL     OW16828   4.492   4.422   7.132 -0.9176 -0.1762 -0.0645
 1731SOL    HW116829   4.580   4.399   7.105 -0.6103 -1.0581  1.6837
 1731SOL    HW216830   4.506   4.517   7.137  1.1641 -0.3872 -2.1078
 1732SOL     OW16831   0.325   4.186   7.939  0.3440 -0.0526  0.4766
 1732SOL    HW116832   0.335   4.123   7.868 -1.0363 -0.5413  0.7242
 1732SOL    HW216833   0.329   4.271   7.894 -2.1720  0.2810  0.8630
 1733SOL     OW16834   3.703   0.359  13.435  0.0016 -0.3926  0.4618
 1733SOL    HW116835   3.623   0.310  13.452 -1.5756  1.2795 -1.9702
 1733SOL    HW216836   3.710   0.401  13.520 -1.4568  2.2918 -0.7306
 1734SOL     OW16837   3.177   0.827   5.289  0.0398 -0.4634 -0.4606
 1734SOL    HW116838   3.139   0.857   5.372 -1.0739 -0.7254 -0.8807
 1734SOL    HW216839   3.094   0.797   5.252 -0.1197 -2.7341  1.7487
 1735SOL     OW16840   4.565   0.193  11.294 -0.2850  0.0458  0.9229
 1735SOL    HW116841   4.614   0.173  11.374  0.1303  0.7939  0.8600
 1735SOL    HW216842   4.617   0.135  11.239 -0.1546 -0.2359  1.3386
 1736SOL     OW16843   3.056   4.063   3.776 -0.4879 -0.3562 -0.3556
 1736SOL    HW116844   3.057   4.144   3.826  2.0999  1.3163 -3.1307
 1736SOL    HW216845   3.124   4.084   3.712 -0.0349  1.4019  0.7163
 1737SOL     OW16846   3.890   2.274   4.604 -0.2766  0.1476 -0.6336
 1737SOL    HW116847   3.823   2.301   4.667  1.1858  1.7128  0.2709
 1737SOL    HW216848   3.863   2.186   4.577 -0.7093  0.0843 -0.0121
 1738SOL     OW16849   1.865   0.464   6.223 -0.1584 -0.2423 -0.2124
 1738SOL    HW116850   1.804   0.506   6.162 -0.1774 -1.0443 -0.7431
 1738SOL    HW216851   1.935   0.446   6.160 -0.8315  2.5222 -1.7681
 1739SOL     OW16852   0.580   0.432  10.308  0.1377  0.1533  0.7776
 1739SOL    HW116853   0.512   0.493  10.280  0.8220  0.3761 -0.4204
 1739SOL    HW216854   0.543   0.390  10.385  1.1057  1.2536  1.8528
 1740SOL     OW16855   0.424   4.559   6.087  0.0250  0.1220 -0.0194
 1740SOL    HW116856   0.338   4.537   6.123  0.4969 -1.7377 -0.0234
 1740SOL    HW216857   0.463   4.474   6.070  0.1380  0.1807 -0.0497
 1741SOL     OW16858   2.814   0.251   5.735 -0.2718  0.0133 -0.4168
 1741SOL    HW116859   2.768   0.192   5.795 -0.2575 -1.4520 -1.8474
 1741SOL    HW216860   2.795   0.210   5.651  2.4773 -1.2367 -0.4419
 1742SOL     OW16861   3.517   3.621   5.921 -0.0021  0.2006  0.2044
 1742SOL    HW116862   3.488   3.536   5.889  0.2112  0.3772 -0.4699
 1742SOL    HW216863   3.545   3.656   5.836  0.3437 -1.5468 -0.4018
 1743SOL     OW16864   3.218   4.311   9.485  0.2348  0.4763  0.4269
 1743SOL    HW116865   3.255   4.333   9.570  3.4166  0.8729 -1.0659
 1743SOL    HW216866   3.291   4.259   9.451 -0.7080  0.4161 -1.5414
 1744SOL     OW16867   0.571   2.939  15.452  0.1258  0.2995 -0.0212
 1744SOL    HW116868   0.653   2.904  15.487  0.2372 -0.5940 -1.1671
 1744SOL    HW216869   0.535   2.997  15.519  0.6871  0.1853  0.3757
 1745SOL     OW16870   4.696   0.544   7.053  0.0246  0.1067 -0.2237
 1745SOL    HW116871   4.638   0.615   7.025  0.3064  0.0145 -1.0319
 1745SOL    HW216872   4.627   0.479   7.059 -0.7099  0.9896  1.1139
 1746SOL     OW16873   3.987   1.575   3.180 -0.4510 -0.2074 -0.6589
 1746SOL    HW116874   4.029   1.656   3.209 -1.2940  1.4697 -4.1169
 1746SOL    HW216875   4.009   1.577   3.087 -0.2816 -0.1953 -0.6184
 1747SOL     OW16876   2.635   3.012   3.128 -0.8279  0.2052  0.3288
 1747SOL    HW116877   2.640   2.922   3.095 -1.0653  0.0025  0.8501
 1747SOL    HW216878   2.669   3.058   3.051  0.3850 -1.5263 -0.1621
 1748SOL     OW16879   0.972   2.521   0.589 -0.0687  0.0831 -0.2743
 1748SOL    HW116880   0.916   2.443   0.593  0.0084 -0.0394 -1.6501
 1748SOL    HW216881   1.060   2.483   0.588  0.0593  0.4074 -1.2200
 1749SOL     OW16882   2.639   2.748   8.198  0.3910 -0.0953  0.2145
 1749SOL    HW116883   2.548   2.741   8.168  0.0788 -2.8438  1.8228
 1749SOL    HW216884   2.644   2.679   8.264 -0.6447  0.8061  1.2262
 1750SOL     OW16885   0.430   0.206  16.577 -0.5151 -0.1689 -0.6403
 1750SOL    HW116886   0.410   0.155  16.656  1.1523 -1.3573 -0.9809
 1750SOL    HW216887   0.452   0.292  16.611  0.5982 -1.6360  2.3123
 1751SOL     OW16888   2.365   4.395   4.978  0.0656  0.1921 -0.3992
 1751SOL    HW116889   2.337   4.407   4.887  0.1397 -0.2814 -0.4853
 1751SOL    HW216890   2.308   4.451   5.031  0.7441 -1.0286  1.5967
 1752SOL     OW16891   3.477   4.472   7.974  0.4931 -0.1601 -0.3816
 1752SOL    HW116892   3.453   4.480   8.066 -0.9602  0.7864 -0.8404
 1752SOL    HW216893   3.539   4.399   7.980  0.2002 -0.4303 -0.6169
 1753SOL     OW16894   3.734   2.836   3.003 -0.1698 -0.7803 -0.2114
 1753SOL    HW116895   3.761   2.859   2.915 -0.3177  1.1413  0.2604
 1753SOL    HW216896   3.670   2.902   3.028 -0.3637 -0.3957 -1.7435
 1754SOL     OW16897   3.784   2.938   8.741 -0.1971 -0.2369  0.2287
 1754SOL    HW116898   3.783   3.008   8.675  1.9273  2.1488  2.7452
 1754SOL    HW216899   3.845   2.872   8.709  1.4930  2.6216 -2.4157
 1755SOL     OW16900   1.679   2.510  10.129  0.0198 -0.5256 -0.2854
 1755SOL    HW116901   1.603   2.454  10.111  1.0628 -1.1666 -2.6613
 1755SOL    HW216902   1.714   2.512  10.040  2.1664 -1.5923  0.5449
 1756SOL     OW16903   2.666   0.044   6.601  0.7456  0.3107 -0.0453
 1756SOL    HW116904   2.665   0.072   6.693  0.6204 -0.3659  0.1593
 1756SOL    HW216905   2.578   0.073   6.579 -0.2140 -1.6463  1.1922
 1757SOL     OW16906   1.193   1.362   4.572  0.0175  0.6009  0.3995
 1757SOL    HW116907   1.194   1.454   4.598 -2.7998  0.9225 -0.6686
 1757SOL    HW216908   1.221   1.312   4.649 -0.0361  0.9336  0.6305
 1758SOL     OW16909   2.570   1.729   2.254 -0.5498  0.9615 -0.1532
 1758SOL    HW116910   2.579   1.634   2.253  0.0237  1.0013  1.1748
 1758SOL    HW216911   2.647   1.772   2.218 -1.8240  0.7077 -3.1737
 1759SOL     OW16912   4.041   1.501   0.088 -0.4813 -0.4860 -0.2737
 1759SOL    HW116913   4.022   1.436   0.157  0.7128  0.0967  0.5944
 1759SOL    HW216914   4.053   1.580   0.142 -0.8376 -0.2045 -0.6089
 1760SOL     OW16915   0.898   3.748  15.881  0.3936  0.7037 -0.5670
 1760SOL    HW116916   0.857   3.723  15.964  0.7013 -0.3868 -0.7306
 1760SOL    HW216917   0.987   3.718  15.904 -0.3350  0.0794  1.4954
 1761SOL     OW16918   2.018   3.173   8.297  0.2323 -0.0244  0.1381
 1761SOL    HW116919   2.068   3.110   8.246  0.7437 -0.1082  0.7385
 1761SOL    HW216920   1.929   3.138   8.288  1.0848 -2.3778  0.9110
 1762SOL     OW16921   1.505   0.165   7.786 -0.3312 -0.3072  0.8140
 1762SOL    HW116922   1.499   0.211   7.870  1.8919  1.6545 -0.0972
 1762SOL    HW216923   1.586   0.210   7.764  0.3558 -1.3122  1.2590
 1763SOL     OW16924   3.401   3.662  15.636 -0.0838  0.4924  0.1341
 1763SOL    HW116925   3.482   3.621  15.607  0.7028  1.4547  0.9275
 1763SOL    HW216926   3.396   3.739  15.580  0.2326  0.7695  0.4861
 1764SOL     OW16927   4.517   0.458   6.630  0.1213  0.1973 -0.2456
 1764SOL    HW116928   4.572   0.385   6.660 -0.4240 -0.0220  0.2071
 1764SOL    HW216929   4.456   0.461   6.703  0.7003  5.1919 -0.0039
 1765SOL     OW16930   0.190   2.453  11.205 -0.1236  0.0049  0.3007
 1765SOL    HW116931   0.278   2.461  11.166 -0.0760  1.2320  0.6472
 1765SOL    HW216932   0.176   2.359  11.210 -0.7424  0.0432 -0.7337
 1766SOL     OW16933   2.065   2.910   4.385 -0.5156  0.0942 -0.1596
 1766SOL    HW116934   2.081   2.892   4.292  1.5651 -0.3547  0.2806
 1766SOL    HW216935   1.972   2.887   4.385 -0.9522  1.8748  1.7900
 1767SOL     OW16936   1.794   3.997   3.956 -0.9917  0.1363 -0.4247
 1767SOL    HW116937   1.831   3.946   3.884  2.3042  0.7123  0.8355
 1767SOL    HW216938   1.765   4.066   3.896 -2.2659 -0.5990 -0.6450
 1768SOL     OW16939   3.441   0.596   1.730 -0.3933 -0.7371 -0.1943
 1768SOL    HW116940   3.409   0.589   1.820  2.9034  0.3081  1.0867
 1768SOL    HW216941   3.394   0.665   1.684 -0.7382 -0.6533  0.2795
 1769SOL     OW16942   1.469   1.076   2.243  0.0863  0.1803 -0.6482
 1769SOL    HW116943   1.380   1.062   2.276  0.3002 -1.0636 -0.5996
 1769SOL    HW216944   1.453   1.062   2.150  3.0200 -1.2764 -0.9135
 1770SOL     OW16945   1.628   3.779  10.035  0.0352 -0.1439  0.5836
 1770SOL    HW116946   1.574   3.758   9.959  2.0823 -0.9804 -0.6525
 1770SOL    HW216947   1.591   3.741  10.115 -2.0709  1.1228  0.2001
 1771SOL     OW16948   2.070   2.835   4.090 -0.1686 -0.5922 -0.7859
 1771SOL    HW116949   2.103   2.748   4.109  2.1901  0.1643 -1.4843
 1771SOL    HW216950   2.036   2.818   4.002 -3.5454  1.4405  0.0990
 1772SOL     OW16951   4.663   2.895   7.257 -0.2453 -0.2567 -0.0046
 1772SOL    HW116952   4.607   2.972   7.248 -0.1135  0.1162  2.2932
 1772SOL    HW216953   4.664   2.897   7.353 -2.3098 -3.3589  0.0825
 1773SOL     OW16954   3.196   1.424   3.831 -0.4163 -0.2288 -0.0105
 1773SOL    HW116955   3.287   1.426   3.802 -0.1259  1.1391  1.0335
 1773SOL    HW216956   3.168   1.513   3.809  1.0354  1.4046  4.8203
 1774SOL     OW16957   1.514   1.349   7.088  0.6341 -0.5565 -0.3754
 1774SOL    HW116958   1.578   1.388   7.148  1.5737 -0.5900 -1.3499
 1774SOL    HW216959   1.570   1.352   7.010  0.0361 -1.7462 -0.8503
 1775SOL     OW16960   3.264   0.504  14.800  0.2310  0.6787 -0.0920
 1775SOL    HW116961   3.310   0.421  14.808  2.1247  1.6007 -1.4822
 1775SOL    HW216962   3.286   0.547  14.883 -1.1906 -0.0346  0.6535
 1776SOL     OW16963   1.673   4.321  11.990  0.5810 -0.4704 -0.2997
 1776SOL    HW116964   1.683   4.282  12.077  1.5028  3.1222  1.1873
 1776SOL    HW216965   1.591   4.369  12.006  0.1767 -1.1591 -0.3133
 1777SOL     OW16966   3.959   4.734   3.278  0.1772 -0.1617 -0.1052
 1777SOL    HW116967   3.979   4.642   3.292 -0.4545 -0.1864  0.6596
 1777SOL    HW216968   3.921   0.020   3.363 -1.0047  1.4016 -1.0843
 1778SOL     OW16969   0.779   1.750   1.014  0.2055  0.3177  0.6917
 1778SOL    HW116970   0.840   1.676   1.012  0.3938  0.4872  0.1185
 1778SOL    HW216971   0.703   1.708   0.974  1.3200  0.8898 -2.0069
 1779SOL     OW16972   3.952   4.129   7.670  0.4641  0.4368  0.2370
 1779SOL    HW116973   4.032   4.083   7.644  0.5938  1.5028 -1.2449
 1779SOL    HW216974   3.979   4.149   7.759  1.4187  0.0213  0.0432
 1780SOL     OW16975   2.799   0.825   8.612 -0.3153 -0.1246 -0.4252
 1780SOL    HW116976   2.754   0.742   8.622  0.1755 -0.3017  0.2645
 1780SOL    HW216977   2.872   0.772   8.580 -0.8396 -0.6854 -0.6926
 1781SOL     OW16978   2.440   2.034   3.653  0.1684 -0.1164  0.4803
 1781SOL    HW116979   2.514   2.071   3.604 -0.9213  2.5524  0.8552
 1781SOL    HW216980   2.424   2.100   3.720 -2.2323  0.5631 -0.7674
 1782SOL     OW16981   2.133   3.187   2.853  0.8489 -0.1561  0.0185
 1782SOL    HW116982   2.213   3.167   2.902  0.0643 -0.8209  1.0465
 1782SOL    HW216983   2.167   3.200   2.765 -0.2900  0.2384 -0.3624
 1783SOL     OW16984   2.353   2.217   4.476  0.1658 -0.2464 -0.1133
 1783SOL    HW116985   2.266   2.201   4.439  0.4170 -0.7703 -0.4853
 1783SOL    HW216986   2.340   2.295   4.530  0.7159 -0.7095  0.6950
 1784SOL     OW16987   0.508   2.631  11.715  0.4586 -0.1913 -0.2867
 1784SOL    HW116988   0.510   2.589  11.629 -1.4803  0.0672 -0.4611
 1784SOL    HW216989   0.487   2.560  11.776 -0.6404 -0.2410 -0.7186
 1785SOL     OW16990   1.346   3.983   0.875  0.8396  0.5361  0.2733
 1785SOL    HW116991   1.437   4.003   0.850  0.4775  2.4373  0.4725
 1785SOL    HW216992   1.301   3.989   0.790  0.8824  1.9310  0.3467
 1786SOL     OW16993   1.989   1.804   3.870 -0.2612  0.1766  0.1041
 1786SOL    HW116994   1.981   1.778   3.961 -0.7293 -1.3280 -0.3575
 1786SOL    HW216995   2.054   1.742   3.836  1.8013  3.5726 -2.1468
 1787SOL     OW16996   0.759   2.934   2.605 -0.2478 -0.5123  0.0138
 1787SOL    HW116997   0.695   2.899   2.543  0.0598 -1.5807  0.3089
 1787SOL    HW216998   0.708   3.001   2.651  1.7923  0.6672  0.5607
 1788SOL     OW16999   1.502   3.523   3.778 -0.1906  0.9178  0.3048
 1788SOL    HW117000   1.571   3.532   3.711  1.3721 -1.4049  1.6065
 1788SOL    HW217001   1.429   3.520   3.715 -0.6448 -0.0365  0.8799
 1789SOL     OW17002   1.941   1.616   7.887 -0.2699  0.0929 -0.0678
 1789SOL    HW117003   1.925   1.710   7.879 -0.4550 -0.0401 -1.3504
 1789SOL    HW217004   1.961   1.599   7.979 -0.5083  0.0167 -0.0285
 1790SOL     OW17005   1.828   3.379   8.949  0.1999  0.2440 -0.6562
 1790SOL    HW117006   1.765   3.422   8.892 -0.1593 -0.5724 -0.8642
 1790SOL    HW217007   1.876   3.453   8.987 -2.1307  0.8138  1.1564
 1791SOL     OW17008   0.942   4.267  17.445 -0.2496  0.0255 -0.3931
 1791SOL    HW117009   0.980   4.252  17.531 -0.1447 -0.7266 -0.5723
 1791SOL    HW217010   0.864   4.319  17.468 -0.4254 -2.0101  3.5176
 1792SOL     OW17011   1.964   1.409   3.056  0.4169  0.7243 -0.3975
 1792SOL    HW117012   1.933   1.495   3.028  0.6818  1.0389  0.2698
 1792SOL    HW217013   2.054   1.403   3.023  0.9016 -1.2640  1.2800
 1793SOL     OW17014   3.127   1.680   2.908 -0.2263 -0.4272 -0.1602
 1793SOL    HW117015   3.206   1.627   2.913 -0.2200 -0.2837  1.1972
 1793SOL    HW217016   3.076   1.637   2.977  0.2263  0.5266  0.7486
 1794SOL     OW17017   0.110   2.576   3.529 -0.2271 -0.8886 -0.1521
 1794SOL    HW117018   0.024   2.546   3.557 -0.5072  0.9356  0.9409
 1794SOL    HW217019   0.094   2.669   3.514 -0.7152 -0.6792  1.6936
 1795SOL     OW17020   0.924   4.519   2.369 -0.0073  0.2708  0.2000
 1795SOL    HW117021   0.918   4.599   2.318 -2.6414 -0.6796 -0.9645
 1795SOL    HW217022   0.843   4.474   2.347  1.7084 -3.5741  1.7046
 1796SOL     OW17023   1.760   3.805   5.963  0.2690 -0.3099  0.3735
 1796SOL    HW117024   1.728   3.835   6.049 -0.7530  1.0899 -0.5043
 1796SOL    HW217025   1.692   3.827   5.900  3.4836  1.1514 -2.5611
 1797SOL     OW17026   0.289   2.530   6.815 -0.5730 -0.0998  0.1284
 1797SOL    HW117027   0.312   2.445   6.852 -2.4565 -1.2354 -1.2670
 1797SOL    HW217028   0.361   2.590   6.835 -1.5262  1.2279 -0.4092
 1798SOL     OW17029   4.641   0.374  17.278  0.4641 -0.4886 -0.1601
 1798SOL    HW117030   4.598   0.328  17.350  2.7958 -2.7519 -0.2144
 1798SOL    HW217031   4.676   0.448  17.327 -2.8303 -0.7050  2.5277
 1799SOL     OW17032   4.417   4.127  11.267  0.3025  0.4507  0.3241
 1799SOL    HW117033   4.370   4.191  11.214  1.8718  2.1423  0.9631
 1799SOL    HW217034   4.420   4.051  11.209 -1.0420 -1.0453  2.1808
 1800SOL     OW17035   4.180   1.945   3.775 -0.1429 -0.5082  0.3827
 1800SOL    HW117036   4.240   1.986   3.712  0.9833 -0.2530  1.6170
 1800SOL    HW217037   4.238   1.926   3.849  1.9434  1.2695 -0.7704
 1801SOL     OW17038   2.224   3.418   7.120 -0.1437  0.6842  0.9846
 1801SOL    HW117039   2.167   3.493   7.102 -1.9332 -0.5885  1.3241
 1801SOL    HW217040   2.161   3.346   7.117 -0.2417  0.7820  0.7247
 1802SOL     OW17041   1.688   3.512  11.977 -0.0453 -0.6651 -0.1615
 1802SOL    HW117042   1.629   3.525  12.051  0.3335 -2.2388  0.4345
 1802SOL    HW217043   1.633   3.556  11.913  0.2403 -4.1366 -2.7644
 1803SOL     OW17044   2.845   1.263   1.893  0.1612  0.3589  0.5953
 1803SOL    HW117045   2.827   1.357   1.896 -3.7059 -0.3362 -1.4522
 1803SOL    HW217046   2.778   1.229   1.952  0.5007 -1.3493 -0.0235
 1804SOL     OW17047   1.458   3.879   4.692  0.3992  0.0111 -0.2513
 1804SOL    HW117048   1.475   3.951   4.631  0.5794 -1.5419 -2.0290
 1804SOL    HW217049   1.464   3.922   4.777  0.4975 -0.4468 -0.0289
 1805SOL     OW17050   2.080   3.717  10.860 -0.1342  0.5422  0.1539
 1805SOL    HW117051   2.114   3.769  10.933  0.6111  0.1489  0.0811
 1805SOL    HW217052   2.139   3.641  10.863 -0.5401  0.1841 -0.8842
 1806SOL     OW17053   0.073   3.469   3.128 -0.2176  0.4732 -0.2942
 1806SOL    HW117054   4.723   3.470   3.162  0.2962 -2.6439  1.1001
 1806SOL    HW217055   0.063   3.379   3.099 -0.1789  0.5949 -0.6948
 1807SOL     OW17056   1.950   1.178  11.879  0.2545  0.5510 -0.6291
 1807SOL    HW117057   1.976   1.228  11.956  2.5042  0.6404 -1.4409
 1807SOL    HW217058   1.937   1.085  11.901 -0.1918  0.4878 -1.1580
 1808SOL     OW17059   0.509   4.671   4.940  0.4151 -0.4403  0.4666
 1808SOL    HW117060   0.551   4.656   5.025 -0.0733  0.0124  0.7994
 1808SOL    HW217061   0.421   4.703   4.964  0.7820  1.9987 -1.5437
 1809SOL     OW17062   1.116   3.659   6.596  0.1689  0.2237  0.3763
 1809SOL    HW117063   1.056   3.734   6.598  0.9306  0.8594 -0.6673
 1809SOL    HW217064   1.081   3.611   6.521 -1.4232 -0.1276  1.3283
 1810SOL     OW17065   1.644   3.408  15.378  0.2662  0.2475 -0.3347
 1810SOL    HW117066   1.701   3.446  15.445 -2.2234  2.2484  0.6389
 1810SOL    HW217067   1.681   3.320  15.373  0.6273  0.4011 -0.3274
 1811SOL     OW17068   4.355   1.032   5.041  0.0011 -0.0287  0.5034
 1811SOL    HW117069   4.290   0.984   5.093 -0.5300 -1.0643 -1.1308
 1811SOL    HW217070   4.295   1.057   4.971  1.5980  3.8910  0.5193
 1812SOL     OW17071   0.727   3.568  10.823 -0.0682 -0.4625  0.6557
 1812SOL    HW117072   0.725   3.636  10.890 -1.4855  2.0021 -1.9167
 1812SOL    HW217073   0.635   3.555  10.801  0.7568  0.3115 -3.2289
 1813SOL     OW17074   1.594   2.928  15.367 -0.2949 -0.0629 -0.3060
 1813SOL    HW117075   1.586   2.836  15.391 -0.1501  0.2937  1.0932
 1813SOL    HW217076   1.675   2.958  15.409  1.3036 -1.8667 -2.0437
 1814SOL     OW17077   2.369   0.968   6.872 -0.5012 -0.8691  0.4129
 1814SOL    HW117078   2.361   1.019   6.791  2.7823 -0.2370  0.4734
 1814SOL    HW217079   2.280   0.933   6.871 -1.6298  2.0250 -0.2323
 1815SOL     OW17080   3.045   0.780   9.471  0.2469 -0.3113 -0.0134
 1815SOL    HW117081   3.087   0.703   9.430 -0.3008 -1.7430  2.1562
 1815SOL    HW217082   2.954   0.764   9.448  0.7606  0.2537 -2.4715
 1816SOL     OW17083   2.577   3.076   4.266  0.0543  0.4953 -0.0308
 1816SOL    HW117084   2.566   3.050   4.175  0.5814 -2.9391  0.8740
 1816SOL    HW217085   2.498   3.044   4.309 -1.0507  3.1738 -0.0970
 1817SOL     OW17086   2.083   1.132   4.474  0.0581  0.1140  0.5494
 1817SOL    HW117087   2.050   1.207   4.424  0.3463  0.3459  0.7092
 1817SOL    HW217088   2.169   1.104   4.442  0.4848  2.1669 -0.1058
 1818SOL     OW17089   2.628   2.192   2.199  0.0902  0.3680  0.3086
 1818SOL    HW117090   2.675   2.139   2.134  1.5059  4.6696 -2.1934
 1818SOL    HW217091   2.543   2.150   2.212  0.3499 -0.0087  0.7915
 1819SOL     OW17092   0.182   3.821   7.902 -0.2671  1.3019 -0.4263
 1819SOL    HW117093   0.234   3.879   7.847 -1.4958  0.3585 -2.5515
 1819SOL    HW217094   0.236   3.745   7.879 -2.4792 -0.5654  0.4966
 1820SOL     OW17095   0.894   2.889   7.867 -0.0611  0.2899  0.4313
 1820SOL    HW117096   0.935   2.945   7.801  0.3620  0.4490  0.8390
 1820SOL    HW217097   0.834   2.838   7.813  0.1190  0.6905 -0.1469
 1821SOL     OW17098   0.766   1.514   1.293 -0.4143  0.2768  0.3763
 1821SOL    HW117099   0.761   1.503   1.198  0.7090  0.9882  0.2398
 1821SOL    HW217100   0.752   1.426   1.327 -1.9953  0.2282 -0.3955
 1822SOL     OW17101   0.132   1.548  12.758 -0.3423 -0.6430  0.3692
 1822SOL    HW117102   0.103   1.458  12.774 -0.3637 -0.8558 -0.9104
 1822SOL    HW217103   0.205   1.552  12.819 -0.4273 -1.8338  0.5613
 1823SOL     OW17104   3.828   2.363   2.238  0.2737 -0.3040  0.0587
 1823SOL    HW117105   3.737   2.359   2.268 -0.5293  4.7400 -1.7744
 1823SOL    HW217106   3.826   2.427   2.166 -0.6586  0.2658  0.5969
 1824SOL     OW17107   2.452   2.184  12.463  0.4163 -0.2317  0.0039
 1824SOL    HW117108   2.431   2.116  12.399  0.0119 -0.5634  0.4864
 1824SOL    HW217109   2.384   2.180  12.531  0.1854  1.4588 -0.1208
 1825SOL     OW17110   3.904   3.774  14.876  0.2918  0.3744 -0.1896
 1825SOL    HW117111   3.879   3.866  14.886  1.1185  0.5387  0.2987
 1825SOL    HW217112   3.821   3.745  14.837  0.1154 -1.1781  1.3042
 1826SOL     OW17113   0.077   4.516   5.803  0.4301 -0.4889 -0.3620
 1826SOL    HW117114   0.069   4.611   5.799  2.1361 -0.4707 -3.2688
 1826SOL    HW217115   0.009   4.486   5.742 -0.3961  0.9950 -0.1774
 1827SOL     OW17116   1.055   2.747  14.695  0.1566 -0.1479 -0.0561
 1827SOL    HW117117   1.094   2.672  14.650 -0.1198 -0.6392  0.5314
 1827SOL    HW217118   0.959   2.737  14.689 -0.0707  1.0571  1.6667
 1828SOL     OW17119   1.360   3.937  13.295  0.5671 -0.4273 -0.8439
 1828SOL    HW117120   1.291   3.883  13.256  1.1563  0.8905 -3.7466
 1828SOL    HW217121   1.312   3.996  13.353 -0.1041  0.0480 -1.8710
 1829SOL     OW17122   2.350   2.433  10.134  0.0245 -0.4146 -0.0229
 1829SOL    HW117123   2.417   2.476  10.188 -1.6308  0.0398  1.6787
 1829SOL    HW217124   2.339   2.501  10.068  2.5382  0.4771  0.4664
 1830SOL     OW17125   3.469   2.695   9.620 -0.3760 -0.3883  0.3724
 1830SOL    HW117126   3.375   2.712   9.620 -0.2337  0.4260  1.4009
 1830SOL    HW217127   3.481   2.608   9.583 -0.8729 -0.6916  0.9289
 1831SOL     OW17128   1.659   3.815   0.951 -0.0085  0.4477  0.7765
 1831SOL    HW117129   1.652   3.897   0.903  0.4408 -0.1184 -0.2535
 1831SOL    HW217130   1.753   3.799   0.953 -0.0503  0.0548 -0.3702
 1832SOL     OW17131   3.234   0.068   7.400  0.3288 -0.1395  0.4252
 1832SOL    HW117132   3.166   0.028   7.455 -0.8616 -0.1711 -1.0789
 1832SOL    HW217133   3.251   0.153   7.441  2.3751 -1.0704  1.5274
 1833SOL     OW17134   4.049   2.928  10.543 -0.6659  0.1469  0.5828
 1833SOL    HW117135   4.129   2.915  10.492 -0.4476  0.6519  0.7963
 1833SOL    HW217136   3.989   2.867  10.500 -2.1337  2.2454 -0.3216
 1834SOL     OW17137   1.348   0.703   0.838 -0.1231  0.1196 -0.3311
 1834SOL    HW117138   1.398   0.772   0.794 -0.8169  1.2813  0.6887
 1834SOL    HW217139   1.386   0.710   0.926 -0.3608  0.4064 -0.2520
 1835SOL     OW17140   0.651   4.188   1.247  0.1436  0.0721 -0.0909
 1835SOL    HW117141   0.619   4.254   1.308  0.6810 -1.9204  2.3843
 1835SOL    HW217142   0.578   4.126   1.246 -1.2818  1.6839  2.5408
 1836SOL     OW17143   3.451   3.761  13.224 -0.0602  0.3086 -0.1287
 1836SOL    HW117144   3.483   3.731  13.139 -2.7941  0.8915 -1.3563
 1836SOL    HW217145   3.490   3.848  13.219 -1.0812  0.6437 -1.9656
 1837SOL     OW17146   1.695   0.524   5.112  0.5274 -0.0807  0.1627
 1837SOL    HW117147   1.603   0.502   5.099  0.3316 -0.1113  1.6829
 1837SOL    HW217148   1.718   0.471   5.188 -2.5556 -0.4894  0.8027
 1838SOL     OW17149   3.354   2.317   7.070 -0.7546  0.1206  0.0243
 1838SOL    HW117150   3.292   2.382   7.036 -0.9834 -0.3390 -0.4395
 1838SOL    HW217151   3.328   2.248   7.009  0.9809  0.4642 -1.1163
 1839SOL     OW17152   1.285   3.449   5.852  0.7461 -0.0626  0.0594
 1839SOL    HW117153   1.329   3.443   5.937  0.1150  1.2095  0.4786
 1839SOL    HW217154   1.315   3.530   5.812 -1.4661  1.1324  0.8027
 1840SOL     OW17155   2.788   2.059   1.690 -0.1758 -0.7021  0.5581
 1840SOL    HW117156   2.825   1.972   1.701 -0.6240 -0.9885 -0.2362
 1840SOL    HW217157   2.859   2.116   1.720  0.9743 -2.9079  2.0340
 1841SOL     OW17158   1.514   3.130   9.292  0.5188  0.2882 -0.2297
 1841SOL    HW117159   1.540   3.192   9.360 -1.4019  0.3292  0.4612
 1841SOL    HW217160   1.433   3.167   9.258  0.3267  0.1674  0.0947
 1842SOL     OW17161   2.601   4.034   5.750 -0.3238 -0.6038  0.5602
 1842SOL    HW117162   2.666   4.084   5.700 -0.4331 -0.5991  0.4228
 1842SOL    HW217163   2.646   3.988   5.821  0.9755 -1.3609 -0.7617
 1843SOL     OW17164   2.850   0.338   9.023 -0.3671 -0.1856  0.3844
 1843SOL    HW117165   2.778   0.375   9.075  0.4354 -1.2929  2.2808
 1843SOL    HW217166   2.860   0.249   9.057 -1.1778 -0.5581 -0.3721
 1844SOL     OW17167   3.597   4.646   5.908  0.1903  0.2316  0.2676
 1844SOL    HW117168   3.585   4.555   5.883  0.6174 -0.0365  1.0205
 1844SOL    HW217169   3.529   4.663   5.974  0.2657 -0.4271  0.5129
 1845SOL     OW17170   0.304   2.150  13.381  0.0717 -0.3265 -0.1753
 1845SOL    HW117171   0.265   2.218  13.436 -0.2660  1.1269 -2.2276
 1845SOL    HW217172   0.294   2.179  13.290  0.7223  1.4719  0.3271
 1846SOL     OW17173   3.279   3.349   7.588 -0.3868 -0.5544  0.2651
 1846SOL    HW117174   3.326   3.272   7.555 -1.9588 -2.0749  1.5900
 1846SOL    HW217175   3.218   3.358   7.514  0.2781  0.2451 -0.1812
 1847SOL     OW17176   0.302   2.492   8.268 -0.6369 -0.5145 -0.1303
 1847SOL    HW117177   0.282   2.407   8.308  0.9770 -0.7801  0.1414
 1847SOL    HW217178   0.233   2.556   8.285  0.2231  0.3398  0.1130
 1848SOL     OW17179   0.916   2.599   5.553  0.0741  0.2602  0.0585
 1848SOL    HW117180   0.910   2.588   5.458 -0.7578 -1.7372  0.3486
 1848SOL    HW217181   0.829   2.636   5.565 -0.8193 -0.9531 -2.6137
 1849SOL     OW17182   1.333   0.954   6.487 -1.0777  0.4700  0.0248
 1849SOL    HW117183   1.350   1.048   6.482  2.8291 -0.2321  0.4490
 1849SOL    HW217184   1.349   0.932   6.579 -0.1774 -0.4887 -0.3590
 1850SOL     OW17185   0.447   0.477   1.982 -0.3759  0.1926  0.3862
 1850SOL    HW117186   0.516   0.502   2.043  1.4251  0.9542 -1.9488
 1850SOL    HW217187   0.424   0.391   2.017 -0.0547  0.9783  2.5449
 1851SOL     OW17188   2.973   3.344   8.322  0.0952  0.1529  0.1001
 1851SOL    HW117189   3.043   3.280   8.334  0.5145  0.6775  0.4339
 1851SOL    HW217190   3.019   3.426   8.303  1.0972 -0.2363  0.8252
 1852SOL     OW17191   0.580   3.854  13.767 -0.2863 -0.1355  0.1363
 1852SOL    HW117192   0.618   3.772  13.733  1.1977 -0.1633  1.8962
 1852SOL    HW217193   0.648   3.877  13.830  0.4627 -2.1485  0.0629
 1853SOL     OW17194   3.532   4.305  15.106  0.6224 -0.1875  0.2065
 1853SOL    HW117195   3.519   4.395  15.075 -0.2324 -0.0323  1.0081
 1853SOL    HW217196   3.467   4.267  15.048 -1.1151  2.3072  0.5007
 1854SOL     OW17197   0.559   0.178   4.462 -0.4904 -0.6728 -0.5103
 1854SOL    HW117198   0.530   0.269   4.470 -1.5127 -0.7485 -3.6032
 1854SOL    HW217199   0.591   0.187   4.372 -1.5173 -0.6622 -0.8736
 1855SOL     OW17200   4.645   3.967   6.601  0.2603  0.5594  0.0058
 1855SOL    HW117201   4.626   4.060   6.590  0.2200  0.4960 -0.4392
 1855SOL    HW217202   4.670   3.970   6.694  0.7694  1.0463 -0.1481
 1856SOL     OW17203   1.941   2.417  12.720 -0.4988 -0.3456  0.7335
 1856SOL    HW117204   2.008   2.389  12.783  1.9275 -0.7290 -2.0556
 1856SOL    HW217205   1.948   2.513  12.722 -0.7134 -0.2827 -1.9847
 1857SOL     OW17206   0.502   3.491   4.992  0.6667  0.4025 -0.1220
 1857SOL    HW117207   0.510   3.502   4.898  1.0499 -0.4060 -0.1878
 1857SOL    HW217208   0.553   3.562   5.031  0.2645  1.0403 -0.7694
 1858SOL     OW17209   3.495   1.667   1.852  0.3565  0.5183  0.1557
 1858SOL    HW117210   3.405   1.647   1.878  0.7383  1.3598  2.0654
 1858SOL    HW217211   3.540   1.651   1.934  0.5953  2.2562  0.3609
 1859SOL     OW17212   1.632   3.682   4.545  0.3291  0.6334 -0.1685
 1859SOL    HW117213   1.669   3.713   4.462  1.3210 -2.0671 -0.7120
 1859SOL    HW217214   1.539   3.694   4.526  0.5277  2.8288  0.2063
 1860SOL     OW17215   3.462   1.143   1.897 -0.0947 -0.4448 -0.2121
 1860SOL    HW117216   3.498   1.187   1.974 -1.1014 -2.6040  1.5069
 1860SOL    HW217217   3.388   1.101   1.941 -1.0033  0.9719 -0.4103
 1861SOL     OW17218   0.989   1.250  17.148 -0.2896  0.0475  0.2144
 1861SOL    HW117219   1.013   1.288  17.233  2.9338  1.2968 -1.2732
 1861SOL    HW217220   0.894   1.256  17.141  0.0827  2.1585 -2.7642
 1862SOL     OW17221   3.363   2.377   2.007 -0.1883  0.0994 -0.1567
 1862SOL    HW117222   3.323   2.307   1.956 -1.0911  0.7371 -0.3417
 1862SOL    HW217223   3.290   2.438   2.020 -0.9481 -0.8792  0.1531
 1863SOL     OW17224   1.194   2.383   5.548 -0.0938 -0.2019 -0.1922
 1863SOL    HW117225   1.272   2.415   5.594 -0.7887  1.6517 -0.2816
 1863SOL    HW217226   1.126   2.443   5.579 -2.4400 -1.9617 -1.9903
 1864SOL     OW17227   1.850   0.656  14.101 -0.0497 -0.1181  0.5806
 1864SOL    HW117228   1.836   0.643  14.007  1.0929 -0.0982  0.4166
 1864SOL    HW217229   1.883   0.570  14.127  0.1300 -0.0929  0.4330
 1865SOL     OW17230   3.989   3.783  14.205  0.0230  1.1762 -0.1937
 1865SOL    HW117231   3.900   3.747  14.215  0.8651 -0.9041 -0.2390
 1865SOL    HW217232   4.002   3.817  14.294  1.3618  0.1070  0.0174
 1866SOL     OW17233   3.649   0.788   3.460  0.6259  0.0730 -0.0549
 1866SOL    HW117234   3.615   0.704   3.428  2.4655 -0.9459  0.6926
 1866SOL    HW217235   3.713   0.754   3.523 -0.1243  0.4847  0.9277
 1867SOL     OW17236   2.442   0.424   4.131  0.5378 -0.4418 -0.3441
 1867SOL    HW117237   2.350   0.412   4.154  0.2337  2.5761  0.1050
 1867SOL    HW217238   2.440   0.384   4.044 -0.5773 -1.6266  0.2307
 1868SOL     OW17239   0.982   4.666   4.112  0.2954 -0.1401 -0.0291
 1868SOL    HW117240   0.934   4.719   4.048 -1.5926 -2.3216 -0.4108
 1868SOL    HW217241   1.054   4.639   4.055 -0.1065 -0.0835 -0.5661
 1869SOL     OW17242   0.698   4.336   2.036 -0.5078  0.0592 -0.3597
 1869SOL    HW117243   0.689   4.335   2.132 -0.4572  1.5346 -0.3405
 1869SOL    HW217244   0.793   4.329   2.042 -0.5678  0.4238  1.1733
 1870SOL     OW17245   0.293   1.779   8.472  0.5012  0.7740 -0.0450
 1870SOL    HW117246   0.207   1.780   8.514  0.6463 -0.1708  0.2734
 1870SOL    HW217247   0.341   1.728   8.538 -1.6689 -2.1292 -0.7078
 1871SOL     OW17248   3.210   1.869   8.594 -0.0593 -0.0301 -0.3920
 1871SOL    HW117249   3.186   1.956   8.563  0.0411  0.0569 -0.2272
 1871SOL    HW217250   3.299   1.876   8.560  0.3762 -2.3506  0.2343
 1872SOL     OW17251   1.823   0.567   5.709  0.1295 -0.0466  0.7374
 1872SOL    HW117252   1.784   0.580   5.623  0.3871  1.4153  0.8514
 1872SOL    HW217253   1.832   0.654   5.747  0.4259 -0.4569  1.6104
 1873SOL     OW17254   3.852   2.033   2.486  0.1754 -0.4149  0.9662
 1873SOL    HW117255   3.920   2.088   2.525 -0.6914  1.4318 -0.1112
 1873SOL    HW217256   3.778   2.074   2.531  0.7750 -0.1697  1.7356
 1874SOL     OW17257   0.867   1.498  16.303  0.2508  0.1172 -0.4940
 1874SOL    HW117258   0.875   1.429  16.369 -0.2347  1.8803  1.4144
 1874SOL    HW217259   0.777   1.484  16.273 -0.1918  1.8789  0.0060
 1875SOL     OW17260   1.699   2.193   6.091 -0.0487 -1.3504  0.1562
 1875SOL    HW117261   1.785   2.214   6.128 -0.1997 -0.4077 -0.0219
 1875SOL    HW217262   1.643   2.229   6.160  1.9343 -0.4794  1.3035
 1876SOL     OW17263   3.108   0.437  12.202  0.5375  0.1552  0.3491
 1876SOL    HW117264   3.113   0.409  12.111  3.4784 -1.1190  0.8999
 1876SOL    HW217265   3.033   0.497  12.202 -0.5717 -1.2279 -1.3716
 1877SOL     OW17266   3.367   3.991   2.867  0.2048 -0.4494  0.0023
 1877SOL    HW117267   3.391   3.935   2.941  0.1225 -1.0761 -0.4484
 1877SOL    HW217268   3.312   3.931   2.817  0.1317  0.6215 -1.2232
 1878SOL     OW17269   2.808   4.078   9.241 -0.9152  0.1020  0.0982
 1878SOL    HW117270   2.820   4.016   9.313 -0.6332 -0.0157 -0.0517
 1878SOL    HW217271   2.785   4.154   9.294 -1.1474 -1.6741  2.5664
 1879SOL     OW17272   3.242   0.484  14.315 -0.2503  0.1883  0.2936
 1879SOL    HW117273   3.173   0.438  14.269  1.6051 -2.7775  0.4436
 1879SOL    HW217274   3.188   0.549  14.360  0.3133 -0.0092  1.2856
 1880SOL     OW17275   3.074   3.054   8.803 -0.6978 -0.1227 -0.3209
 1880SOL    HW117276   3.107   3.124   8.860 -0.3764  0.2161 -0.9233
 1880SOL    HW217277   2.979   3.064   8.795 -0.6645 -1.4853 -2.4431
 1881SOL     OW17278   4.646   4.444  10.750 -0.8923 -0.1114  0.0443
 1881SOL    HW117279   4.597   4.458  10.831 -0.9663  0.9849 -0.1986
 1881SOL    HW217280   4.625   4.527  10.707 -1.8935 -0.4356 -0.1009
 1882SOL     OW17281   2.530   2.916  11.853  0.1340 -0.4235 -0.3135
 1882SOL    HW117282   2.572   2.904  11.768 -0.0437  1.6102 -0.6935
 1882SOL    HW217283   2.485   2.832  11.869  1.3926 -1.8379 -4.1908
 1883SOL     OW17284   2.461   0.290   7.229 -0.1141 -0.3334 -0.3813
 1883SOL    HW117285   2.388   0.350   7.218 -1.6936 -2.0570  0.6918
 1883SOL    HW217286   2.499   0.337   7.303 -0.7889  0.6365 -0.6566
 1884SOL     OW17287   3.649   3.245   2.701 -0.5679  0.3831 -0.2046
 1884SOL    HW117288   3.630   3.259   2.608 -1.1008  0.8030 -0.0323
 1884SOL    HW217289   3.662   3.337   2.721  1.0966  0.1059 -0.0726
 1885SOL     OW17290   2.510   2.480  15.268 -0.4524  0.1398  0.5011
 1885SOL    HW117291   2.509   2.478  15.172 -0.5092 -0.8246  0.5210
 1885SOL    HW217292   2.553   2.561  15.292 -1.9967  1.8298 -2.3721
 1886SOL     OW17293   1.978   0.030   2.367  0.0126  0.4722  0.4523
 1886SOL    HW117294   1.897   4.719   2.380  0.7900 -0.6249  1.1031
 1886SOL    HW217295   2.030   4.689   2.356  0.2746  0.1083  4.4513
 1887SOL     OW17296   3.970   2.671   2.516  0.0215  0.2841  0.2429
 1887SOL    HW117297   3.951   2.763   2.498 -0.2604  0.3389  0.8209
 1887SOL    HW217298   3.883   2.639   2.542  0.3669 -2.3330 -1.8303
 1888SOL     OW17299   0.445   0.682  12.600  0.6152 -0.0377 -0.1830
 1888SOL    HW117300   0.363   0.696  12.647  0.2695  0.2514 -0.8656
 1888SOL    HW217301   0.412   0.632  12.525  0.9718  0.9369 -0.9858
 1889SOL     OW17302   2.819   2.765   2.377 -0.2685 -0.0894 -0.3139
 1889SOL    HW117303   2.809   2.710   2.454  0.4203  0.2421  0.0100
 1889SOL    HW217304   2.729   2.781   2.351 -0.8993 -0.2091  1.8144
 1890SOL     OW17305   3.227   0.074   3.209 -0.4921 -0.1076  0.3253
 1890SOL    HW117306   3.153   0.129   3.232 -0.5808  0.0228 -0.2627
 1890SOL    HW217307   3.190   4.725   3.217 -2.9633  1.1450  2.3610
 1891SOL     OW17308   0.777   4.434   0.662  0.2154  0.0880 -0.1944
 1891SOL    HW117309   0.819   4.514   0.631  0.6308  0.1410  0.5190
 1891SOL    HW217310   0.822   4.406   0.741  0.8344  0.7286 -0.3226
 1892SOL     OW17311   3.580   3.812  14.047  0.3690 -0.0347  0.1888
 1892SOL    HW117312   3.597   3.895  14.091 -0.0411 -1.6982  3.5243
 1892SOL    HW217313   3.660   3.764  14.069  0.4529  0.9519  2.0220
 1893SOL     OW17314   4.195   1.579   9.073  0.5558 -0.6998 -0.7006
 1893SOL    HW117315   4.220   1.501   9.123 -0.1519  1.0561  2.4263
 1893SOL    HW217316   4.113   1.553   9.032  0.1808 -1.6035  0.6196
 1894SOL     OW17317   4.421   1.645   2.704  0.9370  0.6388 -0.4645
 1894SOL    HW117318   4.465   1.665   2.621  2.4665 -1.9045 -0.2519
 1894SOL    HW217319   4.477   1.580   2.746 -1.5227 -0.8976  0.4382
 1895SOL     OW17320   0.897   4.327   0.887 -0.5531  0.4094  0.6526
 1895SOL    HW117321   0.965   4.326   0.955 -0.1559 -2.3679  0.2288
 1895SOL    HW217322   0.834   4.379   0.938  0.1374  1.5901  0.2940
 1896SOL     OW17323   1.545   2.152   5.680  0.2500  0.4431  0.3806
 1896SOL    HW117324   1.578   2.092   5.747 -0.3670 -4.1857 -3.4893
 1896SOL    HW217325   1.621   2.159   5.623  0.2089  0.1236  0.2885
 1897SOL     OW17326   0.095   1.881   3.413  0.1399  0.2430  0.0043
 1897SOL    HW117327   0.023   1.895   3.351  0.2800 -0.4801 -0.3156
 1897SOL    HW217328   0.165   1.934   3.375  0.5056 -0.4540 -0.2962
 1898SOL     OW17329   0.452   4.008   8.185 -0.5230 -0.2919  0.6725
 1898SOL    HW117330   0.452   4.081   8.122 -0.2776 -1.1323 -0.2961
 1898SOL    HW217331   0.507   3.942   8.144 -0.8324  0.8859 -1.6691
 1899SOL     OW17332   4.244   1.200  10.461 -0.0562 -0.3645 -0.2588
 1899SOL    HW117333   4.172   1.187  10.400  1.4885 -0.1120 -2.1424
 1899SOL    HW217334   4.326   1.202  10.411  1.5693 -1.4890  2.2860
 1900SOL     OW17335   2.765   0.541   9.761 -0.2837 -0.4232 -0.2838
 1900SOL    HW117336   2.678   0.574   9.786 -0.0401  0.6434 -0.8397
 1900SOL    HW217337   2.788   0.511   9.849 -2.4948 -1.4460 -0.0416
 1901SOL     OW17338   1.186   3.087   8.391 -0.3063  0.8637 -0.1589
 1901SOL    HW117339   1.106   3.040   8.370 -0.0999  0.2865  0.3443
 1901SOL    HW217340   1.173   3.100   8.485  3.7318  1.7018  0.2781
 1902SOL     OW17341   4.321   1.597  13.754  0.0621 -0.0257  0.4065
 1902SOL    HW117342   4.285   1.683  13.777  0.6749 -0.0874  1.5914
 1902SOL    HW217343   4.372   1.622  13.677  2.8177 -0.3149  2.1649
 1903SOL     OW17344   1.703   2.979   5.997  0.4917 -0.5026  0.0340
 1903SOL    HW117345   1.723   3.069   5.972 -4.3981  0.8817  1.0448
 1903SOL    HW217346   1.614   2.991   6.030  0.3565 -0.6058 -0.2934
 1904SOL     OW17347   3.055   4.560   6.935  0.7169  0.2895  0.4988
 1904SOL    HW117348   2.961   4.571   6.917  0.9352  0.1862 -0.7287
 1904SOL    HW217349   3.085   4.503   6.864 -3.1860 -1.1305 -0.0413
 1905SOL     OW17350   0.700   4.377  17.500 -0.3080 -0.2664  0.3546
 1905SOL    HW117351   0.636   4.308  17.516 -2.0339  1.6369  1.7267
 1905SOL    HW217352   0.648   4.447  17.460  0.0103 -1.3557 -1.9678
 1906SOL     OW17353   1.759   1.119   8.893 -0.1458 -0.5396  0.2802
 1906SOL    HW117354   1.722   1.171   8.964 -0.1805  0.2589 -0.3177
 1906SOL    HW217355   1.854   1.121   8.905 -0.1226 -0.2104  0.0397
 1907SOL     OW17356   4.600   0.931   2.791 -0.7025  1.2553  0.3246
 1907SOL    HW117357   4.595   0.999   2.858 -2.3715  0.3728  1.0679
 1907SOL    HW217358   4.510   0.900   2.780  0.3517 -1.7063  0.1811
 1908SOL     OW17359   2.314   4.225   4.134 -0.1441 -0.4838 -0.4892
 1908SOL    HW117360   2.232   4.228   4.182 -1.1840  0.1552 -2.3122
 1908SOL    HW217361   2.331   4.318   4.121  1.0457 -0.7772 -1.0395
 1909SOL     OW17362   4.025   0.347   3.094 -0.1048  0.0804 -0.1175
 1909SOL    HW117363   4.090   0.302   3.040  0.5233  1.7615 -0.7659
 1909SOL    HW217364   4.048   0.439   3.078 -0.2610  0.1881  0.2843
 1910SOL     OW17365   4.489   1.308   7.210 -0.1256 -0.2126 -0.1454
 1910SOL    HW117366   4.424   1.373   7.237  0.6864  0.5499 -0.0326
 1910SOL    HW217367   4.448   1.229   7.244 -0.5398  1.0393  2.3396
 1911SOL     OW17368   1.576   2.169   8.221  0.3582  0.2886 -0.0700
 1911SOL    HW117369   1.489   2.202   8.239  0.9687  1.6584  0.3552
 1911SOL    HW217370   1.626   2.219   8.286 -1.2827  0.8148  0.7765
 1912SOL     OW17371   0.222   2.764   4.051 -0.0815  0.6120 -0.2396
 1912SOL    HW117372   0.247   2.692   3.994  0.0863  0.1793  0.3746
 1912SOL    HW217373   0.171   2.720   4.119  0.8421  1.0451  0.7518
 1913SOL     OW17374   4.668   1.504  17.580  0.3662  0.5487  0.2223
 1913SOL    HW117375   4.686   1.568  17.510 -1.6798 -0.3622 -1.1238
 1913SOL    HW217376   4.717   1.429  17.547 -0.0089 -0.2989  1.6364
 1914SOL     OW17377   3.543   3.592  11.913 -0.4513 -0.1359  0.2331
 1914SOL    HW117378   3.596   3.513  11.906 -0.1120  0.1569 -0.4252
 1914SOL    HW217379   3.466   3.562  11.963  0.2787 -0.5302  1.1193
 1915SOL     OW17380   4.135   0.792   0.519 -0.1758  0.3047 -0.6805
 1915SOL    HW117381   4.040   0.800   0.521  0.0357  2.4950  1.0803
 1915SOL    HW217382   4.171   0.811   0.606  0.1756  1.2955 -1.0486
 1916SOL     OW17383   3.619   3.520   2.680 -0.4171 -0.1187 -0.7632
 1916SOL    HW117384   3.596   3.523   2.773  2.3192  0.4195 -0.0956
 1916SOL    HW217385   3.577   3.598   2.642 -0.7774  0.0561 -0.0129
 1917SOL     OW17386   2.789   1.186   1.582  0.4833 -0.0483  0.3308
 1917SOL    HW117387   2.872   1.170   1.538  0.8011 -0.4184  1.0578
 1917SOL    HW217388   2.830   1.184   1.669  0.5398 -3.1651  0.2275
 1918SOL     OW17389   0.672   4.413   6.927 -0.1909 -0.3124  0.3636
 1918SOL    HW117390   0.740   4.424   6.861 -0.6126 -1.8806 -0.3126
 1918SOL    HW217391   0.630   4.499   6.926  1.4056  0.4886  1.8222
 1919SOL     OW17392   4.140   2.622  11.586  0.6280 -0.0812 -0.2019
 1919SOL    HW117393   4.067   2.675  11.618  0.4415 -0.4820  0.0394
 1919SOL    HW217394   4.090   2.556  11.537  0.2285  0.7134 -0.8662
 1920SOL     OW17395   0.408   4.129   8.871  0.1392  0.4291  0.1982
 1920SOL    HW117396   0.408   4.075   8.792  3.4436  0.6940  0.0201
 1920SOL    HW217397   0.497   4.111   8.901  0.3256 -0.0219 -0.6327
 1921SOL     OW17398   3.113   4.320   3.943 -0.0076 -0.3789 -0.1122
 1921SOL    HW117399   3.075   4.315   4.031  0.3371 -1.5087 -0.0329
 1921SOL    HW217400   3.198   4.278   3.959 -0.4400 -0.6731  1.4350
 1922SOL     OW17401   3.373   2.817   7.082  0.6815  0.1579  0.1567
 1922SOL    HW117402   3.433   2.753   7.120  0.9432 -0.0128 -0.5387
 1922SOL    HW217403   3.397   2.807   6.990  2.7223  1.5256  0.5450
 1923SOL     OW17404   2.085   0.878   5.062  0.4494  0.3039  0.1696
 1923SOL    HW117405   2.003   0.881   5.014  1.3392 -0.8835 -1.4130
 1923SOL    HW217406   2.057   0.927   5.140 -2.3164 -0.6330 -0.2617
 1924SOL     OW17407   2.190   3.942  10.014  0.0726 -0.2981  0.0754
 1924SOL    HW117408   2.129   3.967  10.083 -0.5470  1.3414 -1.0753
 1924SOL    HW217409   2.219   4.027   9.982  0.2551 -0.4968 -0.2778
 1925SOL     OW17410   2.493   0.200   8.701 -0.2462 -0.3475 -0.7358
 1925SOL    HW117411   2.569   0.228   8.650  0.6515 -1.3258  0.0726
 1925SOL    HW217412   2.495   0.105   8.693  1.9895 -0.5050  1.9935
 1926SOL     OW17413   4.509   3.663   8.699 -0.3482 -0.4739 -0.4055
 1926SOL    HW117414   4.439   3.720   8.666  1.1919  2.2748  1.0965
 1926SOL    HW217415   4.584   3.720   8.684 -1.7920  1.8601  1.1898
 1927SOL     OW17416   2.285   0.554   6.417 -0.8891  0.6610  0.3746
 1927SOL    HW117417   2.365   0.530   6.464  1.0381  1.3383 -2.5089
 1927SOL    HW217418   2.226   0.556   6.492 -2.1430 -0.2342 -0.5740
 1928SOL     OW17419   1.586   2.887   3.283 -0.6173 -0.2578  0.6323
 1928SOL    HW117420   1.523   2.910   3.214 -0.5182  2.3948  1.4298
 1928SOL    HW217421   1.536   2.879   3.364  0.5167  1.0958  1.4634
 1929SOL     OW17422   2.002   2.322   2.716 -0.2526  0.1016 -0.1230
 1929SOL    HW117423   2.021   2.312   2.810  2.0568  1.2883 -0.4809
 1929SOL    HW217424   1.978   2.414   2.710  2.8294  1.0320  1.8780
 1930SOL     OW17425   0.535   1.161   1.103  0.2157 -0.1616  0.0086
 1930SOL    HW117426   0.460   1.153   1.162 -0.0715  0.7001 -0.2376
 1930SOL    HW217427   0.601   1.101   1.137 -1.3246 -0.7348  1.9867
 1931SOL     OW17428   1.173   0.333   9.226 -0.0904  0.4533 -0.4038
 1931SOL    HW117429   1.242   0.269   9.242 -2.2534 -1.7022  0.2686
 1931SOL    HW217430   1.125   0.276   9.166 -0.3340  1.3836 -1.0931
 1932SOL     OW17431   0.217   3.546   5.879  0.1357 -0.4199  0.1034
 1932SOL    HW117432   0.151   3.562   5.811 -1.0427 -1.6038  0.9431
 1932SOL    HW217433   0.161   3.555   5.956 -0.5376  1.7153 -0.6386
 1933SOL     OW17434   1.867   2.598  16.783  0.3466 -0.2089  0.8868
 1933SOL    HW117435   1.845   2.692  16.785  0.6936 -0.1617  2.7439
 1933SOL    HW217436   1.846   2.566  16.695 -3.7662 -0.4535  1.9822
 1934SOL     OW17437   1.928   2.111  10.473  0.0078 -0.2826  0.3470
 1934SOL    HW117438   1.885   2.064  10.544 -0.7310 -0.4325 -0.1967
 1934SOL    HW217439   1.939   2.194  10.520 -0.8754 -0.5241  0.9857
 1935SOL     OW17440   3.348   4.079   2.142  0.2443  0.2738 -0.0504
 1935SOL    HW117441   3.258   4.109   2.152  0.0747 -0.8336  1.8484
 1935SOL    HW217442   3.393   4.152   2.184  0.0139  1.0660 -1.1929
 1936SOL     OW17443   1.495   3.189   8.680  0.1711 -0.2765 -0.0265
 1936SOL    HW117444   1.534   3.158   8.762  1.3773  2.1258  0.3105
 1936SOL    HW217445   1.437   3.256   8.716  1.3168  1.6078 -1.6933
 1937SOL     OW17446   0.317   3.163   8.291 -0.1536  0.1163 -0.1391
 1937SOL    HW117447   0.406   3.128   8.293 -0.9842 -1.9800 -0.7593
 1937SOL    HW217448   0.284   3.126   8.372 -0.1445  1.0616  0.2944
 1938SOL     OW17449   1.767   1.646   4.999 -0.3576 -0.3804  0.0877
 1938SOL    HW117450   1.790   1.574   5.056 -1.1478 -0.8079 -0.1330
 1938SOL    HW217451   1.674   1.653   5.021  0.0018  2.2467  0.8426
 1939SOL     OW17452   0.211   0.746  10.416  0.4999  0.1631 -0.2701
 1939SOL    HW117453   0.201   0.809  10.487 -0.7432 -0.9761  0.5727
 1939SOL    HW217454   0.129   0.761  10.369  0.0762 -3.2887 -0.6717
 1940SOL     OW17455   0.857   2.940   0.986  0.2228  0.2854  0.5260
 1940SOL    HW117456   0.897   2.859   0.953 -1.9603 -1.3322  1.8292
 1940SOL    HW217457   0.784   2.946   0.925  1.2002 -1.3020 -0.8225
 1941SOL     OW17458   1.714   1.535  11.666  0.5278 -0.1662 -0.2875
 1941SOL    HW117459   1.710   1.545  11.571 -0.6126  1.2192 -0.0929
 1941SOL    HW217460   1.771   1.458  11.661 -0.1647 -0.7216  0.5339
 1942SOL     OW17461   3.499   3.124   2.187 -0.3350  0.5590  0.2690
 1942SOL    HW117462   3.582   3.106   2.231  0.1456 -0.5570 -1.0774
 1942SOL    HW217463   3.530   3.187   2.122  3.0000  1.2712  2.5591
 1943SOL     OW17464   0.196   0.329   5.444  0.5033 -0.7906  0.7328
 1943SOL    HW117465   0.218   0.308   5.352 -2.2793 -1.5902  0.2643
 1943SOL    HW217466   0.106   0.297   5.443  0.0950  0.4127 -1.1251
 1944SOL     OW17467   3.472   0.575   3.408  0.0516  0.0705 -0.4635
 1944SOL    HW117468   3.410   0.521   3.458  0.1220  1.7685  1.4750
 1944SOL    HW217469   3.487   0.532   3.324 -0.3403 -2.0320  0.5539
 1945SOL     OW17470   1.286   2.222   2.217 -0.1314  0.1808  0.4220
 1945SOL    HW117471   1.347   2.239   2.289  1.2647 -0.8485 -0.5151
 1945SOL    HW217472   1.340   2.254   2.144 -0.1449  1.1203  0.8229
 1946SOL     OW17473   1.974   2.884   3.836  0.1554  0.0832  0.4935
 1946SOL    HW117474   1.879   2.878   3.842  0.1932 -2.0779 -1.2109
 1946SOL    HW217475   1.990   2.941   3.761 -0.8953  0.0756  0.2679
 1947SOL     OW17476   2.236   1.140   2.882 -0.3108  1.0583  0.4325
 1947SOL    HW117477   2.221   1.235   2.881  0.5166  1.2210  4.1165
 1947SOL    HW217478   2.256   1.145   2.975  1.5352 -1.4257  0.1518
 1948SOL     OW17479   1.278   2.749   0.529 -0.9073  0.2111 -0.2327
 1948SOL    HW117480   1.356   2.694   0.530  1.5708  3.7246 -1.5647
 1948SOL    HW217481   1.214   2.689   0.489  1.0517 -1.2385 -1.1884
 1949SOL     OW17482   4.406   3.464  13.372 -0.9824 -0.1368  0.1085
 1949SOL    HW117483   4.461   3.528  13.327 -0.0716  1.1468  3.0359
 1949SOL    HW217484   4.354   3.424  13.302  1.3145 -2.1552 -0.4743
 1950SOL     OW17485   1.595   2.850   1.718 -0.0787 -0.4415 -1.0303
 1950SOL    HW117486   1.522   2.895   1.676  0.6575 -0.3591 -2.2130
 1950SOL    HW217487   1.612   2.782   1.653  0.3821  0.7914 -2.1798
 1951SOL     OW17488   4.107   0.177  14.230  0.1409  0.0892 -0.8729
 1951SOL    HW117489   4.185   0.137  14.191  2.3406  3.4611 -0.0313
 1951SOL    HW217490   4.044   0.184  14.159  1.1389  0.1717 -1.7584
 1952SOL     OW17491   1.914   0.909   9.851 -0.4967  0.1541  0.4313
 1952SOL    HW117492   1.962   0.838   9.808 -2.6125 -1.5113  0.7960
 1952SOL    HW217493   1.960   0.919   9.934 -0.2739 -0.0626  0.3355
 1953SOL     OW17494   3.422   1.439   2.078  0.5925 -0.3428  0.3143
 1953SOL    HW117495   3.494   1.385   2.047  0.6211 -0.9932  1.4897
 1953SOL    HW217496   3.450   1.454   2.168  3.0754  0.7536 -0.6385
 1954SOL     OW17497   3.447   1.486   0.782 -0.0188  0.0004 -0.6238
 1954SOL    HW117498   3.406   1.433   0.850  1.4968 -1.1151 -0.5760
 1954SOL    HW217499   3.411   1.571   0.809  0.4002  0.5942 -1.8886
 1955SOL     OW17500   0.330   4.462   1.795  0.5299  0.6761  0.2751
 1955SOL    HW117501   0.374   4.546   1.780 -1.2955  1.3847 -1.1883
 1955SOL    HW217502   0.265   4.496   1.857 -0.2258 -2.2545  1.0949
 1956SOL     OW17503   3.043   2.425  15.080 -0.5144  0.0261  0.2156
 1956SOL    HW117504   3.106   2.376  15.132 -1.3287 -0.6975  0.5149
 1956SOL    HW217505   3.091   2.482  15.019  0.3409 -1.0110 -0.0748
 1957SOL     OW17506   3.149   3.546  10.907  0.1119  0.0379  0.1973
 1957SOL    HW117507   3.096   3.580  10.835  1.7824  0.8714 -0.6177
 1957SOL    HW217508   3.080   3.535  10.972  0.2891 -0.2631  0.3347
 1958SOL     OW17509   3.139   1.274   7.566  0.1898 -0.2372  0.3097
 1958SOL    HW117510   3.162   1.182   7.552  0.4879 -0.2585  0.9355
 1958SOL    HW217511   3.172   1.318   7.488  0.4055 -0.3059  0.3610
 1959SOL     OW17512   2.039   1.290  17.039 -0.4189  0.3348 -0.5232
 1959SOL    HW117513   1.952   1.270  17.075 -0.3778  0.6535 -0.2402
 1959SOL    HW217514   2.039   1.232  16.963  0.5105  0.0541 -0.3076
 1960SOL     OW17515   3.959   0.331   5.625  0.1898 -0.5742 -0.1012
 1960SOL    HW117516   3.939   0.272   5.553 -1.0942 -1.1222  0.7138
 1960SOL    HW217517   4.009   0.271   5.681 -0.3255  0.2087  1.1899
 1961SOL     OW17518   4.466   1.954   8.801 -0.2930  0.4425  0.0516
 1961SOL    HW117519   4.510   2.017   8.858  0.3007 -0.5605  0.7042
 1961SOL    HW217520   4.383   1.934   8.845 -0.4275  1.2078  0.1361
 1962SOL     OW17521   1.498   3.844   5.849  0.0561  0.2668  0.8560
 1962SOL    HW117522   1.485   3.762   5.802  2.8939  0.6921 -0.6805
 1962SOL    HW217523   1.421   3.842   5.905 -1.4642 -1.6557 -1.3136
 1963SOL     OW17524   1.147   2.306   5.281 -0.2381  0.7409 -0.0319
 1963SOL    HW117525   1.131   2.214   5.301 -1.0514  0.5426 -1.5898
 1963SOL    HW217526   1.164   2.344   5.368 -0.1529  0.8021 -0.0750
 1964SOL     OW17527   1.572   2.838   8.872  0.1268 -0.3246  0.0266
 1964SOL    HW117528   1.567   2.841   8.968 -0.3916  1.5508 -0.0598
 1964SOL    HW217529   1.548   2.747   8.855  1.7018 -0.8826  0.6861
 1965SOL     OW17530   4.337   3.514   3.269 -0.4580  0.2361 -0.4824
 1965SOL    HW117531   4.281   3.515   3.347  0.1819  0.5580 -0.0216
 1965SOL    HW217532   4.369   3.604   3.267  0.0568  0.0362 -1.1007
 1966SOL     OW17533   0.836   0.230   8.183  0.2885 -0.6098 -0.4808
 1966SOL    HW117534   0.826   0.234   8.088  1.8827  1.9611 -0.5443
 1966SOL    HW217535   0.927   0.252   8.205 -0.0599  0.3330  0.0119
 1967SOL     OW17536   4.524   3.687   4.217  0.5411  0.4855 -0.4044
 1967SOL    HW117537   4.430   3.700   4.211  0.0551 -1.8814  2.3085
 1967SOL    HW217538   4.551   3.775   4.190 -0.5822  0.9075 -0.1192
 1968SOL     OW17539   0.858   3.438   2.393 -0.8119 -0.4010  0.1415
 1968SOL    HW117540   0.923   3.488   2.442 -2.8296  2.6167 -0.2416
 1968SOL    HW217541   0.776   3.471   2.430 -0.2866  0.0448  0.8997
 1969SOL     OW17542   0.608   0.258   6.043 -0.0571 -0.0363 -0.0253
 1969SOL    HW117543   0.541   0.256   6.112  1.0207  1.3271  1.0550
 1969SOL    HW217544   0.559   0.289   5.967  0.7883 -0.1959 -0.6300
 1970SOL     OW17545   2.308   0.626   5.211  0.8670  0.2260 -0.2576
 1970SOL    HW117546   2.235   0.573   5.181  0.1481  0.7285  0.5926
 1970SOL    HW217547   2.380   0.563   5.214  1.5138  0.9147 -1.3148
 1971SOL     OW17548   2.272   4.005  13.136  0.3218 -0.6412 -0.5266
 1971SOL    HW117549   2.343   4.060  13.168 -0.5087  1.1756 -1.8324
 1971SOL    HW217550   2.258   4.024  13.043 -0.8910 -0.4362 -0.3078
 1972SOL     OW17551   0.584   3.930   5.135  0.4444  0.0156  0.2645
 1972SOL    HW117552   0.622   3.854   5.090  1.0051  1.4237 -1.6147
 1972SOL    HW217553   0.641   3.990   5.086  0.3214  0.9509  1.2711
 1973SOL     OW17554   2.856   4.428   2.565  0.2931  0.4522  0.0166
 1973SOL    HW117555   2.813   4.465   2.488 -1.5045 -1.1727  0.2424
 1973SOL    HW217556   2.823   4.489   2.631 -1.0731  0.4293 -0.6365
 1974SOL     OW17557   2.670   0.016  16.231 -0.2832  0.6406 -0.0781
 1974SOL    HW117558   2.623   4.674  16.211 -2.1370  1.8259 -0.4653
 1974SOL    HW217559   2.617   0.075  16.177  0.3487 -0.6438 -2.1127
 1975SOL     OW17560   3.186   2.448  10.267 -0.6180  0.3781 -0.0431
 1975SOL    HW117561   3.218   2.364  10.299  0.3185  0.8638  0.2969
 1975SOL    HW217562   3.249   2.503  10.315 -0.1006 -1.3928  1.3138
 1976SOL     OW17563   0.119   3.422   6.726  0.6992 -0.2528  0.3587
 1976SOL    HW117564   0.175   3.366   6.781 -0.7690 -1.6885  0.4072
 1976SOL    HW217565   0.129   3.384   6.639 -1.4689 -0.3448  0.1637
 1977SOL     OW17566   4.118   0.783   7.060  0.3554  0.1527  0.4574
 1977SOL    HW117567   4.158   0.869   7.046 -1.9868  1.6734  3.0072
 1977SOL    HW217568   4.195   0.729   7.076  1.2964  0.4198 -3.2025
 1978SOL     OW17569   4.377   0.829  15.354 -0.4116 -0.2854  0.2783
 1978SOL    HW117570   4.419   0.801  15.436 -0.5381  0.2879  0.5381
 1978SOL    HW217571   4.288   0.845  15.385  0.1296 -0.3921  1.9036
 1979SOL     OW17572   2.067   4.286   8.366 -0.6487  0.1051  0.1669
 1979SOL    HW117573   2.002   4.217   8.351  1.3247 -1.3145 -1.8528
 1979SOL    HW217574   2.147   4.241   8.341 -1.1446  1.2299 -3.3805
 1980SOL     OW17575   2.084   4.039   9.553 -0.0818  0.0495 -0.2851
 1980SOL    HW117576   2.125   3.958   9.584 -0.0535  0.0636 -0.2856
 1980SOL    HW217577   2.012   3.995   9.508 -0.5481  1.6871 -1.1227
 1981SOL     OW17578   1.609   0.389   7.240  0.3083 -0.3926  0.2138
 1981SOL    HW117579   1.634   0.388   7.332  1.8525  1.7463 -0.1633
 1981SOL    HW217580   1.547   0.462   7.241 -0.8408 -1.3748  0.3695
 1982SOL     OW17581   4.424   2.857   1.070 -0.4058  0.4530 -0.0726
 1982SOL    HW117582   4.483   2.787   1.042  1.3571  1.3677  1.3099
 1982SOL    HW217583   4.341   2.815   1.049 -0.8250  0.6177  1.2248
 1983SOL     OW17584   1.547   1.481   2.362 -0.2960  0.1888 -0.4277
 1983SOL    HW117585   1.561   1.575   2.359 -0.8519  0.3901  3.2083
 1983SOL    HW217586   1.578   1.457   2.275 -1.3007  2.8696 -1.5327
 1984SOL     OW17587   1.526   1.427   9.574 -0.1212 -0.2925  0.2310
 1984SOL    HW117588   1.497   1.421   9.483 -0.4663 -0.3257  0.3437
 1984SOL    HW217589   1.468   1.358   9.606  1.1817 -1.0258  1.0358
 1985SOL     OW17590   0.180   4.276   7.359 -0.3618  0.1570  0.4079
 1985SOL    HW117591   0.181   4.283   7.264  0.6280 -2.5873  0.2160
 1985SOL    HW217592   0.261   4.227   7.372 -2.3403 -3.1921  0.3467
 1986SOL     OW17593   3.366   3.931   2.369 -0.2143  0.1525  0.0314
 1986SOL    HW117594   3.365   3.951   2.276  4.6590  0.4296  0.0547
 1986SOL    HW217595   3.272   3.944   2.385  0.2119  2.2656  0.7344
 1987SOL     OW17596   0.940   2.964   5.135 -0.2687  0.3630  0.2267
 1987SOL    HW117597   0.911   3.033   5.074  1.1429  1.2486  0.5752
 1987SOL    HW217598   0.949   3.013   5.217  2.1186 -0.6082  0.5359
 1988SOL     OW17599   2.125   3.891  15.941 -0.4221  0.5404  0.5404
 1988SOL    HW117600   2.207   3.895  15.891  0.0538 -0.2568  1.2648
 1988SOL    HW217601   2.129   3.966  16.001  2.5987 -0.2927  1.3818
 1989SOL     OW17602   4.433   0.235  13.779 -0.3548  0.3389  0.3304
 1989SOL    HW117603   4.495   0.167  13.808  2.1169  1.6595 -1.9591
 1989SOL    HW217604   4.429   0.215  13.686  0.3789  2.0748 -0.0793
 1990SOL     OW17605   2.601   4.082  17.477 -0.3502 -0.0089 -0.3957
 1990SOL    HW117606   2.686   4.096  17.434  0.2172  1.3361  1.1464
 1990SOL    HW217607   2.577   4.166  17.517  0.1462 -0.9052  1.7508
 1991SOL     OW17608   3.690   0.442  13.718  0.2169 -0.4681 -0.3235
 1991SOL    HW117609   3.722   0.481  13.799  0.8424 -1.3990 -0.1203
 1991SOL    HW217610   3.601   0.419  13.746 -0.3353  1.3559 -0.6286
 1992SOL     OW17611   0.590   2.928   9.345  0.1565 -0.8293  0.1498
 1992SOL    HW117612   0.614   2.916   9.436  3.4920 -1.9020 -0.8616
 1992SOL    HW217613   0.519   2.864   9.342 -0.1297 -0.6156  2.8872
 1993SOL     OW17614   1.371   3.483  15.343  0.0197 -0.2483  0.0651
 1993SOL    HW117615   1.443   3.429  15.377  2.3400  2.9767  0.2961
 1993SOL    HW217616   1.425   3.562  15.340 -1.6912  1.0353  2.6166
 1994SOL     OW17617   1.730   2.767   9.638 -0.2657  0.3451  0.2340
 1994SOL    HW117618   1.662   2.716   9.596 -0.4374 -0.1258  1.0906
 1994SOL    HW217619   1.712   2.765   9.732  3.0175 -0.9363  0.8574
 1995SOL     OW17620   0.047   3.191   9.210  0.3068 -0.1340 -0.3551
 1995SOL    HW117621   0.045   3.112   9.264  0.3819  0.6887  0.8405
 1995SOL    HW217622   0.126   3.228   9.249 -2.4214  2.0881  3.0582
 1996SOL     OW17623   3.428   3.503   6.759  0.0037  0.0906 -0.1064
 1996SOL    HW117624   3.514   3.468   6.740  0.1237 -0.0825  0.7455
 1996SOL    HW217625   3.441   3.500   6.854  2.9388  1.7515 -0.4551
 1997SOL     OW17626   0.674   3.777   6.575 -0.0651  0.6061 -0.0903
 1997SOL    HW117627   0.610   3.818   6.516  0.1557  1.2099  0.0863
 1997SOL    HW217628   0.622   3.783   6.655  1.0144 -2.5601  0.8387
 1998SOL     OW17629   0.983   0.708   5.125 -0.2343 -0.2244 -0.1034
 1998SOL    HW117630   1.017   0.619   5.120 -2.0985 -0.8472 -1.7213
 1998SOL    HW217631   1.033   0.743   5.199 -0.2796 -0.9001  0.2424
 1999SOL     OW17632   0.923   2.678   0.341 -0.0428 -0.3277  0.6136
 1999SOL    HW117633   0.977   2.646   0.414  0.1198  0.5988  0.9043
 1999SOL    HW217634   0.869   2.743   0.385  0.3921  1.1236 -0.9839
 2000SOL     OW17635   4.337   2.643   3.406 -0.3438  0.2654  0.2112
 2000SOL    HW117636   4.341   2.594   3.323  2.7896  1.1278 -0.1571
 2000SOL    HW217637   4.248   2.678   3.400 -0.7704 -0.6364  1.2423
 2001SOL     OW17638   4.441   1.572  13.249 -0.0876 -0.1377 -0.0937
 2001SOL    HW117639   4.414   1.649  13.299 -0.7728 -1.4763  1.6260
 2001SOL    HW217640   4.504   1.612  13.189 -0.5256  0.7068  0.0157
 2002SOL     OW17641   2.133   2.141   6.956 -0.2816  0.3856 -0.7418
 2002SOL    HW117642   2.199   2.208   6.937 -0.3571  0.8601  0.6600
 2002SOL    HW217643   2.087   2.146   6.873 -1.8467 -0.0184  0.0927
 2003SOL     OW17644   4.644   0.489   5.496  0.0300 -0.1636  0.4355
 2003SOL    HW117645   4.551   0.468   5.486 -0.5138  2.3068  0.1850
 2003SOL    HW217646   4.655   0.566   5.440  1.7767  0.4410  1.6181
 2004SOL     OW17647   4.208   4.455   9.067  0.5919  0.3962 -0.3653
 2004SOL    HW117648   4.148   4.409   9.125 -0.3034  1.6005 -0.3334
 2004SOL    HW217649   4.224   4.536   9.116  0.7563  1.6484 -2.4928
 2005SOL     OW17650   4.565   1.410   8.350  0.0782 -0.3511  0.4648
 2005SOL    HW117651   4.544   1.318   8.362  1.8598 -0.7171  0.8361
 2005SOL    HW217652   4.529   1.429   8.264 -2.6702  0.0842  1.7240
 2006SOL     OW17653   3.930   4.327  17.327  0.2182  0.3696 -0.2548
 2006SOL    HW117654   3.973   4.362  17.405  0.3280  3.4297 -1.6851
 2006SOL    HW217655   3.837   4.322  17.348 -0.0898 -0.3911 -1.8004
 2007SOL     OW17656   4.098   2.745   2.092 -0.5173  0.2591 -0.3994
 2007SOL    HW117657   4.094   2.777   2.002  1.5548 -0.4540 -0.7578
 2007SOL    HW217658   4.092   2.651   2.077  1.7218 -0.1619  1.3298
 2008SOL     OW17659   2.933   0.230   7.961  0.1337 -0.1907 -0.2769
 2008SOL    HW117660   2.951   0.207   8.053 -1.6872  0.2804  0.1981
 2008SOL    HW217661   2.838   0.236   7.953  0.1361 -1.3001 -1.0330
 2009SOL     OW17662   0.017   4.340   7.041  0.0108  0.4530 -0.4128
 2009SOL    HW117663   4.729   4.260   7.086  0.0391 -0.2658 -1.6694
 2009SOL    HW217664   0.112   4.341   7.050 -0.0889  0.5860  0.6291
 2010SOL     OW17665   0.441   4.701   7.334 -0.1945 -0.1166 -0.3073
 2010SOL    HW117666   0.382   4.648   7.389  0.0516 -0.2739 -0.1974
 2010SOL    HW217667   0.522   4.668   7.372 -1.2549 -2.4338 -0.0569
 2011SOL     OW17668   1.203   2.659  11.832  0.4071  0.3384 -0.1154
 2011SOL    HW117669   1.163   2.584  11.787 -0.6346  2.3164 -2.4667
 2011SOL    HW217670   1.129   2.700  11.876 -0.6769 -0.7954 -0.8771
 2012SOL     OW17671   4.620   2.309  13.522 -0.2150 -0.7346 -0.0512
 2012SOL    HW117672   4.613   2.263  13.439  1.5323  0.1606 -0.6833
 2012SOL    HW217673   4.693   2.366  13.503 -0.9828  0.3035  0.1031
 2013SOL     OW17674   2.906   3.100  11.268  0.1237  0.7404  0.1026
 2013SOL    HW117675   2.933   3.070  11.354  1.5882  2.8186  0.3644
 2013SOL    HW217676   2.894   3.020  11.216  0.9919  0.8394 -0.2460
 2014SOL     OW17677   4.448   1.354   6.004 -0.3332  0.3838 -0.1132
 2014SOL    HW117678   4.452   1.370   5.910 -0.1325 -0.6494 -0.2768
 2014SOL    HW217679   4.531   1.390   6.035  0.5297 -1.7456 -0.0168
 2015SOL     OW17680   1.596   1.573   8.252 -0.2562  0.7280  0.2654
 2015SOL    HW117681   1.663   1.636   8.280  2.1460 -0.2734 -3.1796
 2015SOL    HW217682   1.655   1.508   8.213 -0.9360  0.4511 -0.2837
 2016SOL     OW17683   1.313   3.275   0.338  0.2297 -0.0024  0.3857
 2016SOL    HW117684   1.382   3.213   0.315 -0.2075 -0.3922  0.1193
 2016SOL    HW217685   1.257   3.207   0.376  0.6813 -1.0617 -0.8483
 2017SOL     OW17686   1.698   1.000   9.723 -0.3611  0.2809  0.2386
 2017SOL    HW117687   1.735   1.004   9.635 -0.8929 -1.3306 -0.0745
 2017SOL    HW217688   1.774   0.972   9.773 -0.4006 -0.6979 -0.2375
 2018SOL     OW17689   0.300   4.352   5.007 -0.1234 -0.5564 -0.5217
 2018SOL    HW117690   0.367   4.302   5.052  0.2934 -1.5061 -2.2066
 2018SOL    HW217691   0.362   4.395   4.948  0.7820 -0.8323  0.2375
 2019SOL     OW17692   3.638   1.031   9.147 -0.3626 -0.3335 -0.1915
 2019SOL    HW117693   3.616   0.938   9.151  0.0409 -0.4792 -1.3477
 2019SOL    HW217694   3.715   1.033   9.204  0.7080  0.2843 -1.6719
 2020SOL     OW17695   3.820   0.738   3.995  0.3005  0.1449 -0.0827
 2020SOL    HW117696   3.872   0.664   4.026  1.2822  0.7364 -0.3014
 2020SOL    HW217697   3.823   0.720   3.901  2.3065 -2.3469  0.4473
 2021SOL     OW17698   4.682   0.086   2.460  0.3281 -0.1378 -0.3709
 2021SOL    HW117699   4.640   0.010   2.500  1.2522 -1.7715 -2.5011
 2021SOL    HW217700   4.605   0.118   2.413 -2.0373 -3.6875  1.0939
 2022SOL     OW17701   0.037   2.489   6.281 -0.5102 -0.0352 -0.2002
 2022SOL    HW117702   0.063   2.530   6.363 -0.0936  1.0415 -0.8632
 2022SOL    HW217703   0.019   2.400   6.311  0.9970 -0.8007 -1.5576
 2023SOL     OW17704   3.992   1.558   1.657  0.2037 -0.1489 -0.0507
 2023SOL    HW117705   3.909   1.606   1.655  0.0899 -0.3812 -0.8042
 2023SOL    HW217706   3.983   1.503   1.580  0.9316 -0.3580  0.0122
 2024SOL     OW17707   3.622   1.514  13.803 -0.4604  1.0493  0.1542
 2024SOL    HW117708   3.607   1.420  13.796 -0.6380  1.1458 -0.6861
 2024SOL    HW217709   3.713   1.524  13.775  0.0099 -1.1097  0.9605
 2025SOL     OW17710   1.853   0.877  13.897  0.4647 -0.4387 -0.2374
 2025SOL    HW117711   1.878   0.915  13.981  1.2825 -0.5445 -0.4334
 2025SOL    HW217712   1.759   0.866  13.910  0.6065 -0.9050  0.4125
 2026SOL     OW17713   3.118   3.164   6.518  0.3938 -0.0199  0.1433
 2026SOL    HW117714   3.171   3.227   6.470 -0.8239 -0.7215 -2.1181
 2026SOL    HW217715   3.170   3.155   6.598 -0.5328  0.4442  0.7990
 2027SOL     OW17716   2.140   0.787   9.394  0.0722  0.5113  0.8950
 2027SOL    HW117717   2.231   0.812   9.379 -0.1185  0.7351  0.1298
 2027SOL    HW217718   2.149   0.702   9.437 -1.1793 -0.3503 -0.5668
 2028SOL     OW17719   2.130   1.118   9.305 -0.3486 -0.6207 -0.1606
 2028SOL    HW117720   2.067   1.177   9.348  1.7202  1.6413 -0.2453
 2028SOL    HW217721   2.106   1.036   9.347  1.8306 -1.8385 -1.3011
 2029SOL     OW17722   4.399   4.336  16.987  0.2668 -0.0241  0.6450
 2029SOL    HW117723   4.345   4.415  16.993  0.8308  0.4401 -0.2842
 2029SOL    HW217724   4.347   4.291  16.921  0.8603  0.5302 -0.2104
 2030SOL     OW17725   0.372   0.779   3.867  0.0719  0.6338  0.5366
 2030SOL    HW117726   0.323   0.756   3.788 -1.0295 -0.6166  1.5732
 2030SOL    HW217727   0.310   0.792   3.939  0.3923 -0.3560  0.9956
 2031SOL     OW17728   2.211   3.353   4.525 -0.1625 -0.0036 -0.1662
 2031SOL    HW117729   2.151   3.281   4.542 -0.8239  0.6573  0.3282
 2031SOL    HW217730   2.254   3.320   4.447  0.8029  1.5236 -0.2938
 2032SOL     OW17731   1.344   1.597   6.619 -0.3636  0.3942 -0.4244
 2032SOL    HW117732   1.344   1.539   6.695 -1.3239 -0.0476 -0.7663
 2032SOL    HW217733   1.258   1.636   6.632 -1.1827 -0.8724 -2.0412
 2033SOL     OW17734   1.662   3.410   9.371  0.0160  0.4771  0.1909
 2033SOL    HW117735   1.647   3.479   9.306  1.0509  0.3556 -0.1679
 2033SOL    HW217736   1.757   3.399   9.369 -0.1685 -1.0631 -0.2726
 2034SOL     OW17737   2.799   0.294   6.269 -0.1728 -0.1058  0.3791
 2034SOL    HW117738   2.752   0.354   6.326  1.7685  1.2888  0.5266
 2034SOL    HW217739   2.766   0.209   6.298 -0.7168 -0.9977 -2.7641
 2035SOL     OW17740   0.894   4.051  10.268 -0.1405 -0.0195 -0.3676
 2035SOL    HW117741   0.834   4.116  10.305 -1.8397 -2.3514  0.9658
 2035SOL    HW217742   0.905   3.991  10.343  0.3944  0.9180  0.3071
 2036SOL     OW17743   3.407   4.188  14.892 -0.1497  0.1288 -0.0518
 2036SOL    HW117744   3.318   4.208  14.865 -0.4270  2.2112  2.4070
 2036SOL    HW217745   3.408   4.098  14.859 -0.5707  0.3989 -0.8204
 2037SOL     OW17746   2.250   1.434   8.525  0.7141  0.2517  0.1347
 2037SOL    HW117747   2.336   1.393   8.523 -0.0095 -1.3267  0.7711
 2037SOL    HW217748   2.218   1.390   8.446 -1.9991 -0.2635  1.5051
 2038SOL     OW17749   1.854   1.860   5.941  0.5295  0.3119  0.2182
 2038SOL    HW117750   1.836   1.813   6.023  0.2218  0.7732  0.4151
 2038SOL    HW217751   1.942   1.895   5.959  0.3992  0.8209 -0.1429
 2039SOL     OW17752   1.463   4.017  10.833 -0.5045  0.3181  0.0396
 2039SOL    HW117753   1.432   4.098  10.874  2.0187  1.5728 -0.5203
 2039SOL    HW217754   1.414   4.021  10.751  0.2772 -0.4053 -0.4658
 2040SOL     OW17755   0.189   1.166   2.375  0.4891 -0.1939  0.0090
 2040SOL    HW117756   0.130   1.093   2.357 -1.6735  1.2561  1.1343
 2040SOL    HW217757   0.151   1.232   2.317 -1.5396 -4.1689 -3.1136
 2041SOL     OW17758   4.737   4.467   1.166  0.2719  0.0310 -0.2150
 2041SOL    HW117759   4.646   4.469   1.195  0.5816  0.0054  0.7823
 2041SOL    HW217760   0.035   4.538   1.218 -0.2235  0.2881 -0.2189
 2042SOL     OW17761   1.551   2.507  17.446  0.2575  0.0584 -0.7271
 2042SOL    HW117762   1.539   2.538  17.536 -2.3723 -0.7341 -0.8258
 2042SOL    HW217763   1.466   2.470  17.423  1.1288 -2.6703  0.4836
 2043SOL     OW17764   3.839   2.032   7.966  0.2079 -0.4373  0.4362
 2043SOL    HW117765   3.832   2.050   8.059  1.7064  1.0553  0.2686
 2043SOL    HW217766   3.762   1.982   7.938 -0.8999  0.4425  1.9471
 2044SOL     OW17767   4.229   1.409   2.374  0.3336 -0.2574 -0.3821
 2044SOL    HW117768   4.219   1.431   2.467 -1.7274 -0.3068 -0.5928
 2044SOL    HW217769   4.227   1.314   2.374 -1.1986 -0.2306 -3.4777
 2045SOL     OW17770   3.667   0.073   2.913 -0.0489  0.1719  0.5500
 2045SOL    HW117771   3.621   0.016   2.975 -1.9310 -0.1459 -1.1362
 2045SOL    HW217772   3.758   0.056   2.937  1.2883  4.3256 -1.5232
 2046SOL     OW17773   2.155   4.561   2.368  0.6499  0.2371  0.5623
 2046SOL    HW117774   2.201   4.502   2.427  0.3953 -0.8994 -0.3679
 2046SOL    HW217775   2.230   4.591   2.316  0.4552  3.0032  1.8583
 2047SOL     OW17776   0.361   2.585   7.842  0.1100 -0.3392  0.2669
 2047SOL    HW117777   0.281   2.625   7.876  1.9615  1.9429  1.9188
 2047SOL    HW217778   0.342   2.580   7.748  0.3684 -1.8701  0.2954
 2048SOL     OW17779   2.943   1.679   7.357 -0.5443 -0.1782 -0.6906
 2048SOL    HW117780   2.861   1.676   7.406 -0.3863 -0.7129 -0.4574
 2048SOL    HW217781   2.924   1.636   7.274 -0.9389  0.0099 -0.6959
 2049SOL     OW17782   3.204   0.491  15.327 -0.3634  0.2902 -0.0784
 2049SOL    HW117783   3.161   0.499  15.412 -0.6175  0.7714 -0.2506
 2049SOL    HW217784   3.166   0.410  15.294 -0.3973  0.1558  0.2877
 2050SOL     OW17785   0.852   4.300   1.568  0.7383 -0.5028 -0.1308
 2050SOL    HW117786   0.909   4.321   1.642 -0.6341  0.7161  0.5941
 2050SOL    HW217787   0.894   4.232   1.515  3.6944  0.5626  0.8158
 2051SOL     OW17788   1.158   0.500   9.430 -0.2424  0.1181  0.2786
 2051SOL    HW117789   1.168   0.420   9.379  0.7113  0.1616  0.3991
 2051SOL    HW217790   1.240   0.547   9.413 -0.5324  0.2284 -0.8391
 2052SOL     OW17791   2.581   1.289   5.605  0.5226 -0.6302  0.0547
 2052SOL    HW117792   2.564   1.208   5.652  2.8413 -1.9824 -1.4593
 2052SOL    HW217793   2.579   1.257   5.515 -1.2149 -0.6177  0.0880
 2053SOL     OW17794   1.532   2.747   9.112 -0.3615 -0.3638  0.7802
 2053SOL    HW117795   1.454   2.747   9.167  0.5718 -0.4264  2.1061
 2053SOL    HW217796   1.598   2.716   9.174 -2.1224 -0.7981  2.4005
 2054SOL     OW17797   2.264   2.846   2.209 -0.6485 -0.0574  0.0929
 2054SOL    HW117798   2.290   2.805   2.126  1.5582  1.8594 -0.1600
 2054SOL    HW217799   2.215   2.925   2.187  2.7012  2.0689  0.2516
 2055SOL     OW17800   0.738   4.009  16.869 -0.6819 -0.0901  0.4400
 2055SOL    HW117801   0.679   3.973  16.935 -2.4903 -0.5571 -1.4717
 2055SOL    HW217802   0.816   3.965  16.902 -0.3706  0.0382 -0.1212
 2056SOL     OW17803   4.112   0.688   8.952  0.2068  0.5644  0.0171
 2056SOL    HW117804   4.108   0.708   8.858  0.8036 -0.7261 -0.2754
 2056SOL    HW217805   4.207   0.681   8.955  0.1071  0.2320  2.1970
 2057SOL     OW17806   3.340   2.596  10.430 -0.0623 -0.1724  0.1707
 2057SOL    HW117807   3.413   2.587  10.369 -0.2137  1.2247 -0.2198
 2057SOL    HW217808   3.308   2.685  10.413 -0.1303 -0.1250  0.5432
 2058SOL     OW17809   1.456   0.325   9.013  0.1363  0.1906 -0.2010
 2058SOL    HW117810   1.410   0.295   8.935  0.0975 -1.0423  0.2943
 2058SOL    HW217811   1.409   0.289   9.088 -0.1861 -1.5709 -1.2702
 2059SOL     OW17812   1.545   3.439   4.666  0.0084 -0.8556  0.2162
 2059SOL    HW117813   1.512   3.446   4.756  2.6370 -1.0738  1.1778
 2059SOL    HW217814   1.577   3.524   4.636 -4.4569  0.4148 -0.9697
 2060SOL     OW17815   1.818   0.922  14.193 -0.3292 -0.4411 -0.3805
 2060SOL    HW117816   1.836   0.837  14.152 -0.1325 -0.7903  0.4398
 2060SOL    HW217817   1.724   0.911  14.209 -0.5228  1.4066 -0.3242
 2061SOL     OW17818   0.074   1.200   3.794  0.2095 -0.5709 -0.1419
 2061SOL    HW117819   0.116   1.173   3.876 -2.6003  0.3942  1.6032
 2061SOL    HW217820   0.155   1.215   3.746 -0.5724 -0.9020 -1.5681
 2062SOL     OW17821   0.409   2.402   6.486  0.0489  0.0893 -0.1192
 2062SOL    HW117822   0.368   2.329   6.532  1.0624 -1.1532 -1.1955
 2062SOL    HW217823   0.331   2.452   6.463 -0.8546 -1.6181 -0.7616
 2063SOL     OW17824   0.650   4.521   2.364 -0.1995 -0.4058  0.0351
 2063SOL    HW117825   0.660   4.429   2.341  0.0445 -0.3421 -0.1124
 2063SOL    HW217826   0.619   4.516   2.455  2.2444 -0.8458  0.8525
 2064SOL     OW17827   0.693   4.180   6.410  0.1548  0.3452 -0.0230
 2064SOL    HW117828   0.600   4.189   6.430 -0.2554 -0.3651 -1.5982
 2064SOL    HW217829   0.731   4.151   6.493 -1.6379 -1.3059  0.2127
 2065SOL     OW17830   1.385   4.623   1.970 -0.7853 -0.1008  0.1621
 2065SOL    HW117831   1.382   4.703   2.023  1.4379  1.7700 -2.5230
 2065SOL    HW217832   1.315   4.649   1.910  0.5425  2.1379 -0.4269
 2066SOL     OW17833   0.192   1.995   5.013 -0.1068  0.0553  0.0390
 2066SOL    HW117834   0.175   2.083   5.044  0.5298 -0.7346  2.6298
 2066SOL    HW217835   0.199   2.007   4.918 -0.5979 -2.3748 -0.3109
 2067SOL     OW17836   4.408   2.889  12.974  0.0365  0.4335 -0.5501
 2067SOL    HW117837   4.375   2.937  12.898 -0.8110 -2.1538 -1.8375
 2067SOL    HW217838   4.429   2.803  12.936 -1.9916  0.6297 -2.0903
 2068SOL     OW17839   2.991   2.986   8.016  0.2019 -0.1767 -0.5313
 2068SOL    HW117840   3.049   3.059   8.035  0.8123 -1.1300  1.2779
 2068SOL    HW217841   3.002   2.929   8.092 -1.4530  0.3677  0.1154
 2069SOL     OW17842   2.100   0.582   8.339  0.1133 -0.2324  0.0981
 2069SOL    HW117843   2.188   0.556   8.312  0.3443 -1.2223  1.7807
 2069SOL    HW217844   2.108   0.677   8.336 -1.3840 -0.1598 -1.2451
 2070SOL     OW17845   3.834   0.565  14.833  0.2117 -0.3373  0.8152
 2070SOL    HW117846   3.905   0.608  14.880 -0.1221  0.4372  0.6005
 2070SOL    HW217847   3.764   0.630  14.840  0.6384  0.0928  1.0513
 2071SOL     OW17848   0.723   2.839   7.448 -0.3213 -0.8297 -0.0185
 2071SOL    HW117849   0.655   2.792   7.399 -0.2526  2.7826 -3.5433
 2071SOL    HW217850   0.692   2.813   7.535 -2.6113  1.7234 -0.0948
 2072SOL     OW17851   2.481   4.182  13.146 -0.2854 -0.2534 -0.3040
 2072SOL    HW117852   2.555   4.222  13.191  0.7769 -1.3117 -1.1197
 2072SOL    HW217853   2.520   4.184  13.059 -0.6805 -1.2499 -0.5011
 2073SOL     OW17854   4.574   2.370   6.647  0.2324 -0.3179 -0.0088
 2073SOL    HW117855   4.478   2.376   6.649  0.2362 -0.0311 -0.7126
 2073SOL    HW217856   4.609   2.359   6.735  0.3659  0.9933  0.1022
 2074SOL     OW17857   2.815   0.506   5.367  0.2916  0.6089  0.2119
 2074SOL    HW117858   2.890   0.512   5.308  1.4477 -3.3874  1.2619
 2074SOL    HW217859   2.761   0.576   5.330 -0.6391 -1.3291 -2.0804
 2075SOL     OW17860   0.951   3.432  10.813 -0.0207  0.0058 -0.5223
 2075SOL    HW117861   0.871   3.483  10.827  0.2553  0.1775  0.4788
 2075SOL    HW217862   0.987   3.483  10.740 -1.3483  1.6520 -0.0168
 2076SOL     OW17863   2.801   0.736  14.187  0.1777 -0.0949 -0.1995
 2076SOL    HW117864   2.727   0.701  14.137  0.4350 -1.0499  0.0781
 2076SOL    HW217865   2.860   0.660  14.180 -0.8757 -0.9558  0.2960
 2077SOL     OW17866   1.250   0.698   2.418  0.2209 -0.2248  0.0122
 2077SOL    HW117867   1.273   0.791   2.427 -1.7617  0.1600  1.0449
 2077SOL    HW217868   1.156   0.701   2.435  0.0346  0.0511 -1.1191
 2078SOL     OW17869   2.395   3.108   2.940 -0.3755 -0.2102 -0.0496
 2078SOL    HW117870   2.488   3.109   2.918 -0.7643 -0.8852 -1.7120
 2078SOL    HW217871   2.403   3.189   2.991 -0.4449  0.0128 -0.3890
 2079SOL     OW17872   2.338   0.875  17.098  0.4140  0.5948  0.4972
 2079SOL    HW117873   2.394   0.798  17.110  0.3494  0.4769  0.0125
 2079SOL    HW217874   2.302   0.867  17.010  0.5699  2.1666  0.2861
 2080SOL     OW17875   4.689   3.576   5.729 -0.9027  0.4492 -0.0923
 2080SOL    HW117876   4.699   3.670   5.746  0.3596  0.4344 -0.7068
 2080SOL    HW217877   4.623   3.545   5.791 -0.3135 -0.7566 -0.0652
 2081SOL     OW17878   2.683   1.904   6.031  0.1304  0.0110 -0.0903
 2081SOL    HW117879   2.700   1.828   5.976  1.6421  0.2385  0.0665
 2081SOL    HW217880   2.694   1.870   6.120  0.0842 -2.3473 -1.0061
 2082SOL     OW17881   2.396   0.207   0.223 -0.5997  0.1096 -0.3646
 2082SOL    HW117882   2.340   0.132   0.244 -0.9518  0.5276  0.2002
 2082SOL    HW217883   2.402   0.201   0.128 -0.1057 -0.6909 -0.2823
 2083SOL     OW17884   4.029   0.611   5.665 -0.1233 -0.0261  0.0015
 2083SOL    HW117885   3.992   0.615   5.753  0.7091 -0.8292  0.3809
 2083SOL    HW217886   3.999   0.527   5.630  1.9351 -1.6523  2.2097
 2084SOL     OW17887   0.884   0.348   4.300  0.1824 -0.4962  0.3672
 2084SOL    HW117888   0.835   0.269   4.278  1.4648 -0.6613 -1.8691
 2084SOL    HW217889   0.958   0.305   4.343 -0.7512 -1.7136  0.7532
 2085SOL     OW17890   1.114   1.944   6.533  0.0827  0.0176  0.3420
 2085SOL    HW117891   1.133   1.998   6.609 -0.6721  1.1017 -0.2421
 2085SOL    HW217892   1.154   1.996   6.462  0.6785  0.2096  0.8228
 2086SOL     OW17893   4.713   1.834   8.361  0.0448  0.5826  0.1916
 2086SOL    HW117894   4.669   1.886   8.428  1.4585  2.1517 -0.0899
 2086SOL    HW217895   4.734   1.909   8.305  0.0192 -0.4788 -1.2173
 2087SOL     OW17896   1.659   4.703   8.961 -0.3404  0.4613 -0.4411
 2087SOL    HW117897   1.566   4.689   8.976 -0.0830  1.3553  1.9172
 2087SOL    HW217898   1.658   0.019   8.882 -0.8554  1.0125 -0.0556
 2088SOL     OW17899   1.237   0.367  12.957  0.9068 -0.1339 -0.5838
 2088SOL    HW117900   1.146   0.339  12.969  0.9894 -0.7998 -1.5338
 2088SOL    HW217901   1.276   0.313  13.026  0.5454 -0.2598 -0.4794
 2089SOL     OW17902   0.211   2.702   3.214  0.4448 -0.5833  0.2367
 2089SOL    HW117903   0.124   2.737   3.192  1.8903  2.7849 -0.1281
 2089SOL    HW217904   0.191   2.608   3.218 -2.5727 -0.0053 -0.4952
 2090SOL     OW17905   2.232   3.225   4.252 -0.7428 -0.0855  0.0200
 2090SOL    HW117906   2.182   3.184   4.182 -0.6763  0.8026 -0.5402
 2090SOL    HW217907   2.263   3.148   4.299 -0.4093 -0.8231 -1.4197
 2091SOL     OW17908   3.329   1.247  14.442 -0.5306 -0.1181  0.2434
 2091SOL    HW117909   3.334   1.302  14.520  0.7114 -1.6692  1.2565
 2091SOL    HW217910   3.244   1.277  14.409  0.4102  0.1394 -2.0094
 2092SOL     OW17911   1.926   2.846   1.183 -0.1055  0.1545 -0.4059
 2092SOL    HW117912   1.923   2.750   1.183  0.1294  0.1481  0.3318
 2092SOL    HW217913   1.866   2.863   1.255  1.3160  0.5129  0.6808
 2093SOL     OW17914   2.320   2.403   8.994 -0.3554  0.3378  0.2427
 2093SOL    HW117915   2.328   2.449   8.911 -1.1362 -1.8997 -1.0772
 2093SOL    HW217916   2.406   2.361   8.990 -0.6835 -0.2734 -0.2992
 2094SOL     OW17917   1.402   4.337   4.403 -0.3856  0.1619 -0.5165
 2094SOL    HW117918   1.320   4.319   4.449 -2.2360  1.3174 -3.3647
 2094SOL    HW217919   1.425   4.422   4.439 -0.2017 -0.1681  0.1539
 2095SOL     OW17920   3.743   3.681   9.098  0.4481  0.2251  0.1214
 2095SOL    HW117921   3.704   3.736   9.166  1.0545  0.7877  0.0166
 2095SOL    HW217922   3.822   3.725   9.067 -0.0303 -0.0840 -1.5374
 2096SOL     OW17923   2.002   1.585   6.663  0.5175 -0.2566 -0.2630
 2096SOL    HW117924   2.002   1.619   6.753 -0.0873  2.5109 -1.3136
 2096SOL    HW217925   1.928   1.525   6.666  0.1157  0.2374 -0.1951
 2097SOL     OW17926   2.510   4.401   6.572 -0.2012 -0.9692  0.6338
 2097SOL    HW117927   2.533   4.446   6.490 -2.0892 -1.1629  0.0114
 2097SOL    HW217928   2.420   4.371   6.567 -0.5454 -0.3014  2.7871
 2098SOL     OW17929   0.217   4.006   1.623  0.2443  0.0324 -0.3413
 2098SOL    HW117930   0.146   3.974   1.679  0.2558  2.9337  1.3657
 2098SOL    HW217931   0.177   4.091   1.602  0.5779  0.5863  1.2282
 2099SOL     OW17932   1.263   3.136   4.381  0.7364 -0.7150  0.0044
 2099SOL    HW117933   1.328   3.200   4.412  0.8263 -0.9921  0.3782
 2099SOL    HW217934   1.232   3.175   4.299  2.8281  1.2626  0.1596
 2100SOL     OW17935   4.195   3.530   4.746  0.3644 -0.1366 -0.0148
 2100SOL    HW117936   4.140   3.524   4.667 -0.7921  0.5622  0.7426
 2100SOL    HW217937   4.243   3.612   4.734  0.0857  0.1991  1.2058
 2101SOL     OW17938   4.623   0.589   4.178  0.1472  0.0069 -0.4103
 2101SOL    HW117939   4.695   0.553   4.126  0.6017 -1.3145  1.1202
 2101SOL    HW217940   4.655   0.587   4.269 -0.5246 -3.0675 -0.2676
 2102SOL     OW17941   0.008   1.449  11.576  0.1074 -0.4927  0.3983
 2102SOL    HW117942   4.689   1.383  11.537 -0.3740  0.5177 -0.6139
 2102SOL    HW217943   0.065   1.388  11.623 -0.5897 -0.2404  1.5615
 2103SOL     OW17944   3.090   4.103  13.922  0.4640 -0.1256  0.3746
 2103SOL    HW117945   3.148   4.111  13.997 -0.4735 -0.0893  1.0926
 2103SOL    HW217946   3.078   4.010  13.936  0.6561 -0.1567  0.3396
 2104SOL     OW17947   0.269   1.420   3.808  0.2229  0.2463 -0.0760
 2104SOL    HW117948   0.221   1.398   3.888  0.2870 -1.9414 -0.6381
 2104SOL    HW217949   0.206   1.482   3.771 -1.3222 -0.0069  2.0961
 2105SOL     OW17950   3.485   1.564   5.474 -0.3869  0.4343  0.0900
 2105SOL    HW117951   3.417   1.541   5.411  2.3250 -2.7145 -1.6750
 2105SOL    HW217952   3.453   1.641   5.521 -1.3549  0.2170 -0.2192
 2106SOL     OW17953   1.615   2.970   5.659  0.5901 -0.1710  0.2746
 2106SOL    HW117954   1.648   2.921   5.584 -0.2364 -0.6849  0.2414
 2106SOL    HW217955   1.632   2.912   5.734  2.3192  2.0754  1.5902
 2107SOL     OW17956   0.953   3.250   0.893  0.0028 -0.2671 -0.3812
 2107SOL    HW117957   1.005   3.183   0.939  1.2053  1.6762  1.0561
 2107SOL    HW217958   0.879   3.256   0.953  2.5106  2.3163  2.4652
 2108SOL     OW17959   2.799   1.947   8.793  0.2921  0.0132  0.8888
 2108SOL    HW117960   2.765   2.003   8.862 -0.7975  1.4243 -0.7995
 2108SOL    HW217961   2.822   2.006   8.721  0.5457  0.2249  1.1415
 2109SOL     OW17962   4.472   4.381   7.435  0.3108 -0.1300 -0.1010
 2109SOL    HW117963   4.420   4.427   7.370  1.5202  2.4936  0.7682
 2109SOL    HW217964   4.562   4.393   7.404 -0.5997 -2.7781 -3.7546
 2110SOL     OW17965   3.232   2.563   8.229  0.4685  0.3746  0.1044
 2110SOL    HW117966   3.148   2.596   8.259 -0.4338 -3.1398  1.4180
 2110SOL    HW217967   3.207   2.541   8.140  1.5159 -1.0901  0.1559
 2111SOL     OW17968   0.545   0.396  10.672 -0.2908 -0.3727 -0.0218
 2111SOL    HW117969   0.602   0.472  10.660  1.3607 -1.4274  1.0646
 2111SOL    HW217970   0.457   0.426  10.651 -0.9794 -3.0273 -0.9430
 2112SOL     OW17971   2.076   3.708   1.254 -0.0489  0.0166 -0.1560
 2112SOL    HW117972   2.143   3.644   1.278 -0.3260 -0.5175 -0.8166
 2112SOL    HW217973   2.075   3.767   1.329  1.6332  1.2726 -1.1158
 2113SOL     OW17974   1.741   3.959  17.114 -0.2644  0.6159  0.1564
 2113SOL    HW117975   1.831   3.931  17.132 -1.0880 -1.8337  0.4437
 2113SOL    HW217976   1.688   3.910  17.177  0.2377  0.4934  0.4912
 2114SOL     OW17977   2.789   1.501   9.161 -0.5456 -0.4873  0.3245
 2114SOL    HW117978   2.711   1.446   9.168 -1.9972  1.4314 -0.7364
 2114SOL    HW217979   2.847   1.463   9.227 -1.2251 -0.9536  0.6405
 2115SOL     OW17980   4.454   1.842  10.875  0.7125 -0.3507  0.4255
 2115SOL    HW117981   4.368   1.859  10.838  0.2360 -1.5392  0.9667
 2115SOL    HW217982   4.484   1.762  10.831 -0.5032 -0.1917 -0.6722
 2116SOL     OW17983   4.122   1.641   5.241 -0.1029 -0.1678 -0.2972
 2116SOL    HW117984   4.163   1.716   5.285  0.9053 -0.9769  0.1424
 2116SOL    HW217985   4.114   1.594   5.324  0.6746  0.7580  0.3075
 2117SOL     OW17986   1.603   2.945  10.874  0.1865  0.4330  0.0499
 2117SOL    HW117987   1.512   2.919  10.893  0.3729 -1.7366 -2.0230
 2117SOL    HW217988   1.640   2.922  10.959 -0.2904  4.2708  1.3051
 2118SOL     OW17989   1.788   3.263   6.023  0.0822  0.0077 -0.1226
 2118SOL    HW117990   1.883   3.257   6.028  0.0836 -0.1171 -0.3192
 2118SOL    HW217991   1.759   3.340   6.072  0.9496 -0.3508  0.9402
 2119SOL     OW17992   3.025   1.356   8.273 -0.3840  0.7823 -0.1629
 2119SOL    HW117993   3.107   1.393   8.241 -0.7918  0.6225 -1.3947
 2119SOL    HW217994   2.957   1.411   8.234  2.1302  3.5501 -0.6378
 2120SOL     OW17995   3.330   4.622   6.060  0.3563 -0.8500  1.0161
 2120SOL    HW117996   3.351   4.545   6.114 -0.1587 -0.6992  1.4273
 2120SOL    HW217997   3.244   4.600   6.024  1.0877 -1.7587 -0.2149
 2121SOL     OW17998   0.950   2.883  13.340 -0.3946 -0.3889 -0.8262
 2121SOL    HW117999   0.929   2.798  13.379 -0.2106 -0.0955 -0.0853
 2121SOL    HW218000   0.994   2.848  13.263 -0.0490 -1.4468 -0.1438
 2122SOL     OW18001   4.061   3.487  13.298  0.0916 -0.2770 -0.3693
 2122SOL    HW118002   4.090   3.565  13.345 -0.3085 -0.0144 -0.5599
 2122SOL    HW218003   3.969   3.508  13.282  0.1628  0.7043  0.5834
 2123SOL     OW18004   0.909   0.297   8.502  0.4900 -0.4850  0.7153
 2123SOL    HW118005   0.899   0.203   8.486  0.0415 -0.4944  1.0437
 2123SOL    HW218006   0.977   0.309   8.435  0.0588 -1.3810  0.1179
 2124SOL     OW18007   4.465   3.665  14.422  0.4360  0.0028  0.0735
 2124SOL    HW118008   4.548   3.627  14.450  1.4518 -0.6153 -3.8464
 2124SOL    HW218009   4.450   3.714  14.504 -2.6604 -0.0858 -0.4432
 2125SOL     OW18010   0.094   4.009   5.916 -0.5088 -0.0936 -0.4224
 2125SOL    HW118011   0.082   4.013   6.011 -0.7039  0.0764 -0.4535
 2125SOL    HW218012   0.056   4.093   5.889 -0.9899 -0.9583 -2.4155
 2126SOL     OW18013   2.045   0.896   7.318 -0.5877  0.5538 -0.5033
 2126SOL    HW118014   2.001   0.868   7.399  0.9064 -1.3165 -0.3365
 2126SOL    HW218015   2.064   0.985   7.350  0.4560  0.0627  0.2630
 2127SOL     OW18016   2.177   4.708   6.727  0.4151 -0.0819  0.6943
 2127SOL    HW118017   2.212   4.683   6.812  0.6097  1.3864  1.0475
 2127SOL    HW218018   2.130   4.627   6.707 -0.7307  1.1405 -1.6062
 2128SOL     OW18019   3.466   4.059   8.962 -0.2285 -0.4391 -0.6544
 2128SOL    HW118020   3.431   3.970   8.962  0.1356 -0.5823 -0.9713
 2128SOL    HW218021   3.394   4.102   9.008 -1.6956 -1.5959 -1.8477
 2129SOL     OW18022   4.286   2.118  13.269 -0.8404  0.0108 -0.3341
 2129SOL    HW118023   4.203   2.072  13.262  0.5135 -2.6633  0.9371
 2129SOL    HW218024   4.272   2.167  13.350 -2.0625 -0.8095 -0.0567
 2130SOL     OW18025   2.107   1.420   2.632  0.0009  0.2200  0.2371
 2130SOL    HW118026   2.190   1.399   2.590 -0.3551 -0.8714  0.0790
 2130SOL    HW218027   2.046   1.349   2.613 -0.1678 -0.4290  3.2439
 2131SOL     OW18028   3.609   0.338   6.593  0.8052  0.3688  0.2058
 2131SOL    HW118029   3.660   0.414   6.565  0.6488  0.1120 -0.7887
 2131SOL    HW218030   3.539   0.340   6.528  0.8098 -3.6611  0.0826
 2132SOL     OW18031   1.114   0.486   5.116 -0.4713 -0.4180 -0.0458
 2132SOL    HW118032   1.196   0.496   5.069 -1.0166 -0.9039 -1.0952
 2132SOL    HW218033   1.100   0.393   5.099  0.7922 -0.4944 -0.6740
 2133SOL     OW18034   3.371   1.072  17.101 -0.1508 -0.3590 -0.3587
 2133SOL    HW118035   3.292   1.058  17.049 -0.1677  0.0578 -0.4426
 2133SOL    HW218036   3.334   1.122  17.173  0.3950 -0.6406  0.1192
 2134SOL     OW18037   3.220   4.707   4.369  0.5948 -0.3153  0.1681
 2134SOL    HW118038   3.262   0.012   4.294  1.2975 -1.0202  0.1599
 2134SOL    HW218039   3.207   0.040   4.431  0.0128 -1.0877  0.9243
 2135SOL     OW18040   3.235   0.153   7.744  0.2684  0.5106  0.7305
 2135SOL    HW118041   3.215   0.234   7.699  3.4284  1.1613  0.4568
 2135SOL    HW218042   3.192   0.089   7.688 -1.2820  1.2566  1.0548
 2136SOL     OW18043   2.850   2.847   6.205  0.5973  0.4161  0.2270
 2136SOL    HW118044   2.823   2.929   6.162 -0.4006  0.7721  1.5513
 2136SOL    HW218045   2.797   2.783   6.158  0.3682 -0.6479  1.9800
 2137SOL     OW18046   4.466   0.096  10.873 -0.0426 -0.4713 -0.0804
 2137SOL    HW118047   4.376   0.115  10.897 -0.0038 -2.1613  1.4714
 2137SOL    HW218048   4.477   0.019  10.929 -1.3938  1.8278  3.3199
 2138SOL     OW18049   2.882   1.681   7.908 -0.2644  0.2521  0.1313
 2138SOL    HW118050   2.831   1.761   7.915 -1.4091 -0.4583 -0.1057
 2138SOL    HW218051   2.974   1.706   7.903 -0.7685  2.6692  3.0464
 2139SOL     OW18052   4.413   1.023  13.324 -0.1331 -0.3285  0.1877
 2139SOL    HW118053   4.369   1.091  13.375 -4.0574 -2.1156 -0.8006
 2139SOL    HW218054   4.459   0.973  13.391  0.9999 -1.3669 -1.3752
 2140SOL     OW18055   0.834   3.538  11.566 -0.1722 -0.0270 -0.6613
 2140SOL    HW118056   0.787   3.621  11.571  0.2800  0.2590 -1.2458
 2140SOL    HW218057   0.767   3.484  11.524  1.0575 -2.7707  0.9131
 2141SOL     OW18058   3.811   1.736   3.486 -0.0875  0.2911 -0.1851
 2141SOL    HW118059   3.895   1.771   3.516 -0.3249 -0.5121  1.4410
 2141SOL    HW218060   3.839   1.646   3.468  0.5021  0.4372  0.0092
 2142SOL     OW18061   0.931   3.354  12.691 -0.1051 -0.0906 -0.1082
 2142SOL    HW118062   0.967   3.442  12.701 -0.0590 -0.0167 -0.9866
 2142SOL    HW218063   0.840   3.375  12.710  0.1350 -1.8585  3.1749
 2143SOL     OW18064   3.310   1.479   5.280  0.1194 -0.2655 -0.5165
 2143SOL    HW118065   3.236   1.477   5.219  0.4585  0.1221 -0.9395
 2143SOL    HW218066   3.287   1.397   5.324  1.2967 -0.7417 -0.8100
 2144SOL     OW18067   4.064   2.446   9.859  0.2805  0.0471  0.6202
 2144SOL    HW118068   4.026   2.508   9.797  0.6727 -0.7333 -0.4150
 2144SOL    HW218069   4.083   2.505   9.932  1.0544 -0.0247  0.4800
 2145SOL     OW18070   1.516   2.121   4.417 -0.0957  0.3126 -1.0339
 2145SOL    HW118071   1.600   2.095   4.378  0.8504  1.3133  0.3647
 2145SOL    HW218072   1.543   2.185   4.482  2.0098 -2.4363  0.7672
 2146SOL     OW18073   2.775   4.195   7.823 -0.0248  0.3607  0.6881
 2146SOL    HW118074   2.737   4.226   7.905  1.6964 -1.7019  2.2602
 2146SOL    HW218075   2.754   4.271   7.769  1.6086  1.3845  1.4857
 2147SOL     OW18076   1.957   2.675  12.781 -0.1162 -0.5299  0.2245
 2147SOL    HW118077   2.026   2.673  12.847 -0.1893  1.6670  0.3826
 2147SOL    HW218078   1.986   2.754  12.734 -0.6588 -0.4705 -0.0053
 2148SOL     OW18079   0.703   3.613   8.651  0.4747  0.0754 -0.0987
 2148SOL    HW118080   0.661   3.528   8.641 -0.3408  0.4702 -0.0569
 2148SOL    HW218081   0.646   3.668   8.705  1.1986  0.7587 -0.0359
 2149SOL     OW18082   3.832   3.155  12.282 -0.2630  0.3804 -0.6532
 2149SOL    HW118083   3.783   3.116  12.354 -0.8436 -0.6346 -1.6062
 2149SOL    HW218084   3.903   3.201  12.327 -0.4415  0.2071 -0.1956
 2150SOL     OW18085   1.249   3.209   2.818 -0.0905  0.4753 -0.5053
 2150SOL    HW118086   1.194   3.220   2.896  0.4815 -1.6859  0.1866
 2150SOL    HW218087   1.260   3.114   2.824 -0.5354  0.6338  2.7662
 2151SOL     OW18088   4.552   2.315   9.135 -0.0451 -0.0456 -0.1256
 2151SOL    HW118089   4.561   2.228   9.097 -0.6414 -0.0192 -0.3267
 2151SOL    HW218090   4.544   2.307   9.230 -0.9901  0.7202 -0.1405
 2152SOL     OW18091   3.164   2.931   8.488 -0.5654  0.2329 -0.4713
 2152SOL    HW118092   3.167   2.990   8.563  1.6161 -1.3459  0.6897
 2152SOL    HW218093   3.223   2.862   8.518  0.0500  0.7725 -0.4251
 2153SOL     OW18094   2.281   4.343  15.931 -0.4343  0.0279 -0.0378
 2153SOL    HW118095   2.271   4.283  16.004  0.1868 -1.0140 -0.8119
 2153SOL    HW218096   2.243   4.290  15.861  1.2157 -0.8139 -0.2863
 2154SOL     OW18097   2.603   3.046  14.887  0.0493  0.8664  0.5127
 2154SOL    HW118098   2.507   3.048  14.881  0.0169  0.2970  0.8196
 2154SOL    HW218099   2.610   2.952  14.900 -1.6177  0.5278 -1.0090
 2155SOL     OW18100   1.573   3.167   0.727  0.1271  0.1553  0.0821
 2155SOL    HW118101   1.479   3.188   0.722  0.1397  0.0652 -0.5779
 2155SOL    HW218102   1.580   3.101   0.795  2.5460  0.8521  0.5000
 2156SOL     OW18103   0.039   0.815   3.818 -0.0882 -0.6366 -0.0256
 2156SOL    HW118104   0.099   0.811   3.744  0.6325 -3.7079  0.6993
 2156SOL    HW218105   0.087   0.755   3.875  2.1925  0.9838 -0.2554
 2157SOL     OW18106   4.243   0.227   6.133  0.0011  0.9394 -0.3760
 2157SOL    HW118107   4.317   0.255   6.079  0.0689 -3.1766 -2.5050
 2157SOL    HW218108   4.177   0.252   6.068  0.0827  0.2879 -0.7182
 2158SOL     OW18109   2.100   4.363   8.085  0.2501 -0.3923  0.0642
 2158SOL    HW118110   2.136   4.450   8.099  0.6134 -0.3616 -1.1281
 2158SOL    HW218111   2.170   4.308   8.119 -0.1695 -0.4630  0.8313
 2159SOL     OW18112   0.759   0.564   6.327  0.3739 -0.2886  0.2092
 2159SOL    HW118113   0.792   0.651   6.349  0.2110 -0.4625  1.1550
 2159SOL    HW218114   0.666   0.566   6.348  0.9746 -1.6802  3.0292
 2160SOL     OW18115   3.700   3.834  16.672 -0.1106  0.0140  0.5588
 2160SOL    HW118116   3.717   3.740  16.686  1.2555 -0.0047 -1.1695
 2160SOL    HW218117   3.774   3.852  16.613 -0.3291 -2.5554 -0.5387
 2161SOL     OW18118   0.721   4.487   6.356 -0.3202  0.0297  0.3347
 2161SOL    HW118119   0.710   4.552   6.425  1.3059  1.0746 -0.3866
 2161SOL    HW218120   0.687   4.410   6.402  2.1105 -1.2203  0.0660
 2162SOL     OW18121   0.750   4.717   4.458 -0.2961 -0.2166 -0.0233
 2162SOL    HW118122   0.686   0.048   4.474 -0.2576 -0.0250 -0.6748
 2162SOL    HW218123   0.719   4.695   4.370  1.4584 -0.8856 -0.4914
 2163SOL     OW18124   0.865   0.144   6.592 -0.0584 -0.7105 -0.0754
 2163SOL    HW118125   0.819   0.196   6.658  0.1919 -0.8582  0.2151
 2163SOL    HW218126   0.875   0.207   6.521  2.4461 -0.6249  0.3627
 2164SOL     OW18127   2.494   3.922   7.545  0.0201 -0.5585  0.4588
 2164SOL    HW118128   2.588   3.918   7.562  0.2029  0.6300 -0.2466
 2164SOL    HW218129   2.456   3.983   7.608  1.7238  0.6048  0.3614
 2165SOL     OW18130   3.130   1.024  15.312 -0.2735 -0.0061  0.1083
 2165SOL    HW118131   3.098   0.967  15.242 -0.2974 -0.6940  0.6765
 2165SOL    HW218132   3.136   1.106  15.263 -0.2380 -0.9033 -1.3961
 2166SOL     OW18133   1.457   3.776   9.356  0.0958 -0.3851  0.6224
 2166SOL    HW118134   1.386   3.793   9.294 -0.5813  2.7006  2.2451
 2166SOL    HW218135   1.406   3.714   9.408  0.8718 -1.3631  0.2139
 2167SOL     OW18136   0.378   3.979   7.767 -0.5116  0.3592  0.4364
 2167SOL    HW118137   0.358   3.990   7.674 -0.8899  1.2937  0.6302
 2167SOL    HW218138   0.469   3.948   7.764 -0.7264 -0.5369  3.0888
 2168SOL     OW18139   0.555   3.822   3.231 -0.1002 -0.2714 -0.1451
 2168SOL    HW118140   0.539   3.838   3.324  3.1635 -0.6167  0.4599
 2168SOL    HW218141   0.648   3.843   3.225  0.1769 -1.0214  1.6044
 2169SOL     OW18142   0.703   0.219   0.989  0.7515  0.0452 -0.3999
 2169SOL    HW118143   0.727   0.160   1.060 -0.1367 -1.6038 -1.4784
 2169SOL    HW218144   0.662   0.165   0.921  0.6282 -0.1667 -0.1542
 2170SOL     OW18145   0.164   4.621   2.693  0.3587  0.0700  0.0647
 2170SOL    HW118146   0.096   4.569   2.735  1.3220 -1.2883 -0.0622
 2170SOL    HW218147   0.236   4.613   2.755  0.4398 -0.4458 -0.0936
 2171SOL     OW18148   0.496   1.848   2.882 -0.2787 -0.2237 -0.1186
 2171SOL    HW118149   0.568   1.903   2.912 -0.8834  2.1526 -3.0542
 2171SOL    HW218150   0.526   1.835   2.792 -0.0110 -0.0265 -0.0595
 2172SOL     OW18151   2.492   0.234   9.225 -0.0535 -0.5974  0.0539
 2172SOL    HW118152   2.436   0.236   9.147  0.8630 -0.8957 -0.6087
 2172SOL    HW218153   2.437   0.199   9.296  2.8638  0.2868  2.7585
 2173SOL     OW18154   2.558   2.133   8.495  0.6114 -0.1428 -0.0158
 2173SOL    HW118155   2.637   2.097   8.456  0.7490  0.1521 -0.0113
 2173SOL    HW218156   2.506   2.143   8.415 -1.1447  0.5590  1.2205
 2174SOL     OW18157   3.363   2.949  11.112 -0.6026  0.5984  0.1866
 2174SOL    HW118158   3.392   3.034  11.080  2.3141 -1.1455 -1.7226
 2174SOL    HW218159   3.445   2.905  11.134 -1.7984 -1.1609  1.1816
 2175SOL     OW18160   4.063   4.383   5.190  0.8934  0.4715  0.1924
 2175SOL    HW118161   4.058   4.439   5.268  2.6375  0.5937  0.2307
 2175SOL    HW218162   4.115   4.307   5.216  0.3997  0.4436  1.1261
 2176SOL     OW18163   1.961   4.073   6.410  0.0408 -0.1769 -0.1836
 2176SOL    HW118164   1.913   4.093   6.330 -3.0826 -0.0996  1.7029
 2176SOL    HW218165   2.014   4.001   6.375  0.2734 -0.1410  0.0922
 2177SOL     OW18166   1.924   1.760   9.014 -0.6942 -0.3722 -0.7833
 2177SOL    HW118167   1.897   1.808   9.093 -0.8016  0.0361 -1.0676
 2177SOL    HW218168   1.889   1.673   9.035 -0.4066 -0.5285 -0.9469
 2178SOL     OW18169   3.512   3.210   7.096  0.0412  0.6161  0.7938
 2178SOL    HW118170   3.468   3.290   7.066  0.9339 -0.4553 -3.3318
 2178SOL    HW218171   3.513   3.150   7.021  0.3153 -0.2757  1.5157
 2179SOL     OW18172   0.586   1.784   4.617  0.6321  0.5144  0.1862
 2179SOL    HW118173   0.676   1.807   4.595  0.7691  1.2066  1.4773
 2179SOL    HW218174   0.592   1.705   4.562  0.0046  0.7743 -0.2597
 2180SOL     OW18175   0.551   1.970   7.218 -0.0616  0.0766  0.6581
 2180SOL    HW118176   0.543   1.885   7.261 -0.6567 -0.7851 -1.1774
 2180SOL    HW218177   0.465   2.009   7.238 -1.5789 -2.3367 -1.2092
 2181SOL     OW18178   2.964   3.817   7.811 -0.3050  0.4462  0.3455
 2181SOL    HW118179   2.913   3.768   7.875 -2.7354  0.3623 -1.6555
 2181SOL    HW218180   2.992   3.900   7.849  1.8282  0.5192 -1.3263
 2182SOL     OW18181   2.517   3.385   6.019  0.1187  0.6235 -0.0031
 2182SOL    HW118182   2.604   3.350   6.037 -0.6296 -0.7391  0.9426
 2182SOL    HW218183   2.477   3.314   5.969 -0.1655  0.4711  0.4396
 2183SOL     OW18184   2.344   2.128   5.621  0.1708  0.0016 -0.0562
 2183SOL    HW118185   2.299   2.162   5.699  1.3298 -0.2186  0.7139
 2183SOL    HW218186   2.432   2.127   5.659  1.4078 -3.4998 -3.0453
 2184SOL     OW18187   4.014   0.664   3.521 -0.7155  0.2029 -0.2950
 2184SOL    HW118188   4.082   0.612   3.479 -0.2324 -0.1979  0.9803
 2184SOL    HW218189   3.939   0.626   3.475 -0.4684 -0.8760  0.1903
 2185SOL     OW18190   2.662   0.201   3.727  0.3640 -0.0835 -0.4461
 2185SOL    HW118191   2.592   0.152   3.682 -1.6307 -1.2320  3.8700
 2185SOL    HW218192   2.721   0.221   3.654  0.1876  1.9718 -0.0347
 2186SOL     OW18193   4.183   2.620   6.568  0.3932 -0.3189 -0.3717
 2186SOL    HW118194   4.159   2.638   6.659  1.2684 -1.4064  0.0823
 2186SOL    HW218195   4.264   2.671   6.561 -0.3463  0.8305 -0.5074
 2187SOL     OW18196   3.468   3.128   7.530 -0.0706  0.3321 -0.0373
 2187SOL    HW118197   3.469   3.058   7.595 -0.2201  1.6993  1.4545
 2187SOL    HW218198   3.429   3.088   7.452 -1.9142  2.6638 -0.3280
 2188SOL     OW18199   1.405   2.515  14.064 -0.4206 -0.9169  0.2945
 2188SOL    HW118200   1.353   2.516  14.144  0.4771 -1.5169  0.8943
 2188SOL    HW218201   1.334   2.502  14.001  0.5403 -2.1670 -0.5324
 2189SOL     OW18202   2.929   2.101   7.017  0.2947  0.1452  0.2741
 2189SOL    HW118203   2.876   2.107   7.096 -0.2553 -0.2067 -0.0666
 2189SOL    HW218204   2.978   2.023   7.044 -0.2564 -0.9820 -2.0469
 2190SOL     OW18205   0.002   2.329  13.257  0.4033 -0.1764  0.0066
 2190SOL    HW118206   4.668   2.267  13.266  1.5129 -1.5143 -0.2447
 2190SOL    HW218207   4.700   2.391  13.197  0.6379  0.5975  0.6546
 2191SOL     OW18208   4.333   2.493  15.959 -0.4767 -0.2492 -0.0893
 2191SOL    HW118209   4.306   2.533  15.877  0.0689  1.3468  0.5131
 2191SOL    HW218210   4.405   2.553  15.979 -1.7379  0.5815  1.9195
 2192SOL     OW18211   3.647   3.054   8.968  0.0466 -0.3729  0.2572
 2192SOL    HW118212   3.559   3.088   8.953  0.2502  0.1516  0.2607
 2192SOL    HW218213   3.675   3.033   8.879  2.0291 -1.6992  1.1837
 2193SOL     OW18214   2.120   0.783   5.392 -0.0761  0.2740 -0.4399
 2193SOL    HW118215   2.091   0.867   5.355 -0.6087  0.2365 -0.1084
 2193SOL    HW218216   2.187   0.751   5.333  1.3789  1.8356  0.3440
 2194SOL     OW18217   1.723   1.126  17.630 -0.2965 -0.1100  0.4654
 2194SOL    HW118218   1.645   1.089  17.672  0.7105 -2.7688 -0.0282
 2194SOL    HW218219   1.792   1.109  17.694  0.3151 -0.1470 -0.2056
 2195SOL     OW18220   3.938   3.797   9.629 -0.1233  0.6450  0.0121
 2195SOL    HW118221   3.964   3.887   9.608  0.2741 -0.0724 -2.5541
 2195SOL    HW218222   3.974   3.797   9.718  0.6548 -1.8031 -0.3059
 2196SOL     OW18223   1.615   1.086   0.306  0.0006 -0.3866  0.4579
 2196SOL    HW118224   1.677   1.039   0.251  0.5655 -0.9997  1.6164
 2196SOL    HW218225   1.635   1.180   0.301 -0.8030 -0.2494 -0.0882
 2197SOL     OW18226   3.783   3.124   8.011  0.2852 -0.1568 -0.5276
 2197SOL    HW118227   3.707   3.066   8.017  0.0215  0.0291 -2.1115
 2197SOL    HW218228   3.774   3.155   7.920 -2.6736  1.4445  0.3051
 2198SOL     OW18229   0.092   4.160   5.520 -0.1582  0.2360 -0.2842
 2198SOL    HW118230   0.165   4.099   5.533  1.2408  2.2887  1.5522
 2198SOL    HW218231   0.147   4.227   5.479 -0.9354  2.1583  1.7951
 2199SOL     OW18232   0.517   2.120   7.675  0.8215  0.1247  0.7469
 2199SOL    HW118233   0.439   2.174   7.688  0.4486 -0.0886 -0.5146
 2199SOL    HW218234   0.540   2.105   7.766  0.9075 -1.6380  0.4478
 2200SOL     OW18235   3.165   1.129  13.882 -0.3193  0.1475  0.6984
 2200SOL    HW118236   3.128   1.207  13.840 -0.7446 -1.4300 -1.8784
 2200SOL    HW218237   3.129   1.140  13.969 -2.1258  0.4646 -0.1013
 2201SOL     OW18238   4.641   2.970   4.247 -0.2783  0.2268  0.3787
 2201SOL    HW118239   4.631   3.053   4.293  1.0157  0.8553 -0.4685
 2201SOL    HW218240   4.735   2.958   4.257 -0.2927  0.6387  1.0503
 2202SOL     OW18241   4.514   0.479   7.898 -0.3645 -0.2873 -0.3650
 2202SOL    HW118242   4.473   0.409   7.849 -1.3082  1.6441 -2.3210
 2202SOL    HW218243   4.558   0.435   7.971 -0.2863 -0.5174 -0.5518
 2203SOL     OW18244   2.915   0.146  15.477 -0.5009  0.6016  0.5800
 2203SOL    HW118245   2.893   0.239  15.490  0.7117  0.4945  3.4592
 2203SOL    HW218246   2.963   0.131  15.558  0.4646 -0.3169 -0.1738
 2204SOL     OW18247   4.646   4.058   6.188  0.2939  0.8242  0.3367
 2204SOL    HW118248   4.659   3.969   6.220 -1.0667  0.2372 -0.7203
 2204SOL    HW218249   4.556   4.069   6.220  0.0924 -1.0447  0.4554
 2205SOL     OW18250   2.147   2.324  11.942 -0.0430  0.1140 -0.4168
 2205SOL    HW118251   2.192   2.306  12.024 -1.7569  1.2786  0.7873
 2205SOL    HW218252   2.060   2.291  11.965  0.2408 -0.0534  0.4294
 2206SOL     OW18253   4.568   2.329   9.612  0.5353 -0.0877  0.4242
 2206SOL    HW118254   4.509   2.296   9.545  0.9886  1.6122 -0.8005
 2206SOL    HW218255   4.535   2.415   9.636 -0.5301 -0.7217  1.2000
 2207SOL     OW18256   1.521   4.140  11.452  0.0874  0.0574  0.6345
 2207SOL    HW118257   1.574   4.068  11.486  2.6266  0.6581 -2.0601
 2207SOL    HW218258   1.431   4.110  11.469  0.9461 -2.7211  0.2875
 2208SOL     OW18259   0.058   0.337   4.090 -0.6021  0.6027  0.1248
 2208SOL    HW118260   0.064   0.375   4.002  0.5494 -1.3248 -0.6145
 2208SOL    HW218261   0.150   0.319   4.108  0.0528  4.8373  0.9498
 2209SOL     OW18262   0.603   3.891  14.277  0.2711 -0.2140  0.3047
 2209SOL    HW118263   0.662   3.862  14.346  1.2559  1.4002  0.1294
 2209SOL    HW218264   0.549   3.955  14.322 -2.1091 -1.0069 -1.4246
 2210SOL     OW18265   3.954   0.592   2.102  0.2934  0.1047  0.5367
 2210SOL    HW118266   3.999   0.520   2.059  0.1014  0.7968 -0.8334
 2210SOL    HW218267   3.930   0.660   2.039 -1.5735 -0.2628  0.8524
 2211SOL     OW18268   3.273   4.524  16.961  0.0534  0.1309  0.2701
 2211SOL    HW118269   3.238   4.436  16.949  2.1816 -0.5873 -0.6192
 2211SOL    HW218270   3.367   4.510  16.964  0.1545  1.0592  1.4972
 2212SOL     OW18271   2.514   2.091  10.501  0.2968  0.1391 -0.5859
 2212SOL    HW118272   2.439   2.067  10.555  0.2948  0.2493 -0.5403
 2212SOL    HW218273   2.470   2.133  10.428 -1.5885 -0.3004  0.3026
 2213SOL     OW18274   4.347   0.218   4.195  0.3513 -0.2428  0.0859
 2213SOL    HW118275   4.388   0.173   4.268  0.5453 -0.3047 -0.0601
 2213SOL    HW218276   4.422   0.218   4.135 -1.0235  2.3967 -1.6351
 2214SOL     OW18277   2.090   4.299   4.283  0.2808 -0.5577 -0.5142
 2214SOL    HW118278   2.035   4.324   4.208  0.1196  1.2083  0.1812
 2214SOL    HW218279   2.080   4.379   4.336 -2.3860 -2.1533  1.3740
 2215SOL     OW18280   1.303   0.027   7.348 -0.3878 -0.0983 -0.2688
 2215SOL    HW118281   1.367   0.059   7.411  0.6536 -1.1528 -0.7885
 2215SOL    HW218282   1.290   0.095   7.282 -0.3882  0.2311  0.0744
 2216SOL     OW18283   3.251   3.081   2.116  0.3287 -0.2500  0.2918
 2216SOL    HW118284   3.249   3.090   2.020  2.9266 -2.7026  0.0103
 2216SOL    HW218285   3.344   3.100   2.128  0.1842  0.0168  0.9983
 2217SOL     OW18286   3.785   1.374  14.482 -0.5675  0.5054  0.3894
 2217SOL    HW118287   3.785   1.428  14.561  0.1158 -1.4319  1.6974
 2217SOL    HW218288   3.785   1.284  14.513  1.5061  0.5575  0.4958
 2218SOL     OW18289   4.632   2.426   4.309  0.8533  0.1154  0.0066
 2218SOL    HW118290   4.583   2.405   4.389  1.6061  0.2986  0.5070
 2218SOL    HW218291   4.706   2.366   4.314 -0.0002 -1.1691 -2.3910
 2219SOL     OW18292   3.136   0.351   8.335  0.0179  0.4948 -0.1768
 2219SOL    HW118293   3.149   0.329   8.427  1.8134 -2.0293 -1.0139
 2219SOL    HW218294   3.187   0.432   8.339  1.4681 -0.5225  1.6063
 2220SOL     OW18295   1.316   0.129   6.595 -0.1846 -0.4199  0.0759
 2220SOL    HW118296   1.359   0.201   6.548 -1.3530  0.3559  0.1960
 2220SOL    HW218297   1.223   0.124   6.570 -0.2900 -0.4457  0.4774
 2221SOL     OW18298   3.934   1.290   7.811  0.1227  0.0475  0.1466
 2221SOL    HW118299   3.925   1.195   7.808 -0.8865  0.0882  1.6114
 2221SOL    HW218300   3.843   1.319   7.807  0.3322  0.7457  0.4664
 2222SOL     OW18301   4.018   1.951   5.642  0.3792  0.0038 -0.1113
 2222SOL    HW118302   4.080   2.007   5.595 -0.6188  0.4190 -0.9232
 2222SOL    HW218303   4.065   1.929   5.723 -0.0740  0.3956  0.2552
 2223SOL     OW18304   2.625   2.260   4.326 -0.3968  0.1905  0.5831
 2223SOL    HW118305   2.639   2.293   4.415  0.3103 -1.4443  1.0716
 2223SOL    HW218306   2.541   2.214   4.331 -0.7327  1.0586  3.0923
 2224SOL     OW18307   4.108   3.243   9.743  0.3381 -0.2026  0.1657
 2224SOL    HW118308   4.079   3.152   9.757 -0.5232  0.3156  1.7798
 2224SOL    HW218309   4.175   3.233   9.676  0.3966  0.9517  0.0537
 2225SOL     OW18310   2.557   2.889   2.264 -0.2628  0.1457  0.0006
 2225SOL    HW118311   2.521   2.965   2.219 -1.7627 -2.3974 -3.1398
 2225SOL    HW218312   2.489   2.830   2.231 -1.1426  0.2680  1.5745
 2226SOL     OW18313   0.010   0.336   2.957 -0.6446 -0.4775  0.2964
 2226SOL    HW118314   0.091   0.351   2.909 -0.8770  0.9601  0.3414
 2226SOL    HW218315   4.687   0.397   2.916 -0.5403 -1.8045 -1.8376
 2227SOL     OW18316   0.641   1.807   4.928  0.0022  0.6586 -0.1982
 2227SOL    HW118317   0.701   1.868   4.971 -0.5056 -0.6245  2.3298
 2227SOL    HW218318   0.646   1.828   4.834 -0.0848  1.7082  0.0306
 2228SOL     OW18319   0.970   1.215   3.949 -0.0940  0.3915 -0.7243
 2228SOL    HW118320   0.931   1.297   3.980  0.2300  0.6942 -1.1127
 2228SOL    HW218321   0.933   1.145   4.002 -2.5153  1.6738 -0.6923
 2229SOL     OW18322   1.293   4.609   3.376 -0.0615 -0.3131 -0.0533
 2229SOL    HW118323   1.245   4.528   3.396  1.1775 -0.5804  1.8248
 2229SOL    HW218324   1.385   4.586   3.388  1.0163  3.1027 -1.8301
 2230SOL     OW18325   3.313   4.499   5.595  0.3730  0.2775 -0.3625
 2230SOL    HW118326   3.408   4.496   5.599  0.3885 -0.7804 -1.5728
 2230SOL    HW218327   3.296   4.577   5.647 -0.3964 -1.5006  2.0608
 2231SOL     OW18328   2.522   3.617  10.484 -0.0994  0.3113  0.2386
 2231SOL    HW118329   2.432   3.591  10.505  0.0371 -0.2870  0.0881
 2231SOL    HW218330   2.552   3.650  10.569  0.1438  0.2127  0.1933
 2232SOL     OW18331   3.376   3.107   5.194  0.1793 -0.5902  0.2229
 2232SOL    HW118332   3.469   3.127   5.195 -0.2803  1.5129  1.1092
 2232SOL    HW218333   3.343   3.173   5.255  0.3902 -1.3438  1.1503
 2233SOL     OW18334   0.326   0.754   0.570  0.2872  0.3498 -0.0990
 2233SOL    HW118335   0.388   0.758   0.644 -0.0714  0.2399  0.2083
 2233SOL    HW218336   0.349   0.830   0.516  0.1470  1.3640  1.2397
 2234SOL     OW18337   2.132   4.495   4.461  0.1918  0.7047  0.3966
 2234SOL    HW118338   2.119   4.538   4.546 -0.1090 -0.1421  0.7794
 2234SOL    HW218339   2.227   4.486   4.469 -0.0564 -1.9632  0.3756
 2235SOL     OW18340   4.737   0.865   9.286  0.5293  0.3894 -0.1798
 2235SOL    HW118341   0.010   0.885   9.379 -0.8285  2.0570 -0.3810
 2235SOL    HW218342   0.073   0.915   9.252  1.7618 -1.0001  0.4735
 2236SOL     OW18343   2.132   1.456   5.005  0.1707 -0.5589  0.5202
 2236SOL    HW118344   2.146   1.550   5.000 -0.2639 -0.5350 -0.1410
 2236SOL    HW218345   2.126   1.440   5.100  1.3273 -1.3966  0.4531
 2237SOL     OW18346   2.136   2.573   8.390  0.4181  0.0258 -0.2219
 2237SOL    HW118347   2.154   2.667   8.397  0.6391 -0.0051 -0.3364
 2237SOL    HW218348   2.058   2.570   8.444 -0.4912  0.4296 -1.5217
 2238SOL     OW18349   2.833   4.658  14.346  0.4308 -0.3235  0.3193
 2238SOL    HW118350   2.916   4.703  14.361 -0.5143  1.6272 -0.3344
 2238SOL    HW218351   2.774   4.695  14.411  0.1011 -0.9449  0.3747
 2239SOL     OW18352   1.200   2.553   9.376  0.1208  0.0708 -0.0445
 2239SOL    HW118353   1.105   2.548   9.388  0.1084  1.0779  0.2883
 2239SOL    HW218354   1.217   2.534   9.284 -1.1691 -0.7092 -0.1240
 2240SOL     OW18355   2.401   3.797   9.918  0.0036  0.0676 -0.0696
 2240SOL    HW118356   2.326   3.850   9.946  0.1861  0.8024 -0.9491
 2240SOL    HW218357   2.366   3.708   9.927  1.6277 -0.4958  0.6296
 2241SOL     OW18358   1.031   0.925   6.060  0.1966  0.0478  0.5355
 2241SOL    HW118359   0.989   0.844   6.030 -1.3069  0.7665  0.6965
 2241SOL    HW218360   1.052   0.919   6.153 -0.3436 -0.0312  0.6562
 2242SOL     OW18361   2.235   2.207  15.734  0.0836 -0.1330 -0.5406
 2242SOL    HW118362   2.315   2.240  15.692 -0.9997  2.2330 -0.7650
 2242SOL    HW218363   2.221   2.135  15.672  1.8601 -0.9233 -0.0027
 2243SOL     OW18364   2.616   4.228   6.324 -0.1501 -0.3879  0.0345
 2243SOL    HW118365   2.525   4.245   6.300  0.4654  0.5666 -1.6181
 2243SOL    HW218366   2.616   4.133   6.336 -0.1723 -0.6697 -2.1880
 2244SOL     OW18367   0.878   3.154   9.614 -0.1595  0.4471 -0.2106
 2244SOL    HW118368   0.825   3.082   9.578  2.2958 -2.4365  2.0276
 2244SOL    HW218369   0.945   3.095   9.647 -0.7180 -0.3790 -0.5331
 2245SOL     OW18370   4.019   4.311  16.139  0.6266  0.4258  0.6508
 2245SOL    HW118371   4.063   4.258  16.205  2.3581  2.2371  0.9575
 2245SOL    HW218372   4.018   4.253  16.063  3.4940  0.5862  0.5089
 2246SOL     OW18373   3.170   1.570   8.751  0.1007 -0.1915  0.0835
 2246SOL    HW118374   3.166   1.513   8.827  1.2247  3.5168  2.9233
 2246SOL    HW218375   3.122   1.652   8.765 -0.0423 -0.2550 -0.0380
 2247SOL     OW18376   2.664   3.452   8.109 -0.1534  0.0336 -0.0049
 2247SOL    HW118377   2.672   3.386   8.178  1.4465  2.1827  1.8771
 2247SOL    HW218378   2.584   3.422   8.065 -1.1489  0.8832  1.2073
 2248SOL     OW18379   4.161   1.095   3.989  0.3547  0.2488  0.0115
 2248SOL    HW118380   4.215   1.156   3.939  3.5924 -1.5213  1.3952
 2248SOL    HW218381   4.205   1.096   4.074 -1.5136 -0.7505  0.9895
 2249SOL     OW18382   3.355   3.540   5.026 -0.2794  0.2339  0.2007
 2249SOL    HW118383   3.276   3.509   4.981 -0.4683  1.7296 -0.4780
 2249SOL    HW218384   3.304   3.551   5.106 -2.0793  1.4114 -1.1110
 2250SOL     OW18385   1.953   3.123   5.599  0.6372 -0.5996  0.0583
 2250SOL    HW118386   1.912   3.079   5.525  1.8268 -1.6580  0.0329
 2250SOL    HW218387   1.941   3.055   5.665  2.5841 -0.7687  0.2210
 2251SOL     OW18388   2.202   3.099   0.995  0.1711  0.8156  0.4030
 2251SOL    HW118389   2.214   3.188   0.964  0.2698  0.6838  0.0621
 2251SOL    HW218390   2.107   3.088   0.997  0.0349  2.2975  1.7343
 2252SOL     OW18391   1.415   3.137   4.881  0.5442 -0.0526 -0.3673
 2252SOL    HW118392   1.449   3.076   4.946 -0.0877  0.1607  0.1535
 2252SOL    HW218393   1.396   3.210   4.940  1.0370 -0.0485 -0.2109
 2253SOL     OW18394   1.345   1.690   7.101  0.4649  0.5867 -0.7310
 2253SOL    HW118395   1.284   1.760   7.122  0.7569  0.4603  0.5366
 2253SOL    HW218396   1.316   1.624   7.164  0.4901 -0.5255 -1.8993
 2254SOL     OW18397   0.722   4.267   5.204 -0.3348  0.2995  0.6858
 2254SOL    HW118398   0.642   4.274   5.257 -0.8509  2.6594 -0.3937
 2254SOL    HW218399   0.761   4.185   5.233  1.8636  0.8642 -0.6363
 2255SOL     OW18400   4.494   0.412  11.079 -0.2482 -0.1991  0.1900
 2255SOL    HW118401   4.490   0.409  11.174  0.7996  0.9755  0.2557
 2255SOL    HW218402   4.549   0.337  11.056 -0.2503  0.0044 -0.4828
 2256SOL     OW18403   2.567   1.461  10.521  0.1788 -0.0599  0.0740
 2256SOL    HW118404   2.624   1.486  10.448 -0.1836  1.0829  0.1905
 2256SOL    HW218405   2.618   1.497  10.593  0.7997 -1.3397  0.2806
 2257SOL     OW18406   3.351   2.833   6.315 -0.2452 -0.2768 -0.1464
 2257SOL    HW118407   3.423   2.868   6.262 -1.3427  1.1096 -0.7021
 2257SOL    HW218408   3.269   2.858   6.274 -1.2835  0.2172  2.2034
 2258SOL     OW18409   4.728   4.448  14.101 -0.1526  1.0021 -0.4215
 2258SOL    HW118410   0.076   4.422  14.067 -0.0057  0.5749  0.2703
 2258SOL    HW218411   0.013   4.479  14.188  0.8968  2.8326 -1.3640
 2259SOL     OW18412   2.170   0.087   1.560 -0.7485  0.2564  0.4485
 2259SOL    HW118413   2.253   0.095   1.513 -0.7015  1.5708  0.7381
 2259SOL    HW218414   2.146   0.177   1.537 -0.3019  0.4623  0.8004
 2260SOL     OW18415   3.351   0.832   1.896 -0.4840 -0.1177  0.0842
 2260SOL    HW118416   3.287   0.883   1.846  0.8435  2.2742  0.8095
 2260SOL    HW218417   3.305   0.749   1.902 -2.9431  1.2436  0.2845
 2261SOL     OW18418   0.386   2.739   9.836 -0.1570 -0.0016 -0.4071
 2261SOL    HW118419   0.468   2.724   9.789  0.2398  0.4575  0.1307
 2261SOL    HW218420   0.364   2.826   9.802  1.2031  0.2584 -0.6447
 2262SOL     OW18421   2.178   1.885   3.615  0.4152 -0.3252 -0.5318
 2262SOL    HW118422   2.222   1.801   3.605 -0.9617 -1.0747 -0.3274
 2262SOL    HW218423   2.251   1.940   3.643  0.5209 -0.9729  0.4491
 2263SOL     OW18424   3.099   1.089   7.824  0.3124  0.0645  0.1064
 2263SOL    HW118425   3.147   1.172   7.824  0.2608  0.1016  0.9347
 2263SOL    HW218426   3.132   1.058   7.740 -1.0018  1.6765 -0.9961
 2264SOL     OW18427   1.445   2.849   9.375 -0.4085  0.4789  0.1222
 2264SOL    HW118428   1.479   2.776   9.428 -1.3369 -1.2177 -1.6107
 2264SOL    HW218429   1.439   2.912   9.447 -1.1269  0.3368  0.1898
 2265SOL     OW18430   2.336   1.718  11.367  0.0913  0.1316  0.1057
 2265SOL    HW118431   2.391   1.759  11.433 -1.0934 -1.0616  1.8208
 2265SOL    HW218432   2.256   1.706  11.419  0.2692 -0.5895  0.2009
 2266SOL     OW18433   2.524   4.521   2.369 -0.1490  0.2657 -0.6962
 2266SOL    HW118434   2.579   4.590   2.405  0.2535 -0.1495 -0.5120
 2266SOL    HW218435   2.543   4.441   2.419  0.1590 -0.3023 -1.7406
 2267SOL     OW18436   3.915   0.021   3.015  0.4257  0.4855  0.6110
 2267SOL    HW118437   3.909   4.667   2.991 -1.5487  0.5568  0.8323
 2267SOL    HW218438   3.960   0.013   3.099  0.7229  1.7114  0.5635
 2268SOL     OW18439   2.806   1.311   4.363 -0.3577 -0.8559 -0.1052
 2268SOL    HW118440   2.764   1.226   4.377 -1.9505 -0.1750 -0.7001
 2268SOL    HW218441   2.851   1.282   4.284 -0.8591 -2.2222  0.1168
 2269SOL     OW18442   2.902   0.390   8.767  0.7219 -0.9708 -0.1981
 2269SOL    HW118443   2.871   0.360   8.853 -1.0663 -0.6927 -0.7485
 2269SOL    HW218444   2.993   0.404   8.793  1.3152 -0.2799 -2.6850
 2270SOL     OW18445   3.595   1.783   2.668  0.1595  0.2073  0.1621
 2270SOL    HW118446   3.633   1.869   2.683  1.3399 -0.2586 -0.1073
 2270SOL    HW218447   3.674   1.737   2.697  1.4002  1.9441 -0.4482
 2271SOL     OW18448   4.305   1.562   9.364 -0.3441 -0.4734  0.0511
 2271SOL    HW118449   4.372   1.608   9.315  0.6186 -2.4925 -0.5451
 2271SOL    HW218450   4.349   1.519   9.438  0.5222  1.2641  0.5298
 2272SOL     OW18451   1.004   2.741   7.221 -0.2337  0.6238  0.1596
 2272SOL    HW118452   0.972   2.828   7.196 -2.0162 -0.7678 -2.3272
 2272SOL    HW218453   0.993   2.741   7.317  1.7706 -1.0354  0.3826
 2273SOL     OW18454   1.153   2.808   3.913 -0.2649  0.2147  0.4135
 2273SOL    HW118455   1.114   2.887   3.873  2.3955  1.0332 -0.5891
 2273SOL    HW218456   1.202   2.854   3.980 -0.3771  0.7979  0.0968
 2274SOL     OW18457   0.194   0.439   3.561 -0.3852  0.0696  0.2182
 2274SOL    HW118458   0.286   0.415   3.570 -0.5953  0.0375  2.4126
 2274SOL    HW218459   0.174   0.419   3.470  0.6360  3.2900 -0.6807
 2275SOL     OW18460   1.470   2.753   4.109 -0.0663  0.0888  0.0578
 2275SOL    HW118461   1.416   2.681   4.079  2.8404 -1.9756 -0.2412
 2275SOL    HW218462   1.413   2.799   4.171 -0.4693  1.2122 -1.1513
 2276SOL     OW18463   3.112   2.831   7.012  0.2367 -0.1234 -0.1133
 2276SOL    HW118464   3.156   2.856   7.093 -2.0596  2.6509  0.2661
 2276SOL    HW218465   3.020   2.847   7.033  0.4374  0.3991  0.3543
 2277SOL     OW18466   2.054   2.776   6.587  0.8584  0.0187 -0.2163
 2277SOL    HW118467   1.980   2.718   6.606  1.8025 -0.1886  2.8872
 2277SOL    HW218468   2.029   2.816   6.503  1.1772 -1.6223 -1.0817
 2278SOL     OW18469   2.401   1.310  15.772 -0.4364 -0.0897  0.1355
 2278SOL    HW118470   2.387   1.404  15.763  0.7823  0.0287 -0.5502
 2278SOL    HW218471   2.328   1.284  15.716 -0.8537  0.9071  0.2239
 2279SOL     OW18472   2.715   2.343   0.227  0.2110  0.2187  0.1455
 2279SOL    HW118473   2.759   2.398   0.163 -1.2870  1.5839  0.2912
 2279SOL    HW218474   2.671   2.412   0.277  0.3408  0.5989 -0.2680
 2280SOL     OW18475   4.477   2.885   4.526  0.1064  0.7621  0.5895
 2280SOL    HW118476   4.406   2.947   4.509  1.2853  2.2555  1.1134
 2280SOL    HW218477   4.529   2.946   4.578  0.7617  2.0350 -1.5512
 2281SOL     OW18478   0.123   1.111   5.145  0.2538 -0.1476  0.3910
 2281SOL    HW118479   0.196   1.172   5.135 -0.0842  0.4859  1.7155
 2281SOL    HW218480   0.058   1.166   5.190 -2.5483 -1.2400 -2.2829
 2282SOL     OW18481   0.004   1.917   3.151  0.1450 -0.4423 -0.4636
 2282SOL    HW118482   0.089   1.943   3.115  0.3238 -1.3634 -0.6933
 2282SOL    HW218483   4.689   1.996   3.156  0.2492 -0.4325  0.3947
 2283SOL     OW18484   1.261   0.469   3.146 -0.0020  0.1499  0.0546
 2283SOL    HW118485   1.283   0.515   3.227  1.7271  1.4987 -1.1948
 2283SOL    HW218486   1.261   0.545   3.087 -0.1402  0.1350  0.0340
 2284SOL     OW18487   0.525   0.177   3.536 -0.0976  0.2281 -0.4313
 2284SOL    HW118488   0.525   0.082   3.522  1.2086  0.1186  0.2252
 2284SOL    HW218489   0.472   0.211   3.464  0.9338  3.9475  0.5247
 2285SOL     OW18490   2.578   3.220   6.260 -0.0770  0.0436 -0.2607
 2285SOL    HW118491   2.562   3.299   6.312  1.6466 -1.7043  2.9266
 2285SOL    HW218492   2.661   3.193   6.300  1.1444  1.8069 -1.6174
 2286SOL     OW18493   4.205   1.539   8.382 -0.4013  0.0071 -0.1373
 2286SOL    HW118494   4.138   1.524   8.315 -0.3350  1.0020 -0.4187
 2286SOL    HW218495   4.284   1.492   8.354  1.0739  2.7706 -0.6252
 2287SOL     OW18496   1.740   2.374   2.144 -0.3563  0.1029 -0.3494
 2287SOL    HW118497   1.718   2.298   2.198  1.7308 -0.7305 -0.7018
 2287SOL    HW218498   1.833   2.355   2.133 -0.7699 -2.2579  0.2866
 2288SOL     OW18499   0.181   1.055   0.503  0.0136 -0.7198  0.5366
 2288SOL    HW118500   0.265   1.082   0.540  0.4020 -1.1103 -0.0482
 2288SOL    HW218501   0.171   1.119   0.432  0.5950 -0.5100  0.6376
 2289SOL     OW18502   3.115   1.020   2.557  0.1318  0.3147  0.5393
 2289SOL    HW118503   3.199   1.067   2.556  0.8433 -1.0220 -0.9288
 2289SOL    HW218504   3.111   0.996   2.650 -1.8899  0.3868  0.4644
 2290SOL     OW18505   0.959   1.368   2.088  0.0781  0.3306  0.8386
 2290SOL    HW118506   0.865   1.387   2.095  0.0467  0.4783 -0.0060
 2290SOL    HW218507   0.969   1.347   1.995  0.4302  2.2387  0.4289
 2291SOL     OW18508   0.207   4.164   3.359 -0.0101 -0.0370 -0.1574
 2291SOL    HW118509   0.231   4.183   3.449  0.1688 -2.3360  0.2824
 2291SOL    HW218510   0.132   4.104   3.357 -0.3269  0.3889 -1.1150
 2292SOL     OW18511   4.473   0.029   8.769 -0.3891  0.2572 -0.2224
 2292SOL    HW118512   4.475   4.672   8.761 -0.2241  0.2353  0.0939
 2292SOL    HW218513   4.553   0.048   8.719 -1.5354 -0.0563 -2.1773
 2293SOL     OW18514   2.391   0.360   4.608  0.2995  0.3901  0.1690
 2293SOL    HW118515   2.460   0.315   4.561  0.9622  0.9575  0.5926
 2293SOL    HW218516   2.451   0.403   4.669 -1.2398  0.8305  1.3694
 2294SOL     OW18517   0.430   2.576   3.344 -0.0393  0.1455  1.0613
 2294SOL    HW118518   0.391   2.659   3.316  2.0796  0.5009 -0.9066
 2294SOL    HW218519   0.349   2.529   3.361  0.2219  0.0228  1.9360
 2295SOL     OW18520   4.283   1.142  16.617 -0.0359  0.0687  0.6747
 2295SOL    HW118521   4.234   1.200  16.559 -0.2783  0.7771  1.5774
 2295SOL    HW218522   4.204   1.113  16.663 -0.3495  0.6092  0.4674
 2296SOL     OW18523   1.065   4.732   8.097 -0.2085 -0.4587 -0.6357
 2296SOL    HW118524   1.128   0.029   8.159  1.6085  0.2713 -2.8700
 2296SOL    HW218525   1.101   0.038   8.020  0.4974  0.2265  0.0923
 2297SOL     OW18526   0.755   1.305   7.778 -0.2826  0.0853  0.1419
 2297SOL    HW118527   0.757   1.301   7.873 -2.2395 -0.6416  0.1533
 2297SOL    HW218528   0.728   1.396   7.761 -1.4830 -0.2285  0.4068
 2298SOL     OW18529   2.392   0.169   8.968 -0.1463  0.1615 -0.1951
 2298SOL    HW118530   2.429   0.207   8.889  0.5568  0.0138  0.0606
 2298SOL    HW218531   2.447   0.091   8.963 -0.7198 -0.1217 -2.0209
 2299SOL     OW18532   1.439   2.229   5.397 -0.2366  0.2730 -0.1490
 2299SOL    HW118533   1.415   2.251   5.487 -0.0938 -0.4037  0.0612
 2299SOL    HW218534   1.350   2.233   5.362  0.7531 -2.5125 -2.8963
 2300SOL     OW18535   3.001   0.964  15.076 -0.1620  0.2033  0.2797
 2300SOL    HW118536   3.063   1.011  15.021  3.5708 -0.5313  3.8382
 2300SOL    HW218537   2.991   0.885  15.022  1.7444  0.4793 -0.4583
 2301SOL     OW18538   2.478   0.909  16.538 -1.1120 -0.6218  0.8926
 2301SOL    HW118539   2.392   0.899  16.499 -0.6476  0.3513 -0.3684
 2301SOL    HW218540   2.533   0.962  16.480 -0.4151 -1.9992  0.2600
 2302SOL     OW18541   1.891   0.753   1.725  0.2042  0.1055 -0.3369
 2302SOL    HW118542   1.868   0.688   1.659  1.5324  0.8535 -1.5293
 2302SOL    HW218543   1.970   0.712   1.762 -1.0158 -2.0623 -0.1372
 2303SOL     OW18544   1.764   4.305   8.714  0.2852  0.1571  0.4018
 2303SOL    HW118545   1.859   4.301   8.721  0.4384  2.5270 -0.0683
 2303SOL    HW218546   1.752   4.343   8.801  0.7534 -2.0011  1.4017
 2304SOL     OW18547   0.547   2.019   9.355 -0.6135 -0.3556  0.1165
 2304SOL    HW118548   0.518   2.081   9.288 -0.8757 -1.2806 -0.6228
 2304SOL    HW218549   0.640   2.039   9.369 -0.8415  1.0191 -0.3705
 2305SOL     OW18550   2.684   0.045   6.350  0.2869 -0.0950 -0.1514
 2305SOL    HW118551   2.674   4.698   6.309 -1.2855 -0.1655  0.3728
 2305SOL    HW218552   2.691   0.024   6.443  1.1390 -0.1552 -0.2280
 2306SOL     OW18553   4.272   1.897   4.033 -0.3808  0.6469 -0.0917
 2306SOL    HW118554   4.313   1.823   4.079 -0.9075  0.1278 -0.4558
 2306SOL    HW218555   4.181   1.877   4.055 -1.5460  1.2001 -4.5631
 2307SOL     OW18556   4.072   4.416   7.398 -0.0519 -0.4808  0.0524
 2307SOL    HW118557   4.090   4.391   7.308  0.0602 -2.5877  0.6574
 2307SOL    HW218558   3.981   4.446   7.398 -0.7006 -2.4543 -0.0621
 2308SOL     OW18559   1.047   3.325   0.220  0.5077  0.1019 -0.0607
 2308SOL    HW118560   1.060   3.394   0.286  2.4266 -1.3942  1.1040
 2308SOL    HW218561   1.138   3.302   0.237 -0.2776 -0.8801  2.7717
 2309SOL     OW18562   3.592   0.223   7.262 -0.1721  0.2793  0.1671
 2309SOL    HW118563   3.679   0.202   7.228 -0.8442 -2.2284  0.0483
 2309SOL    HW218564   3.581   0.158   7.331 -1.0328  1.4873  1.1890
 2310SOL     OW18565   1.057   1.780   6.048 -0.4402  0.1830  0.2989
 2310SOL    HW118566   1.059   1.875   6.061 -0.9105  0.9247 -5.0940
 2310SOL    HW218567   0.974   1.787   6.000  0.4887 -0.7722 -1.4480
 2311SOL     OW18568   4.510   3.166   8.787  0.2944  0.1974 -0.6561
 2311SOL    HW118569   4.537   3.256   8.802  1.1712 -0.0171 -0.9577
 2311SOL    HW218570   4.417   3.179   8.806  0.9855  3.0035  0.8099
 2312SOL     OW18571   3.666   4.405   6.205 -0.0791  0.1130  0.0536
 2312SOL    HW118572   3.701   4.493   6.217  1.4229 -0.4802  0.0891
 2312SOL    HW218573   3.598   4.407   6.137  0.1920 -0.1157 -0.2271
 2313SOL     OW18574   2.327   1.561   9.564 -0.6042  0.8018 -0.3566
 2313SOL    HW118575   2.285   1.477   9.583  1.6479 -0.0848  0.5976
 2313SOL    HW218576   2.357   1.548   9.474  1.9331  0.4628  0.5460
 2314SOL     OW18577   1.242   0.354   7.532  0.2167  0.4687  0.6163
 2314SOL    HW118578   1.233   0.282   7.470 -2.4210  2.5136 -1.3725
 2314SOL    HW218579   1.177   0.410   7.491 -0.2908 -0.4731  0.1392
 2315SOL     OW18580   1.439   3.577   2.859 -0.2488 -0.6113  0.2583
 2315SOL    HW118581   1.494   3.638   2.909 -1.2264 -0.7868  1.5483
 2315SOL    HW218582   1.417   3.627   2.780 -0.0752  3.7048  2.8812
 2316SOL     OW18583   3.698   4.498   8.242  0.3918 -0.6027 -0.0872
 2316SOL    HW118584   3.719   4.547   8.321  0.1014  0.0813 -0.4328
 2316SOL    HW218585   3.606   4.521   8.233  0.1961 -1.0372  0.8159
 2317SOL     OW18586   2.012   0.510   9.931  0.4842  0.0133  0.1383
 2317SOL    HW118587   2.035   0.584   9.875  0.5741 -0.3832 -0.3460
 2317SOL    HW218588   2.040   0.443   9.870 -3.3857 -1.4649 -0.0171
 2318SOL     OW18589   0.691   1.481   5.720  0.1868  0.5020  0.0941
 2318SOL    HW118590   0.745   1.402   5.732  0.3126  0.3658 -1.3086
 2318SOL    HW218591   0.762   1.541   5.697 -0.8624  1.4686 -0.5595
 2319SOL     OW18592   0.879   0.456   1.792  0.0877 -0.2121  1.0781
 2319SOL    HW118593   0.791   0.443   1.759 -0.2758 -0.1851  2.0324
 2319SOL    HW218594   0.868   0.517   1.865 -1.8430  1.1670 -0.3778
 2320SOL     OW18595   2.613   4.587   5.118 -0.5193 -0.0662 -0.6561
 2320SOL    HW118596   2.523   4.602   5.149 -0.1137  1.3218 -0.1073
 2320SOL    HW218597   2.624   4.493   5.127  0.8359  0.4224  3.0806
 2321SOL     OW18598   4.630   1.840   0.086  0.4412  0.4225 -0.2118
 2321SOL    HW118599   4.562   1.852   0.020  0.4715 -0.7303 -0.4442
 2321SOL    HW218600   4.579   1.770   0.128 -1.6873  0.9917 -1.8089
 2322SOL     OW18601   0.398   0.372   7.117  0.5887  0.0771  0.2020
 2322SOL    HW118602   0.447   0.413   7.188 -1.0272  0.7254  0.9275
 2322SOL    HW218603   0.436   0.426   7.048 -1.6460  1.2209 -0.1244
 2323SOL     OW18604   3.301   2.498   5.003 -0.1182 -0.3443 -0.1162
 2323SOL    HW118605   3.267   2.410   5.022 -2.0414  0.5297  0.4229
 2323SOL    HW218606   3.386   2.487   5.045  1.0987  2.9048 -1.7987
 2324SOL     OW18607   4.733   0.658   2.866  0.2054  0.0271  0.1276
 2324SOL    HW118608   4.717   0.752   2.869  2.3046  0.4360 -1.6609
 2324SOL    HW218609   0.056   0.656   2.939  2.0669 -1.5355 -1.4831
 2325SOL     OW18610   2.018   3.551   9.054  0.4003 -0.8015  0.8673
 2325SOL    HW118611   2.066   3.486   9.105  2.1282  1.8658  2.6737
 2325SOL    HW218612   2.086   3.578   8.992 -0.3364  0.4638  0.6084
 2326SOL     OW18613   0.289   1.837   6.913  0.3121 -0.2940  0.6939
 2326SOL    HW118614   0.198   1.821   6.939 -0.4753  0.0145 -1.9158
 2326SOL    HW218615   0.334   1.786   6.980  0.5919 -2.2130 -0.9605
 2327SOL     OW18616   0.148   1.545  16.569 -0.4432  0.1084  0.5346
 2327SOL    HW118617   0.141   1.449  16.568 -1.7870  0.2045  0.5753
 2327SOL    HW218618   0.242   1.562  16.576 -0.1168 -2.1736  1.8285
 2328SOL     OW18619   2.005   1.735   2.246 -0.2324  0.1241 -0.6846
 2328SOL    HW118620   1.949   1.802   2.284  2.6057  1.7259  0.6777
 2328SOL    HW218621   2.016   1.680   2.324  0.3397  0.1222 -0.7608
 2329SOL     OW18622   1.350   2.533   6.322  0.2487 -0.1852  0.0329
 2329SOL    HW118623   1.308   2.606   6.368  0.3952 -1.1808  1.7535
 2329SOL    HW218624   1.444   2.549   6.328 -0.2756  2.0157  2.6358
 2330SOL     OW18625   2.427   0.030   3.609  0.2819  0.0725  0.2321
 2330SOL    HW118626   2.461   4.722   3.686 -0.5148  2.5217  2.0701
 2330SOL    HW218627   2.384   4.703   3.553  0.6022  0.2511 -0.2181
 2331SOL     OW18628   0.857   1.981  12.548  0.1114 -0.2349  0.0634
 2331SOL    HW118629   0.839   1.967  12.641 -0.6355  2.9506  0.4013
 2331SOL    HW218630   0.935   2.037  12.551  0.6090 -0.9649  0.7693
 2332SOL     OW18631   3.163   3.572   5.260 -0.1684  0.3497 -0.6784
 2332SOL    HW118632   3.073   3.598   5.239 -0.1112  0.6829 -0.5105
 2332SOL    HW218633   3.200   3.660   5.267 -1.1799  0.7305 -0.1542
 2333SOL     OW18634   1.667   1.520  15.058  0.5235  0.4844  0.1695
 2333SOL    HW118635   1.616   1.587  15.102 -0.2827 -0.1207  0.1583
 2333SOL    HW218636   1.746   1.520  15.111  2.0537  1.1663 -2.1144
 2334SOL     OW18637   1.249   1.779   3.922  0.0304  0.0360 -0.4904
 2334SOL    HW118638   1.174   1.724   3.944 -0.0761  0.5998  0.5668
 2334SOL    HW218639   1.237   1.842   3.992 -1.7092  1.0982 -1.7494
 2335SOL     OW18640   4.368   3.446   7.699  0.0201  0.3062 -0.3669
 2335SOL    HW118641   4.282   3.457   7.658  0.9938  2.9099 -1.6813
 2335SOL    HW218642   4.338   3.442   7.790 -0.5605  0.6469 -0.5405
 2336SOL     OW18643   1.842   0.602   4.895 -0.0327  0.4009 -0.2635
 2336SOL    HW118644   1.793   0.665   4.842  0.5771  0.6814 -0.4926
 2336SOL    HW218645   1.794   0.608   4.978 -1.6496 -0.6349 -1.1119
 2337SOL     OW18646   1.050   1.702   3.548  0.0431  0.2712 -0.6927
 2337SOL    HW118647   1.059   1.750   3.466  2.1880 -0.3850 -0.8345
 2337SOL    HW218648   1.138   1.670   3.568  0.4036  0.5305 -1.8823
 2338SOL     OW18649   1.096   2.362  13.047 -0.1913 -0.1896  0.0144
 2338SOL    HW118650   1.134   2.313  13.119  1.4561 -1.3589 -1.6739
 2338SOL    HW218651   1.160   2.335  12.982 -0.8446 -0.4588 -0.5208
 2339SOL     OW18652   4.504   4.395   9.207  0.4215  0.2297  0.1071
 2339SOL    HW118653   4.437   4.401   9.275  0.6490 -1.3630  0.4835
 2339SOL    HW218654   4.566   4.461   9.235  0.1317  0.3242  0.5200
 2340SOL     OW18655   0.896   3.686   3.287  0.1828 -0.1130 -0.1655
 2340SOL    HW118656   0.827   3.676   3.353  0.4750  0.7367  0.2653
 2340SOL    HW218657   0.865   3.766   3.244 -0.3774 -0.3542 -0.2135
 2341SOL     OW18658   3.738   2.583   6.417  0.6041 -0.4870 -0.3203
 2341SOL    HW118659   3.773   2.495   6.402  2.2557  0.3857 -1.5624
 2341SOL    HW218660   3.816   2.636   6.406 -0.5307  1.0834 -0.7636
 2342SOL     OW18661   3.149   2.033   2.534 -0.2644  0.5453  0.0488
 2342SOL    HW118662   3.160   2.000   2.623 -2.4816  1.2777  0.5714
 2342SOL    HW218663   3.055   2.050   2.539 -0.6065 -0.9300 -1.2733
 2343SOL     OW18664   1.698   1.080   7.502 -0.0291  0.1952  0.5036
 2343SOL    HW118665   1.650   1.086   7.419  1.3785  2.3959 -0.1822
 2343SOL    HW218666   1.753   1.158   7.489  0.3143 -0.2597 -0.7619
 2344SOL     OW18667   0.344   1.410  15.387  0.6497 -0.1376  0.4512
 2344SOL    HW118668   0.313   1.321  15.373 -1.1563  0.6060 -0.4268
 2344SOL    HW218669   0.434   1.401  15.357  0.0702 -2.0318 -0.7343
 2345SOL     OW18670   4.209   1.714   7.853 -0.0418  0.4769  0.6861
 2345SOL    HW118671   4.181   1.729   7.943  0.2958 -3.5253  1.4796
 2345SOL    HW218672   4.124   1.691   7.815  0.3293  0.3612 -0.0854
 2346SOL     OW18673   2.841   2.328  10.499  0.3133  0.0735  0.1909
 2346SOL    HW118674   2.880   2.414  10.482 -0.9894  0.5952 -0.1718
 2346SOL    HW218675   2.837   2.328  10.595 -1.2067  0.0285  0.1367
 2347SOL     OW18676   3.215   3.823   6.794  0.1849 -0.1472 -0.3168
 2347SOL    HW118677   3.160   3.746   6.779 -0.5497  0.6671 -1.8166
 2347SOL    HW218678   3.300   3.782   6.778  0.0324 -0.1118 -1.1880
 2348SOL     OW18679   3.200   3.841   9.179 -0.0852 -0.7848 -0.4217
 2348SOL    HW118680   3.129   3.789   9.142 -0.8148  0.0391 -0.2060
 2348SOL    HW218681   3.229   3.796   9.258 -2.0935  0.6104  1.1226
 2349SOL     OW18682   1.479   3.553   3.350  0.5563  0.3038 -0.0820
 2349SOL    HW118683   1.557   3.607   3.349 -0.4421  1.7856  2.1917
 2349SOL    HW218684   1.513   3.473   3.309 -2.0087 -1.2853  0.8300
 2350SOL     OW18685   3.650   4.118   4.344 -0.2245 -0.4146 -0.4653
 2350SOL    HW118686   3.607   4.039   4.378 -0.3969 -0.0646  0.1380
 2350SOL    HW218687   3.739   4.104   4.374  0.5429  1.1393 -2.0006
 2351SOL     OW18688   1.544   3.519  13.731 -0.1219 -0.0941  0.2618
 2351SOL    HW118689   1.639   3.528  13.741  0.2174 -0.3887 -2.7137
 2351SOL    HW218690   1.526   3.553  13.819  0.0127  0.4982  0.0600
 2352SOL     OW18691   4.650   1.803   7.458 -0.0945  0.1528  0.7249
 2352SOL    HW118692   4.563   1.831   7.429 -0.8158 -1.8605  1.0112
 2352SOL    HW218693   4.637   1.810   7.553 -0.2121 -1.0890  0.7948
 2353SOL     OW18694   2.635   0.912   8.393  0.0149  0.2290  0.1101
 2353SOL    HW118695   2.711   0.905   8.450 -0.2357 -0.3574  0.3702
 2353SOL    HW218696   2.601   0.996   8.424 -2.1013 -0.2817 -0.8234
 2354SOL     OW18697   4.653   3.757   3.202  0.1068  0.5095 -0.1687
 2354SOL    HW118698   4.702   3.687   3.159  1.1410 -0.1124  1.9969
 2354SOL    HW218699   4.560   3.745   3.187 -0.2740  1.4723  1.4718
 2355SOL     OW18700   0.498   3.311  16.382  0.3707  0.1702  0.6216
 2355SOL    HW118701   0.466   3.227  16.415  2.2611 -0.4523  0.8557
 2355SOL    HW218702   0.414   3.357  16.388 -0.2457 -0.9007  0.2442
 2356SOL     OW18703   3.056   2.184   0.423  0.0940 -0.5206  0.1390
 2356SOL    HW118704   3.050   2.256   0.486  0.4255  0.3727 -0.8466
 2356SOL    HW218705   3.125   2.127   0.458  1.5281  1.8826  1.2850
 2357SOL     OW18706   3.301   2.460   7.585  0.3270 -0.6832  0.3955
 2357SOL    HW118707   3.217   2.415   7.573  0.3464 -0.6253  0.0239
 2357SOL    HW218708   3.356   2.433   7.512  1.7009 -0.6889  1.4386
 2358SOL     OW18709   1.960   1.929  14.467  0.0463 -0.2695  0.0996
 2358SOL    HW118710   1.979   1.927  14.560 -1.6264 -0.6713  0.4374
 2358SOL    HW218711   2.049   1.925  14.431 -0.5502  0.6709 -1.4905
 2359SOL     OW18712   2.995   0.168   5.037  0.1090  0.2510  0.3666
 2359SOL    HW118713   2.906   0.134   5.053  0.1772  0.7134  1.7246
 2359SOL    HW218714   3.046   0.115   5.099  1.7701  2.6055  0.9910
 2360SOL     OW18715   1.720   2.514   7.955 -0.1666  0.1899 -0.4250
 2360SOL    HW118716   1.673   2.468   8.026  1.3383 -1.9608 -0.8148
 2360SOL    HW218717   1.690   2.464   7.879 -0.4450 -1.6641  0.8693
 2361SOL     OW18718   2.913   0.451   6.964 -0.4010  0.2219  0.0319
 2361SOL    HW118719   2.936   0.365   6.999  1.3222  1.2435  1.4421
 2361SOL    HW218720   2.819   0.450   6.977 -0.3994  0.2108  0.0430
 2362SOL     OW18721   0.041   3.794   4.518 -0.1974 -0.4761  0.6697
 2362SOL    HW118722   4.703   3.769   4.569 -1.1169  0.1910 -0.3971
 2362SOL    HW218723   0.017   3.882   4.491  0.7300 -0.9560 -1.7264
 2363SOL     OW18724   1.786   2.999   4.488  0.1714 -0.0296  0.0274
 2363SOL    HW118725   1.730   3.072   4.514  0.7598  0.8181 -1.1008
 2363SOL    HW218726   1.725   2.926   4.487 -1.4822  1.3680  0.2718
 2364SOL     OW18727   4.090   2.220   5.201 -0.3284  0.4232  0.1629
 2364SOL    HW118728   4.172   2.244   5.158 -0.1879 -0.3602 -0.0079
 2364SOL    HW218729   4.035   2.241   5.126 -1.8535 -1.5039  0.7541
 2365SOL     OW18730   2.017   1.580   9.253 -0.4744 -0.4807 -0.1769
 2365SOL    HW118731   1.962   1.530   9.193  0.6664 -1.6621 -0.2551
 2365SOL    HW218732   2.088   1.516   9.261 -1.7870 -1.7273  1.5185
 2366SOL     OW18733   0.908   0.688   1.487  0.2505 -0.2413  0.1320
 2366SOL    HW118734   0.827   0.638   1.475 -0.0021  0.1758  0.1182
 2366SOL    HW218735   0.884   0.769   1.532 -1.2132  0.1272 -1.3145
 2367SOL     OW18736   3.638   2.133  14.614 -0.2557  0.2829 -0.7797
 2367SOL    HW118737   3.712   2.129  14.554 -0.3848  1.1280 -0.9940
 2367SOL    HW218738   3.572   2.198  14.591 -0.0903  0.9275  0.5880
 2368SOL     OW18739   2.475   0.155   8.379 -0.1941 -0.6089 -0.5195
 2368SOL    HW118740   2.485   0.219   8.449 -1.6393 -1.0492  0.1008
 2368SOL    HW218741   2.403   0.197   8.332 -1.6886  0.6201  2.8698
 2369SOL     OW18742   1.812   0.329   1.861 -0.8620 -0.0400  0.2017
 2369SOL    HW118743   1.726   0.371   1.864 -0.5777  0.4701  1.0728
 2369SOL    HW218744   1.788   0.236   1.860 -0.0421 -0.2530 -0.0376
 2370SOL     OW18745   3.761   4.313  12.935 -0.4796 -0.6921 -0.4261
 2370SOL    HW118746   3.810   4.249  12.987 -0.4071 -0.0895  0.2408
 2370SOL    HW218747   3.679   4.325  12.982  0.4303 -0.3122  1.0320
 2371SOL     OW18748   3.724   3.585  10.272  0.1699  0.2637  0.1330
 2371SOL    HW118749   3.729   3.529  10.349  0.2234  2.0345  1.4299
 2371SOL    HW218750   3.705   3.668  10.317  0.9825  1.1903 -1.2649
 2372SOL     OW18751   2.775   3.035   6.954  0.0770 -0.3889 -0.4064
 2372SOL    HW118752   2.846   3.035   6.890 -1.9429  2.1480 -2.6300
 2372SOL    HW218753   2.799   2.957   7.004 -1.7545 -0.5650  0.2026
 2373SOL     OW18754   4.689   2.030   1.863  0.6283 -0.0820  0.3205
 2373SOL    HW118755   0.037   1.988   1.871  0.0736 -1.1597  0.6740
 2373SOL    HW218756   4.641   2.017   1.945  2.7028  1.3935  1.7566
 2374SOL     OW18757   3.529   4.126   6.007 -0.1264 -0.1959  0.3716
 2374SOL    HW118758   3.509   4.152   6.097 -3.1602 -4.0379  0.8426
 2374SOL    HW218759   3.447   4.087   5.975  1.1536 -0.6456 -2.3887
 2375SOL     OW18760   1.880   0.283   3.185  0.2838  0.3828  0.4685
 2375SOL    HW118761   1.967   0.262   3.152 -0.2649  0.8312 -1.2751
 2375SOL    HW218762   1.899   0.319   3.272 -0.4309 -1.6032  1.4359
 2376SOL     OW18763   2.117   2.932  17.077  0.0570 -0.0075 -0.4266
 2376SOL    HW118764   2.054   2.875  17.122 -0.0849  0.3089 -0.2257
 2376SOL    HW218765   2.075   2.942  16.991 -0.0666 -1.6736 -0.5690
 2377SOL     OW18766   0.340   3.539   9.104 -0.5955  0.3270 -0.0436
 2377SOL    HW118767   0.419   3.551   9.052 -0.6940 -0.7477 -0.4486
 2377SOL    HW218768   0.314   3.451   9.077  2.7329 -1.0150  1.1162
 2378SOL     OW18769   4.063   0.478   6.531  0.0716  0.3162 -0.1083
 2378SOL    HW118770   3.993   0.448   6.474  1.0491  0.3418 -1.3244
 2378SOL    HW218771   4.138   0.434   6.490  0.3707 -0.9226  1.7519
 2379SOL     OW18772   4.596   2.752   5.181 -0.1728 -0.4918  0.4509
 2379SOL    HW118773   4.527   2.784   5.122  0.4398 -1.8468 -0.9984
 2379SOL    HW218774   4.645   2.693   5.123 -0.2159  0.2880 -0.3892
 2380SOL     OW18775   3.251   1.159   0.209  0.1321 -0.4765  0.0041
 2380SOL    HW118776   3.178   1.173   0.270 -0.4945  0.1849 -0.8960
 2380SOL    HW218777   3.218   1.090   0.151  0.9778 -0.4947 -0.4434
 2381SOL     OW18778   4.297   3.737   5.269  0.1495  0.1149 -0.0717
 2381SOL    HW118779   4.248   3.777   5.342  1.2022 -0.2487  0.8350
 2381SOL    HW218780   4.264   3.648   5.274 -0.3090  0.3703  1.5428
 2382SOL     OW18781   0.640   2.705   1.633 -0.5075 -0.5564  0.0079
 2382SOL    HW118782   0.694   2.647   1.580  1.7035 -0.3433  2.0130
 2382SOL    HW218783   0.685   2.708   1.718  0.8883 -0.1706 -0.7330
 2383SOL     OW18784   1.652   1.923   3.217  0.6676  0.0592  0.1409
 2383SOL    HW118785   1.633   1.830   3.206 -1.4593  0.6535 -1.2671
 2383SOL    HW218786   1.640   1.939   3.310 -0.5851  0.0730 -0.0256
 2384SOL     OW18787   0.520   4.176   1.861  0.0442  0.1147 -0.2550
 2384SOL    HW118788   0.532   4.173   1.766  0.8428 -0.7831 -0.1361
 2384SOL    HW218789   0.554   4.260   1.893  0.8758 -0.2460 -0.1930
 2385SOL     OW18790   4.552   3.458  11.134 -0.1888 -0.2067 -0.5690
 2385SOL    HW118791   4.590   3.407  11.062  2.2956  0.7150  0.0970
 2385SOL    HW218792   4.464   3.422  11.139 -0.3143  0.5904  2.6915
 2386SOL     OW18793   0.259   1.366   5.242 -0.2325  0.3153  0.2720
 2386SOL    HW118794   0.345   1.347   5.280 -0.8402  0.6842  1.8693
 2386SOL    HW218795   0.217   1.411   5.315  0.2491 -2.1203  2.0547
 2387SOL     OW18796   3.545   1.622   4.770 -0.3006  0.0787  0.1488
 2387SOL    HW118797   3.639   1.633   4.757 -0.4081  1.5086  0.5281
 2387SOL    HW218798   3.533   1.632   4.865 -0.0930 -1.4294  0.3366
 2388SOL     OW18799   2.113   3.094   3.633  0.0005 -0.0497  0.1469
 2388SOL    HW118800   2.189   3.131   3.589  0.3752  0.3203  1.0899
 2388SOL    HW218801   2.102   3.154   3.707  1.7536  1.1513 -0.5682
 2389SOL     OW18802   1.121   0.886   7.719  0.3772 -0.0981 -0.1996
 2389SOL    HW118803   1.094   0.975   7.742 -1.5620 -0.1723 -2.2035
 2389SOL    HW218804   1.041   0.836   7.699  0.5682 -0.8939  1.0088
 2390SOL     OW18805   1.877   2.582   6.344  0.5918  0.3675  0.3091
 2390SOL    HW118806   1.928   2.663   6.331  1.2088 -0.3556 -1.8234
 2390SOL    HW218807   1.899   2.563   6.435  1.6349  1.3825  0.2731
 2391SOL     OW18808   4.664   3.985   2.272  0.1736 -0.4714  0.4678
 2391SOL    HW118809   4.730   3.937   2.322  0.3468 -0.5499  0.1623
 2391SOL    HW218810   4.686   4.073   2.302 -0.6742 -0.6670  1.7040
 2392SOL     OW18811   1.600   0.588   2.696  0.4692  0.2203 -0.1529
 2392SOL    HW118812   1.615   0.673   2.655  0.3043 -0.4912 -1.6889
 2392SOL    HW218813   1.626   0.539   2.618  1.3079  1.3061 -0.5650
 2393SOL     OW18814   3.008   4.214   5.840 -0.0795  0.0136 -0.4281
 2393SOL    HW118815   2.947   4.212   5.766 -1.9069  0.6129  1.0562
 2393SOL    HW218816   2.950   4.218   5.917  0.8693 -2.4168  0.4191
 2394SOL     OW18817   3.538   4.541  14.905  0.2400 -0.5509  0.5688
 2394SOL    HW118818   3.632   4.556  14.906  0.2085 -0.2015 -1.5130
 2394SOL    HW218819   3.516   4.585  14.823  3.0602 -3.9395 -1.9729
 2395SOL     OW18820   3.656   1.687  14.812  0.0830  0.6977  0.0772
 2395SOL    HW118821   3.584   1.737  14.773 -0.7603 -0.7112 -0.1644
 2395SOL    HW218822   3.691   1.757  14.868  1.3868  1.4291 -1.6531
 2396SOL     OW18823   3.379   3.527  13.315  0.2057 -0.1054 -0.4912
 2396SOL    HW118824   3.384   3.616  13.280  0.6756  0.7312  1.6858
 2396SOL    HW218825   3.318   3.525  13.389  1.1612 -0.9128  0.2812
 2397SOL     OW18826   0.005   0.232   1.977  0.4680  0.1427  0.7136
 2397SOL    HW118827   4.708   0.321   1.970  1.6463  0.5282 -0.3163
 2397SOL    HW218828   4.730   0.212   2.069 -0.5618  2.0318  0.9888
 2398SOL     OW18829   1.492   1.992  17.335 -0.3039  0.8409  0.0378
 2398SOL    HW118830   1.565   1.930  17.335 -0.9429  0.0938 -2.6195
 2398SOL    HW218831   1.412   1.940  17.326 -0.2401  0.6986  0.2702
 2399SOL     OW18832   3.260   2.295   8.060 -0.4706 -0.2992  0.2055
 2399SOL    HW118833   3.259   2.201   8.078 -1.0911  0.3295  3.3743
 2399SOL    HW218834   3.209   2.303   7.979 -0.2831 -0.2578  0.0897
 2400SOL     OW18835   1.365   4.643  15.442  0.2142  0.2518 -0.4130
 2400SOL    HW118836   1.457   4.630  15.462  1.0687  5.4338 -1.1395
 2400SOL    HW218837   1.374   4.693  15.361  0.2706  0.6276 -0.1752
 2401SOL     OW18838   2.605   4.344  17.272 -0.0054 -0.1051 -0.2658
 2401SOL    HW118839   2.635   4.392  17.195  0.5410 -0.6083 -0.3619
 2401SOL    HW218840   2.622   4.401  17.346  1.1157  0.3952 -0.9071
 2402SOL     OW18841   1.399   2.773   6.022  0.3738 -0.0240  0.4210
 2402SOL    HW118842   1.387   2.678   6.013 -1.0002  0.1482  0.4544
 2402SOL    HW218843   1.312   2.810   6.012 -0.2103 -1.4790  0.1552
 2403SOL     OW18844   0.885   1.602   8.543 -0.1676 -0.1328  0.1564
 2403SOL    HW118845   0.867   1.514   8.510 -0.9737 -0.2444  0.8782
 2403SOL    HW218846   0.974   1.624   8.516  0.1758  0.9862  2.1374
 2404SOL     OW18847   3.469   3.303   3.467  0.2623  0.3740 -0.0244
 2404SOL    HW118848   3.559   3.323   3.496  0.9492  0.4379 -2.2055
 2404SOL    HW218849   3.435   3.254   3.542  1.4277 -1.5563 -0.7518
 2405SOL     OW18850   0.272   0.360   5.997  0.3493  0.7727 -0.6168
 2405SOL    HW118851   0.253   0.444   6.039  0.0999  1.6018 -2.4128
 2405SOL    HW218852   0.336   0.376   5.928  1.8734 -0.3818  0.4989
 2406SOL     OW18853   2.774   0.414  16.853  0.1576  0.3609 -0.1977
 2406SOL    HW118854   2.759   0.322  16.829  1.3953  0.2562 -0.5847
 2406SOL    HW218855   2.696   0.442  16.900  1.4042  1.6694  1.0954
 2407SOL     OW18856   3.273   0.338   4.068  0.1884  0.4548 -0.0109
 2407SOL    HW118857   3.347   0.282   4.091 -1.9268 -2.0366  0.7257
 2407SOL    HW218858   3.220   0.277   4.017 -0.5173  0.9308  0.1521
 2408SOL     OW18859   3.731   1.837  15.005 -0.0615 -0.3117  0.2140
 2408SOL    HW118860   3.707   1.848  15.096 -0.6068 -1.3703  0.1940
 2408SOL    HW218861   3.782   1.918  14.998  0.4025 -0.6445 -0.2814
 2409SOL     OW18862   4.271   1.946   7.713 -0.2673 -0.3603  0.1048
 2409SOL    HW118863   4.248   1.868   7.763 -1.3297 -0.5134 -0.6073
 2409SOL    HW218864   4.193   2.001   7.721  0.0797  0.0180  0.8712
 2410SOL     OW18865   2.364   3.399  17.329 -0.6143  0.1760 -0.1708
 2410SOL    HW118866   2.404   3.348  17.399  0.7678 -1.0186 -1.8184
 2410SOL    HW218867   2.322   3.470  17.377 -0.8134 -0.1210  0.0941
 2411SOL     OW18868   3.453   3.999   7.449 -0.1843  0.0451  0.4326
 2411SOL    HW118869   3.366   4.025   7.419 -0.1356 -0.1912  0.0827
 2411SOL    HW218870   3.470   4.074   7.505  2.6258  0.0330 -0.3852
 2412SOL     OW18871   2.399   3.132   0.225  0.0838  0.3331  0.1787
 2412SOL    HW118872   2.394   3.064   0.159 -1.1534  0.2643  0.3384
 2412SOL    HW218873   2.421   3.082   0.303 -0.6384  0.4603  0.4658
 2413SOL     OW18874   2.886   1.131  11.787  0.5113  0.3364  0.2592
 2413SOL    HW118875   2.791   1.122  11.780  0.6191 -0.1569 -0.5992
 2413SOL    HW218876   2.897   1.127  11.692 -6.1564 -0.2821 -0.4155
 2414SOL     OW18877   4.323   2.406  13.186  0.0941  0.1813 -0.8014
 2414SOL    HW118878   4.258   2.338  13.166  2.3771 -1.7608 -1.5949
 2414SOL    HW218879   4.281   2.437  13.266  1.2157  0.9514 -0.5082
 2415SOL     OW18880   3.781   0.498   4.671  0.4777  0.6314 -0.3444
 2415SOL    HW118881   3.852   0.437   4.652 -0.7158 -0.7348 -0.4775
 2415SOL    HW218882   3.771   0.525   4.580  1.0928 -1.1396 -0.9396
 2416SOL     OW18883   3.447   2.528   8.370 -0.0756  0.3664 -0.1542
 2416SOL    HW118884   3.501   2.510   8.292  2.3990 -1.6880  2.0446
 2416SOL    HW218885   3.369   2.563   8.328 -1.9550 -3.4508  0.1649
 2417SOL     OW18886   0.343   2.998   4.102 -0.8083  0.2107 -0.1891
 2417SOL    HW118887   0.330   3.048   4.021  3.1054 -0.2300 -1.0721
 2417SOL    HW218888   0.307   2.912   4.080 -1.7441  0.5571 -0.0022
 2418SOL     OW18889   2.902   4.419   6.574  0.2242  0.2675  0.1619
 2418SOL    HW118890   2.966   4.359   6.536  0.0809  1.0336 -1.2627
 2418SOL    HW218891   2.955   4.499   6.578 -0.7480  0.9085  0.2766
 2419SOL     OW18892   0.871   2.270   9.803  0.5625 -0.2764  0.4208
 2419SOL    HW118893   0.905   2.358   9.785  0.3293 -0.1583  0.5616
 2419SOL    HW218894   0.839   2.241   9.717  0.2856 -1.5132  0.9464
 2420SOL     OW18895   1.765   0.318   4.882  0.1948 -0.2781 -0.0338
 2420SOL    HW118896   1.760   0.408   4.914 -2.4887 -0.2781 -0.4601
 2420SOL    HW218897   1.779   0.336   4.788  1.1116 -1.4754 -0.1151
 2421SOL     OW18898   3.055   4.732   5.252 -0.0483 -0.0291  0.0729
 2421SOL    HW118899   3.139   0.034   5.276 -1.0369  1.2459  1.3141
 2421SOL    HW218900   3.063   4.659   5.314 -2.3858  1.2902  1.9122
 2422SOL     OW18901   1.684   2.266   3.644 -0.2909 -0.1289 -0.0928
 2422SOL    HW118902   1.624   2.327   3.687  0.1169  1.0656 -1.2291
 2422SOL    HW218903   1.641   2.264   3.559  1.0130 -3.3210 -0.6752
 2423SOL     OW18904   0.877   0.762   6.951 -0.3812 -0.4228  0.2158
 2423SOL    HW118905   0.828   0.698   7.003 -1.6689  1.2969  1.1011
 2423SOL    HW218906   0.913   0.701   6.887 -1.1380 -1.5808  0.8829
 2424SOL     OW18907   1.705   2.665  10.642  0.0203 -0.7509  0.1554
 2424SOL    HW118908   1.798   2.673  10.621  0.2594  1.2749  2.0518
 2424SOL    HW218909   1.685   2.576  10.612  0.2611 -1.6599  2.7052
 2425SOL     OW18910   3.344   4.013  14.674 -0.0807  0.3016  0.1476
 2425SOL    HW118911   3.384   3.958  14.741  0.2844  0.9150  0.4381
 2425SOL    HW218912   3.337   3.965  14.592  0.2476 -0.8137  0.7756
 2426SOL     OW18913   1.973   3.615  12.991  0.1511  0.0372 -0.4119
 2426SOL    HW118914   1.931   3.549  12.937  0.2467 -1.6137  1.5316
 2426SOL    HW218915   1.922   3.695  12.975  0.4917  0.6772  1.6943
 2427SOL     OW18916   1.250   2.144   5.801 -0.0269 -0.5925 -0.0616
 2427SOL    HW118917   1.336   2.123   5.839  0.8192 -0.2315 -1.7704
 2427SOL    HW218918   1.259   2.120   5.709 -0.7554  0.6922 -0.4590
 2428SOL     OW18919   3.199   1.251   8.833  0.8344 -0.3511  0.6321
 2428SOL    HW118920   3.176   1.314   8.901 -0.0184 -1.4061  1.3247
 2428SOL    HW218921   3.129   1.189   8.852  0.7972  0.1080  1.9674
 2429SOL     OW18922   0.327   2.470   7.564  0.4816  0.1899  0.5121
 2429SOL    HW118923   0.325   2.397   7.626 -2.0848 -0.8579 -0.8119
 2429SOL    HW218924   0.422   2.478   7.562  0.6040 -1.1049  0.7054
 2430SOL     OW18925   1.672   3.114   1.940 -0.5740  0.7092 -0.1059
 2430SOL    HW118926   1.601   3.052   1.957 -2.0905  1.8614 -2.1598
 2430SOL    HW218927   1.683   3.152   2.027 -1.2288  1.6519 -0.4222
 2431SOL     OW18928   4.691   3.043   3.718  0.3696  0.3428 -0.0451
 2431SOL    HW118929   4.686   2.948   3.709 -0.2119  0.1804  2.0009
 2431SOL    HW218930   4.723   3.075   3.633  0.4055 -0.7579 -0.4413
 2432SOL     OW18931   3.641   2.371  17.599  0.1267  0.2573  0.0285
 2432SOL    HW118932   3.658   2.362  17.692 -2.8518  0.5425  0.6104
 2432SOL    HW218933   3.666   2.282  17.575  0.0768 -0.1119  1.3619
 2433SOL     OW18934   2.972   1.855   7.170 -0.3284 -0.2185 -0.3108
 2433SOL    HW118935   3.053   1.891   7.206 -0.3666 -2.2517  1.8030
 2433SOL    HW218936   2.943   1.805   7.246  0.7915  1.4145  1.1919
 2434SOL     OW18937   0.795   3.696   9.869  0.3050  0.0025  0.2110
 2434SOL    HW118938   0.816   3.768   9.810  0.9628  1.1427  1.8270
 2434SOL    HW218939   0.727   3.737   9.924 -1.6340 -1.1481 -1.3206
 2435SOL     OW18940   1.183   1.892   7.191 -0.1188  0.1250 -0.4651
 2435SOL    HW118941   1.167   1.952   7.119 -0.4767  0.3338 -0.2113
 2435SOL    HW218942   1.097   1.888   7.233 -0.1895 -1.2800 -0.7527
 2436SOL     OW18943   1.671   1.862   6.427  0.0647 -0.1301 -0.2131
 2436SOL    HW118944   1.585   1.873   6.388 -0.0930 -0.6551 -0.0093
 2436SOL    HW218945   1.706   1.780   6.392 -2.0170 -1.5227  0.9978
 2437SOL     OW18946   4.188   0.655   3.819  0.2562  0.2209 -0.6681
 2437SOL    HW118947   4.125   0.683   3.753 -3.5166 -2.7850  1.6453
 2437SOL    HW218948   4.266   0.703   3.791  1.8182 -0.9417  1.7128
 2438SOL     OW18949   3.253   0.524   5.060 -0.1780 -0.1076 -0.6989
 2438SOL    HW118950   3.314   0.593   5.035 -1.9259  1.4309 -0.6985
 2438SOL    HW218951   3.301   0.477   5.128 -2.1795  1.6697  1.9399
 2439SOL     OW18952   1.759   4.679  17.274 -0.1611 -0.4268  0.3999
 2439SOL    HW118953   1.689   4.664  17.210 -0.2988  2.4459 -0.0909
 2439SOL    HW218954   1.724   0.007  17.333  1.9655 -0.0994  1.3090
 2440SOL     OW18955   4.638   4.691  10.649 -0.3424  0.0679  0.3752
 2440SOL    HW118956   4.720   0.001  10.649 -0.2283 -0.1162 -1.7229
 2440SOL    HW218957   4.590   0.009  10.710  1.1125  2.4254 -0.6426
 2441SOL     OW18958   1.431   3.406   4.371  0.0076  0.1206 -0.5156
 2441SOL    HW118959   1.416   3.463   4.446 -0.3542 -0.0523 -0.4613
 2441SOL    HW218960   1.481   3.459   4.308 -1.9304  2.0514 -0.4134
 2442SOL     OW18961   0.615   3.080  10.695 -0.1333  0.2822 -0.4035
 2442SOL    HW118962   0.620   3.135  10.617 -1.3920 -0.0165 -0.6924
 2442SOL    HW218963   0.709   3.066  10.707 -0.4486 -1.0285  0.5215
 2443SOL     OW18964   1.106   0.299  17.737 -0.4200 -0.2709 -0.4786
 2443SOL    HW118965   1.087   0.348   0.066  0.3605 -0.8731  0.0708
 2443SOL    HW218966   1.091   0.367  17.671  0.4391  2.4021  2.0691
 2444SOL     OW18967   1.795   3.925   5.686  0.1729 -0.0003  0.2701
 2444SOL    HW118968   1.878   3.966   5.662  0.3469 -0.5384 -0.0495
 2444SOL    HW218969   1.745   3.990   5.736  0.7143  0.9644 -0.4246
 2445SOL     OW18970   1.120   1.213  10.034  0.3397 -0.2416 -0.4160
 2445SOL    HW118971   1.051   1.268  10.069  1.0000  0.4569 -0.2222
 2445SOL    HW218972   1.198   1.267  10.042 -1.9762  2.7792  1.5070
 2446SOL     OW18973   2.675   4.421  14.282 -0.2761 -0.1971 -0.1484
 2446SOL    HW118974   2.739   4.492  14.282  2.2133 -2.4232 -0.5840
 2446SOL    HW218975   2.711   4.383  14.202  0.2353 -1.1713  0.5380
 2447SOL     OW18976   1.150   2.780   8.270  0.5200 -0.3044 -0.0491
 2447SOL    HW118977   1.081   2.846   8.285  1.5732  0.5408  1.0649
 2447SOL    HW218978   1.166   2.785   8.175 -1.5704 -1.7008 -0.4650
 2448SOL     OW18979   4.140   3.373  12.919  0.0989  0.7272 -0.5592
 2448SOL    HW118980   4.095   3.457  12.923  0.5389  0.9835 -0.9346
 2448SOL    HW218981   4.151   3.362  12.825 -0.3322 -0.5410 -0.4658
 2449SOL     OW18982   1.747   2.007  10.889 -0.1535 -0.2755 -0.5493
 2449SOL    HW118983   1.815   2.045  10.944 -0.4020 -0.5218 -0.0676
 2449SOL    HW218984   1.687   1.989  10.961  1.5090  0.5935  1.0540
 2450SOL     OW18985   4.038   3.026   1.746 -0.1043 -0.0234  0.1522
 2450SOL    HW118986   4.075   3.047   1.832 -0.5716  0.8057  0.1497
 2450SOL    HW218987   3.973   3.095   1.734  1.0532  0.5779 -2.5221
 2451SOL     OW18988   2.027   1.367   7.022  0.3601 -0.6866 -0.0502
 2451SOL    HW118989   1.966   1.393   7.090  2.9707  0.2136  1.9519
 2451SOL    HW218990   2.093   1.435   7.032  1.5907 -1.9166  0.2792
 2452SOL     OW18991   3.332   1.486   9.287  0.8361 -0.9007 -0.0459
 2452SOL    HW118992   3.411   1.443   9.256  1.6158 -0.5105  1.3532
 2452SOL    HW218993   3.261   1.425   9.267 -0.7143 -0.0697  2.8219
 2453SOL     OW18994   0.676   3.250   4.621 -0.0763 -0.1005  0.1994
 2453SOL    HW118995   0.741   3.235   4.553 -0.2341  1.9098 -0.3968
 2453SOL    HW218996   0.608   3.188   4.592  0.2537 -0.9297  1.2088
 2454SOL     OW18997   3.295   1.794   7.029  0.4073 -0.3483 -0.1279
 2454SOL    HW118998   3.219   1.758   6.984  1.3280 -0.9553 -1.1939
 2454SOL    HW218999   3.255   1.864   7.081  1.1314  0.6046 -0.8286
 2455SOL     OW19000   2.368   1.016   6.161 -0.1819 -0.4484  0.0491
 2455SOL    HW119001   2.308   0.948   6.129  1.5250 -2.6622  1.5109
 2455SOL    HW219002   2.449   0.964   6.161  0.5594  0.7141 -0.3599
 2456SOL     OW19003   2.061   2.519   8.135 -0.2177 -0.0988 -0.1241
 2456SOL    HW119004   2.000   2.587   8.162  0.1337 -0.8695  2.5568
 2456SOL    HW219005   2.121   2.524   8.210 -0.8021 -0.9580  0.3974
 2457SOL     OW19006   4.253   1.669   0.452 -0.0340  0.0363  0.1406
 2457SOL    HW119007   4.203   1.603   0.404 -1.2462  3.5843 -3.5584
 2457SOL    HW219008   4.317   1.688   0.383  0.6310 -3.3223 -0.1272
 2458SOL     OW19009   2.506   1.905   1.866  0.0792  0.1730 -0.1344
 2458SOL    HW119010   2.509   1.900   1.770 -1.2166 -1.8861 -0.0677
 2458SOL    HW219011   2.435   1.843   1.884  1.8328 -2.2793 -1.6748
 2459SOL     OW19012   3.523   2.477   4.071 -0.2369  0.8239 -0.4963
 2459SOL    HW119013   3.529   2.488   4.166 -1.5176  2.0055 -0.5522
 2459SOL    HW219014   3.500   2.565   4.041  0.1646  1.1269  0.0847
 2460SOL     OW19015   2.859   0.209   4.222  0.4022  0.1531 -0.2725
 2460SOL    HW119016   2.852   0.295   4.180  0.5779  0.9178  1.2365
 2460SOL    HW219017   2.905   0.151   4.162  0.6227  1.4337 -1.3303
 2461SOL     OW19018   1.921   2.151   1.961 -0.2371 -0.1134 -0.0730
 2461SOL    HW119019   1.960   2.222   2.013  0.4963 -0.9772  0.5430
 2461SOL    HW219020   1.989   2.085   1.951  0.4892  0.7116 -0.6188
 2462SOL     OW19021   1.347   2.168  11.321 -0.3786 -0.4388 -0.1861
 2462SOL    HW119022   1.334   2.075  11.338 -0.1451 -0.9348 -2.6441
 2462SOL    HW219023   1.340   2.167  11.225  2.5255 -0.7087 -0.3966
 2463SOL     OW19024   3.660   1.610  16.914 -0.0417  0.4316  0.3998
 2463SOL    HW119025   3.648   1.703  16.934  2.8483  1.0526 -0.8664
 2463SOL    HW219026   3.606   1.576  16.986 -2.6439 -3.2531 -3.2521
 2464SOL     OW19027   1.589   2.482   2.522  0.7397 -0.0035 -0.4134
 2464SOL    HW119028   1.666   2.539   2.523  1.7214 -1.3101 -0.8020
 2464SOL    HW219029   1.617   2.419   2.589 -0.0154  1.7918  1.5821
 2465SOL     OW19030   0.007   4.300   7.569 -0.1868  0.1661 -0.1152
 2465SOL    HW119031   4.729   4.217   7.614 -1.3313  0.7518  0.5411
 2465SOL    HW219032   0.078   4.286   7.506 -0.8882 -2.9963 -0.2001
 2466SOL     OW19033   3.724   2.758   8.976  0.0723 -0.2636 -0.3895
 2466SOL    HW119034   3.650   2.706   8.945  2.0347 -2.6764 -1.0268
 2466SOL    HW219035   3.705   2.834   8.922 -1.5646  0.4904  1.2155
 2467SOL     OW19036   1.720   1.077   5.992 -0.2333 -0.0051 -0.0672
 2467SOL    HW119037   1.807   1.079   5.953  0.1543  0.9841  0.8697
 2467SOL    HW219038   1.663   1.092   5.917 -1.1387  2.3985  1.1109
 2468SOL     OW19039   3.765   0.437   5.001 -0.3048 -0.3087  0.6114
 2468SOL    HW119040   3.734   0.506   4.943 -1.8182  0.9347  2.8865
 2468SOL    HW219041   3.858   0.459   4.999 -0.5070  0.4997  0.0865
 2469SOL     OW19042   0.785   2.750   1.874 -0.1101 -0.6236  0.4354
 2469SOL    HW119043   0.879   2.739   1.886  0.2229  2.1795  0.3505
 2469SOL    HW219044   0.774   2.839   1.906 -3.9599 -0.2700 -1.7578
 2470SOL     OW19045   1.238   4.231   3.692 -0.9649 -0.3814  0.4874
 2470SOL    HW119046   1.248   4.138   3.676  0.2830 -0.6378  2.7442
 2470SOL    HW219047   1.163   4.218   3.750 -0.9158 -0.2982  0.5713
 2471SOL     OW19048   4.517   2.791   9.883  0.2510 -0.3568  0.2084
 2471SOL    HW119049   4.591   2.730   9.878 -1.4725 -2.3567 -1.0664
 2471SOL    HW219050   4.559   2.875   9.901 -0.0539 -0.4580  1.4157
 2472SOL     OW19051   2.431   3.466   3.543  0.4981 -0.0578 -0.4656
 2472SOL    HW119052   2.410   3.381   3.504  0.2683 -0.6509  0.9445
 2472SOL    HW219053   2.450   3.446   3.634  0.9993  2.4177 -0.0482
 2473SOL     OW19054   4.374   4.073   0.712  0.0657 -0.7884  0.1083
 2473SOL    HW119055   4.290   4.027   0.718 -0.4068 -0.0067 -0.5770
 2473SOL    HW219056   4.428   4.021   0.772  0.3508  0.8807  1.3261
 2474SOL     OW19057   3.047   3.329   4.986 -0.0485  0.0400 -0.6199
 2474SOL    HW119058   3.076   3.265   4.921 -0.0247 -1.2912  0.6847
 2474SOL    HW219059   2.964   3.292   5.014 -0.8575  0.2408 -2.8335
 2475SOL     OW19060   3.698   0.904  14.769  0.7012 -0.3366 -0.3219
 2475SOL    HW119061   3.686   0.883  14.862  2.8204  2.3767  0.5554
 2475SOL    HW219062   3.662   0.831  14.719 -1.5468  1.7564 -1.7742
 2476SOL     OW19063   1.627   2.779   4.478  0.1401 -0.4779  0.2198
 2476SOL    HW119064   1.629   2.687   4.451 -1.0527 -0.3014 -0.4729
 2476SOL    HW219065   1.614   2.781   4.573  0.8938 -0.7734  0.3262
 2477SOL     OW19066   0.023   0.460  15.666 -0.2406 -0.3303  0.0985
 2477SOL    HW119067   0.016   0.388  15.604  0.1761 -0.1334 -0.1783
 2477SOL    HW219068   0.117   0.470  15.680 -0.7277  2.7976  1.1360
 2478SOL     OW19069   0.182   2.856   5.762 -0.2330 -0.3431  0.4376
 2478SOL    HW119070   0.241   2.908   5.707 -1.2153  1.3512  0.9636
 2478SOL    HW219071   0.240   2.869   5.836 -1.3311  0.3421  1.1815
 2479SOL     OW19072   3.028   3.576   3.767  0.6287 -0.1151  0.4773
 2479SOL    HW119073   2.969   3.556   3.840  0.9810  3.3046  1.7114
 2479SOL    HW219074   3.070   3.653   3.805  1.6649 -0.7614  0.6417
 2480SOL     OW19075   0.869   4.481   5.629 -0.6452 -0.0259 -0.2301
 2480SOL    HW119076   0.832   4.531   5.702 -1.0052  0.2833 -0.6236
 2480SOL    HW219077   0.787   4.475   5.579 -0.8469  1.1168 -0.0381
 2481SOL     OW19078   3.284   1.362   7.360  0.2194  0.3647  0.4414
 2481SOL    HW119079   3.379   1.347   7.361  0.1408 -0.4513 -3.3997
 2481SOL    HW219080   3.263   1.325   7.274  0.6073 -0.3349  0.6440
 2482SOL     OW19081   3.446   4.193   6.846  0.0431  0.1047  0.4971
 2482SOL    HW119082   3.368   4.186   6.791 -1.8774 -0.8650  3.3900
 2482SOL    HW219083   3.417   4.216   6.934  2.3119 -0.3317  1.3591
 2483SOL     OW19084   3.668   3.454  11.301 -0.0845  0.0682 -0.4242
 2483SOL    HW119085   3.615   3.374  11.310 -0.4302  0.5590  1.8535
 2483SOL    HW219086   3.689   3.463  11.394  0.4017  2.3147 -0.7687
 2484SOL     OW19087   1.235   2.824   3.010  0.2625 -0.0627  0.1687
 2484SOL    HW119088   1.277   2.862   2.933  0.3064 -1.2876 -0.4106
 2484SOL    HW219089   1.220   2.737   2.974 -1.3134 -0.1926  1.1764
 2485SOL     OW19090   1.682   4.493   6.943  0.5157  0.2566  0.0565
 2485SOL    HW119091   1.592   4.481   6.971  1.3238  0.3867  2.6436
 2485SOL    HW219092   1.675   4.440   6.863 -1.6415 -2.0582  1.7713
 2486SOL     OW19093   2.799   2.292   5.394  0.0221 -0.4520 -0.0745
 2486SOL    HW119094   2.865   2.242   5.441  2.1892 -0.2421 -2.9584
 2486SOL    HW219095   2.722   2.282   5.451 -0.8256  0.3971 -1.0583
 2487SOL     OW19096   4.374   2.338   8.435  0.0190 -0.0381  0.4559
 2487SOL    HW119097   4.426   2.362   8.358 -0.0979 -0.3148  0.2912
 2487SOL    HW219098   4.430   2.328   8.512 -0.2625  0.7066  0.7622
 2488SOL     OW19099   4.095   3.015  16.783  0.2743 -0.2924 -0.5723
 2488SOL    HW119100   4.010   3.054  16.802 -0.1040 -0.6988 -1.4172
 2488SOL    HW219101   4.122   2.998  16.873 -1.7497  0.5291  0.1973
 2489SOL     OW19102   4.393   1.012   2.325  0.3113 -0.8621  0.2456
 2489SOL    HW119103   4.315   1.050   2.286  0.0755 -1.8027 -0.1993
 2489SOL    HW219104   4.423   1.074   2.392 -1.0024  0.4814 -0.4099
 2490SOL     OW19105   3.375   0.800   2.539  0.1652 -0.0570 -0.1650
 2490SOL    HW119106   3.294   0.749   2.547 -1.3104  2.2566 -0.3264
 2490SOL    HW219107   3.404   0.793   2.630 -1.8069  1.5009  0.5941
 2491SOL     OW19108   1.080   4.192   4.324 -0.1639 -0.4946 -0.1813
 2491SOL    HW119109   1.131   4.217   4.247 -2.2822  0.9010 -1.1237
 2491SOL    HW219110   1.071   4.274   4.373 -1.1519  0.0244 -1.2491
 2492SOL     OW19111   4.306   1.499   7.020  0.1208  0.2414  0.4108
 2492SOL    HW119112   4.218   1.530   7.040 -0.1970  0.9703 -2.1527
 2492SOL    HW219113   4.350   1.508   7.105 -0.3513 -0.8107  0.7575
 2493SOL     OW19114   2.512   2.740   9.838 -0.2330 -0.1893  0.2136
 2493SOL    HW119115   2.464   2.658   9.848 -0.1205 -0.1735  0.8718
 2493SOL    HW219116   2.475   2.806   9.897  1.5878  1.6589 -0.7206
 2494SOL     OW19117   1.168   4.074  16.912 -0.3626  0.3112 -0.3802
 2494SOL    HW119118   1.202   4.162  16.895  0.1611  0.4915  1.5926
 2494SOL    HW219119   1.246   4.021  16.930  0.3638  1.4988 -0.0294
 2495SOL     OW19120   1.459   4.495   8.675  0.5982 -1.0008 -0.7456
 2495SOL    HW119121   1.482   4.408   8.644 -2.1584 -1.2599 -2.0787
 2495SOL    HW219122   1.533   4.545   8.642  0.3493  0.0773  0.3148
 2496SOL     OW19123   2.460   2.188   5.027  0.6598  0.0176  0.3640
 2496SOL    HW119124   2.474   2.107   5.077  1.4761 -0.4856 -0.6696
 2496SOL    HW219125   2.504   2.243   5.092 -1.1775  0.4029  1.2666
 2497SOL     OW19126   2.141   1.808   8.123  0.0366  0.9443  0.6191
 2497SOL    HW119127   2.198   1.739   8.157  1.1010  0.9396 -1.1883
 2497SOL    HW219128   2.159   1.796   8.030  0.5227  0.6167  0.7557
 2498SOL     OW19129   2.219   4.461   7.186  0.1790 -0.1481 -0.2106
 2498SOL    HW119130   2.230   4.464   7.281  1.1946  0.3261 -0.3482
 2498SOL    HW219131   2.126   4.439   7.188 -0.0732  1.0049  0.5976
 2499SOL     OW19132   3.228   1.021   7.564  0.2578  0.2208  0.6046
 2499SOL    HW119133   3.187   0.935   7.569  1.7702 -0.6071 -0.9610
 2499SOL    HW219134   3.280   1.013   7.484 -0.1261  2.5139  0.1264
 2500SOL     OW19135   4.657   2.468   1.189  0.0105 -0.0611  0.4355
 2500SOL    HW119136   4.712   2.398   1.156  1.9910  1.7755 -0.1538
 2500SOL    HW219137   4.703   2.498   1.268  1.0138 -1.3978  0.3490
 2501SOL     OW19138   0.371   1.280   0.587  0.1496 -0.6093  0.1850
 2501SOL    HW119139   0.344   1.272   0.679  1.0548 -0.2423  0.4745
 2501SOL    HW219140   0.463   1.260   0.603  0.3975 -0.2165 -0.7557
 2502SOL     OW19141   2.462   0.016   7.547  0.5361  0.6810  0.3400
 2502SOL    HW119142   2.380   0.064   7.541 -0.3419 -1.1408 -2.0907
 2502SOL    HW219143   2.523   0.090   7.553 -0.1717  1.2713  0.3018
 2503SOL     OW19144   1.688   2.576   4.118  0.2193  0.5881 -0.3024
 2503SOL    HW119145   1.753   2.560   4.050  0.8725 -1.9664  0.9068
 2503SOL    HW219146   1.630   2.639   4.076 -0.3277  0.3478  0.1025
 2504SOL     OW19147   3.370   2.547  13.837 -0.2800  0.3879  0.1150
 2504SOL    HW119148   3.348   2.458  13.812 -0.7308  0.7673 -0.8440
 2504SOL    HW219149   3.362   2.587  13.751 -1.9619  0.4222  0.2884
 2505SOL     OW19150   1.297   4.135   6.025 -0.1983  0.2565 -0.1821
 2505SOL    HW119151   1.222   4.173   5.979 -1.2910  0.4832  1.8046
 2505SOL    HW219152   1.359   4.207   6.013  0.4760 -0.1596  0.7925
 2506SOL     OW19153   2.266   4.333   1.720  0.2361  0.2842  0.1105
 2506SOL    HW119154   2.328   4.318   1.649 -0.4396  0.8600 -0.6004
 2506SOL    HW219155   2.321   4.364   1.792  0.6895  1.5476 -0.7977
 2507SOL     OW19156   4.612   2.398   1.614 -0.1834  0.0565 -0.0377
 2507SOL    HW119157   4.595   2.490   1.594 -1.4801  0.0796  1.1334
 2507SOL    HW219158   4.550   2.363   1.550  1.3275 -1.6450 -0.5520
 2508SOL     OW19159   3.659   3.692   4.392  0.0720  0.0657 -0.3488
 2508SOL    HW119160   3.729   3.722   4.333  0.7037 -1.9431 -0.6263
 2508SOL    HW219161   3.619   3.617   4.348 -0.3431 -0.2372  0.5579
 2509SOL     OW19162   1.485   2.919   0.076 -0.0726 -0.0285 -0.1895
 2509SOL    HW119163   1.439   2.853   0.127 -1.3770 -0.2812 -1.6881
 2509SOL    HW219164   1.499   2.978   0.151  0.5963 -0.9503  0.4031
 2510SOL     OW19165   4.261   4.449  16.135  0.2818 -0.0513 -0.3462
 2510SOL    HW119166   4.190   4.396  16.170 -1.0344  0.5006 -2.1805
 2510SOL    HW219167   4.215   4.512  16.079  0.3179 -1.2073 -1.6899
 2511SOL     OW19168   0.613   3.977   0.527 -0.0625  0.1504  0.6054
 2511SOL    HW119169   0.693   4.022   0.499 -1.5774  2.8203  0.4895
 2511SOL    HW219170   0.561   3.970   0.446  0.1878 -2.2991  0.6646
 2512SOL     OW19171   3.202   1.107   4.134  0.0594 -0.2421 -0.0442
 2512SOL    HW119172   3.204   1.193   4.176  1.0132 -1.7257  2.9355
 2512SOL    HW219173   3.180   1.132   4.044  1.4451 -0.4523 -0.4462
 2513SOL     OW19174   2.335   2.285  16.841 -0.5168 -0.0349 -0.0655
 2513SOL    HW119175   2.248   2.277  16.801 -0.7132 -1.7251  0.7064
 2513SOL    HW219176   2.320   2.272  16.935  0.9269 -0.4666  0.0992
 2514SOL     OW19177   0.242   3.415  13.513  0.9433 -0.2436  0.0371
 2514SOL    HW119178   0.234   3.426  13.607 -0.7888  2.2687 -0.4138
 2514SOL    HW219179   0.156   3.377  13.495  1.4568 -0.4042 -2.1041
 2515SOL     OW19180   0.143   0.890   5.548  0.1619 -0.4462 -0.0863
 2515SOL    HW119181   0.219   0.920   5.498 -0.1542 -0.6080 -0.6727
 2515SOL    HW219182   0.147   0.957   5.616 -0.2545 -0.1447 -0.3557
 2516SOL     OW19183   4.189   4.544   9.540  0.4351 -0.2054  0.1858
 2516SOL    HW119184   4.165   4.636   9.532 -1.6873 -0.8384 -0.6661
 2516SOL    HW219185   4.276   4.539   9.502  0.5236  0.2239  0.3332
 2517SOL     OW19186   2.833   3.386   7.384  0.1594  0.1192  0.9505
 2517SOL    HW119187   2.836   3.291   7.395  0.3523  0.2036  1.6200
 2517SOL    HW219188   2.746   3.397   7.347  0.3200 -0.1646  0.4836
 2518SOL     OW19189   4.274   2.749   8.913 -0.7686  0.4726  0.0990
 2518SOL    HW119190   4.208   2.784   8.973 -1.0687  0.4298 -0.2044
 2518SOL    HW219191   4.254   2.657   8.929 -0.1710  0.0246 -1.7503
 2519SOL     OW19192   4.366   4.613   2.865  0.5853 -0.0055 -0.4357
 2519SOL    HW119193   4.344   4.639   2.954 -2.1562  1.7718 -1.6450
 2519SOL    HW219194   4.289   4.625   2.809  0.2557 -0.1482 -0.0138
 2520SOL     OW19195   0.055   2.419   0.215  0.2224 -0.2084  0.0145
 2520SOL    HW119196   0.079   2.427   0.307  0.8819  1.7204 -0.3248
 2520SOL    HW219197   4.709   2.374   0.222 -0.1500  0.6723  1.2328
 2521SOL     OW19198   1.939   0.797   2.729  0.4103 -0.0203  0.6587
 2521SOL    HW119199   1.939   0.841   2.814  2.2899  0.0785  0.5905
 2521SOL    HW219200   1.990   0.719   2.747  2.3696  1.1559  0.1873
 2522SOL     OW19201   1.265   0.098   2.856 -0.2403 -0.0999 -0.6357
 2522SOL    HW119202   1.274   0.176   2.910  1.0359 -0.8508  0.2400
 2522SOL    HW219203   1.344   0.051   2.879  0.7993  1.3851 -1.1564
 2523SOL     OW19204   2.782   1.509   8.647 -0.0435 -0.4830  0.3057
 2523SOL    HW119205   2.861   1.560   8.668  0.3173 -0.7753 -0.3147
 2523SOL    HW219206   2.715   1.574   8.670 -0.5590 -1.0342  0.3554
 2524SOL     OW19207   0.660   2.414   8.319 -0.1678 -0.5549  0.7470
 2524SOL    HW119208   0.722   2.417   8.246  0.8125  0.6594  1.6148
 2524SOL    HW219209   0.594   2.356   8.283 -1.3806  1.3662 -0.1254
 2525SOL     OW19210   1.108   2.442  11.664 -0.0860 -0.2101  0.1157
 2525SOL    HW119211   1.163   2.376  11.707  1.6541  2.0771  1.3789
 2525SOL    HW219212   1.110   2.411  11.574 -0.2772 -2.1052  0.7708
 2526SOL     OW19213   2.962   3.580  16.587  0.1361 -0.2423 -0.4170
 2526SOL    HW119214   2.959   3.577  16.491  2.2874 -0.1778 -0.4988
 2526SOL    HW219215   3.052   3.554  16.606 -0.2800 -1.5028 -0.1989
 2527SOL     OW19216   4.239   0.154   2.408 -0.4560  0.9232 -0.7407
 2527SOL    HW119217   4.144   0.159   2.420 -0.4218  1.1984 -0.5859
 2527SOL    HW219218   4.232   0.204   2.327 -0.8512  0.9004 -0.7214
 2528SOL     OW19219   0.919   2.285   3.269  0.0355 -0.2728 -0.1434
 2528SOL    HW119220   0.902   2.373   3.303 -0.8695 -0.3057 -0.5287
 2528SOL    HW219221   0.835   2.259   3.231  0.4059 -1.2120 -0.3178
 2529SOL     OW19222   4.262   4.716   6.687 -0.3555  0.0299  0.3774
 2529SOL    HW119223   4.348   4.675   6.692 -1.8966 -3.3707 -1.1731
 2529SOL    HW219224   4.243   4.683   6.599  0.8576 -1.4248  0.6854
 2530SOL     OW19225   0.498   1.015   4.648 -0.4965 -0.8575 -0.8823
 2530SOL    HW119226   0.405   1.022   4.624 -1.4883  0.6828  3.3574
 2530SOL    HW219227   0.504   1.097   4.697  1.8245 -0.5753 -1.6659
 2531SOL     OW19228   3.412   4.617   7.299  0.3488 -0.3269 -0.6235
 2531SOL    HW119229   3.373   4.580   7.220 -0.6149 -0.8986  0.1223
 2531SOL    HW219230   3.336   4.659   7.340  1.1101  0.1583  0.2765
 2532SOL     OW19231   2.558   3.567   2.817 -0.4755 -0.1880 -0.5837
 2532SOL    HW119232   2.504   3.514   2.758 -0.6819 -1.7580  1.0204
 2532SOL    HW219233   2.520   3.539   2.900  0.2838  0.4397 -0.0346
 2533SOL     OW19234   3.661   0.163   3.300  0.4375  0.6244  0.2004
 2533SOL    HW119235   3.597   0.156   3.230  1.1526 -0.0593 -0.3858
 2533SOL    HW219236   3.616   0.107   3.363  0.8228 -1.1837 -1.1249
 2534SOL     OW19237   0.844   1.114  10.027  0.0848  0.7705 -0.2839
 2534SOL    HW119238   0.792   1.157  10.094 -1.1412  0.0834 -0.8078
 2534SOL    HW219239   0.935   1.138  10.047  0.5026 -0.3599 -0.8251
 2535SOL     OW19240   3.071   3.889   7.030  0.3952  0.4352 -0.3499
 2535SOL    HW119241   3.103   3.878   6.941 -0.1759  2.8350 -0.8558
 2535SOL    HW219242   2.991   3.940   7.021  1.6198  2.4609  0.2024
 2536SOL     OW19243   3.044   2.763   4.839  0.2143  0.2000  0.3875
 2536SOL    HW119244   2.967   2.801   4.882 -0.3275 -1.8294  1.2041
 2536SOL    HW219245   3.094   2.767   4.920  1.1791  0.4647 -0.2196
 2537SOL     OW19246   0.248   1.307   8.435 -0.6353 -0.3950  0.0884
 2537SOL    HW119247   0.243   1.403   8.431  1.8018 -0.3264 -1.1902
 2537SOL    HW219248   0.223   1.289   8.526 -4.8916  0.5232 -0.8736
 2538SOL     OW19249   4.586   2.628   6.004 -0.8604  0.0445 -0.0009
 2538SOL    HW119250   4.522   2.616   6.074 -1.3219  2.8601  0.0488
 2538SOL    HW219251   4.673   2.653   6.036 -0.9197 -1.7802  1.5605
 2539SOL     OW19252   4.166   0.813   7.684  0.0842 -0.1890 -0.1576
 2539SOL    HW119253   4.089   0.758   7.699  0.7323 -1.2636 -0.7787
 2539SOL    HW219254   4.237   0.767   7.729  3.8283  3.9655 -1.8162
 2540SOL     OW19255   1.110   3.038   9.362  0.0349 -0.2785  0.3379
 2540SOL    HW119256   1.124   3.121   9.316 -0.9535 -0.1329  0.3034
 2540SOL    HW219257   1.157   2.980   9.303  0.9129  1.4322 -0.6680
 2541SOL     OW19258   3.061   4.430   9.290  0.7375  0.6783  0.0043
 2541SOL    HW119259   3.106   4.389   9.364  1.0581  0.7230 -0.1691
 2541SOL    HW219260   3.069   4.362   9.222  1.9902 -1.1663  2.0022
 2542SOL     OW19261   0.792   1.905   6.621  0.1450 -0.5036 -0.0847
 2542SOL    HW119262   0.784   1.963   6.696 -0.3578 -0.0352 -0.4975
 2542SOL    HW219263   0.712   1.942   6.583  1.2545  0.1626 -1.7591
 2543SOL     OW19264   3.408   2.325   7.364 -0.3460 -0.4968 -0.2521
 2543SOL    HW119265   3.392   2.315   7.271  1.3609 -0.1306 -0.5829
 2543SOL    HW219266   3.469   2.399   7.364  1.7248 -2.1927  1.2083
 2544SOL     OW19267   2.225   4.356  16.440  0.4279 -0.2192  0.2128
 2544SOL    HW119268   2.279   4.434  16.454  1.3930 -0.7589 -0.4529
 2544SOL    HW219269   2.221   4.329  16.532  3.5041 -0.9530  0.1636
 2545SOL     OW19270   2.020   0.235   9.386  0.6661 -0.2454  0.5113
 2545SOL    HW119271   2.039   0.163   9.326  1.3020  0.8017 -0.5502
 2545SOL    HW219272   1.925   0.230   9.395  0.3771 -0.9755 -3.1335
 2546SOL     OW19273   1.971   3.448  17.556 -0.1193 -0.0083  0.2092
 2546SOL    HW119274   1.975   3.353  17.547 -3.9387 -0.2317  1.0500
 2546SOL    HW219275   1.950   3.451  17.649 -1.5276 -0.1717 -0.1122
 2547SOL     OW19276   1.483   2.240   1.474 -0.3157  0.1878 -0.7350
 2547SOL    HW119277   1.509   2.255   1.384 -1.7613  0.5390 -1.0907
 2547SOL    HW219278   1.564   2.254   1.523  0.3027 -0.3692 -1.6077
 2548SOL     OW19279   2.174   0.381   4.176 -0.1738 -0.5298  0.1945
 2548SOL    HW119280   2.111   0.438   4.220 -1.5315 -0.3373 -1.9997
 2548SOL    HW219281   2.165   0.307   4.235 -2.4764 -0.1504  0.3462
 2549SOL     OW19282   3.574   1.017   5.587 -0.1535  0.8795  0.0479
 2549SOL    HW119283   3.478   1.025   5.588 -0.1971  0.2341  1.6361
 2549SOL    HW219284   3.581   0.927   5.556  2.4232  0.5810  1.5268
 2550SOL     OW19285   1.722   2.724   5.769 -0.6213  0.6807  0.3167
 2550SOL    HW119286   1.693   2.657   5.830 -1.4140 -1.4587 -2.4065
 2550SOL    HW219287   1.722   2.671   5.689 -2.4323  0.2626  0.6116
 2551SOL     OW19288   2.753   4.220   8.093 -0.6625  0.0432  0.1820
 2551SOL    HW119289   2.841   4.246   8.118 -0.5967  0.6414 -0.6646
 2551SOL    HW219290   2.693   4.272   8.147 -0.6935 -0.3452  0.5247
 2552SOL     OW19291   3.091   2.397  12.202  0.0625  0.2300 -0.5024
 2552SOL    HW119292   3.125   2.461  12.139  0.6370  0.8300  0.4071
 2552SOL    HW219293   3.174   2.366  12.240 -1.5009 -0.6392  2.1422
 2553SOL     OW19294   2.587   4.074   2.590 -0.1567  0.6668  0.2129
 2553SOL    HW119295   2.682   4.064   2.576 -0.7836 -3.4830 -1.1641
 2553SOL    HW219296   2.577   3.999   2.649 -0.0310  0.5072  0.0326
 2554SOL     OW19297   2.095   2.061   3.875 -0.1932  0.2846 -0.0605
 2554SOL    HW119298   2.047   2.106   3.806  0.9833  1.5586 -0.0377
 2554SOL    HW219299   2.071   1.973   3.846 -2.0702  0.6902  0.2238
 2555SOL     OW19300   1.519   3.473  15.931  0.4138 -0.5147 -0.3559
 2555SOL    HW119301   1.538   3.527  15.855  0.9009 -1.2566 -0.7628
 2555SOL    HW219302   1.585   3.506  15.991 -0.6992  0.4643  0.3299
 2556SOL     OW19303   3.009   4.103   7.902 -0.1091  0.0188 -0.1440
 2556SOL    HW119304   2.922   4.119   7.866 -0.4481 -1.1897  0.1451
 2556SOL    HW219305   3.011   4.181   7.956  1.7701 -0.0219 -0.1516
 2557SOL     OW19306   0.213   1.424   4.982  0.1506  0.0501  0.1659
 2557SOL    HW119307   0.217   1.413   5.077  1.4596 -1.5588 -0.0773
 2557SOL    HW219308   0.306   1.429   4.958 -0.9094  0.3190 -3.9051
 2558SOL     OW19309   2.614   0.828   2.689 -0.4789 -0.3385  0.5609
 2558SOL    HW119310   2.542   0.847   2.748 -0.8876  1.2058 -0.4477
 2558SOL    HW219311   2.648   0.913   2.661  1.6920 -1.3146  0.2263
 2559SOL     OW19312   0.664   4.086   8.793 -0.0262  0.4995 -0.0186
 2559SOL    HW119313   0.639   4.065   8.703 -0.5419  1.7696 -0.1674
 2559SOL    HW219314   0.748   4.126   8.772  0.1377  0.4321  0.5174
 2560SOL     OW19315   0.195   2.025   4.743 -0.2130 -0.2325 -0.1145
 2560SOL    HW119316   0.215   1.954   4.683 -1.3344  1.8630 -2.9637
 2560SOL    HW219317   0.105   2.048   4.719 -0.3633  0.8352  1.4519
 2561SOL     OW19318   2.825   0.976  16.543 -0.2584 -0.0610  0.0002
 2561SOL    HW119319   2.912   1.004  16.514 -0.0664 -0.8425 -0.2051
 2561SOL    HW219320   2.845   0.883  16.558  1.6763  0.5002  0.9130
 2562SOL     OW19321   4.394   3.790   5.588  0.0363  0.3684  0.0489
 2562SOL    HW119322   4.453   3.803   5.514 -1.6995 -1.2536 -1.5828
 2562SOL    HW219323   4.409   3.699   5.613  0.0610  0.5987  0.9095
 2563SOL     OW19324   0.860   0.999  11.023 -0.1672  0.0622  0.3773
 2563SOL    HW119325   0.893   1.045  11.100  1.1199  0.0891 -0.1852
 2563SOL    HW219326   0.816   1.070  10.975  1.5053  1.9753  1.6539
 2564SOL     OW19327   1.641   4.085  13.578  0.5132  0.1460  0.1855
 2564SOL    HW119328   1.609   4.108  13.490  1.1020  0.2980  0.0119
 2564SOL    HW219329   1.724   4.133  13.572  0.8088 -0.4892 -0.9064
 2565SOL     OW19330   1.913   2.976  16.876  0.3415 -0.3338  0.0115
 2565SOL    HW119331   1.913   2.905  16.811  1.7925  0.3342 -0.7237
 2565SOL    HW219332   1.841   2.953  16.935  0.3239 -0.1636  0.0543
 2566SOL     OW19333   3.642   1.199   3.243  0.0406  0.0165  0.2637
 2566SOL    HW119334   3.630   1.135   3.314  0.6842 -1.2786 -0.7951
 2566SOL    HW219335   3.553   1.179   3.212  1.0056 -0.5969 -2.1034
 2567SOL     OW19336   0.957   3.342   5.526  0.7291  0.1795 -0.1297
 2567SOL    HW119337   0.866   3.325   5.553  1.0952 -0.1911  0.8736
 2567SOL    HW219338   1.003   3.305   5.601  0.0263  0.1185  0.2750
 2568SOL     OW19339   2.758   4.035   3.321  0.4725  0.2987  0.0087
 2568SOL    HW119340   2.725   3.967   3.262  0.9782 -0.8017  0.9853
 2568SOL    HW219341   2.852   4.047   3.311  0.2881  0.9654 -0.8600
 2569SOL     OW19342   2.978   2.113   5.080 -0.6592  0.5630  0.2580
 2569SOL    HW119343   2.905   2.151   5.031 -0.7297  0.8554  0.5924
 2569SOL    HW219344   2.928   2.062   5.143  1.5949 -1.0860  0.7081
 2570SOL     OW19345   2.772   2.875   3.554 -0.0844 -0.9713  0.1077
 2570SOL    HW119346   2.836   2.903   3.620  0.1625 -0.9687 -0.1325
 2570SOL    HW219347   2.726   2.958   3.537  0.3293 -1.0764 -1.5612
 2571SOL     OW19348   0.641   1.256   9.418 -0.6775  0.9070  0.9980
 2571SOL    HW119349   0.575   1.192   9.444 -0.5400  0.8590  1.2335
 2571SOL    HW219350   0.595   1.330   9.379 -0.0305  1.0747  0.5464
 2572SOL     OW19351   1.599   0.565   7.547 -0.6747  0.9622  0.1023
 2572SOL    HW119352   1.553   0.606   7.621 -0.9047 -0.9734  1.0402
 2572SOL    HW219353   1.556   0.606   7.473 -1.4210 -2.3154 -1.2744
 2573SOL     OW19354   3.747   3.911   8.453 -0.1081 -0.2895 -0.0112
 2573SOL    HW119355   3.785   3.853   8.519 -0.0322 -0.2100  0.0137
 2573SOL    HW219356   3.681   3.850   8.418  0.2737 -0.4212 -0.5061
 2574SOL     OW19357   2.534   1.084   1.297  0.4411 -0.0973 -0.7352
 2574SOL    HW119358   2.530   1.123   1.384  1.9162 -0.1408 -0.6471
 2574SOL    HW219359   2.511   0.992   1.311 -0.4389  0.3685  0.9179
 2575SOL     OW19360   3.841   0.183   6.649  0.1014 -0.5825 -0.9426
 2575SOL    HW119361   3.768   0.246   6.654  0.5668 -0.0426 -0.8596
 2575SOL    HW219362   3.796   0.103   6.676  1.7686 -0.0060  3.6023
 2576SOL     OW19363   2.374   2.433  10.610  0.0560  0.4895 -0.4005
 2576SOL    HW119364   2.388   2.419  10.516  0.2695  2.3150 -0.6558
 2576SOL    HW219365   2.450   2.388  10.647 -0.1040  1.5062  1.1873
 2577SOL     OW19366   0.750   3.619   7.570 -0.7023  0.3695 -0.1355
 2577SOL    HW119367   0.729   3.532   7.604 -1.7896 -0.4548 -2.9596
 2577SOL    HW219368   0.833   3.633   7.617 -0.4234 -0.7326 -0.2970
 2578SOL     OW19369   2.184   2.061   5.026 -0.5630  0.2754  0.4443
 2578SOL    HW119370   2.139   2.109   5.095 -1.9151  0.0588 -0.2811
 2578SOL    HW219371   2.255   2.125   5.015  0.0806 -0.7383 -1.3550
 2579SOL     OW19372   0.890   2.279   4.919 -0.0738 -0.6135 -0.0628
 2579SOL    HW119373   0.969   2.227   4.937  0.1731 -1.0486 -2.3381
 2579SOL    HW219374   0.922   2.369   4.928 -2.2627  0.3150 -1.8194
 2580SOL     OW19375   3.053   1.433   0.348  0.4987  0.1348 -0.9473
 2580SOL    HW119376   3.009   1.449   0.265  2.8930 -0.9687 -2.4525
 2580SOL    HW219377   3.036   1.339   0.343 -1.3979  0.3045  2.3815
 2581SOL     OW19378   1.104   0.729  12.464  0.2955 -0.7095  0.6131
 2581SOL    HW119379   1.073   0.751  12.377 -0.4668  0.3936  1.1577
 2581SOL    HW219380   1.199   0.737  12.451 -0.0112  2.9170  0.5443
 2582SOL     OW19381   0.852   1.883  15.886  0.2149 -0.2403  0.6643
 2582SOL    HW119382   0.758   1.880  15.908 -0.4613  3.0994 -1.7604
 2582SOL    HW219383   0.851   1.912  15.795  2.2819  2.1715  1.4337
 2583SOL     OW19384   0.820   1.032   6.700 -0.0520 -0.1925  0.0828
 2583SOL    HW119385   0.733   1.027   6.659  0.7698 -0.5077 -1.6192
 2583SOL    HW219386   0.790   1.075   6.781  0.5469 -0.0718  0.2363
 2584SOL     OW19387   2.062   2.931   8.967 -0.2465  0.0123 -0.1757
 2584SOL    HW119388   2.018   3.013   8.991 -1.1182 -0.4344 -0.2426
 2584SOL    HW219389   1.995   2.877   9.010 -0.7646  0.3731 -0.5187
 2585SOL     OW19390   2.127   2.230  16.588 -0.3584 -0.4448 -0.1080
 2585SOL    HW119391   2.102   2.317  16.558  1.3688 -0.3634 -1.2940
 2585SOL    HW219392   2.086   2.227  16.674  1.5189  0.9088  0.8471
 2586SOL     OW19393   0.549   3.964   7.311 -0.4506  0.0130  0.4056
 2586SOL    HW119394   0.556   3.876   7.347  1.0864 -0.7616 -1.7934
 2586SOL    HW219395   0.566   4.009   7.393 -1.5199 -0.2091  0.7519
 2587SOL     OW19396   2.562   0.764   7.710  0.1827 -0.2762 -0.2537
 2587SOL    HW119397   2.498   0.709   7.665  0.9587 -0.9089 -0.5782
 2587SOL    HW219398   2.578   0.825   7.639  0.8721 -2.3065 -1.8295
 2588SOL     OW19399   4.145   2.541   6.139 -0.0654 -0.4935  0.3048
 2588SOL    HW119400   4.172   2.563   6.050 -1.0195 -0.0267  0.1302
 2588SOL    HW219401   4.095   2.459   6.131 -0.1713 -0.5706  1.8335
 2589SOL     OW19402   4.339   1.778   1.351  0.1953  0.0773  0.2308
 2589SOL    HW119403   4.305   1.865   1.371  1.2514  0.3218  0.8971
 2589SOL    HW219404   4.397   1.804   1.280  0.1350  1.0549  0.5438
 2590SOL     OW19405   4.393   3.707  13.882  0.2476 -0.2105  0.3963
 2590SOL    HW119406   4.444   3.633  13.851  0.5313  1.5556 -3.3281
 2590SOL    HW219407   4.313   3.659  13.899  1.4121 -2.5700 -0.8079
 2591SOL     OW19408   2.023   1.223   9.871  0.5513 -0.1647  0.8684
 2591SOL    HW119409   1.955   1.259   9.929  1.1578  4.3761 -1.1991
 2591SOL    HW219410   1.984   1.160   9.810  0.7455  0.1762  0.3993
 2592SOL     OW19411   0.366   4.316   0.429  0.4741  0.7219 -0.1196
 2592SOL    HW119412   0.366   4.341   0.337 -2.1786 -0.2575 -0.3694
 2592SOL    HW219413   0.462   4.311   0.435  0.6180  1.3555 -2.1639
 2593SOL     OW19414   3.851   3.807  15.865 -0.3809 -0.0910  0.5045
 2593SOL    HW119415   3.756   3.799  15.859 -0.0728 -2.6164 -0.9912
 2593SOL    HW219416   3.873   3.724  15.906  0.0906 -0.7706 -1.1208
 2594SOL     OW19417   1.290   2.174   4.238  0.1122 -0.6675 -0.4957
 2594SOL    HW119418   1.253   2.252   4.281 -0.7517 -1.0127 -0.6198
 2594SOL    HW219419   1.357   2.151   4.302 -0.8511  0.0749  0.7838
 2595SOL     OW19420   2.539   2.965  12.107  0.4075 -0.0269  0.6122
 2595SOL    HW119421   2.478   2.901  12.143  0.8723 -2.1691 -2.3854
 2595SOL    HW219422   2.528   2.946  12.013 -1.1608  3.0878  0.1814
 2596SOL     OW19423   2.988   1.775   3.720  0.3924  0.5193 -0.1166
 2596SOL    HW119424   2.978   1.856   3.772  0.4154 -1.0379  2.3386
 2596SOL    HW219425   3.083   1.764   3.725  0.4043  0.7766  0.2921
 2597SOL     OW19426   4.263   3.887   4.223  0.0555  0.4190 -0.2379
 2597SOL    HW119427   4.244   3.808   4.274 -0.3298 -0.4220 -1.6651
 2597SOL    HW219428   4.194   3.882   4.157 -1.8162  2.2647  1.6018
 2598SOL     OW19429   2.893   2.133   4.355 -0.1908  0.1134 -0.0109
 2598SOL    HW119430   2.808   2.177   4.351  1.1894  2.6486 -1.9894
 2598SOL    HW219431   2.918   2.109   4.444  0.9171 -1.2020 -0.6798
 2599SOL     OW19432   2.902   1.171   9.681 -0.8591 -0.1974  0.2083
 2599SOL    HW119433   2.963   1.105   9.715  1.1622  1.7381  0.3586
 2599SOL    HW219434   2.860   1.212   9.757  1.2513  1.4569  0.4779
 2600SOL     OW19435   3.666   0.950   0.243 -0.3266 -0.1544 -0.3673
 2600SOL    HW119436   3.591   0.896   0.268  0.3317 -0.8803  0.0375
 2600SOL    HW219437   3.659   0.957   0.148  1.2276  1.3101 -0.3805
 2601SOL     OW19438   3.682   1.654   1.354 -0.1104  0.2282 -0.2179
 2601SOL    HW119439   3.620   1.630   1.423  2.1291 -0.8453  1.4240
 2601SOL    HW219440   3.758   1.596   1.363  0.9239  1.5755 -0.2246
 2602SOL     OW19441   4.511   2.217  14.035  0.1004 -0.6720  0.0996
 2602SOL    HW119442   4.540   2.197  13.946 -1.4271 -1.3689 -0.2524
 2602SOL    HW219443   4.568   2.289  14.062 -0.4453 -1.1871  2.6301
 2603SOL     OW19444   1.397   1.796  14.870 -0.0157  1.3426 -0.4712
 2603SOL    HW119445   1.308   1.779  14.839  0.6023  1.6801 -2.3797
 2603SOL    HW219446   1.441   1.713  14.851 -0.8996  1.0186 -1.0789
 2604SOL     OW19447   4.713   3.811  16.651 -0.5448  0.2856  0.7457
 2604SOL    HW119448   4.727   3.726  16.610 -0.8504  0.3195  0.5782
 2604SOL    HW219449   4.636   3.799  16.706 -1.8760 -0.0328 -1.2329
 2605SOL     OW19450   3.271   4.465  14.912  0.9010 -0.5268 -0.0306
 2605SOL    HW119451   3.348   4.409  14.898  3.2483  2.1761  2.0054
 2605SOL    HW219452   3.310   4.538  14.960  0.5514 -1.1383  1.1800
 2606SOL     OW19453   2.297   2.440  13.097  0.0216  0.0568 -0.1133
 2606SOL    HW119454   2.382   2.399  13.082 -0.3134 -1.2784  1.6873
 2606SOL    HW219455   2.273   2.391  13.176  1.6277 -1.0455 -0.3158
 2607SOL     OW19456   1.094   3.559  10.620  0.7760 -0.5016  0.6317
 2607SOL    HW119457   1.169   3.526  10.570  1.7727  0.3658  1.5570
 2607SOL    HW219458   1.129   3.647  10.629  1.0823 -0.8382  2.7961
 2608SOL     OW19459   3.421   2.669  16.799 -0.4651  0.3040 -0.1569
 2608SOL    HW119460   3.415   2.646  16.891 -0.4185 -3.9403 -1.2135
 2608SOL    HW219461   3.466   2.592  16.763 -2.5727 -1.4318  0.9609
 2609SOL     OW19462   2.867   2.554   1.808  0.5772 -0.3476 -0.3184
 2609SOL    HW119463   2.848   2.594   1.893  0.9787  0.7244 -0.7319
 2609SOL    HW219464   2.841   2.464   1.826 -2.8759  0.6046 -0.7188
 2610SOL     OW19465   2.185   0.438   9.222 -0.6110  0.1264  0.4929
 2610SOL    HW119466   2.124   0.373   9.257 -0.4307 -0.3535 -0.0923
 2610SOL    HW219467   2.122   0.502   9.189 -1.3810 -1.0429 -0.3246
 2611SOL     OW19468   0.040   2.373   0.845 -0.2666 -0.3028 -0.3431
 2611SOL    HW119469   4.688   2.381   0.817  0.0560 -1.2826 -1.6985
 2611SOL    HW219470   0.067   2.465   0.841 -2.0883  0.3447  2.3652
 2612SOL     OW19471   1.534   3.461   6.654  0.2558  0.5943 -0.1956
 2612SOL    HW119472   1.493   3.546   6.640  2.1274  1.3961 -0.8218
 2612SOL    HW219473   1.510   3.409   6.577 -1.1061  0.7546  0.1128
 2613SOL     OW19474   3.671   2.229   8.116 -0.0136 -0.1569  0.0226
 2613SOL    HW119475   3.709   2.314   8.091  2.4407 -1.3215 -0.2505
 2613SOL    HW219476   3.735   2.200   8.182  0.2349  1.0734  0.3361
 2614SOL     OW19477   3.023   3.621   6.771 -0.4538 -0.3634  0.0910
 2614SOL    HW119478   3.000   3.577   6.852 -2.7241 -1.5275 -1.1790
 2614SOL    HW219479   2.978   3.579   6.698  0.2360 -1.6190  0.3848
 2615SOL     OW19480   0.859   3.941   4.612  0.0861 -0.0882 -0.0271
 2615SOL    HW119481   0.822   3.868   4.660 -2.1149  1.1870  0.1823
 2615SOL    HW219482   0.921   3.904   4.548  1.3264  2.6400 -0.3784
 2616SOL     OW19483   0.851   1.086   3.095  0.4244 -0.3996  0.7248
 2616SOL    HW119484   0.898   1.159   3.135  0.2878  0.2689 -0.3255
 2616SOL    HW219485   0.921   1.065   3.033 -0.0418 -2.1754  0.8001
 2617SOL     OW19486   2.305   1.034   7.616  0.2264 -0.3070  0.2025
 2617SOL    HW119487   2.288   0.954   7.567  0.0881  0.3362 -0.8051
 2617SOL    HW219488   2.246   1.026   7.690 -1.5903 -1.7485 -1.4103
 2618SOL     OW19489   4.551   0.127   6.153 -0.6771  0.0239  0.1377
 2618SOL    HW119490   4.537   0.207   6.102 -2.2587  0.4874  1.2812
 2618SOL    HW219491   4.541   0.168   6.239 -1.8422  0.8808 -0.4031
 2619SOL     OW19492   2.160   2.559  13.629 -0.3891 -0.0564 -0.3284
 2619SOL    HW119493   2.071   2.543  13.661 -0.3972 -2.3396 -1.5562
 2619SOL    HW219494   2.210   2.492  13.675  0.9664  0.1690 -1.4788
 2620SOL     OW19495   4.636   1.277   7.569 -0.1128  0.0804  0.2729
 2620SOL    HW119496   4.614   1.359   7.524 -0.9135  0.3158  1.0877
 2620SOL    HW219497   4.731   1.275   7.555 -0.5891  0.1301 -3.1035
 2621SOL     OW19498   2.821   4.678   7.827 -0.2395  0.1614 -0.5461
 2621SOL    HW119499   2.838   4.588   7.800  0.2144  0.7772 -2.3057
 2621SOL    HW219500   2.811   4.666   7.921  0.8427 -0.9294 -0.5688
 2622SOL     OW19501   1.753   0.183  10.078  0.1691 -0.0409  0.0749
 2622SOL    HW119502   1.712   0.096  10.077 -0.7764  0.3757  1.2984
 2622SOL    HW219503   1.677   0.238  10.059 -0.0721  0.0711  1.3321
 2623SOL     OW19504   1.668   4.177   7.139 -0.3563  0.0171  0.3656
 2623SOL    HW119505   1.752   4.156   7.099 -1.3149 -2.4169 -0.3638
 2623SOL    HW219506   1.617   4.216   7.068 -0.2506 -2.2263 -0.9064
 2624SOL     OW19507   4.736   3.514  16.083 -0.1169 -0.3476  0.1436
 2624SOL    HW119508   0.074   3.464  16.110  0.8520  1.5341  0.9250
 2624SOL    HW219509   4.704   3.457  16.014  1.9140  0.6382 -1.6039
 2625SOL     OW19510   2.671   1.381   6.923 -0.2802  0.2153 -0.4231
 2625SOL    HW119511   2.687   1.338   7.006 -0.2160 -1.6597 -1.3931
 2625SOL    HW219512   2.664   1.303   6.867  3.3530 -1.1092  0.9853
 2626SOL     OW19513   2.328   1.821  16.548  0.4348  0.1251 -0.0731
 2626SOL    HW119514   2.241   1.843  16.580  0.8502 -1.0142  1.8253
 2626SOL    HW219515   2.388   1.865  16.608 -1.7774  1.2658  1.2756
 2627SOL     OW19516   1.040   0.225   5.059  0.5315  0.2279 -0.2291
 2627SOL    HW119517   1.105   0.159   5.034  0.3623  0.1145 -0.3665
 2627SOL    HW219518   1.018   0.242   4.968  2.4952  0.8660 -0.5901
 2628SOL     OW19519   0.213   3.684   2.788 -0.0881 -0.9427 -0.0789
 2628SOL    HW119520   0.147   3.750   2.808 -0.9500 -1.2129 -2.0065
 2628SOL    HW219521   0.265   3.750   2.741  0.1762 -0.8185  0.3821
 2629SOL     OW19522   2.711   1.929   3.673 -0.0331 -0.0267  0.6366
 2629SOL    HW119523   2.736   2.017   3.646  0.3522  0.4279  2.5125
 2629SOL    HW219524   2.626   1.919   3.630  0.6643  1.5718 -1.1186
 2630SOL     OW19525   4.319   3.972   4.488 -0.2733 -0.5638 -0.0429
 2630SOL    HW119526   4.283   4.056   4.518  2.4474  0.9755 -1.0376
 2630SOL    HW219527   4.292   3.959   4.397 -0.0872 -2.9254  0.2343
 2631SOL     OW19528   0.336   4.245   1.152 -0.3838 -0.2607  0.6192
 2631SOL    HW119529   0.269   4.178   1.139  0.0443 -0.3381 -1.1606
 2631SOL    HW219530   0.342   4.247   1.248  1.3139  0.1561  0.4969
 2632SOL     OW19531   2.326   1.854   6.181 -0.1826  0.1028  0.2563
 2632SOL    HW119532   2.373   1.775   6.155  2.7355  1.6698  0.7889
 2632SOL    HW219533   2.325   1.837   6.275  0.0131 -0.3289  0.1793
 2633SOL     OW19534   0.040   3.467   5.487  0.4207  0.3389 -0.3081
 2633SOL    HW119535   4.727   3.486   5.566 -2.0241  1.3659 -2.1462
 2633SOL    HW219536   0.075   3.381   5.508 -0.4528  0.0466 -0.0309
 2634SOL     OW19537   3.562   4.020  10.066 -0.0390 -0.2776  0.4190
 2634SOL    HW119538   3.545   3.940  10.117  0.4313 -0.1992  0.7034
 2634SOL    HW219539   3.476   4.062  10.064  0.6002  0.9845 -0.1895
 2635SOL     OW19540   1.852   3.965  13.275 -0.0420  0.3226  1.0863
 2635SOL    HW119541   1.769   4.011  13.291 -0.4467  0.0707 -0.2619
 2635SOL    HW219542   1.832   3.907  13.201  0.4264  0.2821  0.9925
 2636SOL     OW19543   0.902   0.803   4.075  0.1987 -0.4976 -0.8194
 2636SOL    HW119544   0.863   0.722   4.108  0.5350 -0.5471 -0.5525
 2636SOL    HW219545   0.828   0.841   4.027  0.1360  0.8766  0.3734
 2637SOL     OW19546   4.432   3.826   4.863  0.1569 -0.1181  0.3115
 2637SOL    HW119547   4.447   3.763   4.933 -2.1524 -0.0100  0.9027
 2637SOL    HW219548   4.425   3.904   4.918 -1.5239 -0.2061  0.2219
 2638SOL     OW19549   1.013   2.479   2.897  0.1921  0.1331 -0.0810
 2638SOL    HW119550   0.983   2.388   2.891 -1.2065  0.5623  0.4976
 2638SOL    HW219551   1.059   2.488   2.813  0.3193  0.8656  0.0698
 2639SOL     OW19552   2.924   0.395   4.589 -0.2777 -0.1064 -0.3989
 2639SOL    HW119553   2.975   0.474   4.572 -2.1925  0.8314 -1.7251
 2639SOL    HW219554   2.970   0.368   4.669  0.9454 -0.4408 -1.2108
 2640SOL     OW19555   1.394   1.041  10.997  0.3084  0.8227 -0.0441
 2640SOL    HW119556   1.451   1.047  10.920  0.5343 -0.4682  0.0180
 2640SOL    HW219557   1.351   1.126  10.993  0.6874  1.0777  1.1889
 2641SOL     OW19558   0.696   0.229   3.729  0.3504  0.0246  0.5535
 2641SOL    HW119559   0.640   0.187   3.664  1.6176  1.2125 -1.3486
 2641SOL    HW219560   0.777   0.247   3.681 -0.7291 -1.8730 -1.9836
 2642SOL     OW19561   3.102   1.543  15.258 -0.9129 -0.1962  0.1435
 2642SOL    HW119562   3.109   1.634  15.226  0.9120 -0.8941 -1.4709
 2642SOL    HW219563   3.089   1.568  15.349  0.6924  0.4300  0.2159
 2643SOL     OW19564   1.963   3.326   4.115  0.2160  0.2559  0.0280
 2643SOL    HW119565   1.996   3.252   4.064 -0.1049 -0.8005  1.3523
 2643SOL    HW219566   1.900   3.273   4.164 -1.6196  1.9078 -0.5631
 2644SOL     OW19567   4.195   0.057  10.604 -0.4254  0.3510  0.2186
 2644SOL    HW119568   4.189   4.730  10.535 -0.3007  1.7373 -1.1138
 2644SOL    HW219569   4.276   0.099  10.577  0.9495 -2.0157  0.6506
 2645SOL     OW19570   1.653   3.486   1.493  0.3995  0.0579 -0.6409
 2645SOL    HW119571   1.594   3.561   1.490  0.7482  0.2700 -2.1236
 2645SOL    HW219572   1.598   3.427   1.442 -1.9951  1.2257  0.5893
 2646SOL     OW19573   4.630   3.038  13.090 -0.0299  0.1076  0.4689
 2646SOL    HW119574   4.607   2.949  13.063  0.2042  0.0664  0.4114
 2646SOL    HW219575   4.545   3.066  13.124 -0.3821  1.2313 -1.3796
 2647SOL     OW19576   0.608   4.721   9.792  0.2884 -0.2787 -0.9476
 2647SOL    HW119577   0.648   4.654   9.847  0.9935  1.7551  1.0218
 2647SOL    HW219578   0.688   0.024   9.759  0.2397  0.8530  0.3953
 2648SOL     OW19579   1.230   4.028  15.270  0.0995  0.4122 -0.5325
 2648SOL    HW119580   1.145   3.984  15.268  0.7528 -0.7933 -2.3464
 2648SOL    HW219581   1.249   4.041  15.177 -2.3612  1.0491 -0.9249
 2649SOL     OW19582   4.213   0.933   2.793  0.2746  0.2538  0.5920
 2649SOL    HW119583   4.219   1.023   2.759 -1.8020  0.6987  1.3856
 2649SOL    HW219584   4.174   0.886   2.719 -1.3078  0.3205  1.3788
 2650SOL     OW19585   0.664   2.568   3.205  0.1425 -0.1362 -0.4256
 2650SOL    HW119586   0.606   2.601   3.274 -0.9689 -0.9872 -0.9519
 2650SOL    HW219587   0.747   2.555   3.251  1.1049  1.3609 -1.7569
 2651SOL     OW19588   4.275   0.354  11.939  0.1788  0.3629  0.2430
 2651SOL    HW119589   4.186   0.344  11.972 -0.2916  1.7573 -0.6478
 2651SOL    HW219590   4.318   0.367  12.024 -0.3952 -2.5335  0.9968
 2652SOL     OW19591   1.462   4.515  12.144 -0.1297  0.0729  0.3640
 2652SOL    HW119592   1.408   4.579  12.098  0.2433 -0.0489 -0.2386
 2652SOL    HW219593   1.540   4.569  12.157  0.7963 -2.0886  3.7243
 2653SOL     OW19594   4.373   2.934   7.618 -0.1156 -0.4200  0.8317
 2653SOL    HW119595   4.298   2.958   7.563  1.2784  1.0245 -0.4316
 2653SOL    HW219596   4.400   3.017   7.657  2.1563 -0.0598 -1.5528
 2654SOL     OW19597   0.804   2.409  15.401  0.2404  0.1592 -0.1643
 2654SOL    HW119598   0.769   2.482  15.452  2.0749  0.7721  0.2132
 2654SOL    HW219599   0.738   2.341  15.420  0.7647 -0.3190 -0.0629
 2655SOL     OW19600   1.774   4.233  10.161  0.0694 -0.7910 -0.7781
 2655SOL    HW119601   1.726   4.184  10.095  0.1541  0.9365 -2.1321
 2655SOL    HW219602   1.830   4.300  10.120  0.2394 -1.7042 -2.0253
 2656SOL     OW19603   3.276   0.911   3.601  0.1216  0.4776 -0.3939
 2656SOL    HW119604   3.357   0.915   3.652  1.1773 -2.3789 -1.8466
 2656SOL    HW219605   3.261   1.004   3.586 -0.7941  0.1763 -1.3708
 2657SOL     OW19606   0.562   0.584   5.832  0.3544  0.0211  1.2147
 2657SOL    HW119607   0.597   0.638   5.760 -0.5263 -1.6766 -0.4856
 2657SOL    HW219608   0.496   0.648   5.858 -0.7420 -1.1514  1.3110
 2658SOL     OW19609   3.044   2.747   3.321 -0.3571  0.0950  0.3228
 2658SOL    HW119610   3.107   2.771   3.388 -0.0145  2.5854 -0.9212
 2658SOL    HW219611   3.012   2.670   3.369 -1.0846 -0.2676 -0.7383
 2659SOL     OW19612   3.678   3.918   5.249 -0.4991 -0.3520  0.7217
 2659SOL    HW119613   3.588   3.917   5.216 -0.0625  0.2565 -0.4694
 2659SOL    HW219614   3.721   3.861   5.185 -0.0041 -1.1524  1.7680
 2660SOL     OW19615   0.175   0.631   6.910 -0.1322  0.3287 -0.4492
 2660SOL    HW119616   0.091   0.618   6.955  1.2768  1.4832  2.5532
 2660SOL    HW219617   0.214   0.704   6.958 -2.4212  1.5491 -0.4238
 2661SOL     OW19618   4.370   2.811   7.199 -0.0590 -0.4923  0.9414
 2661SOL    HW119619   4.285   2.829   7.239 -1.3204 -0.6950 -1.6400
 2661SOL    HW219620   4.419   2.774   7.273 -0.2933 -1.5279  0.5749
 2662SOL     OW19621   1.465   2.628  12.166 -0.6451  0.4150 -0.2605
 2662SOL    HW119622   1.447   2.652  12.076  1.0629  3.0750  0.0758
 2662SOL    HW219623   1.389   2.663  12.212 -0.1284  0.5588  0.4964
 2663SOL     OW19624   4.676   2.462  13.793 -0.1215 -0.1247  0.4577
 2663SOL    HW119625   4.629   2.409  13.728  1.1290 -0.0359 -0.5174
 2663SOL    HW219626   0.018   2.412  13.805  0.9054  1.6947  1.1633
 2664SOL     OW19627   1.772   2.343  12.964 -0.4861 -0.0925  0.0684
 2664SOL    HW119628   1.762   2.438  12.968 -0.4375 -0.1147  0.6953
 2664SOL    HW219629   1.854   2.347  12.915 -2.0323 -0.5229 -2.5834
 2665SOL     OW19630   0.549   2.058  16.689  0.3592  0.4202  0.2877
 2665SOL    HW119631   0.587   2.085  16.773 -0.2908  2.6286 -0.1203
 2665SOL    HW219632   0.485   2.129  16.688 -0.4742 -0.3877 -2.4590
 2666SOL     OW19633   3.542   1.264   9.273 -0.0524 -0.6607  0.2182
 2666SOL    HW119634   3.569   1.223   9.191  2.2624  1.0558  0.1023
 2666SOL    HW219635   3.463   1.215   9.295  0.3089 -1.2370  0.2362
 2667SOL     OW19636   2.032   0.521   3.663  0.1592  0.4366  0.5726
 2667SOL    HW119637   2.100   0.478   3.715 -0.6939 -1.0261  0.5039
 2667SOL    HW219638   2.063   0.611   3.666  3.2265 -0.5884 -0.3981
 2668SOL     OW19639   3.428   1.721  15.190  0.0101  0.5580 -0.2625
 2668SOL    HW119640   3.417   1.695  15.099 -1.7419 -0.2476  0.1786
 2668SOL    HW219641   3.521   1.743  15.194  0.0420  0.3861 -0.0463
 2669SOL     OW19642   3.094   4.580  16.549 -0.0249 -0.0873 -0.1851
 2669SOL    HW119643   3.032   4.600  16.479 -0.4086 -0.0989  0.1582
 2669SOL    HW219644   3.158   4.525  16.503  0.8547 -0.2354  1.2188
 2670SOL     OW19645   3.918   1.078   6.231 -0.2265  0.0420  0.2000
 2670SOL    HW119646   3.875   1.049   6.150  1.2200  1.4591 -1.0736
 2670SOL    HW219647   3.909   0.994   6.276 -0.7394 -0.3326 -0.6047
 2671SOL     OW19648   1.308   0.755   4.277  0.3483 -0.3615  0.8774
 2671SOL    HW119649   1.269   0.668   4.268  2.1611 -1.2264  1.2996
 2671SOL    HW219650   1.240   0.801   4.228  0.0137 -0.6126  1.1074
 2672SOL     OW19651   4.429   3.119  17.025 -0.1006  0.7674  0.3256
 2672SOL    HW119652   4.405   3.031  17.052  1.3109  0.5477  0.8167
 2672SOL    HW219653   4.405   3.124  16.932 -2.6234 -1.3072  0.8806
 2673SOL     OW19654   0.201   3.511   9.392  0.2866 -0.2160  0.4998
 2673SOL    HW119655   0.254   3.511   9.312 -0.8119 -3.2162 -0.2385
 2673SOL    HW219656   0.199   3.417   9.410 -3.2202 -0.4252 -1.0036
 2674SOL     OW19657   1.842   2.868   2.424 -0.2050 -0.5281 -0.7085
 2674SOL    HW119658   1.884   2.809   2.361 -1.4918 -0.1380 -1.9369
 2674SOL    HW219659   1.772   2.903   2.368 -0.3832  0.6769  0.2661
 2675SOL     OW19660   4.527   3.633   2.429 -0.3509 -0.2099 -0.4375
 2675SOL    HW119661   4.445   3.679   2.446  0.5750  1.0142  0.7994
 2675SOL    HW219662   4.541   3.648   2.336  1.6719 -0.2995 -0.1670
 2676SOL     OW19663   2.577   0.129   6.828  0.3834 -0.0359 -0.1833
 2676SOL    HW119664   2.593   0.072   6.903 -0.2547 -0.3258 -0.2663
 2676SOL    HW219665   2.499   0.166   6.869 -0.7932  0.1583 -2.6034
 2677SOL     OW19666   2.718   3.844   4.586 -0.5121 -0.0050 -0.3987
 2677SOL    HW119667   2.708   3.856   4.681  1.4610 -0.4735 -0.1424
 2677SOL    HW219668   2.625   3.855   4.566 -0.2892  1.3969 -0.6636
 2678SOL     OW19669   3.690   2.733   6.160 -0.3875  0.1737  0.5349
 2678SOL    HW119670   3.689   2.683   6.242  0.8436  2.1736  1.7887
 2678SOL    HW219671   3.661   2.664   6.101 -0.0261  0.7086 -0.2690
 2679SOL     OW19672   2.689   1.320   7.182 -0.3033 -0.3362 -0.5446
 2679SOL    HW119673   2.740   1.238   7.184 -1.3689 -0.9669  0.7776
 2679SOL    HW219674   2.654   1.320   7.271  0.2072 -0.6618 -0.3384
 2680SOL     OW19675   3.705   4.728   4.317  0.1285  0.3194 -0.5662
 2680SOL    HW119676   3.690   0.031   4.402  0.3855  1.0227 -0.8602
 2680SOL    HW219677   3.712   0.059   4.252 -0.0116  1.7375  0.9272
 2681SOL     OW19678   0.062   2.244  11.659 -0.1736 -0.1633  0.3607
 2681SOL    HW119679   0.035   2.279  11.574  0.4392  2.2000  1.1600
 2681SOL    HW219680   0.144   2.196  11.648 -0.1820 -0.0676 -0.1118
 2682SOL     OW19681   4.419   3.605   2.838  0.1461  0.4523 -0.1627
 2682SOL    HW119682   4.451   3.531   2.890  0.8526 -0.2332 -1.5733
 2682SOL    HW219683   4.373   3.554   2.771  1.7495  0.7288 -1.4717
 2683SOL     OW19684   2.191   2.748   6.000 -0.1629 -0.0973 -0.2411
 2683SOL    HW119685   2.194   2.844   5.999  0.7311 -0.1336 -1.3378
 2683SOL    HW219686   2.171   2.733   5.908  0.3578 -1.0717 -0.1978
 2684SOL     OW19687   2.191   1.484   1.569 -0.6426 -0.1133  0.1945
 2684SOL    HW119688   2.150   1.437   1.497  2.4844 -1.2539 -0.8318
 2684SOL    HW219689   2.129   1.470   1.641 -1.1468  1.1231  0.0075
 2685SOL     OW19690   1.699   1.624   2.839  0.1636 -0.3465  0.1694
 2685SOL    HW119691   1.780   1.654   2.880 -0.1604 -0.1745  0.6827
 2685SOL    HW219692   1.636   1.628   2.910 -0.8503 -2.0659 -0.6425
 2686SOL     OW19693   1.303   1.500   2.177 -0.2901 -0.5256  0.2218
 2686SOL    HW119694   1.293   1.592   2.154  2.4719 -0.3296 -0.1540
 2686SOL    HW219695   1.395   1.489   2.157  0.1008  1.2084  1.0441
 2687SOL     OW19696   1.712   4.306   3.581  0.2415  0.1364 -0.6741
 2687SOL    HW119697   1.796   4.284   3.540  0.5964  2.8806 -1.4707
 2687SOL    HW219698   1.659   4.231   3.555 -1.3866  1.1977 -0.4000
 2688SOL     OW19699   3.320   1.032   5.174  0.5885  0.3489 -0.1685
 2688SOL    HW119700   3.297   1.042   5.082  1.9560  1.7328 -0.3627
 2688SOL    HW219701   3.274   0.954   5.207 -1.1855  1.5475  0.1705
 2689SOL     OW19702   1.253   2.993   3.695 -0.5145  0.5410  0.1671
 2689SOL    HW119703   1.212   3.053   3.633 -1.8170 -2.1769 -1.6078
 2689SOL    HW219704   1.297   3.046   3.761  1.9319 -0.3827 -0.7025
 2690SOL     OW19705   2.463   0.670   4.240  0.2189  0.0823  0.0340
 2690SOL    HW119706   2.508   0.592   4.208  0.0622 -0.1076  0.2790
 2690SOL    HW219707   2.388   0.635   4.289 -0.2908  0.6399 -0.3410
 2691SOL     OW19708   1.751   1.489   6.942 -0.2515 -0.1633 -0.3926
 2691SOL    HW119709   1.694   1.566   6.938 -0.3597 -0.1059  1.8857
 2691SOL    HW219710   1.834   1.537   6.946  0.0550 -0.5453 -2.2560
 2692SOL     OW19711   3.667   4.014   7.761 -0.2459 -0.0192 -0.3955
 2692SOL    HW119712   3.591   3.995   7.816 -0.7027  0.1528 -0.9690
 2692SOL    HW219713   3.634   4.070   7.690 -0.6122  0.6873  0.3319
 2693SOL     OW19714   3.217   4.073   7.275 -0.5235 -0.0145  0.7036
 2693SOL    HW119715   3.127   4.044   7.258 -0.3442 -0.0914 -0.1361
 2693SOL    HW219716   3.213   4.165   7.298  2.6309 -0.0080  1.1311
 2694SOL     OW19717   4.078   3.774  13.097  0.3592 -0.5969  0.2015
 2694SOL    HW119718   4.037   3.807  13.177  1.4705  0.2804  0.4070
 2694SOL    HW219719   4.111   3.859  13.068 -0.5027  0.1571  1.4028
 2695SOL     OW19720   3.856   3.235  12.031  0.0576 -0.3167 -0.5338
 2695SOL    HW119721   3.825   3.325  12.041  3.8393  0.5233  3.5863
 2695SOL    HW219722   3.835   3.202  12.119  0.0238 -1.3047 -0.9140
 2696SOL     OW19723   1.741   1.246   9.878  0.0824  0.5279  0.4053
 2696SOL    HW119724   1.711   1.180   9.816  3.1800 -0.1065 -0.4053
 2696SOL    HW219725   1.669   1.304   9.904 -3.6005 -1.9121 -4.4845
 2697SOL     OW19726   1.948   1.117   4.710  0.0802  0.1744  0.4800
 2697SOL    HW119727   1.944   1.212   4.714 -1.0718  0.0974  1.2996
 2697SOL    HW219728   1.992   1.101   4.627  0.0627  0.9001  0.3332
 2698SOL     OW19729   3.742   0.582   3.068 -0.1310  0.1143  0.1479
 2698SOL    HW119730   3.757   0.514   3.003 -0.8532  0.0520  0.0519
 2698SOL    HW219731   3.794   0.656   3.036  0.5371 -0.8336 -0.9535
 2699SOL     OW19732   4.553   2.142  13.258 -0.0889 -0.0096  0.0796
 2699SOL    HW119733   4.458   2.138  13.274  0.2041 -1.6205  1.2945
 2699SOL    HW219734   4.585   2.058  13.228  0.5197  0.7085 -1.3047
 2700SOL     OW19735   3.275   1.836   0.277  0.5665 -0.2580  0.6741
 2700SOL    HW119736   3.351   1.779   0.280  1.7935  1.2626 -1.5104
 2700SOL    HW219737   3.317   1.917   0.249 -2.1819  1.0933  0.4033
 2701SOL     OW19738   2.386   2.049   3.247  0.4931  0.1604 -0.6041
 2701SOL    HW119739   2.428   2.133   3.227 -0.0836  0.4418 -0.6515
 2701SOL    HW219740   2.470   2.015   3.278  0.3419 -2.0303 -2.6413
 2702SOL     OW19741   3.074   2.498  17.637 -0.3689 -0.4000 -0.2633
 2702SOL    HW119742   3.166   2.507  17.660 -0.0150 -0.4160 -1.6722
 2702SOL    HW219743   3.072   2.501  17.541  2.6063 -0.0445 -0.3019
 2703SOL     OW19744   0.951   3.958   4.344 -0.2182  0.3022 -0.2760
 2703SOL    HW119745   1.005   4.036   4.332 -0.5792  0.4310 -1.1300
 2703SOL    HW219746   0.990   3.899   4.279  1.3024  1.4967 -0.4459
 2704SOL     OW19747   0.896   3.672   5.582 -0.2691  0.8172 -0.5620
 2704SOL    HW119748   0.822   3.686   5.641  0.7620  1.9770  0.4552
 2704SOL    HW219749   0.861   3.643   5.498  1.0785 -0.6502 -0.6307
 2705SOL     OW19750   1.298   0.072   9.895 -0.0941  0.0994  0.2073
 2705SOL    HW119751   1.326   0.080   9.804 -2.4632 -0.5701 -0.5611
 2705SOL    HW219752   1.214   0.118   9.898  0.0337  0.3008  0.7907
 2706SOL     OW19753   2.911   3.618  10.783  0.0565  0.0497  0.4698
 2706SOL    HW119754   2.869   3.621  10.869 -0.7638  0.2897  0.0674
 2706SOL    HW219755   2.839   3.659  10.734  0.0317 -1.6300 -0.8715
 2707SOL     OW19756   2.734   2.396   1.501  0.0127 -0.2458  0.2449
 2707SOL    HW119757   2.671   2.333   1.535 -2.2838  1.8478 -0.0853
 2707SOL    HW219758   2.690   2.480   1.513 -1.0935 -0.7582 -0.2342
 2708SOL     OW19759   1.052   2.476   1.582 -0.0335  0.0640 -0.2928
 2708SOL    HW119760   1.126   2.418   1.599 -1.6003 -1.1764  2.3056
 2708SOL    HW219761   1.081   2.518   1.501  0.1220 -0.1627 -0.3545
 2709SOL     OW19762   2.009   2.416  17.165  0.0893  0.0026 -0.3221
 2709SOL    HW119763   2.034   2.428  17.257  3.6861  0.1421 -1.3119
 2709SOL    HW219764   1.960   2.334  17.172  0.0829  0.0365  0.0224
 2710SOL     OW19765   4.420   0.169   8.994 -0.3117 -0.3280 -0.3764
 2710SOL    HW119766   4.443   0.106   8.926 -1.1424 -1.3403  0.2698
 2710SOL    HW219767   4.472   0.127   9.063  1.1191 -2.0248 -2.4854
 2711SOL     OW19768   3.591   2.241  14.864  0.4616 -0.1502  0.3328
 2711SOL    HW119769   3.670   2.223  14.915  0.1632  1.0487  1.2146
 2711SOL    HW219770   3.606   2.192  14.783 -1.5912  1.3039 -0.9168
 2712SOL     OW19771   2.698   2.532   8.381  0.4130  0.1086 -0.0334
 2712SOL    HW119772   2.666   2.511   8.469 -0.0305  0.0145 -0.2197
 2712SOL    HW219773   2.690   2.442   8.350  0.3927 -0.8059  2.6072
 2713SOL     OW19774   4.328   3.508  13.631  0.0050  0.2187  0.1818
 2713SOL    HW119775   4.398   3.482  13.691 -1.0528 -1.4202  0.7253
 2713SOL    HW219776   4.356   3.485  13.543 -3.0068  0.7681 -0.9079
 2714SOL     OW19777   4.452   3.836   0.820  0.7301 -0.1941 -0.2012
 2714SOL    HW119778   4.508   3.792   0.756 -0.3005 -0.2306 -1.0636
 2714SOL    HW219779   4.390   3.765   0.836  0.5720 -0.3432 -1.4595
 2715SOL     OW19780   1.593   3.192   4.576 -0.1642  0.2665 -0.1197
 2715SOL    HW119781   1.499   3.176   4.589 -0.7274  2.1758 -1.7738
 2715SOL    HW219782   1.598   3.270   4.631 -0.1098  0.0229  0.2172
 2716SOL     OW19783   2.968   2.554   4.671  0.0126 -0.7838 -0.1635
 2716SOL    HW119784   3.007   2.625   4.723  0.4009  0.0248 -1.5515
 2716SOL    HW219785   2.877   2.584   4.669  0.7036  1.3959  0.2107
 2717SOL     OW19786   2.685   4.396   3.581 -0.4402 -0.3007  0.0496
 2717SOL    HW119787   2.701   4.490   3.570 -1.4261 -0.0991  0.3157
 2717SOL    HW219788   2.760   4.358   3.626  1.8012  0.8873 -2.6876
 2718SOL     OW19789   2.068   2.558   9.009 -0.2220  0.3926 -0.4588
 2718SOL    HW119790   2.136   2.490   9.011 -0.2185  0.4125  0.2499
 2718SOL    HW219791   2.100   2.620   9.075 -1.0217 -1.4295  1.6401
 2719SOL     OW19792   0.463   2.759   4.246 -0.0220  0.0967 -0.3215
 2719SOL    HW119793   0.387   2.742   4.302  0.8112 -2.1776  0.1407
 2719SOL    HW219794   0.447   2.682   4.190  0.7896  0.0548 -0.4949
 2720SOL     OW19795   0.778   2.934   8.889 -0.5966  0.5101 -0.2786
 2720SOL    HW119796   0.716   2.979   8.947 -0.2257  3.1311 -1.9104
 2720SOL    HW219797   0.784   2.850   8.935  0.6612  0.3684 -0.6894
 2721SOL     OW19798   2.647   2.362   7.692 -0.6223 -0.2681  0.2293
 2721SOL    HW119799   2.557   2.395   7.690 -0.5297  0.1443  2.5986
 2721SOL    HW219800   2.644   2.320   7.779  2.1176 -3.0319 -1.0204
 2722SOL     OW19801   2.388   4.032   0.930  0.1476  0.4059 -0.1415
 2722SOL    HW119802   2.401   4.072   0.844  0.0459 -2.9244 -1.7288
 2722SOL    HW219803   2.319   4.090   0.962  0.0348 -0.7450  1.7305
 2723SOL     OW19804   1.170   4.547   3.935 -0.4818  0.6017 -0.8891
 2723SOL    HW119805   1.174   4.616   3.869  0.0248  1.2252 -0.1992
 2723SOL    HW219806   1.261   4.544   3.963 -1.1765 -0.7280  1.2782
 2724SOL     OW19807   1.490   2.639   9.552  0.5074  0.5350  0.4769
 2724SOL    HW119808   1.395   2.628   9.545  0.6502  1.2479 -2.6528
 2724SOL    HW219809   1.509   2.546   9.544 -1.2095  0.2877 -0.8479
 2725SOL     OW19810   1.880   1.269   5.741  0.2513 -0.0115 -0.2193
 2725SOL    HW119811   1.836   1.335   5.796 -0.7066 -0.8631  0.0347
 2725SOL    HW219812   1.960   1.318   5.722 -0.5005  0.6661 -1.6673
 2726SOL     OW19813   1.312   3.289   0.976 -0.0281  0.5964 -0.0093
 2726SOL    HW119814   1.240   3.227   0.967  0.3944  0.1264 -0.1888
 2726SOL    HW219815   1.315   3.319   0.885 -0.4085 -1.1048 -0.5951
 2727SOL     OW19816   2.713   1.631   7.463 -0.0015 -0.2983  0.2564
 2727SOL    HW119817   2.762   1.585   7.531  0.6517  0.3258  0.2057
 2727SOL    HW219818   2.663   1.560   7.424 -2.8853  1.8969 -0.0442
 2728SOL     OW19819   0.078   3.630   9.028 -0.2857 -1.1586 -0.2725
 2728SOL    HW119820   0.148   3.613   9.090  1.6296 -3.2736 -3.0426
 2728SOL    HW219821   0.005   3.574   9.056 -1.9282  1.1200  0.0420
 2729SOL     OW19822   0.785   3.747   7.103  0.0876 -0.2804  0.1297
 2729SOL    HW119823   0.695   3.716   7.112  0.2302 -0.0875  2.0935
 2729SOL    HW219824   0.822   3.677   7.157  0.6700  1.4087  1.9301
 2730SOL     OW19825   0.749   1.057   4.038  0.0927  0.5287 -0.0208
 2730SOL    HW119826   0.699   1.011   4.105 -0.0654 -0.4666 -0.8092
 2730SOL    HW219827   0.694   1.130   4.010 -2.9962 -2.3043 -1.3482
 2731SOL     OW19828   4.264   3.160   3.910  0.1321 -0.2476 -0.3978
 2731SOL    HW119829   4.357   3.179   3.907 -0.1308  0.8277 -1.6992
 2731SOL    HW219830   4.278   3.065   3.916 -0.2556 -0.2469  0.4455
 2732SOL     OW19831   3.127   3.408   7.321  0.5658 -0.4176  0.1489
 2732SOL    HW119832   3.134   3.354   7.242 -1.1835 -0.4447  0.0157
 2732SOL    HW219833   3.033   3.408   7.336  0.2333 -1.4702 -1.9711
 2733SOL     OW19834   2.682   4.121   4.323 -0.1600 -0.0153  0.6690
 2733SOL    HW119835   2.616   4.120   4.392  0.6135  0.2731  1.4116
 2733SOL    HW219836   2.717   4.210   4.321 -0.3344 -0.0615 -3.7206
 2734SOL     OW19837   4.530   3.992   5.730  0.0213  0.0577  0.6545
 2734SOL    HW119838   4.536   4.061   5.664 -0.5110 -0.4448  0.0750
 2734SOL    HW219839   4.455   3.946   5.693 -0.6452  0.4300  1.5439
 2735SOL     OW19840   3.545   0.878   8.585 -0.0084  0.5355  0.0323
 2735SOL    HW119841   3.544   0.911   8.675 -1.0156  0.4420  0.0535
 2735SOL    HW219842   3.617   0.928   8.548 -1.0421 -1.6099 -4.8879
 2736SOL     OW19843   3.520   0.985  17.733  0.4618  0.3618 -0.2975
 2736SOL    HW119844   3.482   0.981   0.069  1.0503  1.2530 -0.0085
 2736SOL    HW219845   3.488   1.068  17.698  3.8907  0.8906 -2.1242
 2737SOL     OW19846   0.970   4.063   3.919  0.7422 -0.8232  0.2876
 2737SOL    HW119847   0.898   4.101   3.970  0.8774  0.3779 -0.4181
 2737SOL    HW219848   1.022   4.143   3.911 -1.3002  0.4606 -0.1692
 2738SOL     OW19849   4.305   4.181  13.309  0.7414 -0.2846 -0.2523
 2738SOL    HW119850   4.298   4.123  13.385  1.0072  0.1493  0.1071
 2738SOL    HW219851   4.320   4.115  13.241  0.7731 -0.1680 -0.3589
 2739SOL     OW19852   0.109   4.236   6.256 -0.0768 -0.4072 -0.2909
 2739SOL    HW119853   0.176   4.194   6.201  0.9843 -0.6108  1.1656
 2739SOL    HW219854   0.030   4.185   6.238 -0.8563 -0.1081  2.3780
 2740SOL     OW19855   4.079   3.048   8.475 -0.2613 -0.0519 -0.2187
 2740SOL    HW119856   3.992   3.083   8.491  0.2188  1.8573 -1.7477
 2740SOL    HW219857   4.098   2.996   8.552 -2.3873 -0.5650 -0.0523
 2741SOL     OW19858   3.497   4.042   6.549 -0.2482 -0.1810 -0.1348
 2741SOL    HW119859   3.494   3.970   6.612 -3.4287 -0.4956 -0.6704
 2741SOL    HW219860   3.553   4.007   6.479 -0.4454 -2.0664  0.6450
 2742SOL     OW19861   1.615   0.575  15.655 -0.6742 -0.4440  0.0563
 2742SOL    HW119862   1.585   0.599  15.567  0.7060 -1.0062 -0.5739
 2742SOL    HW219863   1.681   0.640  15.679 -0.0973 -0.7788 -0.6048
 2743SOL     OW19864   0.005   1.686  15.286 -0.3996  0.2891 -0.1120
 2743SOL    HW119865   4.713   1.776  15.303 -1.8124  0.3006 -2.6047
 2743SOL    HW219866   0.055   1.710  15.208 -0.1928 -3.9026 -1.2478
 2744SOL     OW19867   2.188   0.997   4.804 -0.5392  0.5579  0.3031
 2744SOL    HW119868   2.125   1.055   4.762 -2.7403 -1.0645  1.3887
 2744SOL    HW219869   2.141   0.979   4.885  1.6031 -0.6104  1.2788
 2745SOL     OW19870   3.722   2.481   2.815  0.4010 -0.3004  0.9924
 2745SOL    HW119871   3.779   2.525   2.878  2.8260 -2.0847  0.0608
 2745SOL    HW219872   3.681   2.426   2.882  1.1307 -0.3988  1.3578
 2746SOL     OW19873   1.554   3.796   7.170  0.1770 -0.0008  0.0568
 2746SOL    HW119874   1.590   3.762   7.088 -2.5539 -1.4949 -0.5207
 2746SOL    HW219875   1.621   3.850   7.213  2.1522 -2.4819  0.0877
 2747SOL     OW19876   0.117   4.696   6.570 -0.9843 -0.8426 -0.0921
 2747SOL    HW119877   0.113   0.013   6.492 -0.3494 -0.1789  0.3431
 2747SOL    HW219878   0.200   4.722   6.610 -0.9761 -0.0067 -0.6625
 2748SOL     OW19879   4.296   3.512   1.904  0.1477  0.3643 -0.5432
 2748SOL    HW119880   4.355   3.459   1.957 -0.8063  0.2620  0.4092
 2748SOL    HW219881   4.311   3.592   1.953 -1.3033  0.4122 -0.1954
 2749SOL     OW19882   4.076   0.311   7.829 -0.1437  0.4137  0.3012
 2749SOL    HW119883   4.009   0.258   7.873  1.8292 -1.2469  1.3129
 2749SOL    HW219884   4.036   0.334   7.745 -1.2965 -3.4532 -0.2082
 2750SOL     OW19885   2.961   0.779   0.034  0.2379 -0.1893  0.1694
 2750SOL    HW119886   2.906   0.845   0.077 -1.2210 -1.2307 -0.1098
 2750SOL    HW219887   2.935   0.798  17.695  1.2287 -1.7930 -0.4563
 2751SOL     OW19888   4.018   1.113   5.470  0.5610  0.0936 -0.2000
 2751SOL    HW119889   3.934   1.135   5.429  0.1705  0.8742  1.0204
 2751SOL    HW219890   4.030   1.179   5.537 -2.6870  0.1502  0.3115
 2752SOL     OW19891   2.655   3.249   8.587  0.2385 -0.1682  0.1285
 2752SOL    HW119892   2.568   3.227   8.552 -0.1761 -2.4029  2.5992
 2752SOL    HW219893   2.688   3.284   8.504 -0.6108  2.2876  0.8108
 2753SOL     OW19894   2.733   0.840   3.823 -0.1035  0.1317  0.2630
 2753SOL    HW119895   2.799   0.883   3.768 -0.6289  0.1872 -0.3383
 2753SOL    HW219896   2.792   0.835   3.897 -0.7592 -0.4526  0.7425
 2754SOL     OW19897   1.678   3.428   2.367  0.3981  0.5952  0.8429
 2754SOL    HW119898   1.664   3.446   2.460  0.9154  0.4216  0.9576
 2754SOL    HW219899   1.740   3.499   2.346 -0.4080  1.1007  0.1795
 2755SOL     OW19900   0.166   3.367   3.896 -0.3853 -0.0011 -0.1974
 2755SOL    HW119901   0.081   3.405   3.918 -0.5383 -0.7942  0.6134
 2755SOL    HW219902   0.216   3.367   3.978  0.3331 -0.2898 -0.6382
 2756SOL     OW19903   1.666   2.441   0.725 -0.2608 -0.2318  0.1236
 2756SOL    HW119904   1.647   2.403   0.640  0.4049  0.2734 -0.2485
 2756SOL    HW219905   1.747   2.489   0.710  0.4226 -1.3772  0.1119
 2757SOL     OW19906   4.627   2.809   6.694 -0.3036 -0.2176  0.2014
 2757SOL    HW119907   4.614   2.737   6.632  0.3203 -0.3091  0.1788
 2757SOL    HW219908   4.709   2.789   6.739  1.1049 -0.5332 -2.5231
 2758SOL     OW19909   1.917   3.904   9.385 -0.4178 -0.1340 -0.0710
 2758SOL    HW119910   1.864   3.949   9.319 -2.1138  0.2200  1.5234
 2758SOL    HW219911   1.861   3.832   9.414 -1.6810  0.0490 -2.1030
 2759SOL     OW19912   4.685   4.639   3.492 -0.3699 -0.0977 -0.3321
 2759SOL    HW119913   4.642   4.705   3.546  1.3548  0.1725  0.6776
 2759SOL    HW219914   4.653   4.667   3.406 -1.1514 -0.0744 -0.0400
 2760SOL     OW19915   1.981   1.151   6.848 -0.2223 -0.3307 -0.5339
 2760SOL    HW119916   1.985   1.211   6.922  0.2493 -0.9594 -0.0576
 2760SOL    HW219917   1.916   1.190   6.790  0.6168  0.8986 -0.6553
 2761SOL     OW19918   1.843   2.441   9.443 -0.3210  0.5633  0.1099
 2761SOL    HW119919   1.751   2.431   9.417 -0.5597 -0.8168  1.4315
 2761SOL    HW219920   1.853   2.418   9.536  0.4191 -0.3992 -0.2136
 2762SOL     OW19921   2.769   3.102  13.947  0.0881  0.2465 -0.6730
 2762SOL    HW119922   2.692   3.145  13.985 -0.2129  0.8319 -1.9173
 2762SOL    HW219923   2.725   3.040  13.888 -1.8522  0.6735  0.3115
 2763SOL     OW19924   1.531   3.279   9.563 -0.2317  0.1033 -0.2033
 2763SOL    HW119925   1.589   3.320   9.499 -1.1022 -2.9154 -2.9587
 2763SOL    HW219926   1.529   3.346   9.631 -2.8688 -0.1268 -0.0471
 2764SOL     OW19927   4.250   3.349  14.116  0.1919  0.1354  0.5749
 2764SOL    HW119928   4.251   3.426  14.173  1.1718 -1.1092  2.2511
 2764SOL    HW219929   4.217   3.396  14.039 -1.6407 -1.3053  0.4827
 2765SOL     OW19930   2.522   1.828  16.321  0.0745 -0.9689  0.7294
 2765SOL    HW119931   2.450   1.841  16.383 -0.7656 -1.3475 -0.1634
 2765SOL    HW219932   2.486   1.748  16.282  0.3796 -0.3697 -0.7791
 2766SOL     OW19933   4.335   4.659   4.586 -0.1693 -0.4646 -0.0767
 2766SOL    HW119934   4.321   4.652   4.681  1.1711  0.3109  0.1775
 2766SOL    HW219935   4.412   4.603   4.587 -0.5678 -1.0083  0.2946
 2767SOL     OW19936   2.375   4.030   9.714  0.2553 -0.3974  0.2539
 2767SOL    HW119937   2.442   4.064   9.654  0.9218 -1.1894  0.5519
 2767SOL    HW219938   2.408   3.953   9.760  1.4358  0.1381  0.3073
 2768SOL     OW19939   1.932   4.699   2.034 -0.3882 -0.5137  0.7492
 2768SOL    HW119940   1.886   4.631   1.986 -1.7098 -1.1523  2.9445
 2768SOL    HW219941   1.870   4.710   2.106  0.2902  0.7117  1.1518
 2769SOL     OW19942   4.575   1.880   2.898  0.1825  0.0836 -0.7065
 2769SOL    HW119943   4.629   1.811   2.936  0.1832  0.8395  0.6670
 2769SOL    HW219944   4.535   1.830   2.827  1.2918 -0.5192 -0.8946
 2770SOL     OW19945   0.140   0.760   3.309  0.0245 -0.1653 -0.6411
 2770SOL    HW119946   0.048   0.734   3.308 -0.2658  0.8211  0.3320
 2770SOL    HW219947   0.178   0.702   3.243 -0.0347  0.4943 -1.2504
 2771SOL     OW19948   3.370   3.443   7.016  0.5888  0.0773  0.7772
 2771SOL    HW119949   3.287   3.407   7.047  0.7355  0.1945  1.3060
 2771SOL    HW219950   3.351   3.533   7.038 -0.1246 -0.7596  3.4972
 2772SOL     OW19951   0.031   0.539   4.870  0.0803  0.8814 -0.2695
 2772SOL    HW119952   4.706   0.576   4.809 -1.3511 -0.2679  0.5272
 2772SOL    HW219953   0.102   0.599   4.848  0.3531  1.0695  1.1347
 2773SOL     OW19954   4.502   3.049  13.446  0.1762 -0.1437  0.0739
 2773SOL    HW119955   4.558   2.974  13.465 -0.6380 -0.8083 -0.1513
 2773SOL    HW219956   4.570   3.089  13.391  1.6526 -1.6030  0.8491
 2774SOL     OW19957   0.908   3.869   8.737 -0.0633 -0.0581 -0.4922
 2774SOL    HW119958   0.867   3.941   8.785  1.1292  0.2157  0.1167
 2774SOL    HW219959   0.837   3.835   8.682  0.7728 -0.6064 -1.2295
 2775SOL     OW19960   2.780   1.913   8.005 -0.0831  1.4942 -0.1776
 2775SOL    HW119961   2.758   2.006   8.006  1.3429  1.8370 -0.6587
 2775SOL    HW219962   2.726   1.876   8.075 -0.6860  0.4040 -1.2286
 2776SOL     OW19963   2.182   3.766   6.685  0.1170 -0.5665 -0.2490
 2776SOL    HW119964   2.093   3.775   6.652  0.6805  0.7807 -1.4295
 2776SOL    HW219965   2.183   3.798   6.775  1.7437  1.5405 -1.0009
 2777SOL     OW19966   0.029   4.672   4.836 -0.3909  0.3130  0.5399
 2777SOL    HW119967   0.024   4.598   4.896 -1.4113  0.7318  0.9632
 2777SOL    HW219968   0.026   0.002   4.903 -1.3379  1.1534 -0.3494
 2778SOL     OW19969   1.967   1.738   5.585 -0.0012  0.1637  0.6179
 2778SOL    HW119970   2.045   1.793   5.595 -0.2058  0.2504  1.6942
 2778SOL    HW219971   1.970   1.688   5.667  0.7362  0.7676  0.9648
 2779SOL     OW19972   4.458   2.091   4.061  0.5730 -0.1035 -0.2074
 2779SOL    HW119973   4.429   2.179   4.037  1.2350  0.6243  1.6315
 2779SOL    HW219974   4.374   2.045   4.054  1.2752 -1.4695  0.3820
 2780SOL     OW19975   0.866   0.663   1.957 -0.0757 -0.5236  0.0828
 2780SOL    HW119976   0.797   0.692   1.897  1.1186 -0.8830 -1.4564
 2780SOL    HW219977   0.849   0.721   2.031  0.0571 -0.5371  0.1243
 2781SOL     OW19978   4.643   4.564  12.229  0.8058  0.4896  0.4384
 2781SOL    HW119979   4.613   4.503  12.162 -0.9629  1.8671 -0.0251
 2781SOL    HW219980   4.667   4.502  12.298  0.6580 -0.0125  0.0412
 2782SOL     OW19981   1.583   2.111  15.665 -0.0255 -0.0843  0.1303
 2782SOL    HW119982   1.585   2.144  15.575  0.2718 -2.2150 -0.6405
 2782SOL    HW219983   1.608   2.021  15.648 -1.4891 -0.3586 -0.6128
 2783SOL     OW19984   2.218   2.837   2.747  0.2174 -0.1219  0.2175
 2783SOL    HW119985   2.259   2.836   2.661 -0.5846  0.0664 -0.1720
 2783SOL    HW219986   2.146   2.894   2.719  1.7522  0.8501 -1.7386
 2784SOL     OW19987   3.337   4.279   4.940  0.0403  0.2907  0.1562
 2784SOL    HW119988   3.380   4.206   4.984 -0.7348 -0.8720 -1.0059
 2784SOL    HW219989   3.393   4.356   4.953  0.9554  0.2033 -3.1670
 2785SOL     OW19990   0.257   2.003  13.606 -0.1085 -0.0556 -0.0677
 2785SOL    HW119991   0.250   2.085  13.558  0.3761  1.2498  2.1228
 2785SOL    HW219992   0.346   1.971  13.592 -0.2873 -0.4678 -0.2772
 2786SOL     OW19993   2.976   4.035   8.330 -0.4412  1.0420  0.3690
 2786SOL    HW119994   2.905   4.087   8.368 -3.1309 -1.1298 -1.6604
 2786SOL    HW219995   3.042   4.040   8.399 -0.5058  0.2350  0.4902
 2787SOL     OW19996   1.145   4.289   3.433  0.4885  0.0466 -0.3832
 2787SOL    HW119997   1.224   4.291   3.379  1.5303 -0.5512  1.0989
 2787SOL    HW219998   1.185   4.271   3.519  0.9164 -0.6107 -0.7240
 2788SOL     OW19999   0.401   1.172  12.732 -0.0121  0.4033  0.2899
 2788SOL    HW120000   0.365   1.259  12.714 -0.7311  0.2282  0.8535
 2788SOL    HW220001   0.449   1.157  12.651 -0.2174 -0.9303  0.4165
 2789SOL     OW20002   2.248   0.155   7.448  0.8181 -0.6345 -0.5207
 2789SOL    HW120003   2.172   0.124   7.496  1.1923  1.4872  1.4593
 2789SOL    HW220004   2.227   0.242   7.412 -0.5948 -0.0504  1.7015
 2790SOL     OW20005   2.855   1.622   8.193 -0.0102  0.1399 -0.5221
 2790SOL    HW120006   2.854   1.566   8.115  1.6283  0.0713 -0.4944
 2790SOL    HW220007   2.762   1.638   8.209  0.4980 -0.5015  2.9358
 2791SOL     OW20008   0.955   2.440   8.492  0.2119  0.1864 -0.4747
 2791SOL    HW120009   0.930   2.454   8.400 -0.7987 -1.1668 -0.4051
 2791SOL    HW220010   0.942   2.345   8.501  0.1738  0.3189  0.7996
 2792SOL     OW20011   4.132   3.090   1.988  0.4669  0.0603 -0.0346
 2792SOL    HW120012   4.078   3.055   2.059  2.0570 -2.7774 -0.1990
 2792SOL    HW220013   4.205   3.127   2.037  2.0981 -0.3574 -2.1062
 2793SOL     OW20014   3.016   0.693  12.332 -0.0745 -0.0265 -0.1344
 2793SOL    HW120015   2.947   0.681  12.267 -0.1806  0.5996 -0.1397
 2793SOL    HW220016   2.957   0.668  12.402 -0.3748  1.5383  0.1858
 2794SOL     OW20017   0.939   1.975   2.496  0.1599 -0.0219  0.2357
 2794SOL    HW120018   0.939   2.050   2.555 -1.7918 -0.0376  0.2402
 2794SOL    HW220019   0.909   2.015   2.414 -1.2833  1.2244  1.3839
 2795SOL     OW20020   1.357   2.942   2.458  0.3423  0.0748 -0.5874
 2795SOL    HW120021   1.370   3.030   2.494  1.9962  0.3641 -1.8746
 2795SOL    HW220022   1.266   2.945   2.428  0.3530 -1.2792 -0.7405
 2796SOL     OW20023   2.857   1.303   6.654 -0.3351 -0.4331 -0.5791
 2796SOL    HW120024   2.780   1.273   6.701 -0.8518  1.5779 -0.1529
 2796SOL    HW220025   2.835   1.378   6.600  2.7571  0.5359 -0.5118
 2797SOL     OW20026   3.906   0.142  10.554  0.1198  0.7103 -0.1524
 2797SOL    HW120027   3.938   0.200  10.485 -0.4279  0.8625 -0.2767
 2797SOL    HW220028   3.968   0.069  10.558 -0.6203  0.0683 -0.4957
 2798SOL     OW20029   3.072   0.850   2.145 -0.5874  0.2762  0.0646
 2798SOL    HW120030   3.017   0.855   2.223  1.2669  2.4546  1.2326
 2798SOL    HW220031   3.021   0.795   2.086 -1.8464 -0.5110  1.8821
 2799SOL     OW20032   1.750   4.188   9.831 -0.1460  0.1032  0.6431
 2799SOL    HW120033   1.805   4.117   9.797  0.5172  1.8663 -1.9764
 2799SOL    HW220034   1.710   4.142   9.905 -1.5736  0.0329 -0.1726
 2800SOL     OW20035   4.664   0.882   4.727  0.1389 -0.0554  0.0550
 2800SOL    HW120036   4.573   0.861   4.746  0.4472 -2.0542 -0.6550
 2800SOL    HW220037   4.678   0.944   4.799  1.8419 -1.1604  0.6812
 2801SOL     OW20038   4.571   4.147   5.479  0.5757  0.3373 -0.0999
 2801SOL    HW120039   4.663   4.134   5.505  0.6490  0.6746 -0.1894
 2801SOL    HW220040   4.583   4.168   5.386 -0.9278  1.9157  0.0654
 2802SOL     OW20041   4.201   0.351   7.137  0.3707  0.5997  1.0328
 2802SOL    HW120042   4.203   0.318   7.226 -1.0782  0.7314  1.1070
 2802SOL    HW220043   4.134   0.418   7.147 -0.4921  0.2677 -2.3422
 2803SOL     OW20044   3.240   0.877  15.498  0.2765 -0.4878 -0.0299
 2803SOL    HW120045   3.249   0.946  15.564 -2.3545  0.5025 -0.7372
 2803SOL    HW220046   3.210   0.922  15.420  1.4609  1.0637  0.4081
 2804SOL     OW20047   2.890   2.033   7.521  0.3365 -0.3513 -0.2507
 2804SOL    HW120048   2.891   2.088   7.600  1.2110 -0.1055 -0.4326
 2804SOL    HW220049   2.967   1.979   7.536  0.6938 -0.7215 -3.6366
 2805SOL     OW20050   4.108   2.874   3.593 -0.0509  0.3444  0.2384
 2805SOL    HW120051   4.035   2.817   3.568  0.4549 -0.9956  1.8565
 2805SOL    HW220052   4.073   2.941   3.651 -0.1668 -0.5254  1.1757
 2806SOL     OW20053   2.149   0.087  15.301 -0.2800 -0.6829 -0.1699
 2806SOL    HW120054   2.100   0.167  15.318  2.5865  0.8300  0.8984
 2806SOL    HW220055   2.076   0.025  15.298 -0.2042 -0.7681 -0.2569
 2807SOL     OW20056   2.159   4.667   8.099  0.0504 -0.0554 -0.4875
 2807SOL    HW120057   2.160   0.017   8.063  1.4504 -0.4534 -1.4212
 2807SOL    HW220058   2.080   4.639   8.052  0.7158  0.5521 -1.9617
 2808SOL     OW20059   4.737   2.944   1.533  0.6933  0.4026 -0.5595
 2808SOL    HW120060   0.065   2.925   1.467 -1.8876  0.4696 -3.1641
 2808SOL    HW220061   4.686   2.864   1.526  0.3365  0.7752 -2.2131
 2809SOL     OW20062   0.869   2.494   8.150  0.0635 -0.2053  0.0416
 2809SOL    HW120063   0.788   2.533   8.118  1.0224 -1.1470 -3.4656
 2809SOL    HW220064   0.906   2.454   8.072 -0.0141  1.0522 -0.6321
 2810SOL     OW20065   0.109   2.120  16.788 -0.2264  0.3492 -0.0476
 2810SOL    HW120066   0.022   2.089  16.763  0.8314 -1.3622 -1.5688
 2810SOL    HW220067   0.074   2.191  16.841 -0.7567  0.9439 -1.1957
 2811SOL     OW20068   3.747   2.776   7.252  0.2325  0.3834  0.5814
 2811SOL    HW120069   3.703   2.814   7.176  2.0440 -0.3424 -0.8136
 2811SOL    HW220070   3.733   2.847   7.315  0.5591  0.9671 -0.0139
 2812SOL     OW20071   3.511   2.170  13.637  0.3602 -0.2921 -0.4472
 2812SOL    HW120072   3.511   2.139  13.546 -0.3124 -0.8483 -0.2629
 2812SOL    HW220073   3.499   2.086  13.682  3.5462 -0.4757  0.0083
 2813SOL     OW20074   4.101   1.941   8.351  0.0322  0.3266  0.3346
 2813SOL    HW120075   4.099   1.914   8.443  0.7216  2.5678  1.0182
 2813SOL    HW220076   4.186   1.986   8.353 -0.4976  1.3013  1.7755
 2814SOL     OW20077   2.224   1.397   2.930  0.4744  0.1759 -0.1777
 2814SOL    HW120078   2.192   1.423   2.844 -0.4708 -0.6558 -0.0699
 2814SOL    HW220079   2.294   1.463   2.934 -0.4471  1.0990  0.9222
 2815SOL     OW20080   2.606   4.627  12.624  0.0968  0.1122  0.1908
 2815SOL    HW120081   2.632   4.555  12.681  0.6007 -0.6901 -1.0260
 2815SOL    HW220082   2.652   4.599  12.544  0.4119  1.4630 -0.1097
 2816SOL     OW20083   0.770   4.379   7.291 -0.2653  0.3694  0.2541
 2816SOL    HW120084   0.789   4.471   7.271 -3.8577  0.8487 -1.1146
 2816SOL    HW220085   0.766   4.392   7.386  2.0914  0.4180  0.3379
 2817SOL     OW20086   1.462   2.248   3.447 -0.2209  0.5209  0.6461
 2817SOL    HW120087   1.448   2.158   3.478  0.1859 -0.4482 -1.9313
 2817SOL    HW220088   1.376   2.282   3.470  0.1432  1.2790  0.8818
 2818SOL     OW20089   0.642   0.687   1.825 -0.0212 -0.1246  0.2671
 2818SOL    HW120090   0.593   0.718   1.901  0.2470 -1.7260  1.0989
 2818SOL    HW220091   0.575   0.632   1.783  1.7647 -1.6279 -0.6269
 2819SOL     OW20092   4.071   1.394   6.848 -0.6998  0.7082  0.6299
 2819SOL    HW120093   4.099   1.455   6.779 -0.1968 -0.2543 -0.0142
 2819SOL    HW220094   3.983   1.429   6.863 -1.6342 -0.0953 -2.8630
 2820SOL     OW20095   1.443   4.310   3.823  0.0625 -0.1946 -0.3427
 2820SOL    HW120096   1.368   4.285   3.768 -0.7281  0.9779  0.2051
 2820SOL    HW220097   1.461   4.400   3.796  1.2841  0.1723  1.6472
 2821SOL     OW20098   2.732   0.409   5.063 -0.1015 -0.1319 -0.0358
 2821SOL    HW120099   2.827   0.416   5.062 -0.1158  0.0580 -0.1211
 2821SOL    HW220100   2.722   0.328   5.012 -2.9111 -0.6676  1.3583
 2822SOL     OW20101   1.994   3.325  12.359 -0.2968  0.1721  0.0809
 2822SOL    HW120102   1.904   3.355  12.371  0.1435  2.0590 -1.2372
 2822SOL    HW220103   2.034   3.392  12.414 -0.7962  0.4377  0.1204
 2823SOL     OW20104   2.462   3.838   9.354 -0.0443 -0.4367  0.4950
 2823SOL    HW120105   2.475   3.772   9.422 -0.7156  0.7315  1.7472
 2823SOL    HW220106   2.468   3.918   9.406  0.5757 -0.6824  0.8060
 2824SOL     OW20107   1.330   4.050  10.570 -0.3761  0.3162  0.1791
 2824SOL    HW120108   1.319   4.144  10.556 -1.3654 -0.0360 -1.3202
 2824SOL    HW220109   1.411   4.047  10.519 -0.5330 -1.3362  0.0424
 2825SOL     OW20110   2.819   4.736  11.950  0.4085  0.5729 -0.3564
 2825SOL    HW120111   2.835   0.082  11.909 -3.4334  1.3126 -0.4148
 2825SOL    HW220112   2.727   4.725  11.923  0.8066  1.9807 -2.2492
 2826SOL     OW20113   3.470   0.518  16.869 -0.1300  0.2441  0.1550
 2826SOL    HW120114   3.378   0.532  16.847  0.3945  3.1544 -0.1589
 2826SOL    HW220115   3.500   0.586  16.809 -2.1424  1.5254  0.5785
 2827SOL     OW20116   1.508   3.077   1.020 -0.1907 -0.3850  0.0294
 2827SOL    HW120117   1.439   3.141   1.006 -0.6373 -1.0813 -0.9100
 2827SOL    HW220118   1.473   3.029   1.095 -0.4994 -0.1223  0.0540
 2828SOL     OW20119   1.166   3.411   2.195  0.4090 -0.2240  0.6476
 2828SOL    HW120120   1.195   3.498   2.221 -2.3971  1.8590 -3.1619
 2828SOL    HW220121   1.247   3.361   2.207  0.3545 -1.3043 -3.4015
 2829SOL     OW20122   0.712   0.696  12.596 -0.1050 -0.2576  0.3032
 2829SOL    HW120123   0.618   0.699  12.579 -0.0430 -0.8754 -0.1255
 2829SOL    HW220124   0.746   0.743  12.520 -1.8264  0.0687 -0.2537
 2830SOL     OW20125   3.242   1.446   6.597 -0.2882 -0.2153  0.0451
 2830SOL    HW120126   3.273   1.367   6.553 -1.3896 -0.2588 -0.6424
 2830SOL    HW220127   3.207   1.402   6.674 -3.0397  0.9006 -0.5935
 2831SOL     OW20128   2.809   3.585   8.510  0.2586  0.0585 -0.1123
 2831SOL    HW120129   2.824   3.652   8.444 -0.2119 -0.0466 -0.3279
 2831SOL    HW220130   2.836   3.502   8.472  1.1100  1.0715 -1.7128
 2832SOL     OW20131   1.310   4.375   6.402  0.3094  0.2861  0.2188
 2832SOL    HW120132   1.328   4.281   6.395 -1.5156 -0.2174  2.4564
 2832SOL    HW220133   1.292   4.380   6.496  0.9865 -3.0715  0.5290
 2833SOL     OW20134   4.040   1.215  13.188 -0.3773 -0.2594 -0.2769
 2833SOL    HW120135   4.095   1.141  13.212 -1.8233 -0.5554  2.0441
 2833SOL    HW220136   3.960   1.181  13.149  0.0306 -1.2650 -0.2265
 2834SOL     OW20137   1.604   2.764   5.455  0.3161  0.5564 -0.0674
 2834SOL    HW120138   1.519   2.746   5.495  0.7970 -0.7389  0.3786
 2834SOL    HW220139   1.624   2.686   5.403  0.2702 -0.0781  0.8791
 2835SOL     OW20140   4.083   0.404   1.940  0.4480 -0.2264 -0.0838
 2835SOL    HW120141   4.038   0.413   1.856 -0.0447  1.1937  0.3261
 2835SOL    HW220142   4.100   0.311   1.954  0.2441 -0.0102  1.6340
 2836SOL     OW20143   4.387   2.112  16.807  0.2618  0.0923  0.0308
 2836SOL    HW120144   4.422   2.079  16.724 -3.3976 -1.6727 -0.8223
 2836SOL    HW220145   4.294   2.113  16.781  0.9511 -0.4882 -2.5160
 2837SOL     OW20146   4.624   2.105   5.426 -0.0668  0.2162 -0.7380
 2837SOL    HW120147   4.685   2.171   5.394  0.1376  0.1535 -0.4712
 2837SOL    HW220148   4.555   2.112   5.359 -0.5282 -0.0798 -0.2898
 2838SOL     OW20149   0.932   2.103   4.289 -0.0045  0.4251  0.1881
 2838SOL    HW120150   0.891   2.049   4.357 -0.9222 -0.1479 -0.8186
 2838SOL    HW220151   0.991   2.155   4.345  2.0597 -0.9079 -0.7760
 2839SOL     OW20152   4.471   4.326  13.792 -0.5074  0.3745 -0.5045
 2839SOL    HW120153   4.490   4.389  13.722 -0.6679  0.2232 -0.6862
 2839SOL    HW220154   4.462   4.383  13.868 -1.7076  0.6133 -0.8140
 2840SOL     OW20155   1.386   0.083   5.395  0.0508  0.5762 -0.0588
 2840SOL    HW120156   1.446   0.019   5.435 -0.3456  0.3633  0.1890
 2840SOL    HW220157   1.300   0.065   5.433  0.2982 -0.4112  0.0329
 2841SOL     OW20158   1.002   1.180   1.539 -0.5518 -0.4141  0.1030
 2841SOL    HW120159   1.047   1.240   1.599  0.4100 -0.5443 -0.4896
 2841SOL    HW220160   1.012   1.092   1.575  1.0067  0.5964  2.1481
 2842SOL     OW20161   2.450   3.794   4.490 -0.8827 -0.1280 -0.8028
 2842SOL    HW120162   2.355   3.795   4.484 -1.0387 -0.6282  1.5341
 2842SOL    HW220163   2.458   3.710   4.535 -1.3318 -0.0292 -0.5376
 2843SOL     OW20164   0.037   1.678   6.696  0.0992  0.4058  0.3915
 2843SOL    HW120165   0.120   1.631   6.697  0.2420  0.6259 -0.7838
 2843SOL    HW220166   4.738   1.657   6.610 -0.4099 -2.0884  1.2268
 2844SOL     OW20167   3.751   3.980   6.088 -0.4694  0.0906  0.8584
 2844SOL    HW120168   3.793   3.947   6.009 -0.7958  2.0230 -0.1131
 2844SOL    HW220169   3.679   4.033   6.054 -0.0283  0.0020 -0.1992
 2845SOL     OW20170   1.427   4.597   4.000  0.2592  0.1227 -0.0860
 2845SOL    HW120171   1.511   4.574   3.959  0.1243  0.9045 -0.7821
 2845SOL    HW220172   1.437   4.688   4.028  0.3289  0.5523 -1.5214
 2846SOL     OW20173   3.688   3.858   2.816  0.6556  0.6803 -0.2336
 2846SOL    HW120174   3.682   3.891   2.726 -2.6477 -1.4152 -0.7803
 2846SOL    HW220175   3.631   3.783   2.801  0.3938  0.8763 -0.2222
 2847SOL     OW20176   1.915   2.498   1.667  0.0690 -0.0136  0.3360
 2847SOL    HW120177   1.852   2.457   1.727  0.4696 -1.5340 -0.2719
 2847SOL    HW220178   1.850   2.554   1.624 -0.1486 -0.2185  0.3992
 2848SOL     OW20179   2.202   3.906   4.344  0.0047  0.1922  0.3392
 2848SOL    HW120180   2.188   3.999   4.361 -0.8762  0.0381  0.4586
 2848SOL    HW220181   2.118   3.877   4.308 -1.0453  1.0607  2.0365
 2849SOL     OW20182   4.536   1.003   5.329 -0.5117  0.4649 -0.8035
 2849SOL    HW120183   4.442   0.998   5.343  0.0008 -1.5872  1.9381
 2849SOL    HW220184   4.540   1.089   5.287  1.2520  0.9556  0.3531
 2850SOL     OW20185   0.256   3.022   4.938 -0.0427  0.1655 -0.1326
 2850SOL    HW120186   0.301   3.082   4.878 -0.2348  0.7204  0.2784
 2850SOL    HW220187   0.187   3.000   4.876  1.1188 -0.9096 -1.0426
 2851SOL     OW20188   4.477   4.420   4.992 -0.1671 -0.3289 -0.4272
 2851SOL    HW120189   4.409   4.480   4.960 -1.0049 -0.6671  0.7077
 2851SOL    HW220190   4.488   4.366   4.914 -1.5495 -1.6735  0.3036
 2852SOL     OW20191   2.899   0.172   7.700  0.4564 -0.2710 -0.3275
 2852SOL    HW120192   2.945   0.193   7.780 -2.4190  2.6911  0.5899
 2852SOL    HW220193   2.857   0.093   7.733 -1.3539  1.3232  1.1998
 2853SOL     OW20194   0.578   1.181  12.412 -0.4831  0.1168  0.3339
 2853SOL    HW120195   0.609   1.218  12.495 -1.7490 -0.5218  1.0938
 2853SOL    HW220196   0.554   1.092  12.436  1.2398 -0.7653 -1.2559
 2854SOL     OW20197   2.488   2.918   7.977  0.1294 -0.0692  0.2471
 2854SOL    HW120198   2.582   2.905   7.991 -0.2666  0.9178  3.7574
 2854SOL    HW220199   2.490   2.999   7.926  2.3435  0.6058  1.4075
 2855SOL     OW20200   2.648   1.155  11.630 -0.0675  0.0728  0.1764
 2855SOL    HW120201   2.679   1.187  11.546  0.1400 -0.9327 -0.1230
 2855SOL    HW220202   2.581   1.092  11.604  0.9264 -0.6874 -0.5528
 2856SOL     OW20203   4.045   1.669   9.369  0.4400 -0.0219 -0.3926
 2856SOL    HW120204   4.136   1.682   9.394 -0.0453  1.0508  0.7983
 2856SOL    HW220205   4.063   1.581   9.335  0.9737  0.7863 -2.2412
 2857SOL     OW20206   1.231   3.111   8.037 -0.0788  0.2880 -0.0617
 2857SOL    HW120207   1.197   3.053   7.969 -1.4192  0.3691  0.5356
 2857SOL    HW220208   1.283   3.048   8.087 -1.0678 -0.4748 -0.0001
 2858SOL     OW20209   2.301   2.188   3.987 -0.0042 -0.5230 -0.5233
 2858SOL    HW120210   2.310   2.259   3.923  0.1229 -0.7873 -0.7948
 2858SOL    HW220211   2.217   2.147   3.965 -0.8304  0.4879  0.7049
 2859SOL     OW20212   3.929   1.422   5.972  0.3588 -0.0660 -0.6532
 2859SOL    HW120213   3.986   1.345   5.981  2.6220  1.9131  1.7307
 2859SOL    HW220214   3.863   1.385   6.031  1.1691 -1.7839 -0.8165
 2860SOL     OW20215   0.526   3.021   8.650 -0.5954 -0.0890  0.4903
 2860SOL    HW120216   0.445   3.066   8.629 -0.5504 -0.9844 -1.5461
 2860SOL    HW220217   0.492   2.934   8.630  0.7219 -1.3062  3.4502
 2861SOL     OW20218   1.348   2.995   5.713 -0.0064  0.2058 -0.1864
 2861SOL    HW120219   1.346   2.910   5.669 -0.7273 -0.4538  1.1269
 2861SOL    HW220220   1.440   3.020   5.702 -0.2308  2.1777  2.3823
 2862SOL     OW20221   4.532   1.204   9.633 -0.4011 -0.2659 -0.2717
 2862SOL    HW120222   4.621   1.238   9.626 -1.0980  1.6780  0.4770
 2862SOL    HW220223   4.487   1.256   9.699  0.4822 -0.4968  0.5110
 2863SOL     OW20224   0.241   4.093   4.238 -0.1628  0.3259 -0.1514
 2863SOL    HW120225   0.267   4.061   4.325 -1.9561 -0.7872 -0.0213
 2863SOL    HW220226   0.217   4.181   4.266 -0.2817  1.2648 -3.2282
 2864SOL     OW20227   1.167   0.994   1.944 -0.2291 -0.1567 -0.3986
 2864SOL    HW120228   1.084   0.984   1.991 -0.4854  0.4945 -0.7205
 2864SOL    HW220229   1.191   1.080   1.980 -0.7231 -0.1879  0.0022
 2865SOL     OW20230   2.527   0.712   2.194  0.2534 -0.0552  0.3633
 2865SOL    HW120231   2.563   0.781   2.250  0.1044  1.5329 -1.4862
 2865SOL    HW220232   2.578   0.725   2.114 -0.8637 -1.9809 -0.6406
 2866SOL     OW20233   4.596   1.462   2.786  0.4725  0.0525 -0.2306
 2866SOL    HW120234   4.638   1.421   2.862 -0.8674  3.9056  2.6144
 2866SOL    HW220235   4.637   1.548   2.772  0.1609  0.8027  3.3908
 2867SOL     OW20236   1.505   1.024   8.831  0.2175 -0.5115 -0.1865
 2867SOL    HW120237   1.597   1.045   8.848 -0.0159 -0.6810  1.3286
 2867SOL    HW220238   1.461   1.108   8.819 -0.8114 -0.9518  0.5455
 2868SOL     OW20239   2.273   1.544  12.788 -0.5046  0.0456 -0.4198
 2868SOL    HW120240   2.256   1.467  12.841  0.7720  0.1256  0.1197
 2868SOL    HW220241   2.342   1.513  12.729 -0.4088  0.0225 -0.2968
 2869SOL     OW20242   4.472   3.950  13.157  0.3774  0.7061 -0.6995
 2869SOL    HW120243   4.544   4.012  13.165 -0.2563  1.4880 -1.0777
 2869SOL    HW220244   4.446   3.936  13.248  3.3337 -0.3092 -0.0111
 2870SOL     OW20245   1.922   2.858   8.717 -0.6052  0.2672  0.0627
 2870SOL    HW120246   1.991   2.856   8.783 -0.6228  0.0377  0.0747
 2870SOL    HW220247   1.881   2.773   8.735  0.0561  0.7130  3.6044
 2871SOL     OW20248   2.214   3.282   5.522 -0.2122 -0.3306 -0.1678
 2871SOL    HW120249   2.139   3.281   5.462  0.0425 -3.0032 -0.4084
 2871SOL    HW220250   2.229   3.188   5.529  1.8572  0.1464  2.1037
 2872SOL     OW20251   1.185   1.732   2.736 -0.0134  0.2021  0.1875
 2872SOL    HW120252   1.236   1.723   2.656 -1.3978 -0.3392 -0.6240
 2872SOL    HW220253   1.100   1.742   2.694 -0.3785 -0.9770  0.6318
 2873SOL     OW20254   3.572   0.162   5.783 -0.0938  0.2758 -0.1156
 2873SOL    HW120255   3.505   0.220   5.820  1.1130  1.2546  0.5304
 2873SOL    HW220256   3.613   0.138   5.865 -2.4918  1.4773  1.4435
 2874SOL     OW20257   0.525   0.014   2.268  0.0400  0.1004 -0.0349
 2874SOL    HW120258   0.554   0.049   2.353  0.3840 -0.2028 -0.0265
 2874SOL    HW220259   0.572   4.670   2.276 -1.3083 -0.5524  1.1383
 2875SOL     OW20260   0.326   4.229   2.028 -0.1171  0.7547 -0.7575
 2875SOL    HW120261   0.384   4.277   2.087 -0.0496  2.2180 -2.0023
 2875SOL    HW220262   0.391   4.203   1.961  0.4844  1.8821 -0.6212
 2876SOL     OW20263   3.000   4.058  16.037 -0.4816 -0.2046  0.4052
 2876SOL    HW120264   3.004   3.981  16.094 -0.4520  0.9757  2.0201
 2876SOL    HW220265   3.000   4.012  15.953 -0.6419  1.6970 -0.6447
 2877SOL     OW20266   1.683   2.453  13.265 -0.2248  0.1991 -0.0517
 2877SOL    HW120267   1.727   2.469  13.349 -2.3910 -2.4954  1.6351
 2877SOL    HW220268   1.756   2.443  13.204  1.2175 -2.5159  2.1107
 2878SOL     OW20269   0.598   1.212   2.247  0.9085 -0.4532 -0.4007
 2878SOL    HW120270   0.580   1.146   2.180 -0.3663 -2.7169  2.1269
 2878SOL    HW220271   0.629   1.288   2.199  1.3201 -1.2888 -1.4685
 2879SOL     OW20272   1.548   3.067   0.301  0.0290 -0.0131 -0.0573
 2879SOL    HW120273   1.615   3.038   0.363  0.7508 -0.4559 -1.0439
 2879SOL    HW220274   1.587   3.145   0.263  0.0968 -0.2130 -0.4060
 2880SOL     OW20275   2.086   3.040   2.532 -0.0289  0.3412 -0.0210
 2880SOL    HW120276   2.044   3.123   2.559  0.7158  0.6628  0.1460
 2880SOL    HW220277   2.031   3.010   2.460 -1.6479 -0.5428  1.5546
 2881SOL     OW20278   2.546   4.201   5.392 -0.0034  0.2750  1.0185
 2881SOL    HW120279   2.641   4.213   5.394  0.0978 -0.6646  2.1598
 2881SOL    HW220280   2.536   4.213   5.298 -0.5094  0.4188  1.0882
 2882SOL     OW20281   3.335   2.850   8.136 -0.0737 -0.4365 -0.2280
 2882SOL    HW120282   3.375   2.770   8.103  0.7852 -1.2718  2.9386
 2882SOL    HW220283   3.257   2.816   8.180 -0.6224 -0.9237 -1.5438
 2883SOL     OW20284   2.844   1.336   3.948  0.3052  0.4376 -0.0332
 2883SOL    HW120285   2.808   1.304   4.031  0.1450  2.1061  0.5413
 2883SOL    HW220286   2.872   1.426   3.961  0.5050  0.2072  1.1310
 2884SOL     OW20287   2.770   3.564   6.670  0.1126  0.1767  0.3508
 2884SOL    HW120288   2.731   3.514   6.741 -2.5381 -1.5701 -2.3234
 2884SOL    HW220289   2.736   3.649   6.696 -0.1437  0.5351 -1.1079
 2885SOL     OW20290   2.751   1.578  15.821  0.0144  0.2680 -0.4910
 2885SOL    HW120291   2.770   1.576  15.727  1.3109  0.4934 -0.2229
 2885SOL    HW220292   2.739   1.668  15.850 -2.1091 -0.1681  0.0407
 2886SOL     OW20293   4.340   1.151   3.732  0.5246 -0.1617 -0.1749
 2886SOL    HW120294   4.327   1.245   3.740  0.3661 -0.4146  2.7858
 2886SOL    HW220295   4.431   1.128   3.716  1.2317  2.0540  0.7419
 2887SOL     OW20296   1.914   2.974   3.507  0.0222 -0.1782 -0.2690
 2887SOL    HW120297   1.936   2.957   3.415  2.2763 -0.3091  0.2873
 2887SOL    HW220298   1.994   3.013   3.543 -0.5768  1.4762 -0.7233
 2888SOL     OW20299   3.562   3.149  13.580  0.2449 -0.4717 -0.2281
 2888SOL    HW120300   3.537   3.191  13.663 -1.7275  0.6746 -1.4100
 2888SOL    HW220301   3.593   3.227  13.534 -1.4167  0.5270  0.3742
 2889SOL     OW20302   2.948   2.408   2.185 -0.0480 -0.0642 -0.3089
 2889SOL    HW120303   2.905   2.366   2.110 -2.1362  3.4145 -1.0745
 2889SOL    HW220304   2.890   2.374   2.253  1.0717 -0.1821  0.5874
 2890SOL     OW20305   2.931   1.025   3.726  0.7617 -0.1670  0.2215
 2890SOL    HW120306   3.000   0.959   3.725  1.8537  0.9885 -1.1319
 2890SOL    HW220307   2.967   1.092   3.784  1.1625  0.3506 -0.6142
 2891SOL     OW20308   0.026   4.596   1.682  0.4727 -0.1120 -0.6908
 2891SOL    HW120309   0.077   4.584   1.762  0.1864  1.3900 -0.2719
 2891SOL    HW220310   0.090   4.649   1.633  0.3856  1.2291  0.6165
 2892SOL     OW20311   4.237   4.630   6.148 -0.5296  0.6056  0.2085
 2892SOL    HW120312   4.261   4.542   6.117 -0.4014  0.7934 -0.2291
 2892SOL    HW220313   4.238   4.675   6.063 -0.2435  0.6359  0.2290
 2893SOL     OW20314   4.522   4.128   1.645 -0.0009 -0.2164  0.1090
 2893SOL    HW120315   4.555   4.062   1.585 -0.5606 -0.6274  0.2566
 2893SOL    HW220316   4.568   4.209   1.623  1.3770 -1.0708 -0.1398
 2894SOL     OW20317   2.551   2.487   2.253 -0.1608  0.3828  0.1036
 2894SOL    HW120318   2.525   2.516   2.166 -1.4413  0.5595  0.5432
 2894SOL    HW220319   2.571   2.394   2.244 -1.3123  0.1620 -0.1852
 2895SOL     OW20320   3.751   1.117   6.578 -0.4412 -0.1187  0.0669
 2895SOL    HW120321   3.846   1.130   6.574 -0.4603 -0.2117 -0.7316
 2895SOL    HW220322   3.735   1.063   6.655 -2.1091 -0.9597 -0.8829
 2896SOL     OW20323   4.506   3.079   9.947 -0.0441  0.1276  0.4918
 2896SOL    HW120324   4.519   3.174   9.954  0.7815  0.0619 -0.1542
 2896SOL    HW220325   4.565   3.048  10.016 -0.0325  1.4059  1.0629
 2897SOL     OW20326   1.749   3.361   5.488 -0.2125 -0.4997 -0.0542
 2897SOL    HW120327   1.743   3.304   5.565  1.2820  1.4334  1.5054
 2897SOL    HW220328   1.842   3.383   5.484 -0.0147 -1.2538  0.5216
 2898SOL     OW20329   2.221   3.869   2.625 -0.2463 -0.1812 -0.4254
 2898SOL    HW120330   2.307   3.828   2.625  0.3603  1.0878 -0.3128
 2898SOL    HW220331   2.242   3.943   2.681  3.1845 -1.2979 -0.2547
 2899SOL     OW20332   2.632   0.907   7.487  0.1646  0.1003  0.3581
 2899SOL    HW120333   2.692   0.972   7.522  1.4053 -0.8811  0.0250
 2899SOL    HW220334   2.683   0.851   7.429 -0.5867  0.3137 -0.5193
 2900SOL     OW20335   3.404   3.978   7.092  0.0477  0.0024 -0.3071
 2900SOL    HW120336   3.341   4.012   7.156 -0.2390 -0.5669 -0.2837
 2900SOL    HW220337   3.420   4.065   7.055 -0.1962  0.0451 -0.3102
 2901SOL     OW20338   1.720   0.109   2.963  0.2356  0.4902 -0.4092
 2901SOL    HW120339   1.737   0.189   3.013  1.5355  0.1785 -0.3783
 2901SOL    HW220340   1.685   0.145   2.881 -0.1246 -0.3595 -0.6274
 2902SOL     OW20341   3.460   2.488   2.610 -0.1947 -0.2344  0.0999
 2902SOL    HW120342   3.400   2.413   2.615  1.2135 -1.4222 -0.9083
 2902SOL    HW220343   3.521   2.464   2.680 -0.6568  0.8432  0.8847
 2903SOL     OW20344   1.934   3.532   4.741 -0.5818  0.2582  0.8220
 2903SOL    HW120345   1.845   3.509   4.713 -0.4829 -0.4336  1.0587
 2903SOL    HW220346   1.947   3.613   4.693  0.5710  0.4179  1.4103
 2904SOL     OW20347   2.000   3.884   8.991 -0.2701 -0.1677 -0.3698
 2904SOL    HW120348   2.051   3.848   9.063  0.4371  1.4109 -0.0996
 2904SOL    HW220349   2.064   3.953   8.974 -1.5647  0.6032 -2.1713
 2905SOL     OW20350   4.532   3.473   8.377  0.5438  0.2755  0.2653
 2905SOL    HW120351   4.591   3.438   8.444  0.1966 -0.0571  0.4011
 2905SOL    HW220352   4.579   3.553   8.356  0.0477  0.1401 -1.3508
 2906SOL     OW20353   4.477   2.718   2.026  0.0235  0.1617  0.0009
 2906SOL    HW120354   4.459   2.697   1.934 -1.6598 -0.8716  0.5760
 2906SOL    HW220355   4.415   2.663   2.074 -0.8090 -0.2544 -1.5511
 2907SOL     OW20356   0.592   0.259   9.407  0.2924  0.1136 -0.2553
 2907SOL    HW120357   0.593   0.274   9.312 -1.8643  0.4789 -0.2237
 2907SOL    HW220358   0.552   0.342   9.431 -0.2958 -0.4659  0.7360
 2908SOL     OW20359   1.796   0.522   1.568 -0.1238  0.5614  0.0665
 2908SOL    HW120360   1.728   0.554   1.508 -0.0420 -0.8274 -0.7632
 2908SOL    HW220361   1.745   0.463   1.624  0.3086 -1.0442 -1.2555
 2909SOL     OW20362   0.536   2.105   6.134  0.0649  0.2641 -0.1814
 2909SOL    HW120363   0.497   2.097   6.221 -2.5860 -1.4320 -1.5406
 2909SOL    HW220364   0.471   2.155   6.085  0.9673  1.9751  0.3431
 2910SOL     OW20365   0.326   2.935   5.989  0.4132 -0.5611  0.1058
 2910SOL    HW120366   0.274   2.900   6.062  1.5373 -0.3626  1.0096
 2910SOL    HW220367   0.398   2.982   6.033  1.6121 -0.4491 -1.9481
 2911SOL     OW20368   2.768   0.464   2.152 -0.1713 -0.2773 -0.0211
 2911SOL    HW120369   2.674   0.459   2.168 -0.2381 -1.7115 -0.9175
 2911SOL    HW220370   2.780   0.385   2.099 -0.2298 -0.0081 -0.4370
 2912SOL     OW20371   3.524   0.462   3.158 -0.3230  0.5286 -0.1353
 2912SOL    HW120372   3.516   0.370   3.131 -0.3310  1.2700 -2.6335
 2912SOL    HW220373   3.613   0.497   3.147 -1.2166  2.4647 -1.2239
 2913SOL     OW20374   0.226   1.030   1.742 -0.0085  0.3901 -0.1559
 2913SOL    HW120375   0.214   1.086   1.819 -0.6936  0.4159 -0.2875
 2913SOL    HW220376   0.178   0.952   1.766  1.5321 -0.7916 -0.8971
 2914SOL     OW20377   4.401   1.807  13.371  0.6909  0.0519  0.1762
 2914SOL    HW120378   4.444   1.891  13.352 -0.6628  0.7760  0.2363
 2914SOL    HW220379   4.408   1.803  13.466 -1.2962  0.5099  0.3598
 2915SOL     OW20380   4.621   2.415   3.259  0.4239  0.0210  0.6387
 2915SOL    HW120381   4.552   2.463   3.213  0.6456  3.2205  3.5736
 2915SOL    HW220382   4.614   2.449   3.349 -0.2223 -0.2963  0.7074
 2916SOL     OW20383   0.249   1.924   2.879  0.4660 -0.3660 -0.6727
 2916SOL    HW120384   0.339   1.891   2.887  1.0643  2.0276  2.4523
 2916SOL    HW220385   0.213   1.837   2.896 -0.2654  0.2929  1.0690
 2917SOL     OW20386   3.319   0.818   3.330  0.0950  0.2595  0.4641
 2917SOL    HW120387   3.377   0.749   3.363  0.8296  0.1380 -1.0922
 2917SOL    HW220388   3.314   0.858   3.417  0.8188  2.2091 -0.3857
 2918SOL     OW20389   4.235   1.050   5.312  0.2063 -0.2075 -0.0288
 2918SOL    HW120390   4.261   1.138   5.286  0.1611  0.0221  0.6787
 2918SOL    HW220391   4.156   1.062   5.366 -1.6715  1.3103 -3.1128
 2919SOL     OW20392   3.921   1.583   9.743  0.2904  0.4852 -0.3893
 2919SOL    HW120393   3.918   1.524   9.668  1.4276 -0.6161  0.4352
 2919SOL    HW220394   3.868   1.537   9.808  0.1974  1.2768  0.0920
 2920SOL     OW20395   0.801   0.784   2.185 -0.2311  0.1543  0.1828
 2920SOL    HW120396   0.723   0.763   2.238 -0.4419  3.2720  1.1028
 2920SOL    HW220397   0.852   0.829   2.252 -0.1923  0.1842  0.1326
 2921SOL     OW20398   4.573   4.573  15.590  0.2426 -0.1003  0.0695
 2921SOL    HW120399   4.537   4.655  15.556  0.5271 -0.1449 -0.3333
 2921SOL    HW220400   4.659   4.580  15.550  0.9496 -1.1598  1.3818
 2922SOL     OW20401   1.260   1.027   5.257  0.1905  0.6828 -1.2639
 2922SOL    HW120402   1.200   1.068   5.194 -0.6859  1.1674 -0.0992
 2922SOL    HW220403   1.206   0.960   5.299 -0.9994  2.6507  0.3177
 2923SOL     OW20404   0.288   2.783   8.081 -0.5168 -0.0528  0.4570
 2923SOL    HW120405   0.210   2.749   8.038  0.0123  0.3350 -0.8065
 2923SOL    HW220406   0.285   2.879   8.079  1.8614 -0.0313 -1.6918
 2924SOL     OW20407   0.036   3.248   7.040 -0.2228 -0.5398  0.3872
 2924SOL    HW120408   4.720   3.327   7.040  0.1282 -0.2928  2.8512
 2924SOL    HW220409   0.013   3.211   6.955  0.1170 -4.9324  2.1882
 2925SOL     OW20410   0.599   1.411  16.331 -0.1633  0.6344  0.3588
 2925SOL    HW120411   0.569   1.497  16.358 -1.4468 -0.6050  2.8853
 2925SOL    HW220412   0.521   1.366  16.363 -0.5672  0.0875 -1.3891
 2926SOL     OW20413   0.569   4.042   4.792 -0.4234 -0.2538  0.5467
 2926SOL    HW120414   0.621   4.015   4.716 -1.8364  0.5262 -0.6995
 2926SOL    HW220415   0.633   4.026   4.861  1.0188  0.8230 -0.5306
 2927SOL     OW20416   3.773   1.053   7.805 -0.8387 -0.1000  0.1203
 2927SOL    HW120417   3.737   1.040   7.893 -1.5247  1.6312  0.0965
 2927SOL    HW220418   3.701   1.014   7.756 -2.1042  0.5898  1.4285
 2928SOL     OW20419   1.123   3.110   6.606 -0.2166  0.1838 -0.5285
 2928SOL    HW120420   1.065   3.140   6.536 -0.0541  0.7909 -0.4054
 2928SOL    HW220421   1.168   3.193   6.623  0.4423 -0.3968  0.5579
 2929SOL     OW20422   2.566   3.747   8.458  0.3270  0.2153 -0.1922
 2929SOL    HW120423   2.605   3.681   8.515 -1.2046  1.0120  1.7796
 2929SOL    HW220424   2.475   3.717   8.454  0.2879  0.1582  1.1140
 2930SOL     OW20425   4.256   1.598   8.654  0.4703  0.6555  0.3301
 2930SOL    HW120426   4.351   1.592   8.643  0.4372  0.0009  0.4253
 2930SOL    HW220427   4.221   1.592   8.564 -0.4997  0.1719  0.7389
 2931SOL     OW20428   1.145   0.541   4.258 -0.1697 -0.1850 -0.2543
 2931SOL    HW120429   1.077   0.585   4.310 -0.8824 -0.6032 -0.8388
 2931SOL    HW220430   1.100   0.506   4.181  0.3123 -2.0074  0.2968
 2932SOL     OW20431   1.083   1.034   2.692  0.2842  0.4056 -0.0095
 2932SOL    HW120432   1.173   1.057   2.716 -0.7268  2.6784  1.5993
 2932SOL    HW220433   1.048   1.119   2.722 -0.1579  0.1192  0.2934
 2933SOL     OW20434   2.440   0.980   8.687 -0.2502 -0.0627 -0.3697
 2933SOL    HW120435   2.460   1.041   8.616 -2.5166  0.8545 -0.2210
 2933SOL    HW220436   2.417   0.902   8.636 -1.0193 -0.2635  0.2799
 2934SOL     OW20437   0.627   2.058   5.889 -0.0102 -0.3221  0.3678
 2934SOL    HW120438   0.595   2.041   5.978  2.3695 -0.4207  1.2002
 2934SOL    HW220439   0.661   2.148   5.892 -0.5416 -0.1800  2.2264
 2935SOL     OW20440   3.055   0.007   4.675  0.2895 -0.1277  0.2747
 2935SOL    HW120441   3.042   0.075   4.740  1.8255 -0.6136  1.0709
 2935SOL    HW220442   3.006   0.049   4.603  0.5392 -1.0081 -0.4082
 2936SOL     OW20443   3.644   2.132   3.462  0.2348  0.3848 -0.1186
 2936SOL    HW120444   3.571   2.085   3.502 -0.1299  2.3090  1.4725
 2936SOL    HW220445   3.675   2.180   3.538 -3.2143 -0.1131  1.6017
 2937SOL     OW20446   1.753   0.194   3.953 -0.7266 -0.3316 -0.1062
 2937SOL    HW120447   1.827   0.253   3.961 -0.5695 -0.7200  1.3390
 2937SOL    HW220448   1.733   0.197   3.859 -0.4446 -2.6825 -0.2416
 2938SOL     OW20449   3.129   3.797   3.900 -0.2396  0.4913 -0.4548
 2938SOL    HW120450   3.043   3.815   3.939 -0.1449 -0.5609  0.2458
 2938SOL    HW220451   3.133   3.874   3.843 -3.0546 -0.8236 -2.4157
 2939SOL     OW20452   2.379   3.791   5.939  0.6673  0.5380  0.2034
 2939SOL    HW120453   2.465   3.756   5.963 -0.3398 -0.2875  2.6782
 2939SOL    HW220454   2.392   3.817   5.848 -0.3199  2.4744  0.6299
 2940SOL     OW20455   2.194   1.882  14.353  0.7061 -0.1761  0.1877
 2940SOL    HW120456   2.251   1.958  14.350  0.3037  0.0505 -1.5682
 2940SOL    HW220457   2.252   1.805  14.351 -0.2588 -0.8871 -0.4644
 2941SOL     OW20458   1.288   4.146   8.938  0.1552 -0.1930  0.3503
 2941SOL    HW120459   1.279   4.050   8.938 -1.0107 -0.0788  0.8277
 2941SOL    HW220460   1.208   4.184   8.973  0.4879 -0.5252  1.4926
 2942SOL     OW20461   4.610   1.755  11.350 -0.5121 -0.6323 -0.5363
 2942SOL    HW120462   4.664   1.749  11.271 -2.4552 -0.2296 -1.8914
 2942SOL    HW220463   4.574   1.844  11.355 -0.8538 -0.8355  0.5007
 2943SOL     OW20464   0.722   2.962   5.500  0.1978 -0.5327 -0.6879
 2943SOL    HW120465   0.676   2.936   5.580  1.7154  0.5255  0.5473
 2943SOL    HW220466   0.704   2.890   5.441 -0.6295 -0.1452 -0.9075
 2944SOL     OW20467   4.440   1.062   7.559  0.2125 -0.1082 -0.2331
 2944SOL    HW120468   4.449   1.017   7.475  3.5198 -2.2176  1.2738
 2944SOL    HW220469   4.519   1.116   7.560 -0.6163  1.0954  0.2109
 2945SOL     OW20470   4.203   0.703  17.029  0.4473  0.5556  0.0087
 2945SOL    HW120471   4.268   0.767  17.056  1.5450 -1.0991  1.2185
 2945SOL    HW220472   4.129   0.725  17.085  1.2042  2.0815  0.3954
 2946SOL     OW20473   2.332   1.423   0.605  0.2130  0.2471  0.5759
 2946SOL    HW120474   2.363   1.500   0.557  2.8291 -1.8168 -1.0565
 2946SOL    HW220475   2.374   1.445   0.688 -0.1029 -0.6386  0.9716
 2947SOL     OW20476   0.526   1.468   3.785 -0.5850  0.7569  0.2764
 2947SOL    HW120477   0.437   1.437   3.767 -0.4388 -0.4069  1.5679
 2947SOL    HW220478   0.519   1.562   3.801 -3.1224  0.3334  1.7450
 2948SOL     OW20479   2.485   0.500   6.629 -1.0240 -0.5044  0.2902
 2948SOL    HW120480   2.518   0.435   6.691 -1.7802 -0.5904  0.5989
 2948SOL    HW220481   2.457   0.565   6.694  0.5146  0.5513 -0.1104
 2949SOL     OW20482   2.216   1.145   4.148  0.0277 -0.0700  1.0142
 2949SOL    HW120483   2.128   1.117   4.172 -0.5649  1.5397  0.7244
 2949SOL    HW220484   2.212   1.240   4.158 -1.3633 -0.2191  1.8375
 2950SOL     OW20485   3.780   1.494  15.434  0.1752 -0.4439  0.3503
 2950SOL    HW120486   3.728   1.544  15.497 -0.4934 -0.0057 -0.5556
 2950SOL    HW220487   3.716   1.428  15.409  0.7942 -0.9807  0.1707
 2951SOL     OW20488   3.327   3.611   0.954 -0.0384  0.1802  0.0236
 2951SOL    HW120489   3.298   3.702   0.960  1.0835  0.3997  2.2160
 2951SOL    HW220490   3.419   3.612   0.978  0.0151  1.2870 -0.1952
 2952SOL     OW20491   0.776   3.800   6.191 -0.5722  0.2245  0.1236
 2952SOL    HW120492   0.844   3.815   6.125 -1.3659 -0.7018 -0.8969
 2952SOL    HW220493   0.695   3.784   6.143  1.5599 -0.5330 -3.2317
 2953SOL     OW20494   4.399   2.569  14.958 -0.3684  0.2748 -0.5485
 2953SOL    HW120495   4.368   2.642  14.904  0.2897  1.4094  0.5830
 2953SOL    HW220496   4.341   2.501  14.924  0.0434 -0.5930  0.4801
 2954SOL     OW20497   4.652   4.024   7.649 -0.7626 -0.3637  0.0444
 2954SOL    HW120498   4.727   3.977   7.685  1.7654  2.1085 -1.9566
 2954SOL    HW220499   4.585   4.011   7.717 -1.1942 -1.7529 -0.6608
 2955SOL     OW20500   1.000   2.955   9.982 -0.1289  0.4237  0.5222
 2955SOL    HW120501   1.068   3.021   9.994 -0.3670  0.6487  0.6190
 2955SOL    HW220502   0.990   2.947  10.077 -1.6821 -0.8979  0.2336
 2956SOL     OW20503   3.244   3.438   4.182  0.4488 -0.2025  0.2402
 2956SOL    HW120504   3.231   3.400   4.095 -0.6141  2.3538 -0.7319
 2956SOL    HW220505   3.264   3.524   4.144  0.2149 -0.5189 -0.6003
 2957SOL     OW20506   2.531   1.917   4.393 -0.0481 -0.2614 -0.1174
 2957SOL    HW120507   2.505   1.888   4.305  1.1321 -2.8826  0.4053
 2957SOL    HW220508   2.476   1.995   4.388  1.0153  0.4638 -0.3570
 2958SOL     OW20509   0.201   0.234   7.396 -0.0494 -0.1667 -0.4828
 2958SOL    HW120510   0.137   0.291   7.354  0.6960  0.5603 -0.6363
 2958SOL    HW220511   0.165   0.146   7.389 -3.9895  1.4046 -0.4624
 2959SOL     OW20512   4.402   2.644  10.104 -0.3118  0.1821  0.3201
 2959SOL    HW120513   4.318   2.633  10.061  0.3053 -1.7763 -0.4102
 2959SOL    HW220514   4.441   2.692  10.031  0.4211  0.0894  0.6514
 2960SOL     OW20515   0.058   0.969  15.479 -0.4934 -0.1727  0.3131
 2960SOL    HW120516   0.010   1.050  15.496 -1.4099 -0.5246 -0.5486
 2960SOL    HW220517   4.725   0.906  15.470 -0.3630 -0.1208 -1.0875
 2961SOL     OW20518   3.159   1.893   5.768  0.0903 -0.0970 -0.1733
 2961SOL    HW120519   3.080   1.874   5.817  0.5859  0.6364  0.9067
 2961SOL    HW220520   3.226   1.870   5.833 -0.1528  2.6268  1.0078
 2962SOL     OW20521   1.925   1.873   4.991 -0.0460  0.0895  0.4475
 2962SOL    HW120522   1.891   1.784   5.002  1.5225 -0.7271 -1.3763
 2962SOL    HW220523   2.013   1.854   4.959 -0.4510  1.1288 -1.3127
 2963SOL     OW20524   1.214   0.020   5.013 -0.1766 -0.3357 -0.5209
 2963SOL    HW120525   1.161   4.698   4.961 -1.2497 -0.5331  0.8135
 2963SOL    HW220526   1.293   4.706   5.024 -1.1302 -1.2768  1.7147
 2964SOL     OW20527   4.136   0.160   5.203 -0.5711  0.4558 -0.0238
 2964SOL    HW120528   4.158   0.098   5.134 -0.2100 -1.1199  1.5001
 2964SOL    HW220529   4.208   0.223   5.194 -0.7002  0.8347  1.4591
 2965SOL     OW20530   3.735   1.107   9.477  0.1475  0.0292  0.3242
 2965SOL    HW120531   3.656   1.126   9.526  1.1241 -0.8907  2.2607
 2965SOL    HW220532   3.719   1.163   9.401 -1.4127 -1.3413 -0.3687
 2966SOL     OW20533   1.606   0.317   3.255  0.2583  0.7554  0.0049
 2966SOL    HW120534   1.612   0.400   3.303 -0.5724  0.9735 -0.2584
 2966SOL    HW220535   1.698   0.310   3.232 -0.1055 -0.4890 -1.0450
 2967SOL     OW20536   3.050   4.522  12.225  0.8543 -0.3530  0.1354
 2967SOL    HW120537   3.080   4.608  12.255 -0.6419  0.4318 -0.6142
 2967SOL    HW220538   2.978   4.502  12.285 -1.2510 -1.7256 -2.8553
 2968SOL     OW20539   3.591   2.827   5.853  0.1150  0.6474 -0.1455
 2968SOL    HW120540   3.685   2.817   5.863 -0.6685 -2.1601  4.6818
 2968SOL    HW220541   3.556   2.741   5.876 -0.8188  0.5408 -1.9107
 2969SOL     OW20542   2.187   3.986   7.761 -0.1552 -0.0332 -0.5366
 2969SOL    HW120543   2.280   4.006   7.756  0.0193 -0.2531  1.7850
 2969SOL    HW220544   2.147   4.071   7.779 -0.2383  0.3362 -2.4441
 2970SOL     OW20545   2.279   4.401   6.024 -0.2177  0.7178 -0.0840
 2970SOL    HW120546   2.198   4.363   5.990  0.3925 -0.4546 -0.2187
 2970SOL    HW220547   2.324   4.437   5.948  0.1768 -1.2969 -0.8000
 2971SOL     OW20548   4.234   1.054   5.885  0.1878 -0.4859  0.2401
 2971SOL    HW120549   4.252   0.962   5.866  2.1516  0.6538 -3.3955
 2971SOL    HW220550   4.279   1.094   5.811 -0.8114 -0.8639 -0.5530
 2972SOL     OW20551   0.741   0.090   4.815 -0.4390 -0.3208  0.5200
 2972SOL    HW120552   0.697   0.010   4.788  2.8881 -1.4469 -1.5553
 2972SOL    HW220553   0.703   0.100   4.902  0.5745 -0.8417  1.0091
 2973SOL     OW20554   3.134   0.656   2.552  0.1395  0.0248  0.3422
 2973SOL    HW120555   3.143   0.603   2.631 -0.8023  0.0726  0.4780
 2973SOL    HW220556   3.096   0.592   2.493 -0.5962 -1.6675  2.6492
 2974SOL     OW20557   4.618   3.604   0.738  0.7489  0.7982  0.2280
 2974SOL    HW120558   4.615   3.509   0.722  1.0685  0.4232  2.3936
 2974SOL    HW220559   4.678   3.604   0.812  0.1792  1.0999  0.6855
 2975SOL     OW20560   3.691   3.385  12.418  0.7630  0.5716 -0.1688
 2975SOL    HW120561   3.734   3.419  12.339  1.7673  0.9475  0.5487
 2975SOL    HW220562   3.644   3.306  12.392  0.7427  0.0039  1.5923
 2976SOL     OW20563   0.145   3.588  13.325  0.5320  0.2376  0.1911
 2976SOL    HW120564   0.178   3.677  13.310  0.0076  0.2094 -1.0845
 2976SOL    HW220565   0.195   3.554  13.400  2.3538 -0.5482 -1.3873
 2977SOL     OW20566   0.126   3.885   3.788  0.4948 -0.5211  0.6994
 2977SOL    HW120567   0.163   3.864   3.873  0.1941  0.6192  1.1067
 2977SOL    HW220568   0.032   3.885   3.808  0.2311 -1.6225 -0.5018
 2978SOL     OW20569   3.229   4.346   7.362  0.0361 -0.2325  0.4770
 2978SOL    HW120570   3.285   4.363   7.438  2.4979 -0.1882 -1.3462
 2978SOL    HW220571   3.149   4.385   7.399  0.2967  1.2824 -0.5319
 2979SOL     OW20572   2.444   0.647   3.939  0.0338 -0.3203 -0.8056
 2979SOL    HW120573   2.523   0.626   3.889  0.0145  0.2335 -1.0727
 2979SOL    HW220574   2.487   0.645   4.024 -0.6358 -0.1202 -0.4609
 2980SOL     OW20575   0.678   3.034   2.248  0.4240  0.6137 -0.1722
 2980SOL    HW120576   0.690   3.093   2.174 -2.0289  0.2975 -0.8348
 2980SOL    HW220577   0.742   3.061   2.314 -0.1892  0.3708  0.5315
 2981SOL     OW20578   3.866   2.960   5.618  0.1788  0.3982  0.0444
 2981SOL    HW120579   3.829   2.871   5.615  0.3767  0.3441 -0.8437
 2981SOL    HW220580   3.944   2.955   5.674 -0.3036  3.2425  0.9691
 2982SOL     OW20581   1.412   4.620   5.132  0.1607  0.2678 -0.2726
 2982SOL    HW120582   1.354   4.588   5.201  0.7969 -0.5012 -0.0991
 2982SOL    HW220583   1.460   4.690   5.176  1.0189 -0.6853  0.2990
 2983SOL     OW20584   1.119   3.001  14.097 -0.3235  0.3297 -0.3605
 2983SOL    HW120585   1.100   3.051  14.017  0.1945 -1.0174 -1.3274
 2983SOL    HW220586   1.096   3.067  14.162 -1.6171  0.2231 -0.6992
 2984SOL     OW20587   2.683   1.306   8.326 -0.1035 -0.3764  0.2300
 2984SOL    HW120588   2.728   1.257   8.257 -0.4648 -0.0347 -0.2450
 2984SOL    HW220589   2.649   1.380   8.276 -1.8158 -1.1546  0.2460
 2985SOL     OW20590   1.858   3.475  16.777  0.1397 -0.2748  0.1151
 2985SOL    HW120591   1.858   3.379  16.783  1.2489 -0.2721  0.1536
 2985SOL    HW220592   1.921   3.500  16.845 -0.4617  1.6269 -0.0325
 2986SOL     OW20593   2.237   4.661   7.003 -0.1288 -0.0075 -0.0940
 2986SOL    HW120594   2.243   4.589   7.067 -1.9154  0.7119  0.8861
 2986SOL    HW220595   2.205   4.737   7.051 -0.1482 -0.3483  0.4454
 2987SOL     OW20596   4.431   4.524   1.942  0.6843  0.0063  0.2404
 2987SOL    HW120597   4.349   4.475   1.944  1.7636 -1.7213  1.8676
 2987SOL    HW220598   4.400   4.615   1.944  1.1191  0.1646 -0.6040
 2988SOL     OW20599   2.272   3.589   9.716  0.3769  0.3330  0.0423
 2988SOL    HW120600   2.258   3.588   9.810 -2.6678 -0.8584 -0.4158
 2988SOL    HW220601   2.309   3.501   9.704 -2.1859 -0.8290  0.6242
 2989SOL     OW20602   1.804   3.122   4.187 -0.3358 -0.0709  0.0520
 2989SOL    HW120603   1.757   3.065   4.126  0.4512 -3.4214  2.5811
 2989SOL    HW220604   1.788   3.076   4.270 -1.2379 -0.6290 -0.4265
 2990SOL     OW20605   1.095   4.732   1.746 -0.1719 -0.1790 -0.1556
 2990SOL    HW120606   1.032   0.058   1.779 -0.0282 -0.0303 -0.1705
 2990SOL    HW220607   1.037   4.658   1.763  0.2114 -0.2851  0.7320
 2991SOL     OW20608   1.037   3.907   8.432 -0.5445  0.0900 -0.4327
 2991SOL    HW120609   1.012   3.984   8.381  0.6168  1.2174  0.6821
 2991SOL    HW220610   0.961   3.849   8.442 -0.7887  0.0823 -2.1910
 2992SOL     OW20611   3.031   1.291  14.084  0.6976  0.4999 -0.1288
 2992SOL    HW120612   3.075   1.361  14.036  0.5729  0.2867 -0.5484
 2992SOL    HW220613   2.940   1.318  14.076  0.7786  0.8346  0.0927
 2993SOL     OW20614   2.556   1.692   2.678  0.0075 -0.2021  0.1400
 2993SOL    HW120615   2.486   1.756   2.665  0.1835 -0.2838 -1.2657
 2993SOL    HW220616   2.608   1.705   2.598 -1.7756  0.2963 -0.9550
 2994SOL     OW20617   3.813   1.102  12.046  0.3073  0.6077  0.5022
 2994SOL    HW120618   3.777   1.044  12.113  0.2346  1.6393  1.3508
 2994SOL    HW220619   3.901   1.113  12.081  0.7707 -1.6415  0.0527
 2995SOL     OW20620   0.646   1.881   4.219 -0.6651  0.0661 -0.6428
 2995SOL    HW120621   0.730   1.900   4.177 -0.1312  0.7871  0.7406
 2995SOL    HW220622   0.592   1.895   4.141  0.7389  1.5498 -1.3421
 2996SOL     OW20623   2.817   0.413   3.132  0.1209  0.9465  0.3639
 2996SOL    HW120624   2.743   0.396   3.072  0.8256  4.9232 -1.6667
 2996SOL    HW220625   2.780   0.429   3.219 -1.7756  0.3409 -0.3292
 2997SOL     OW20626   3.205   1.888  10.335  0.9466  0.3471 -0.6930
 2997SOL    HW120627   3.185   1.935  10.417 -1.8555 -0.5006 -0.8693
 2997SOL    HW220628   3.290   1.927  10.315  1.6241 -1.7501 -1.8626
 2998SOL     OW20629   2.446   0.328   6.015 -0.0782  0.0576 -0.7886
 2998SOL    HW120630   2.498   0.395   5.971  0.0329  1.2082  1.1103
 2998SOL    HW220631   2.491   0.338   6.099 -2.8139  1.5879  0.4834
 2999SOL     OW20632   1.311   3.318   3.790  0.0900  0.3370 -0.0803
 2999SOL    HW120633   1.392   3.345   3.834  1.7244 -3.5141 -0.7421
 2999SOL    HW220634   1.338   3.329   3.699 -2.2182  0.9260 -0.6684
 3000SOL     OW20635   3.195   3.373  17.285 -0.2588 -0.1036  0.0460
 3000SOL    HW120636   3.147   3.301  17.326 -1.7799  1.2006  0.5840
 3000SOL    HW220637   3.186   3.355  17.192  0.4907  1.6064 -0.3608
 3001SOL     OW20638   3.810   0.963   6.023  0.1494 -0.1071 -0.3851
 3001SOL    HW120639   3.786   0.984   5.933  1.1269  0.9490 -0.3950
 3001SOL    HW220640   3.813   0.868   6.020  1.2835 -0.1196  1.1642
 3002SOL     OW20641   0.626   1.039   4.958  0.0427 -0.1082 -0.1450
 3002SOL    HW120642   0.707   1.089   4.971  1.2110 -1.8333 -0.7511
 3002SOL    HW220643   0.665   0.955   4.932  1.2307  0.2241  0.5621
 3003SOL     OW20644   1.993   2.233   6.418  0.6006 -0.0523  0.5322
 3003SOL    HW120645   1.945   2.249   6.337 -0.6424 -0.4920  1.1732
 3003SOL    HW220646   2.070   2.186   6.388 -0.3627 -0.5669 -1.0945
 3004SOL     OW20647   0.894   0.721   2.858 -0.1347  0.2438  0.4292
 3004SOL    HW120648   0.954   0.652   2.830  0.7987 -0.4181  4.0499
 3004SOL    HW220649   0.863   0.766   2.779  1.9594  1.4624  0.2969
 3005SOL     OW20650   1.271   2.546  13.667 -0.2485  0.6665 -0.2634
 3005SOL    HW120651   1.279   2.511  13.578 -0.0352 -1.9143  0.7649
 3005SOL    HW220652   1.220   2.476  13.709 -2.3465  1.4433 -1.5095
 3006SOL     OW20653   2.892   3.126   2.737  0.6100 -0.0869  0.0781
 3006SOL    HW120654   2.956   3.151   2.804  0.6171 -0.5262  0.2376
 3006SOL    HW220655   2.955   3.111   2.667  1.2261 -1.4940  0.9408
 3007SOL     OW20656   4.186   0.977  13.189  0.0788 -0.2367  0.1260
 3007SOL    HW120657   4.266   0.982  13.241 -0.6715 -1.1974  1.3493
 3007SOL    HW220658   4.154   0.890  13.209  2.5010 -1.5457 -1.7313
 3008SOL     OW20659   4.118   2.036  12.476 -0.0535 -0.8616  0.0257
 3008SOL    HW120660   4.077   2.100  12.418  0.8265  1.3223  1.8267
 3008SOL    HW220661   4.043   1.980  12.498  0.1631 -0.9007  0.6743
 3009SOL     OW20662   1.869   3.802   5.011 -0.0791 -0.6870  0.0879
 3009SOL    HW120663   1.820   3.805   4.929 -1.2821  1.2781  0.8859
 3009SOL    HW220664   1.829   3.873   5.061  0.6176  0.1884 -0.6240
 3010SOL     OW20665   1.997   1.617   2.499  0.3629 -0.2781 -0.2161
 3010SOL    HW120666   2.002   1.536   2.548 -1.5180 -1.3451 -1.7574
 3010SOL    HW220667   2.076   1.657   2.535  0.9367 -0.8562 -0.8576
 3011SOL     OW20668   2.659   2.564   6.706  0.2766 -0.4124 -1.0073
 3011SOL    HW120669   2.691   2.651   6.680  1.0127 -1.2507 -2.8968
 3011SOL    HW220670   2.659   2.561   6.802 -0.6440 -1.3724 -1.0464
 3012SOL     OW20671   0.127   2.404   1.951 -0.0520  0.8402  0.0703
 3012SOL    HW120672   0.032   2.414   1.939 -0.0309 -0.1725 -1.0431
 3012SOL    HW220673   0.156   2.492   1.975 -2.0234  2.0766 -2.0385
 3013SOL     OW20674   1.800   4.507   3.231  0.4023 -0.2591  0.3324
 3013SOL    HW120675   1.895   4.513   3.242  0.4669 -0.2170 -0.2083
 3013SOL    HW220676   1.770   4.567   3.299  1.5312  0.5808  0.0887
 3014SOL     OW20677   0.796   2.075   2.231  0.0625  0.2533  0.6559
 3014SOL    HW120678   0.709   2.055   2.195  0.1282  0.4401  0.3923
 3014SOL    HW220679   0.842   2.001   2.190  2.1943  2.6011 -1.2132
 3015SOL     OW20680   4.396   0.349   9.368  0.0648  0.8533  0.5995
 3015SOL    HW120681   4.461   0.392   9.312 -0.0669  0.1512 -0.0905
 3015SOL    HW220682   4.436   0.376   9.450 -0.2574  0.6884  0.8123
 3016SOL     OW20683   3.221   1.006   8.339  0.2029 -1.0429 -0.1414
 3016SOL    HW120684   3.179   1.025   8.423 -0.8185  0.7420 -1.0598
 3016SOL    HW220685   3.139   0.996   8.292 -1.2688  1.2723  1.9734
 3017SOL     OW20686   3.564   2.890   5.096  0.1416 -0.1950  0.0392
 3017SOL    HW120687   3.483   2.935   5.071 -0.1084 -0.7027 -0.0730
 3017SOL    HW220688   3.596   2.842   5.019 -0.4931 -0.7616  0.1263
 3018SOL     OW20689   3.007   4.156   9.603 -0.2914  0.0794 -0.1165
 3018SOL    HW120690   3.062   4.138   9.680 -0.1740  2.0719  0.2661
 3018SOL    HW220691   3.073   4.197   9.547 -0.4230  1.2635  0.5877
 3019SOL     OW20692   3.708   2.599   2.578  0.4396  1.1074 -0.8418
 3019SOL    HW120693   3.632   2.551   2.546  1.1797  0.0039 -0.9772
 3019SOL    HW220694   3.694   2.597   2.673 -0.8237 -0.7671 -1.0653
 3020SOL     OW20695   0.834   4.520   1.390 -0.4367 -0.1632 -0.2854
 3020SOL    HW120696   0.767   4.566   1.440  0.6152  0.6752  0.3482
 3020SOL    HW220697   0.838   4.444   1.448 -2.9444  0.8584  1.1961
 3021SOL     OW20698   0.414   4.485   4.336 -0.0976 -0.2745  0.3288
 3021SOL    HW120699   0.398   4.533   4.417 -1.2179 -1.0385  0.5624
 3021SOL    HW220700   0.490   4.427   4.346  1.6120  1.9194 -0.0861
 3022SOL     OW20701   3.466   2.823   6.794 -0.1180 -0.2216 -0.1294
 3022SOL    HW120702   3.538   2.789   6.741  0.7031  1.1524  0.0935
 3022SOL    HW220703   3.403   2.856   6.729 -2.3100  1.1838  2.6868
 3023SOL     OW20704   2.400   0.373  12.053 -0.0046  0.5317  0.1213
 3023SOL    HW120705   2.400   0.467  12.033 -1.0361  0.2125 -1.4072
 3023SOL    HW220706   2.412   0.337  11.965 -1.1653  2.3726 -0.7928
 3024SOL     OW20707   1.388   0.860   4.836  0.1342 -0.4942  0.2075
 3024SOL    HW120708   1.319   0.810   4.880  2.9524 -2.5871  2.2061
 3024SOL    HW220709   1.357   0.872   4.746 -0.1804 -1.8618  0.1411
 3025SOL     OW20710   3.401   0.363   5.862 -0.5842  0.2760  0.3596
 3025SOL    HW120711   3.393   0.356   5.957 -1.1854 -0.5828  0.2434
 3025SOL    HW220712   3.380   0.454   5.843 -0.2918  0.3414  0.3416
 3026SOL     OW20713   1.115   4.549  10.659 -0.7495 -0.0941 -0.3999
 3026SOL    HW120714   1.110   4.637  10.619 -0.6009  0.0709 -0.0518
 3026SOL    HW220715   1.129   4.568  10.751  0.5791  2.6843 -1.1765
 3027SOL     OW20716   1.402   3.731   6.643  0.1367 -0.1127  0.1693
 3027SOL    HW120717   1.391   3.826   6.649 -0.1592 -0.0936 -0.7778
 3027SOL    HW220718   1.318   3.709   6.604  0.7651 -1.3101 -0.5074
 3028SOL     OW20719   1.641   1.483   8.820  0.4641  0.4148  0.3721
 3028SOL    HW120720   1.717   1.465   8.876  0.7351  0.1740 -0.0719
 3028SOL    HW220721   1.681   1.550   8.764  0.0844  0.0807 -0.3001
 3029SOL     OW20722   0.971   2.072   2.945  0.5094  0.1936  0.2530
 3029SOL    HW120723   0.999   2.092   3.035  0.0102 -0.0297  0.4576
 3029SOL    HW220724   1.059   2.056   2.911  0.4052 -0.3508  0.2346
 3030SOL     OW20725   3.197   0.011   7.955  0.5669 -0.4568 -0.1948
 3030SOL    HW120726   3.210   0.087   8.010  0.8482 -0.2144 -0.5991
 3030SOL    HW220727   3.214   0.048   7.868  0.8292  0.0019  0.0570
 3031SOL     OW20728   3.874   4.169   3.701  0.3621  0.3576 -0.5489
 3031SOL    HW120729   3.951   4.219   3.726 -0.7938  1.3036  1.1706
 3031SOL    HW220730   3.805   4.233   3.681  0.9664  1.0176 -0.5370
 3032SOL     OW20731   2.570   2.377  10.374 -0.4567 -0.1891  0.4490
 3032SOL    HW120732   2.663   2.371  10.395 -0.5912  0.6772  1.3314
 3032SOL    HW220733   2.540   2.291  10.345  0.2518 -0.3213  0.1158
 3033SOL     OW20734   3.086   2.338  15.767 -0.4752  0.1094  0.0921
 3033SOL    HW120735   2.994   2.354  15.747 -0.6236 -1.7122 -0.6433
 3033SOL    HW220736   3.079   2.254  15.812  1.5511  0.1635  0.5073
 3034SOL     OW20737   2.258   2.072   5.348  0.0947 -0.3069  0.3352
 3034SOL    HW120738   2.312   2.073   5.427  1.1757  4.3722 -0.5112
 3034SOL    HW220739   2.269   2.164   5.327  1.6347 -0.2476  1.4189
 3035SOL     OW20740   1.683   0.001  15.570  0.0133 -0.0866 -0.1998
 3035SOL    HW120741   1.655   0.090  15.591  0.5157  0.7314 -2.9507
 3035SOL    HW220742   1.653   4.711  15.656 -2.5020  1.7917 -0.4453
 3036SOL     OW20743   1.088   1.759   8.438  0.0846 -0.0354 -0.1288
 3036SOL    HW120744   1.162   1.702   8.417  0.4003 -0.1517  1.3067
 3036SOL    HW220745   1.088   1.820   8.365  0.2631  1.1292  0.8495
 3037SOL     OW20746   2.614   1.757   6.494 -0.5305 -0.7014 -0.0139
 3037SOL    HW120747   2.688   1.760   6.555 -1.8920  0.1519  1.5861
 3037SOL    HW220748   2.649   1.799   6.414 -1.6245 -0.6453 -0.4623
 3038SOL     OW20749   4.255   1.143   7.218 -0.0995  0.7476  0.0633
 3038SOL    HW120750   4.277   1.104   7.134 -2.9609 -1.7115  0.4963
 3038SOL    HW220751   4.186   1.204   7.192 -1.2824 -0.5238  0.2374
 3039SOL     OW20752   4.096   1.267   4.492  0.0644 -0.1578  0.1849
 3039SOL    HW120753   4.067   1.194   4.438  1.3689 -0.2795 -0.3658
 3039SOL    HW220754   4.013   1.312   4.508  0.3746  0.6144 -0.3589
 3040SOL     OW20755   0.681   0.612   2.570 -0.1029 -0.5357  0.0867
 3040SOL    HW120756   0.636   0.655   2.498 -0.3092  0.4850  0.8221
 3040SOL    HW220757   0.630   0.653   2.641 -1.9675 -3.1411  0.2616
 3041SOL     OW20758   2.378   2.225   6.768  0.1800 -0.4809 -0.0076
 3041SOL    HW120759   2.400   2.310   6.729 -1.2816 -0.2714 -0.3550
 3041SOL    HW220760   2.428   2.231   6.849 -0.7603  1.4534  0.4300
 3042SOL     OW20761   0.639   2.421   4.884 -0.2121 -0.2323 -0.1873
 3042SOL    HW120762   0.656   2.507   4.844  2.2776  1.5466  4.6324
 3042SOL    HW220763   0.658   2.359   4.814 -1.3373 -0.1903 -0.5337
 3043SOL     OW20764   3.757   0.191   0.464  0.1352  0.0107  0.0998
 3043SOL    HW120765   3.780   0.128   0.395  1.0871  0.8743 -0.3676
 3043SOL    HW220766   3.789   0.276   0.433  0.5904 -0.8285 -1.7142
 3044SOL     OW20767   4.521   0.651   7.363  0.1232 -0.4026 -0.3289
 3044SOL    HW120768   4.502   0.559   7.380 -0.1369 -0.1953  0.5147
 3044SOL    HW220769   4.492   0.697   7.442  1.0630 -0.9954  0.3597
 3045SOL     OW20770   0.727   1.463   7.202  0.0103  0.0345  0.4038
 3045SOL    HW120771   0.710   1.369   7.195 -1.2767  0.3687 -0.9214
 3045SOL    HW220772   0.698   1.477   7.293 -0.5209 -0.0054  0.2421
 3046SOL     OW20773   0.743   0.484  15.177  0.3241  0.0129  0.5586
 3046SOL    HW120774   0.667   0.426  15.172 -2.1537  3.1942  0.6502
 3046SOL    HW220775   0.814   0.430  15.211  1.8162 -0.1063 -2.8082
 3047SOL     OW20776   3.947   0.954   5.242 -0.0219  0.6347  0.1997
 3047SOL    HW120777   3.967   0.918   5.329  1.7488  2.7505  0.6689
 3047SOL    HW220778   3.945   0.875   5.188 -0.2068 -0.6185  2.0208
 3048SOL     OW20779   2.599   0.936   4.944  0.3345 -0.3079 -0.2974
 3048SOL    HW120780   2.572   0.854   4.902 -1.4937  0.1772 -0.0774
 3048SOL    HW220781   2.688   0.954   4.914  0.2409 -1.2512 -1.1437
 3049SOL     OW20782   2.780   2.788   6.630  0.1596  0.1028  0.0546
 3049SOL    HW120783   2.764   2.788   6.536 -1.0207 -0.4271  0.2594
 3049SOL    HW220784   2.792   2.882   6.640 -1.8792  0.3587  0.1110
 3050SOL     OW20785   4.406   2.325   4.471  0.0958 -0.3649 -0.0911
 3050SOL    HW120786   4.424   2.231   4.477  1.7169 -0.1839 -2.4325
 3050SOL    HW220787   4.311   2.313   4.465  0.4574 -2.2518 -1.8767
 3051SOL     OW20788   4.671   4.092   9.259 -0.5601 -0.2309 -0.0014
 3051SOL    HW120789   4.687   4.123   9.170  0.2056  1.2977  0.6642
 3051SOL    HW220790   4.649   4.001   9.242  3.4369 -0.8010 -2.1810
 3052SOL     OW20791   0.488   2.529  13.099 -0.2515 -0.1258  0.1820
 3052SOL    HW120792   0.393   2.531  13.087 -0.1660 -0.9681 -0.6342
 3052SOL    HW220793   0.512   2.507  13.009  2.5494  2.8344  0.1951
 3053SOL     OW20794   3.253   4.135   9.141 -0.5863  0.5896 -0.3061
 3053SOL    HW120795   3.172   4.178   9.115 -0.3218  1.0817 -0.3066
 3053SOL    HW220796   3.224   4.047   9.167 -0.4302  0.2183 -1.3614
 3054SOL     OW20797   4.025   0.812  17.228 -0.1522 -0.1971  0.8143
 3054SOL    HW120798   3.932   0.827  17.244 -0.7217 -1.1361 -1.7832
 3054SOL    HW220799   4.064   0.840  17.312 -1.0183  1.1832  0.7542
 3055SOL     OW20800   3.237   3.199   6.786 -0.2736 -0.2406  0.0662
 3055SOL    HW120801   3.238   3.291   6.812  0.8299  0.3114 -1.9652
 3055SOL    HW220802   3.321   3.158   6.808 -0.7144 -0.4709  1.3207
 3056SOL     OW20803   4.639   0.156  12.197  0.0457 -0.0056 -0.2107
 3056SOL    HW120804   4.580   0.231  12.187  0.0897  0.3867  2.5473
 3056SOL    HW220805   4.681   0.183  12.278  1.3028 -1.6005 -0.3574
 3057SOL     OW20806   1.929   3.701  15.828 -0.5442  0.1432  0.4398
 3057SOL    HW120807   1.992   3.761  15.869  0.8857 -0.6583 -0.5616
 3057SOL    HW220808   1.940   3.628  15.889 -1.8631  0.1979  0.7250
 3058SOL     OW20809   2.856   1.394   3.266 -0.0960 -0.2839  0.2209
 3058SOL    HW120810   2.869   1.346   3.348 -0.6175 -0.4498  0.2054
 3058SOL    HW220811   2.761   1.405   3.277  0.0078  1.1953 -0.3533
 3059SOL     OW20812   2.524   0.446   5.237 -0.1121 -0.0122  0.6432
 3059SOL    HW120813   2.571   0.430   5.156 -1.0990  0.3426 -0.0013
 3059SOL    HW220814   2.591   0.455   5.305  1.3057 -1.4921 -0.5591
 3060SOL     OW20815   4.104   2.367   0.447  0.0586  0.4066  1.1433
 3060SOL    HW120816   4.103   2.293   0.508  1.9634  0.0559  0.7415
 3060SOL    HW220817   4.191   2.382   0.412  0.5331 -2.8782  0.9435
 3061SOL     OW20818   2.850   4.060  14.110 -0.8799  0.4006 -0.1463
 3061SOL    HW120819   2.856   4.036  14.018  0.6203  1.5832 -0.3516
 3061SOL    HW220820   2.808   3.984  14.151  0.2196  0.2558  0.7124
 3062SOL     OW20821   0.164   4.439   9.244  0.0677  0.2655 -0.5635
 3062SOL    HW120822   0.121   4.499   9.306  1.1818 -0.4123  0.8844
 3062SOL    HW220823   0.217   4.387   9.304 -2.2154 -0.5947  0.7005
 3063SOL     OW20824   0.926   3.377  14.727 -0.0318  0.0200  0.0867
 3063SOL    HW120825   0.858   3.319  14.763  0.8662 -0.0475  1.6736
 3063SOL    HW220826   0.950   3.325  14.650  0.4792 -2.0353  1.6271
 3064SOL     OW20827   1.768   0.698  13.106 -0.0212 -0.0722 -0.2900
 3064SOL    HW120828   1.844   0.639  13.107 -1.1983 -1.6110 -1.0761
 3064SOL    HW220829   1.699   0.642  13.141 -0.0795 -0.0023 -0.2921
 3065SOL     OW20830   1.922   3.575   4.031  0.3476  0.0470  0.0729
 3065SOL    HW120831   1.934   3.488   4.069  0.4704 -0.6436 -1.5748
 3065SOL    HW220832   1.988   3.585   3.962  0.4813  1.3539  0.3831
 3066SOL     OW20833   1.425   2.702   7.542 -0.6565 -0.2215 -0.2104
 3066SOL    HW120834   1.477   2.731   7.616  0.3422  0.4396 -1.1760
 3066SOL    HW220835   1.407   2.785   7.498  0.2434  0.2324  0.2868
 3067SOL     OW20836   4.001   3.482   9.669  0.0462  0.3723  0.3392
 3067SOL    HW120837   4.028   3.391   9.682 -0.3284  0.3493  0.9425
 3067SOL    HW220838   3.977   3.506   9.758  0.7515  2.8213 -0.1249
 3068SOL     OW20839   1.595   2.580  15.397  0.5095  0.2600 -0.1373
 3068SOL    HW120840   1.518   2.529  15.421 -0.0472  0.5294 -1.3703
 3068SOL    HW220841   1.617   2.548  15.309  1.3102 -1.2075  0.5818
 3069SOL     OW20842   0.799   4.483   8.706  0.0779  0.1130  0.3585
 3069SOL    HW120843   0.857   4.426   8.655 -0.7560 -1.5173  1.2419
 3069SOL    HW220844   0.745   4.522   8.637  0.1682  0.7945  0.6751
 3070SOL     OW20845   0.371   2.588   4.633  0.2455  0.0182 -0.4661
 3070SOL    HW120846   0.338   2.639   4.558 -0.0994  1.6707  0.7988
 3070SOL    HW220847   0.383   2.501   4.595 -0.1412 -1.1329  2.0371
 3071SOL     OW20848   1.479   3.159  15.221  0.0526  0.2069  0.0724
 3071SOL    HW120849   1.518   3.134  15.305  1.2125 -0.6175 -0.7059
 3071SOL    HW220850   1.390   3.181  15.248  0.7230  4.2706 -1.0322
 3072SOL     OW20851   1.205   2.906   5.265  0.2287  0.5166 -0.0520
 3072SOL    HW120852   1.146   2.892   5.190 -0.2175 -0.5326  0.5003
 3072SOL    HW220853   1.145   2.890   5.337  1.5038  0.3370  0.9690
 3073SOL     OW20854   1.454   1.862   9.436  0.0982 -0.0411  0.4089
 3073SOL    HW120855   1.522   1.843   9.501 -1.6467  0.4430  2.3807
 3073SOL    HW220856   1.469   1.954   9.417  1.8933 -0.4041  0.0241
 3074SOL     OW20857   1.210   3.456   5.051  0.6841 -0.0923  0.2051
 3074SOL    HW120858   1.261   3.404   5.113  0.4965 -0.2778  0.2064
 3074SOL    HW220859   1.127   3.473   5.096  1.5377  0.7695  1.4412
 3075SOL     OW20860   3.112   4.430  11.053  0.6993 -0.3921  0.3440
 3075SOL    HW120861   3.089   4.364  11.119 -0.4778  1.2918  1.6446
 3075SOL    HW220862   3.036   4.415  10.997  2.1892 -1.9211 -1.2378
 3076SOL     OW20863   1.466   2.064   4.740  0.1373 -0.6102 -0.8427
 3076SOL    HW120864   1.528   2.000   4.774  1.9182  0.7981 -1.4612
 3076SOL    HW220865   1.527   2.131   4.711  0.0235 -0.5050 -0.8370
 3077SOL     OW20866   1.994   2.561   6.041  0.9957  0.8982  0.4941
 3077SOL    HW120867   1.955   2.632   6.093  1.8883  1.7660 -0.0129
 3077SOL    HW220868   2.071   2.614   6.021  1.1206  0.5769  0.1328
 3078SOL     OW20869   4.608   3.555   6.431 -0.4039  0.7033 -0.1216
 3078SOL    HW120870   4.597   3.641   6.471  0.1991  0.5717  0.3324
 3078SOL    HW220871   4.516   3.536   6.412  0.1671  3.0685 -5.0237
 3079SOL     OW20872   2.634   2.616  12.863 -0.2396  0.2374 -0.0270
 3079SOL    HW120873   2.728   2.631  12.869 -0.1558  0.1157 -0.9549
 3079SOL    HW220874   2.629   2.648  12.773  1.3810  3.3146  0.9672
 3080SOL     OW20875   0.153   0.394   3.832  0.2485 -0.1721  0.5618
 3080SOL    HW120876   0.241   0.374   3.863  0.8792  0.0736 -1.0847
 3080SOL    HW220877   0.172   0.422   3.742  1.4361 -0.4085  0.7441
 3081SOL     OW20878   2.962   1.702   2.040 -0.1838  0.0820  0.5203
 3081SOL    HW120879   2.909   1.713   1.961 -0.9362 -2.4315  0.6768
 3081SOL    HW220880   2.926   1.770   2.096  1.0131  0.9078  0.2974
 3082SOL     OW20881   0.525   1.385   4.145  0.4523 -0.0018  0.1413
 3082SOL    HW120882   0.553   1.348   4.061 -2.9867 -2.1079 -0.0720
 3082SOL    HW220883   0.564   1.320   4.203 -0.7374 -0.0056  0.9472
 3083SOL     OW20884   0.669   2.957   0.791 -0.2562  0.1592  0.1451
 3083SOL    HW120885   0.618   3.018   0.738  0.9782 -0.4950 -1.7550
 3083SOL    HW220886   0.606   2.887   0.778  2.9431 -2.8157  0.8506
 3084SOL     OW20887   1.778   4.339  11.563  0.6774 -0.3353 -0.5429
 3084SOL    HW120888   1.840   4.410  11.553 -1.5938  1.7011 -0.2680
 3084SOL    HW220889   1.813   4.297  11.642 -1.5518 -1.0594  0.0851
 3085SOL     OW20890   4.700   2.910   7.523 -0.0460  0.4034  0.2878
 3085SOL    HW120891   4.693   3.000   7.553 -0.8235  0.8112 -1.1030
 3085SOL    HW220892   4.723   2.872   7.608 -1.7932  0.3176  0.7228
 3086SOL     OW20893   2.147   4.290   7.824  0.0662 -0.1689  0.2000
 3086SOL    HW120894   2.227   4.340   7.809 -0.1245 -0.3428 -1.4514
 3086SOL    HW220895   2.129   4.318   7.913 -1.8659  0.9542 -0.5434
 3087SOL     OW20896   0.625   1.887   2.620  0.4997  0.7799  0.0911
 3087SOL    HW120897   0.719   1.878   2.634  0.9684  2.1175 -2.0963
 3087SOL    HW220898   0.623   1.980   2.599  1.4790  1.0495  1.2026
 3088SOL     OW20899   0.198   3.097   7.197  0.4135  0.0363 -0.1459
 3088SOL    HW120900   0.237   3.170   7.245  0.5119 -0.2254  0.1694
 3088SOL    HW220901   0.121   3.140   7.161  0.4251 -0.0852 -0.3110
 3089SOL     OW20902   3.092   0.838  11.755  0.6087  0.0508 -0.3795
 3089SOL    HW120903   3.156   0.833  11.684  0.7378  1.9266 -0.3847
 3089SOL    HW220904   3.145   0.849  11.833 -0.2860 -2.3403  0.5840
 3090SOL     OW20905   2.357   0.859   3.765  0.0009 -0.3150  0.3450
 3090SOL    HW120906   2.326   0.914   3.837  0.1702  2.1002 -1.4374
 3090SOL    HW220907   2.375   0.780   3.817  2.2089 -1.8393 -2.7521
 3091SOL     OW20908   1.974   2.212  10.234 -0.8803  0.2770  0.3572
 3091SOL    HW120909   1.967   2.302  10.265 -1.3591 -0.5410  2.6115
 3091SOL    HW220910   1.947   2.169  10.315  1.7797 -1.8776  0.1170
 3092SOL     OW20911   0.804   3.931   3.163  0.3170  0.0196 -0.5032
 3092SOL    HW120912   0.895   3.933   3.133  1.3443  0.1812  2.7085
 3092SOL    HW220913   0.795   4.017   3.204  3.7812  1.2009 -2.1909
 3093SOL     OW20914   2.777   1.546  15.544 -1.0232 -0.1763 -0.0470
 3093SOL    HW120915   2.809   1.463  15.507 -0.0215 -0.3786  1.2814
 3093SOL    HW220916   2.683   1.535  15.529 -0.9890 -0.4570 -0.0572
 3094SOL     OW20917   4.520   3.281   9.197 -0.2106  0.2707 -0.2175
 3094SOL    HW120918   4.452   3.215   9.186  0.3191 -0.4191  0.5670
 3094SOL    HW220919   4.597   3.229   9.175  0.7684  2.0059 -0.8462
 3095SOL     OW20920   2.594   2.388   8.591 -0.1237  0.0120  0.4469
 3095SOL    HW120921   2.673   2.380   8.644  0.0826 -2.9038 -0.3411
 3095SOL    HW220922   2.567   2.301   8.562  0.2048 -0.3569  1.2538
 3096SOL     OW20923   1.936   0.411  12.369 -0.3319 -0.2713  0.3087
 3096SOL    HW120924   1.859   0.357  12.353 -0.0177 -0.0997 -1.7552
 3096SOL    HW220925   1.979   0.372  12.446  1.0422  1.5291  0.4608
 3097SOL     OW20926   0.580   2.173  14.057  0.1353 -0.2182 -0.6396
 3097SOL    HW120927   0.628   2.254  14.046 -1.9735  0.7284 -2.8280
 3097SOL    HW220928   0.633   2.121  13.997  2.0963 -0.4989  1.3563
 3098SOL     OW20929   3.690   3.848   9.313  0.4331 -0.1901 -0.5586
 3098SOL    HW120930   3.711   3.896   9.393  0.7668 -0.1482 -0.6730
 3098SOL    HW220931   3.673   3.928   9.263  0.2652  1.2089  1.7218
 3099SOL     OW20932   2.948   3.840  14.461  0.0636 -0.7502 -0.0161
 3099SOL    HW120933   2.857   3.846  14.431 -0.1261 -0.8899  0.5341
 3099SOL    HW220934   2.981   3.766  14.411  2.4582 -0.2019  0.7245
 3100SOL     OW20935   3.637   0.061   7.588 -0.0536  0.2251 -0.5063
 3100SOL    HW120936   3.647   0.027   7.677  0.8089  0.9333 -0.3326
 3100SOL    HW220937   3.544   0.045   7.574 -0.3468  1.2195  0.2886
 3101SOL     OW20938   2.851   1.536   6.524  0.3432 -0.5838  0.0336
 3101SOL    HW120939   2.840   1.593   6.600  0.5610 -0.8869  0.2938
 3101SOL    HW220940   2.934   1.572   6.493  0.7038  0.7408  2.6045
 3102SOL     OW20941   2.612   0.978   1.564  0.3246  0.6921  0.9959
 3102SOL    HW120942   2.571   0.986   1.650  0.5246 -0.1718  1.1702
 3102SOL    HW220943   2.678   1.047   1.569 -0.4256  1.3640  1.6296
 3103SOL     OW20944   0.054   1.701  11.554  0.1866  0.2923 -0.4696
 3103SOL    HW120945   4.726   1.732  11.493  0.0610 -0.2673 -0.6237
 3103SOL    HW220946   0.038   1.607  11.565  1.3635  0.1460 -0.0387
 3104SOL     OW20947   0.840   3.239   7.886 -0.2405 -0.1868 -0.0002
 3104SOL    HW120948   0.858   3.166   7.826  0.7352  0.5278 -0.5798
 3104SOL    HW220949   0.927   3.260   7.921 -1.3453  1.5811  1.6771
 3105SOL     OW20950   4.002   1.918   8.614  0.2335  0.5514 -0.1632
 3105SOL    HW120951   3.923   1.870   8.587  0.1698 -0.0629  1.0869
 3105SOL    HW220952   3.963   1.998   8.650 -1.2648 -0.6550  0.8835
 3106SOL     OW20953   1.778   3.386   7.169  0.0590  0.3020 -0.3577
 3106SOL    HW120954   1.854   3.391   7.111 -0.3421 -1.1452 -1.0059
 3106SOL    HW220955   1.795   3.300   7.208  0.1556  0.5152  0.0684
 3107SOL     OW20956   3.637   4.655   0.820 -0.6752 -0.0235 -0.5071
 3107SOL    HW120957   3.633   4.709   0.899  2.2387  0.2893 -0.5817
 3107SOL    HW220958   3.731   4.638   0.821 -0.8572 -0.9360  1.2899
 3108SOL     OW20959   3.862   0.480  17.029  0.3032 -0.3223  0.3168
 3108SOL    HW120960   3.878   0.477  17.124  0.1716  1.2322  0.3999
 3108SOL    HW220961   3.812   0.562  17.032  2.2002  0.8679 -0.7570
 3109SOL     OW20962   0.210   2.876   0.107  0.0462 -0.0087  0.2130
 3109SOL    HW120963   0.140   2.811   0.115 -0.7317  0.6724 -0.9123
 3109SOL    HW220964   0.163   2.946   0.062 -1.5178  0.0983  2.0524
 3110SOL     OW20965   1.997   1.390   4.740 -0.2724 -0.0462 -0.3053
 3110SOL    HW120966   2.040   1.402   4.825  0.1797 -2.4230 -0.2022
 3110SOL    HW220967   2.066   1.403   4.675  0.5192 -0.3288  0.4771
 3111SOL     OW20968   0.818   3.831   9.069  0.4745 -0.9983 -0.0631
 3111SOL    HW120969   0.785   3.745   9.044 -2.7558 -0.4166  2.3613
 3111SOL    HW220970   0.740   3.885   9.061 -0.3986 -2.3384 -0.5722
 3112SOL     OW20971   3.848   2.892  13.023 -0.2966  0.1428 -0.0265
 3112SOL    HW120972   3.929   2.844  13.008 -0.6515 -0.9125  1.4039
 3112SOL    HW220973   3.878   2.933  13.104 -0.8834  0.7901 -0.1305
 3113SOL     OW20974   1.810   3.374   8.481  0.2082 -0.2579 -0.5944
 3113SOL    HW120975   1.819   3.328   8.565  0.2813 -0.7323 -0.8645
 3113SOL    HW220976   1.720   3.346   8.463 -0.1047 -0.9310  1.9780
 3114SOL     OW20977   2.178   3.507   4.212  0.1173  0.5181  0.1206
 3114SOL    HW120978   2.191   3.412   4.211 -0.2054  0.4727  0.1593
 3114SOL    HW220979   2.249   3.536   4.269  2.2617 -0.0353 -2.2416
 3115SOL     OW20980   2.404   3.474   7.715 -0.3400 -0.7972  0.0467
 3115SOL    HW120981   2.321   3.440   7.750 -1.3672  1.3902 -0.2615
 3115SOL    HW220982   2.445   3.397   7.676  0.2941 -0.4300 -0.0009
 3116SOL     OW20983   2.539   3.356  10.370 -0.1815 -0.5654  0.7894
 3116SOL    HW120984   2.527   3.410  10.447 -1.7803 -0.3635  0.3976
 3116SOL    HW220985   2.628   3.325  10.386 -0.8776 -1.8740  2.0948
 3117SOL     OW20986   2.489   2.335  15.714 -0.1806  0.1545 -0.3179
 3117SOL    HW120987   2.548   2.397  15.673  1.2777 -1.2744 -0.3739
 3117SOL    HW220988   2.542   2.288  15.778  1.4412 -2.0648 -3.2757
 3118SOL     OW20989   2.723   3.312   2.839  0.4977  0.2638  0.1013
 3118SOL    HW120990   2.766   3.322   2.923 -0.8789  0.2666  0.8159
 3118SOL    HW220991   2.754   3.227   2.807 -0.0080 -1.3317  3.8837
 3119SOL     OW20992   1.167   2.349  11.406  0.0110  0.2420  0.2107
 3119SOL    HW120993   1.122   2.339  11.321 -0.2103 -1.4892  0.5325
 3119SOL    HW220994   1.217   2.269  11.391 -0.3163  0.2697 -1.0086
 3120SOL     OW20995   2.329   2.985  14.929  0.5446  0.1604 -0.4493
 3120SOL    HW120996   2.241   2.993  14.891  0.2623 -1.6052 -0.1747
 3120SOL    HW220997   2.328   2.893  14.955  1.4274 -0.4448 -2.5028
 3121SOL     OW20998   3.149   0.029   1.482 -0.1365 -0.0878  0.0257
 3121SOL    HW120999   3.108   0.005   1.399 -0.2125  0.3415 -0.0600
 3121SOL    HW221000   3.198   0.103   1.446  1.5720 -1.3739 -0.3369
 3122SOL     OW21001   4.359   0.284  14.561  0.1524  0.2250 -0.1257
 3122SOL    HW121002   4.349   0.369  14.519 -0.5581  0.3278  0.2539
 3122SOL    HW221003   4.291   0.283  14.628 -0.4972  2.0145 -0.7617
 3123SOL     OW21004   2.834   0.495   8.279 -0.0067  0.2210  0.1451
 3123SOL    HW121005   2.746   0.524   8.254  0.5530  1.6645 -0.1555
 3123SOL    HW221006   2.838   0.406   8.245 -3.1753 -0.1454  0.7088
 3124SOL     OW21007   4.712   2.240   7.249  0.3418  0.1497  0.4954
 3124SOL    HW121008   4.629   2.195   7.267 -0.3954  1.3817  0.1662
 3124SOL    HW221009   4.686   2.331   7.264  3.6798  1.0855  0.5295
 3125SOL     OW21010   4.165   1.869   3.042  0.8391  0.1422  0.2303
 3125SOL    HW121011   4.259   1.851   3.046  0.7480 -0.9614 -2.8683
 3125SOL    HW221012   4.150   1.938   3.107 -1.7024 -1.3290  1.2394
 3126SOL     OW21013   2.293   2.745  10.183  0.3779  0.3306  0.2588
 3126SOL    HW121014   2.383   2.732  10.153  0.2813 -0.5390  0.3264
 3126SOL    HW221015   2.274   2.811  10.117  0.8635 -0.0115 -0.2241
 3127SOL     OW21016   0.011   2.249   8.390 -0.0859 -0.7032  0.0764
 3127SOL    HW121017   4.704   2.214   8.467  0.0510 -0.3507  0.3149
 3127SOL    HW221018   4.721   2.339   8.404  1.0714 -0.3284  0.0129
 3128SOL     OW21019   0.909   3.536   7.253  0.1933  0.0467  0.1469
 3128SOL    HW121020   0.984   3.508   7.200 -0.2253  0.1128 -0.4847
 3128SOL    HW221021   0.901   3.466   7.318  0.0448 -0.8658 -0.8463
 3129SOL     OW21022   1.412   0.162  15.888  0.5256  0.0049  0.5334
 3129SOL    HW121023   1.427   0.248  15.925 -0.1640  0.1915  0.3628
 3129SOL    HW221024   1.410   0.115  15.971 -0.3462 -1.0753 -0.0874
 3130SOL     OW21025   0.847   4.357  17.154  0.2452  0.5228 -0.1589
 3130SOL    HW121026   0.845   4.449  17.179 -0.2861  1.1345 -2.3899
 3130SOL    HW221027   0.869   4.312  17.235  0.2486 -0.5312 -0.7349
 3131SOL     OW21028   2.362   0.773   9.642  0.7018 -0.1378 -0.4330
 3131SOL    HW121029   2.379   0.841   9.707  1.4383  0.9440 -1.7302
 3131SOL    HW221030   2.378   0.822   9.561 -1.7389  0.6437 -0.4525
 3132SOL     OW21031   3.279   0.029  10.300 -0.1563 -0.7040  0.7059
 3132SOL    HW121032   3.297   4.686  10.252  2.4565  0.3645 -0.1207
 3132SOL    HW221033   3.353   0.038  10.360  1.4109  0.0201 -1.3264
 3133SOL     OW21034   1.024   4.238  17.718 -0.2709  0.6189  0.5125
 3133SOL    HW121035   0.980   4.155  17.700 -1.3152  1.3123 -0.2066
 3133SOL    HW221036   1.114   4.214  17.735 -0.4135 -0.1876  0.1130
 3134SOL     OW21037   1.783   1.708  13.514  0.3767  0.1737 -0.0868
 3134SOL    HW121038   1.692   1.688  13.535 -0.3169  2.0150 -1.3717
 3134SOL    HW221039   1.795   1.649  13.439 -0.6406  0.4391 -0.4568
 3135SOL     OW21040   2.535   2.256  15.398 -0.5030  0.1353  0.0647
 3135SOL    HW121041   2.504   2.270  15.488  0.8345 -0.8261  0.6803
 3135SOL    HW221042   2.507   2.335  15.353 -0.1796 -1.5697 -3.1336
 3136SOL     OW21043   4.235   4.361  15.818 -0.0418 -0.4177 -0.1900
 3136SOL    HW121044   4.209   4.388  15.730  0.8036  2.7765  0.5389
 3136SOL    HW221045   4.309   4.420  15.834 -0.9882  0.0240  2.5149
 3137SOL     OW21046   0.936   4.589  15.519 -0.1375  0.3386  0.5060
 3137SOL    HW121047   1.006   4.530  15.493  0.1864  0.7648  0.4250
 3137SOL    HW221048   0.884   4.533  15.577 -1.5313  1.8563  0.7241
 3138SOL     OW21049   0.059   2.650  11.041 -0.1792  0.1878  0.9790
 3138SOL    HW121050   0.077   2.592  11.115 -2.4579  0.1290  1.4892
 3138SOL    HW221051   0.080   2.732  11.085  0.6357  0.6365 -0.2727
 3139SOL     OW21052   1.918   1.854   3.521 -0.4552  0.1403 -0.1238
 3139SOL    HW121053   1.960   1.807   3.449 -1.3164 -0.9656  0.0842
 3139SOL    HW221054   1.998   1.864   3.573 -0.9307 -3.5372  1.3317
 3140SOL     OW21055   3.362   0.427   5.305  0.1660 -0.4230 -0.0928
 3140SOL    HW121056   3.364   0.505   5.361 -0.7413  1.7895 -3.1270
 3140SOL    HW221057   3.403   0.358   5.356 -1.4731 -0.8064  0.7316
 3141SOL     OW21058   4.637   3.841   5.293  0.8940 -0.6799  0.1340
 3141SOL    HW121059   4.615   3.748   5.287  0.0135 -0.2929 -2.4426
 3141SOL    HW221060   4.711   3.841   5.355 -1.7572  0.2097  3.2810
 3142SOL     OW21061   0.846   2.243   2.809  0.3853  0.4080 -0.0978
 3142SOL    HW121062   0.758   2.246   2.848  1.0495  2.6826  1.2180
 3142SOL    HW221063   0.886   2.177   2.865 -2.2253 -0.7725  0.4038
 3143SOL     OW21064   0.788   4.261  13.070  0.2389 -0.1365  0.4570
 3143SOL    HW121065   0.860   4.308  13.113 -0.1753  0.7600  0.1851
 3143SOL    HW221066   0.771   4.321  12.998 -0.0795 -0.0663  0.5905
 3144SOL     OW21067   0.755   1.253   1.394  0.4995 -0.5662  0.0929
 3144SOL    HW121068   0.845   1.240   1.423 -0.0783 -0.6638  1.8654
 3144SOL    HW221069   0.718   1.165   1.394  1.7473 -1.0805 -1.1198
 3145SOL     OW21070   3.319   1.612  14.860 -0.7208 -0.3498 -0.5086
 3145SOL    HW121071   3.395   1.611  14.801  0.6912  2.6318  1.2686
 3145SOL    HW221072   3.319   1.519  14.882 -3.4711  0.1154  1.3836
 3146SOL     OW21073   4.703   2.844  16.507 -0.2387  0.6747 -0.6166
 3146SOL    HW121074   0.039   2.828  16.450  0.4649  0.4981  0.3627
 3146SOL    HW221075   4.700   2.770  16.569  0.4337  0.8065 -0.4339
 3147SOL     OW21076   1.022   1.773   4.885 -0.0111  0.6793  0.4399
 3147SOL    HW121077   1.077   1.818   4.821 -0.2096 -1.1273 -1.0074
 3147SOL    HW221078   0.959   1.842   4.904 -2.8174 -1.0997 -2.2960
 3148SOL     OW21079   0.290   4.669   2.177  0.4358  0.3911 -0.1373
 3148SOL    HW121080   0.236   4.634   2.249  3.4589  0.6172  2.2225
 3148SOL    HW221081   0.352   4.730   2.217 -0.6846 -0.6294  3.2133
 3149SOL     OW21082   3.208   0.535   4.686  0.2348  0.2188  0.0561
 3149SOL    HW121083   3.181   0.585   4.763  0.5461 -0.7069  0.7759
 3149SOL    HW221084   3.224   0.450   4.727 -0.6578 -0.6251 -1.3382
 3150SOL     OW21085   2.656   0.557   0.698 -0.0680 -0.3532 -0.2108
 3150SOL    HW121086   2.662   0.576   0.604 -1.0889  0.8179 -0.0316
 3150SOL    HW221087   2.675   0.463   0.704  1.3273 -0.0706 -0.1353
 3151SOL     OW21088   4.439   1.681   6.014 -0.1207  0.1303 -0.4873
 3151SOL    HW121089   4.365   1.627   5.986 -1.9352  2.4722 -0.2160
 3151SOL    HW221090   4.402   1.766   6.039  2.2746  1.5794 -1.9396
 3152SOL     OW21091   2.655   3.854   6.600 -0.3796  0.3500 -0.5567
 3152SOL    HW121092   2.602   3.916   6.549 -0.2089  1.3723  0.4877
 3152SOL    HW221093   2.599   3.807   6.662  0.9440 -1.2947 -0.6051
 3153SOL     OW21094   2.162   2.109   3.052 -0.2897  0.6801 -0.1454
 3153SOL    HW121095   2.205   2.096   3.137 -2.1978 -2.3880  0.3714
 3153SOL    HW221096   2.178   2.203   3.058 -1.3473  0.8652 -0.2327
 3154SOL     OW21097   3.342   1.001   1.102 -0.2275  1.2640 -0.2385
 3154SOL    HW121098   3.363   0.965   1.188 -1.0860  3.1044  0.7335
 3154SOL    HW221099   3.405   0.947   1.054  0.8967  0.5073  2.0686
 3155SOL     OW21100   1.744   4.358  12.447 -0.1318 -0.3058  0.3452
 3155SOL    HW121101   1.835   4.347  12.475  0.7398  1.3672 -1.8432
 3155SOL    HW221102   1.694   4.345  12.527 -0.3868  1.2057  0.4349
 3156SOL     OW21103   0.928   2.608   4.282  0.1147  0.6236  0.0372
 3156SOL    HW121104   0.939   2.627   4.189 -0.3499 -0.1437 -0.1730
 3156SOL    HW221105   0.892   2.692   4.311  1.7930  1.0782  0.8623
 3157SOL     OW21106   0.708   0.128  11.673 -0.1596  0.1413 -0.4002
 3157SOL    HW121107   0.730   0.035  11.672  3.4476  0.9900  1.6752
 3157SOL    HW221108   0.634   0.131  11.612 -0.0392  1.2320 -0.4784
 3158SOL     OW21109   2.618   3.703   7.299  0.0190 -0.0036  0.3380
 3158SOL    HW121110   2.617   3.767   7.369 -0.4037  0.2022  0.1482
 3158SOL    HW221111   2.560   3.631   7.326 -0.2735 -0.3099 -1.0559
 3159SOL     OW21112   2.721   3.031   8.247  0.3164  0.0855 -0.0390
 3159SOL    HW121113   2.753   3.013   8.159  0.1868  1.0744 -0.2849
 3159SOL    HW221114   2.670   2.953   8.271  1.6775 -0.7460  0.1353
 3160SOL     OW21115   2.917   1.067   6.491  0.0353 -0.1464 -0.6728
 3160SOL    HW121116   2.886   1.137   6.434 -1.4509  0.1019  0.4442
 3160SOL    HW221117   2.899   1.105   6.577  1.6679  0.0581 -0.4184
 3161SOL     OW21118   2.018   0.222   2.153 -0.5484 -0.2636 -0.4374
 3161SOL    HW121119   1.996   0.188   2.240  1.3623 -2.6468 -0.9138
 3161SOL    HW221120   2.021   0.141   2.103 -0.2212  0.0002 -0.8395
 3162SOL     OW21121   1.075   0.503   5.776 -0.4471 -0.2303  0.2782
 3162SOL    HW121122   1.008   0.474   5.838  0.5700  0.0757  1.5265
 3162SOL    HW221123   1.018   0.522   5.701 -1.9009 -2.8851  0.7100
 3163SOL     OW21124   2.278   4.523   4.746 -0.6261  0.0413  0.0017
 3163SOL    HW121125   2.339   4.575   4.694 -1.1790  0.4815 -0.1981
 3163SOL    HW221126   2.244   4.586   4.810  2.5619  2.1735 -0.4110
 3164SOL     OW21127   1.932   1.680   2.987 -0.0070 -0.2713 -0.0912
 3164SOL    HW121128   1.921   1.770   3.016 -1.4375 -0.0712 -1.2440
 3164SOL    HW221129   2.002   1.691   2.922  0.6190 -0.2052  0.5887
 3165SOL     OW21130   0.323   3.154   1.783 -0.1334 -0.0975 -0.2426
 3165SOL    HW121131   0.348   3.068   1.750  1.4863  0.5259 -0.6142
 3165SOL    HW221132   0.262   3.174   1.712 -0.9374 -2.8850 -0.3163
 3166SOL     OW21133   4.183   2.043   2.331 -0.2978 -0.3665  0.4800
 3166SOL    HW121134   4.110   2.064   2.273  1.5450 -0.3379 -1.8629
 3166SOL    HW221135   4.160   2.095   2.408 -1.1087 -0.8186  0.5399
 3167SOL     OW21136   2.626   3.642   3.807  0.4189 -1.0387 -0.3884
 3167SOL    HW121137   2.562   3.641   3.878 -0.8693  0.2551 -1.5452
 3167SOL    HW221138   2.683   3.568   3.828  0.7552 -0.7407 -0.2445
 3168SOL     OW21139   3.370   2.572  17.116  0.3175  0.5396 -0.2796
 3168SOL    HW121140   3.309   2.643  17.093  0.4484  1.0533  1.0000
 3168SOL    HW221141   3.322   2.490  17.100 -0.3980  1.4435 -2.8949
 3169SOL     OW21142   2.946   0.831   7.020  0.5257  0.5338  0.0192
 3169SOL    HW121143   2.858   0.835   7.058  0.3610 -2.4314 -0.0413
 3169SOL    HW221144   2.962   0.737   7.022  1.2284  0.6648  0.6067
 3170SOL     OW21145   1.417   3.496   0.441 -0.3527  0.4683  0.2517
 3170SOL    HW121146   1.392   3.418   0.393 -2.2145 -0.4281  2.7244
 3170SOL    HW221147   1.410   3.462   0.530 -0.8987  0.5123  0.2244
 3171SOL     OW21148   2.942   1.951  11.275  0.3170  0.4237 -0.6486
 3171SOL    HW121149   2.876   1.964  11.344 -0.8557 -0.7527 -1.5594
 3171SOL    HW221150   2.993   1.878  11.309 -3.7259 -2.5995 -1.0501
 3172SOL     OW21151   0.110   2.799  14.103  0.0635 -0.0289 -0.7739
 3172SOL    HW121152   0.116   2.871  14.040 -1.0572  0.9002  0.1940
 3172SOL    HW221153   0.198   2.799  14.141 -0.3080  1.5240  0.0786
 3173SOL     OW21154   2.818   1.901   3.931  0.1145 -0.0964 -0.1720
 3173SOL    HW121155   2.891   1.959   3.910 -2.3395  2.2179 -2.3607
 3173SOL    HW221156   2.775   1.888   3.846  3.3302 -3.2280 -1.3022
 3174SOL     OW21157   2.311   3.586   6.548  0.3743 -0.1431  0.2129
 3174SOL    HW121158   2.239   3.524   6.552 -0.1170  0.4652  0.9141
 3174SOL    HW221159   2.269   3.664   6.584 -0.8463  0.4976 -2.5978
 3175SOL     OW21160   2.385   3.676   7.521  0.3376 -0.2737  0.0084
 3175SOL    HW121161   2.444   3.747   7.546 -0.2668 -0.0043  0.6486
 3175SOL    HW221162   2.386   3.614   7.594 -6.0166 -0.1844  0.1843
 3176SOL     OW21163   2.671   4.361   9.108  0.1159 -0.7059 -0.2093
 3176SOL    HW121164   2.618   4.347   9.186  0.8524 -1.2204  0.2051
 3176SOL    HW221165   2.651   4.283   9.055 -0.3442 -0.8340  0.1503
 3177SOL     OW21166   3.370   2.145  14.031  0.3264 -0.2650 -0.6131
 3177SOL    HW121167   3.437   2.085  13.998  1.4496  1.1149 -0.8482
 3177SOL    HW221168   3.367   2.204  13.956  1.9950  1.5980  0.8014
 3178SOL     OW21169   1.288   0.992   7.517 -0.2184  0.3085  0.1274
 3178SOL    HW121170   1.297   0.919   7.455 -1.0601 -1.5471  2.2057
 3178SOL    HW221171   1.217   0.964   7.574 -1.5972  0.9616 -1.2849
 3179SOL     OW21172   1.494   2.010   3.723 -0.0323  0.4085 -0.4398
 3179SOL    HW121173   1.506   2.079   3.788 -2.6346  1.5649 -1.1738
 3179SOL    HW221174   1.402   1.984   3.727  0.0959 -0.3151 -2.1088
 3180SOL     OW21175   0.841   3.174  16.684  0.1059 -0.0785 -0.4373
 3180SOL    HW121176   0.792   3.143  16.760 -0.5340  0.4497 -0.6274
 3180SOL    HW221177   0.827   3.269  16.690 -2.1682 -0.5439  1.8426
 3181SOL     OW21178   2.047   2.204  16.870 -0.0687 -0.3698  0.2610
 3181SOL    HW121179   1.957   2.221  16.899  0.0548 -0.1169  0.4878
 3181SOL    HW221180   2.094   2.208  16.953  3.3651  2.8645 -1.8447
 3182SOL     OW21181   1.719   3.751   9.458  0.5706 -0.0328  0.3889
 3182SOL    HW121182   1.634   3.728   9.420  1.8718 -2.0629 -1.2513
 3182SOL    HW221183   1.698   3.827   9.513 -2.9690 -2.2685  2.1684
 3183SOL     OW21184   1.587   1.713   6.962 -0.3151  0.7132 -0.5245
 3183SOL    HW121185   1.555   1.752   6.881  0.7981 -0.4574 -1.5149
 3183SOL    HW221186   1.500   1.699   6.999  0.0515  0.0019  0.0892
 3184SOL     OW21187   0.792   3.730   4.760 -0.0531  0.5151  0.5003
 3184SOL    HW121188   0.857   3.664   4.783 -1.3373 -0.2509  1.9076
 3184SOL    HW221189   0.714   3.689   4.797  1.1006 -0.8300  1.4159
 3185SOL     OW21190   2.104   0.671   4.289 -0.1922  0.5187 -0.4796
 3185SOL    HW121191   2.083   0.759   4.320  0.2205  0.9626 -1.4551
 3185SOL    HW221192   2.165   0.651   4.360  0.1676  0.4443 -0.8038
 3186SOL     OW21193   0.093   3.209   3.045  0.0494  0.2938 -0.0530
 3186SOL    HW121194   0.076   3.140   3.109  0.1257 -1.0973 -1.5429
 3186SOL    HW221195   0.077   3.163   2.963  2.5260  0.1227 -0.4622
 3187SOL     OW21196   4.407   2.099  12.290 -0.1955  0.2159  0.1136
 3187SOL    HW121197   4.351   2.084  12.367  1.0250 -1.7315  0.6324
 3187SOL    HW221198   4.372   2.176  12.246 -0.0795  0.6208  0.7200
 3188SOL     OW21199   3.822   4.465   7.902 -0.2409  0.0121  0.1501
 3188SOL    HW121200   3.878   4.464   7.979 -1.3955 -0.6174  0.9869
 3188SOL    HW221201   3.816   4.373   7.878 -3.1303  0.1081  0.4328
 3189SOL     OW21202   2.922   0.627  12.071  0.3301 -0.2028 -0.1260
 3189SOL    HW121203   2.891   0.559  12.011  1.6199  0.0923 -1.1090
 3189SOL    HW221204   2.887   0.709  12.039  0.8396 -0.6041 -1.6958
 3190SOL     OW21205   4.197   4.608  17.240 -0.3634 -0.1516 -0.4405
 3190SOL    HW121206   4.114   4.627  17.284 -0.5873  1.5983 -1.6013
 3190SOL    HW221207   4.189   4.513  17.239  1.7723 -0.3338  0.0177
 3191SOL     OW21208   1.043   1.917   1.930  0.4149  0.1262 -0.3054
 3191SOL    HW121209   0.948   1.930   1.936  0.1891 -0.8478 -1.6964
 3191SOL    HW221210   1.072   1.946   2.016 -0.7506 -0.4094  0.2803
 3192SOL     OW21211   3.308   4.507   9.158 -0.4251  0.5092 -1.0401
 3192SOL    HW121212   3.310   4.477   9.067 -1.6362 -3.0231  0.0927
 3192SOL    HW221213   3.219   4.483   9.184  0.2645 -0.2960  0.6102
 3193SOL     OW21214   0.659   1.262  11.592  0.4496 -0.0097 -0.5623
 3193SOL    HW121215   0.641   1.215  11.674 -0.7070  0.2813 -0.6427
 3193SOL    HW221216   0.743   1.302  11.611  1.2469 -0.9802 -2.0584
 3194SOL     OW21217   3.335   1.513   5.998 -0.5558  0.0205 -0.1271
 3194SOL    HW121218   3.356   1.603   5.972  0.5415 -0.4276 -0.8133
 3194SOL    HW221219   3.424   1.476   6.000 -0.0897  1.1721  0.5568
 3195SOL     OW21220   0.281   2.719   2.216 -0.4196  0.5917  0.1185
 3195SOL    HW121221   0.238   2.797   2.250  0.0140 -0.0709  2.2463
 3195SOL    HW221222   0.216   2.709   2.148  0.4761  0.3731 -0.7039
 3196SOL     OW21223   2.149   2.322   9.891  0.3327  0.2296  0.1901
 3196SOL    HW121224   2.117   2.241   9.850 -0.4428 -0.6992  2.6011
 3196SOL    HW221225   2.151   2.299   9.984 -0.2501 -1.3230 -0.1781
 3197SOL     OW21226   0.358   2.130   3.827 -0.1543  0.1378 -0.2767
 3197SOL    HW121227   0.379   2.158   3.737  1.4051  1.4018  0.4628
 3197SOL    HW221228   0.302   2.202   3.855 -0.2784 -0.2484  0.4561
 3198SOL     OW21229   1.886   1.921   6.583 -0.2678  0.2575 -0.3199
 3198SOL    HW121230   1.820   1.893   6.520 -1.2934  3.8640 -0.8917
 3198SOL    HW221231   1.855   2.008   6.608 -3.7917 -1.1968  0.2986
 3199SOL     OW21232   0.356   1.199   8.977 -0.1155  0.4707  0.8517
 3199SOL    HW121233   0.352   1.225   9.069  0.8249 -0.5632  1.1773
 3199SOL    HW221234   0.268   1.166   8.960 -0.8404  2.4863  0.6805
 3200SOL     OW21235   3.235   0.528   7.235  0.8893 -0.0243  0.3387
 3200SOL    HW121236   3.330   0.521   7.238  0.9424 -0.2405 -2.2833
 3200SOL    HW221237   3.210   0.507   7.145 -1.2901  1.9617  0.4775
 3201SOL     OW21238   1.409   3.505  14.025  0.4559 -0.1075 -0.0348
 3201SOL    HW121239   1.412   3.421  14.071  4.1181 -0.2606 -0.5309
 3201SOL    HW221240   1.486   3.547  14.064  1.0638 -0.6746 -0.6344
 3202SOL     OW21241   1.092   3.888   5.256  0.2699 -0.1163  0.5165
 3202SOL    HW121242   1.171   3.942   5.248  1.2056 -1.6008 -0.2528
 3202SOL    HW221243   1.113   3.815   5.315  1.7062 -0.8749 -0.9199
 3203SOL     OW21244   2.685   3.371   0.540  0.1597 -0.1523 -0.3807
 3203SOL    HW121245   2.648   3.452   0.574  0.4822  0.1466 -0.7549
 3203SOL    HW221246   2.753   3.355   0.606  2.4555  1.1290 -2.4082
 3204SOL     OW21247   4.427   1.525  17.690  0.2680 -0.1589  0.3151
 3204SOL    HW121248   4.517   1.529  17.657  0.7698  0.1096  1.6854
 3204SOL    HW221249   4.376   1.483  17.621 -0.2108  1.9317 -0.6079
 3205SOL     OW21250   2.895   2.079  17.458 -0.3071  0.1565 -0.1149
 3205SOL    HW121251   2.917   2.083  17.551  1.5499 -1.4061 -0.4786
 3205SOL    HW221252   2.954   2.140  17.415 -1.3847  0.6802 -0.8432
 3206SOL     OW21253   4.630   2.550  11.713 -0.0822  0.3039  0.1201
 3206SOL    HW121254   4.688   2.479  11.740 -0.9720 -0.9261 -1.1506
 3206SOL    HW221255   4.574   2.582  11.784  2.0467 -0.1966  2.0120
 3207SOL     OW21256   0.581   4.228  12.690 -0.1331 -0.6331 -0.1726
 3207SOL    HW121257   0.582   4.275  12.774  2.5234 -1.1048  0.0618
 3207SOL    HW221258   0.676   4.226  12.700 -0.2335  0.8727  1.0879
 3208SOL     OW21259   0.686   3.339  10.609  0.1712 -0.1608  0.2464
 3208SOL    HW121260   0.704   3.399  10.681  0.7807  0.8294 -0.7321
 3208SOL    HW221261   0.776   3.321  10.581  0.0491 -0.9797  0.3700
 3209SOL     OW21262   2.428   4.318   3.513 -0.0133  0.2873  0.0897
 3209SOL    HW121263   2.508   4.307   3.566 -0.5931 -0.7536  0.7451
 3209SOL    HW221264   2.443   4.267   3.434  0.6096 -1.8335  1.5849
 3210SOL     OW21265   0.642   3.407   1.765  0.6696  0.1308 -0.4892
 3210SOL    HW121266   0.707   3.471   1.737 -0.2062  2.0761  1.8844
 3210SOL    HW221267   0.690   3.326   1.782  0.5294  0.3152  0.7650
 3211SOL     OW21268   2.612   1.189  15.665  0.1539 -0.3526  0.1159
 3211SOL    HW121269   2.555   1.258  15.698  1.5993  2.2234 -2.7692
 3211SOL    HW221270   2.685   1.206  15.724  0.5898 -2.3159  0.1428
 3212SOL     OW21271   3.048   0.933  12.199  0.1428  0.1018  0.3100
 3212SOL    HW121272   3.101   0.890  12.132 -1.9362 -0.4555 -0.9683
 3212SOL    HW221273   3.060   0.857  12.257 -1.1471 -0.4373 -0.1483
 3213SOL     OW21274   4.233   0.298  17.165 -0.1378  0.5481 -0.0130
 3213SOL    HW121275   4.256   0.228  17.104 -0.5403 -0.4824  1.0352
 3213SOL    HW221276   4.276   0.379  17.134 -1.9852  2.1409  1.6088
 3214SOL     OW21277   0.217   2.266   5.391  0.0368  0.2057  0.2318
 3214SOL    HW121278   0.170   2.347   5.372  1.4561  0.7602 -0.9493
 3214SOL    HW221279   0.156   2.203   5.353  0.0614  0.8433 -0.8859
 3215SOL     OW21280   3.051   0.788   3.278 -0.0042 -0.5908  0.0651
 3215SOL    HW121281   3.031   0.716   3.217  0.0892 -0.5795  0.0209
 3215SOL    HW221282   3.146   0.790   3.286  0.1638  1.8556 -2.4039
 3216SOL     OW21283   0.509   1.379   3.232 -0.4810 -0.2442  0.0829
 3216SOL    HW121284   0.522   1.467   3.198 -0.4070  0.0568  0.8785
 3216SOL    HW221285   0.529   1.389   3.325  0.8065 -0.6741 -0.1423
 3217SOL     OW21286   1.104   2.828   5.495 -0.3693 -0.4929 -0.3851
 3217SOL    HW121287   1.035   2.763   5.480 -1.0257 -0.0031  0.4806
 3217SOL    HW221288   1.064   2.871   5.571  0.5911 -0.4248  0.0814
 3218SOL     OW21289   1.472   1.139   1.456 -0.8425  0.0688  0.5644
 3218SOL    HW121290   1.389   1.105   1.423 -0.0428 -1.7828  0.4398
 3218SOL    HW221291   1.468   1.226   1.417  0.5975  0.3184  0.9591
 3219SOL     OW21292   1.671   0.853   2.646 -0.4916 -0.3038  0.0230
 3219SOL    HW121293   1.657   0.915   2.574  2.6275 -0.5736 -0.8020
 3219SOL    HW221294   1.760   0.876   2.672  0.2758 -2.0052 -1.0959
 3220SOL     OW21295   0.116   1.408  16.846 -0.6145 -0.6902 -0.5628
 3220SOL    HW121296   0.126   1.483  16.788  0.3851 -0.2543  0.1647
 3220SOL    HW221297   0.163   1.340  16.797  1.0650  0.6511 -0.8115
 3221SOL     OW21298   2.296   2.427   1.282 -0.2525 -0.4266  0.1916
 3221SOL    HW121299   2.319   2.518   1.268 -0.5397 -0.3236  0.3768
 3221SOL    HW221300   2.208   2.436   1.319 -1.0040  0.5188 -1.8738
 3222SOL     OW21301   1.601   2.747   8.327  0.3836 -0.1182  0.3046
 3222SOL    HW121302   1.629   2.758   8.418 -2.8728 -2.7337  1.6333
 3222SOL    HW221303   1.539   2.820   8.315 -0.9315 -1.3018 -0.0564
 3223SOL     OW21304   4.033   0.925  12.961 -0.2713 -0.3096  0.2099
 3223SOL    HW121305   4.044   0.952  13.052  0.3065  4.4002 -1.2683
 3223SOL    HW221306   3.951   0.964  12.928 -3.0626 -3.0318  3.8539
 3224SOL     OW21307   4.256   0.787   5.830 -0.0096  0.5829 -0.0633
 3224SOL    HW121308   4.175   0.745   5.860 -0.4351  1.0009 -0.6353
 3224SOL    HW221309   4.308   0.731   5.773 -1.9889  0.1747 -1.4853
 3225SOL     OW21310   0.397   0.421   2.481  0.2521  0.0752 -0.2093
 3225SOL    HW121311   0.399   0.451   2.571 -3.3140 -1.4277  0.3508
 3225SOL    HW221312   0.354   0.501   2.451 -0.9926 -0.5194  0.0057
 3226SOL     OW21313   1.232   4.737   2.603 -0.1277 -0.0903  0.3434
 3226SOL    HW121314   1.235   0.038   2.690  0.6053 -0.5711  0.5439
 3226SOL    HW221315   1.152   0.044   2.577  0.2314 -1.2794 -2.8436
 3227SOL     OW21316   1.349   1.795   4.995  0.3418 -0.6596  0.0489
 3227SOL    HW121317   1.405   1.727   5.033  1.0464  1.3032  2.5271
 3227SOL    HW221318   1.273   1.789   5.053  1.3547  1.4803  1.5933
 3228SOL     OW21319   3.198   3.552   8.553 -0.5335  0.3468 -0.1862
 3228SOL    HW121320   3.280   3.572   8.507 -2.0348  2.4733 -1.9608
 3228SOL    HW221321   3.142   3.566   8.477 -3.0193 -0.0889  1.5573
 3229SOL     OW21322   2.092   3.917   4.007  0.3934 -0.4305  0.3726
 3229SOL    HW121323   2.116   3.832   3.970  0.8018 -0.3119  0.3668
 3229SOL    HW221324   2.003   3.919   3.971  0.0550  2.6016  1.4270
 3230SOL     OW21325   1.533   1.379  12.242 -0.4878  0.2327 -0.0600
 3230SOL    HW121326   1.453   1.360  12.291  0.6265 -0.9972  1.2840
 3230SOL    HW221327   1.541   1.474  12.244  0.0259  0.1908 -0.2374
 3231SOL     OW21328   2.780   2.147   5.973  0.7494 -0.0144 -0.0613
 3231SOL    HW121329   2.747   2.058   5.980 -0.0101  0.2748  0.1007
 3231SOL    HW221330   2.742   2.178   6.056  0.8941 -0.7682  0.2799
 3232SOL     OW21331   3.816   3.578   5.971 -0.5166 -0.3361 -0.1634
 3232SOL    HW121332   3.842   3.511   5.908  0.4552 -0.4187  0.3299
 3232SOL    HW221333   3.735   3.609   5.932 -1.3625  1.6854  3.1733
 3233SOL     OW21334   2.365   2.351   7.687 -0.0872 -0.3125  0.3486
 3233SOL    HW121335   2.371   2.263   7.724  0.6496  0.4261  2.0001
 3233SOL    HW221336   2.347   2.322   7.598 -2.3137  3.2669 -0.3703
 3234SOL     OW21337   2.425   2.986   6.544 -0.5872 -0.5465  0.1791
 3234SOL    HW121338   2.468   2.901   6.540  0.2909 -0.1491  1.1216
 3234SOL    HW221339   2.491   3.031   6.596  0.5987 -2.4687  0.3422
 3235SOL     OW21340   4.600   0.903   6.132 -0.0483 -0.0436  0.0847
 3235SOL    HW121341   4.695   0.890   6.128 -0.3676 -2.1842 -0.0142
 3235SOL    HW221342   4.573   0.904   6.223  1.3001 -0.2232  0.4964
 3236SOL     OW21343   0.811   2.827   4.393  0.9960  0.4822 -0.2090
 3236SOL    HW121344   0.768   2.870   4.319 -1.9202 -0.4513  0.9662
 3236SOL    HW221345   0.738   2.831   4.455 -0.0990  2.8630 -1.6531
 3237SOL     OW21346   1.760   1.924  10.327 -0.0656 -0.5219 -0.0796
 3237SOL    HW121347   1.796   1.836  10.315  1.0614 -0.2036  0.9826
 3237SOL    HW221348   1.835   1.973  10.360 -1.1262  1.8170 -1.1224
 3238SOL     OW21349   3.693   1.643   9.601 -0.0383  0.9844  0.2444
 3238SOL    HW121350   3.677   1.590   9.523  0.3977 -0.2729  1.0201
 3238SOL    HW221351   3.789   1.635   9.606  0.0327  0.6052 -1.7904
 3239SOL     OW21352   1.274   1.190   4.788 -0.0607 -0.3733  0.7773
 3239SOL    HW121353   1.256   1.123   4.722  0.0980  0.1134  0.2493
 3239SOL    HW221354   1.356   1.229   4.758 -0.3540  0.5152  1.1237
 3240SOL     OW21355   0.435   4.711   1.758 -0.0194 -0.2149 -0.7511
 3240SOL    HW121356   0.511   0.026   1.779 -0.7175  1.3308 -2.1506
 3240SOL    HW221357   0.368   0.023   1.804 -0.4301 -1.6174  0.1909
 3241SOL     OW21358   1.714   0.169   2.098  0.3146 -0.1407  0.0941
 3241SOL    HW121359   1.807   0.182   2.080  0.1450  2.3752  1.1290
 3241SOL    HW221360   1.697   0.246   2.152 -3.7634  0.1408 -1.5631
 3242SOL     OW21361   0.760   0.144   3.309 -0.3779 -0.3772 -0.4957
 3242SOL    HW121362   0.818   0.153   3.233 -0.5282 -1.6641 -0.7739
 3242SOL    HW221363   0.809   0.074   3.353  1.0037  2.2371  2.0999
 3243SOL     OW21364   2.340   2.565   2.459  0.5241  0.1318 -0.1043
 3243SOL    HW121365   2.384   2.530   2.381  1.2315  0.2741  0.2265
 3243SOL    HW221366   2.371   2.655   2.447 -1.1998  0.7335 -0.0470
 3244SOL     OW21367   0.478   3.426   7.515  0.1519 -0.2806 -0.3332
 3244SOL    HW121368   0.548   3.392   7.571  1.3810  1.6939 -0.6776
 3244SOL    HW221369   0.492   3.518   7.494  0.9947 -0.2751  0.2578
 3245SOL     OW21370   0.438   0.441   4.440 -0.4250  0.2910  0.6874
 3245SOL    HW121371   0.423   0.507   4.373 -0.0896 -1.5405 -1.1688
 3245SOL    HW221372   0.417   0.488   4.521  2.1878  1.4663  0.6685
 3246SOL     OW21373   2.765   3.594  13.194  0.2478 -0.3248  0.5955
 3246SOL    HW121374   2.687   3.568  13.144  0.6719 -0.9468  0.2589
 3246SOL    HW221375   2.720   3.652  13.255 -3.2010 -2.0621 -0.2746
 3247SOL     OW21376   2.182   3.376  16.416 -0.3341 -0.1663  0.5718
 3247SOL    HW121377   2.230   3.299  16.385  2.4505  1.1095  1.7378
 3247SOL    HW221378   2.247   3.416  16.475 -2.4086  1.1696  1.9707
 3248SOL     OW21379   2.895   3.224   3.366 -1.1177  0.2004  0.5777
 3248SOL    HW121380   2.887   3.309   3.409  1.1170  0.1117  1.1402
 3248SOL    HW221381   2.822   3.180   3.411  0.0585  0.0046  2.3080
 3249SOL     OW21382   2.798   4.339   3.877  0.7691  0.3291  0.3352
 3249SOL    HW121383   2.799   4.405   3.947 -0.6190  0.4338  0.2431
 3249SOL    HW221384   2.887   4.304   3.888 -0.0239 -1.9530 -0.5393
 3250SOL     OW21385   4.344   2.738   3.672 -0.4211  0.2167 -0.3178
 3250SOL    HW121386   4.251   2.758   3.665 -0.7859 -1.1226  0.7850
 3250SOL    HW221387   4.375   2.710   3.585  2.8858 -0.0068  0.9199
 3251SOL     OW21388   3.427   0.500   6.445 -0.0707 -0.2492  0.1535
 3251SOL    HW121389   3.363   0.558   6.402  1.8112  1.8208  0.1268
 3251SOL    HW221390   3.376   0.422   6.466  1.0180 -0.5453  1.7058
 3252SOL     OW21391   2.213   0.384   6.738 -0.2398 -0.2919 -0.3101
 3252SOL    HW121392   2.188   0.476   6.739  0.8088 -0.0165 -0.4967
 3252SOL    HW221393   2.140   0.341   6.692  0.6679 -0.4290 -1.6111
 3253SOL     OW21394   2.363   2.192   1.994  0.8636 -0.1116 -0.0440
 3253SOL    HW121395   2.395   2.107   2.024  2.0219 -0.3030 -1.8046
 3253SOL    HW221396   2.325   2.231   2.073  2.1703 -2.0986  1.5773
 3254SOL     OW21397   2.186   4.591  16.219  0.6872  0.0656 -0.2241
 3254SOL    HW121398   2.101   4.633  16.206  1.0293  0.4664 -1.1287
 3254SOL    HW221399   2.173   4.520  16.283  1.1591 -1.1061 -1.4269
 3255SOL     OW21400   4.133   4.585   6.873 -0.3990 -0.0529  0.4432
 3255SOL    HW121401   4.182   4.641   6.813 -1.4492  1.9468  1.4254
 3255SOL    HW221402   4.051   4.571   6.826 -2.8065  0.8719  4.3118
 3256SOL     OW21403   3.488   0.852   4.735  0.1508  0.6280 -0.0130
 3256SOL    HW121404   3.508   0.925   4.793 -0.0894  0.3930  0.3631
 3256SOL    HW221405   3.406   0.886   4.699 -0.8916  0.2945  2.0587
 3257SOL     OW21406   1.290   2.103   1.908 -0.3421  0.3479  0.1598
 3257SOL    HW121407   1.227   2.088   1.837  1.5870 -0.4240 -1.3895
 3257SOL    HW221408   1.336   2.019   1.908  1.7817  1.5306  1.2811
 3258SOL     OW21409   4.424   4.342  14.322  0.1225  0.1148 -0.1813
 3258SOL    HW121410   4.438   4.317  14.231 -3.8493  0.8580 -1.0074
 3258SOL    HW221411   4.444   4.436  14.327  1.2252  0.0259 -2.9125
 3259SOL     OW21412   1.308   2.986   1.654  0.9062 -0.0864 -0.2874
 3259SOL    HW121413   1.332   3.068   1.697  1.4065 -0.2042 -0.3388
 3259SOL    HW221414   1.274   2.925   1.719  0.6672 -2.1595 -2.3379
 3260SOL     OW21415   1.048   3.406  11.648  0.1270  0.1813 -0.1120
 3260SOL    HW121416   0.975   3.467  11.649 -0.2661 -0.2867 -1.0248
 3260SOL    HW221417   1.057   3.393  11.743 -1.8920  1.4055  0.2366
 3261SOL     OW21418   3.637   3.171   5.220 -0.2274  0.0224 -0.4003
 3261SOL    HW121419   3.671   3.087   5.190  0.3730 -0.3861  1.4514
 3261SOL    HW221420   3.687   3.195   5.298  0.3302 -0.4454 -0.6225
 3262SOL     OW21421   1.816   2.232   2.534 -0.0767 -0.2950  0.1090
 3262SOL    HW121422   1.894   2.233   2.589 -0.2353 -1.8346  0.3559
 3262SOL    HW221423   1.745   2.257   2.593 -0.1425 -2.9365  1.1247
 3263SOL     OW21424   0.502   2.136   4.654  0.3313  0.1471  0.0201
 3263SOL    HW121425   0.542   2.124   4.741 -1.9040  2.4534  1.3747
 3263SOL    HW221426   0.421   2.086   4.663  0.4667 -0.3529 -1.6536
 3264SOL     OW21427   4.432   1.637   0.219  0.3503 -0.4430  0.6512
 3264SOL    HW121428   4.499   1.570   0.206  0.1924 -0.2459 -1.1340
 3264SOL    HW221429   4.380   1.624   0.139 -0.1806 -1.7223  1.2057
 3265SOL     OW21430   1.146   2.191   9.353  0.5196  0.0956 -0.2207
 3265SOL    HW121431   1.087   2.247   9.303  0.8723  1.8567  1.3585
 3265SOL    HW221432   1.133   2.216   9.444 -0.6201 -1.9459  0.1757
 3266SOL     OW21433   0.462   4.272   7.392 -0.5846 -0.1336 -0.0977
 3266SOL    HW121434   0.515   4.219   7.451  1.5401  0.6730 -1.2788
 3266SOL    HW221435   0.501   4.262   7.305  0.8768  3.1729  0.1750
 3267SOL     OW21436   1.195   3.159   7.691  0.1243  0.7699 -0.1128
 3267SOL    HW121437   1.247   3.099   7.743 -1.1766 -0.5093 -0.2884
 3267SOL    HW221438   1.272   3.206   7.659  0.6808  0.3897  0.6713
 3268SOL     OW21439   2.981   4.529   5.444  0.1007  1.1548 -0.7847
 3268SOL    HW121440   3.027   4.459   5.490  0.3519  2.3808  0.8133
 3268SOL    HW221441   2.943   4.572   5.521  0.3368 -2.7778  1.5258
 3269SOL     OW21442   1.902   3.556  17.329 -0.3664  0.4458 -0.0530
 3269SOL    HW121443   1.843   3.491  17.293 -2.1736  1.6583  0.7155
 3269SOL    HW221444   1.920   3.523  17.417 -1.1376 -0.2676 -0.1693
 3270SOL     OW21445   4.165   1.461   4.829 -0.6041 -0.0229 -0.2911
 3270SOL    HW121446   4.132   1.461   4.919  3.0124 -0.9941  1.0079
 3270SOL    HW221447   4.206   1.375   4.832 -1.2050 -0.3343 -0.9741
 3271SOL     OW21448   0.675   4.539   7.817  0.5273 -0.3837  0.4399
 3271SOL    HW121449   0.698   4.455   7.856 -1.1531 -1.4920 -0.9790
 3271SOL    HW221450   0.680   4.593   7.896  0.9415 -1.9983  1.5263
 3272SOL     OW21451   3.814   0.712   5.300 -0.4420 -0.2396  0.3433
 3272SOL    HW121452   3.878   0.767   5.346 -0.8912  0.1769  0.4738
 3272SOL    HW221453   3.813   0.639   5.361 -2.7199 -0.1425  0.4302
 3273SOL     OW21454   2.740   2.513   4.219  0.0074  0.0351 -0.2360
 3273SOL    HW121455   2.714   2.424   4.244 -3.2113  0.7385 -1.1583
 3273SOL    HW221456   2.770   2.490   4.131  1.5316 -1.5044  0.6733
 3274SOL     OW21457   1.778   3.280  12.086 -0.2302 -0.4909  0.2668
 3274SOL    HW121458   1.824   3.304  12.167 -1.7868 -0.9565  1.2863
 3274SOL    HW221459   1.760   3.363  12.042  0.0239  0.6475  2.2846
 3275SOL     OW21460   2.928   3.599  11.062 -0.0457 -0.4901  0.1310
 3275SOL    HW121461   2.922   3.671  11.124  2.8263 -0.0976 -0.0841
 3275SOL    HW221462   2.885   3.531  11.114 -3.9685  0.9946 -1.1629
 3276SOL     OW21463   1.440   0.925   9.819 -0.1697 -0.2750  0.8442
 3276SOL    HW121464   1.473   0.844   9.858  0.9438 -0.7186 -1.0061
 3276SOL    HW221465   1.516   0.969   9.779 -0.7170 -1.8780 -1.9457
 3277SOL     OW21466   4.115   4.625   8.854 -0.2655  0.1876  0.3993
 3277SOL    HW121467   4.140   4.567   8.926  2.0353  1.2420  0.4733
 3277SOL    HW221468   4.098   4.560   8.786 -0.2092 -0.6995  1.2412
 3278SOL     OW21469   2.308   2.710   0.145 -0.1636  0.2855 -0.4662
 3278SOL    HW121470   2.325   2.762   0.224  0.3534 -1.0078  0.2630
 3278SOL    HW221471   2.347   2.766   0.077  0.8461  0.0940 -0.0434
 3279SOL     OW21472   3.602   2.274   3.701  0.1970  0.2293  0.2669
 3279SOL    HW121473   3.620   2.280   3.795 -0.4231  1.3609  0.3097
 3279SOL    HW221474   3.607   2.362   3.665  2.6039  0.3369  0.8361
 3280SOL     OW21475   2.884   1.227   4.625  0.5037 -0.0553 -0.0057
 3280SOL    HW121476   2.861   1.269   4.543 -0.4587  1.4040  1.0251
 3280SOL    HW221477   2.973   1.261   4.631 -0.4474  2.8729 -2.8183
 3281SOL     OW21478   2.614   1.593   4.106 -0.7325 -0.1963  0.1455
 3281SOL    HW121479   2.626   1.587   4.201 -0.4076 -2.2593 -0.0117
 3281SOL    HW221480   2.565   1.514   4.084  2.5624 -2.2193  0.0719
 3282SOL     OW21481   0.860   1.350   3.216  1.0278 -0.2660 -0.1403
 3282SOL    HW121482   0.861   1.353   3.312  1.2279 -1.0729 -0.1166
 3282SOL    HW221483   0.860   1.443   3.194 -1.3138 -0.0646  0.7275
 3283SOL     OW21484   2.891   4.406   7.432 -0.3690  0.5324  0.1178
 3283SOL    HW121485   2.837   4.454   7.495 -0.3042  0.8699 -0.0840
 3283SOL    HW221486   2.837   4.327   7.435 -1.2170  1.0866 -0.5388
 3284SOL     OW21487   0.178   2.324   5.007  0.3921 -0.0856 -0.1870
 3284SOL    HW121488   0.265   2.356   5.033  1.0152 -1.7906 -0.1931
 3284SOL    HW221489   0.147   2.397   4.954  0.0480  1.4237  2.0666
 3285SOL     OW21490   4.186   1.407   3.867  0.1727  0.0537  0.5938
 3285SOL    HW121491   4.169   1.393   3.960  4.5122 -2.2336  1.0380
 3285SOL    HW221492   4.111   1.463   3.848  0.5824  0.1171 -0.9080
 3286SOL     OW21493   4.447   3.282  10.824 -0.7438  0.2688 -0.5330
 3286SOL    HW121494   4.436   3.253  10.733 -0.0748  1.9374 -1.1509
 3286SOL    HW221495   4.539   3.266  10.846 -0.6385 -0.4843 -1.5253
 3287SOL     OW21496   0.149   3.269   4.403  0.0619  0.2595 -0.7639
 3287SOL    HW121497   0.194   3.312   4.330 -0.3410 -0.0693 -1.2049
 3287SOL    HW221498   0.189   3.318   4.475 -0.8243  0.6075 -0.5085
 3288SOL     OW21499   2.242   2.407   4.710 -0.2306 -0.1931  0.6981
 3288SOL    HW121500   2.327   2.396   4.753  0.5074 -2.3525 -1.3195
 3288SOL    HW221501   2.189   2.340   4.754  0.7645 -1.7153 -0.4128
 3289SOL     OW21502   1.976   4.166   1.855  0.4946 -0.1653  0.0708
 3289SOL    HW121503   2.053   4.112   1.839  0.6009 -0.0813  0.3037
 3289SOL    HW221504   1.945   4.131   1.938  1.6075 -2.1937 -0.3657
 3290SOL     OW21505   2.180   4.121   8.960  0.1979 -0.2699 -0.0620
 3290SOL    HW121506   2.174   4.125   9.055  2.4663 -1.2506  0.1145
 3290SOL    HW221507   2.270   4.147   8.941  0.6653 -1.4623  0.4921
 3291SOL     OW21508   3.908   3.165   4.380  0.4779  0.8593  0.5781
 3291SOL    HW121509   3.966   3.151   4.305 -1.1424 -1.2108 -0.2875
 3291SOL    HW221510   3.849   3.229   4.342 -1.4889 -0.2167  1.8026
 3292SOL     OW21511   2.864   1.620   3.967 -0.0570 -0.5677 -0.2659
 3292SOL    HW121512   2.869   1.713   3.989 -0.0710 -0.3095 -1.4033
 3292SOL    HW221513   2.780   1.600   4.007  0.3863 -2.6420 -0.3932
 3293SOL     OW21514   4.428   4.007   0.234 -0.3770 -0.0801  0.0767
 3293SOL    HW121515   4.436   4.044   0.322  1.8696 -1.5262  0.4859
 3293SOL    HW221516   4.334   3.997   0.218 -0.4431  2.9800 -1.4261
 3294SOL     OW21517   3.313   1.350   9.552  0.4138 -0.1252 -0.0985
 3294SOL    HW121518   3.217   1.351   9.547  0.3830 -1.8524  0.0219
 3294SOL    HW221519   3.332   1.437   9.519  1.6671 -0.8901 -1.4002
 3295SOL     OW21520   2.628   2.250  15.964  0.4259 -0.2375 -0.4185
 3295SOL    HW121521   2.705   2.278  16.013 -0.5382  2.6513 -0.5461
 3295SOL    HW221522   2.646   2.158  15.947 -0.2961 -0.4661  0.0468
 3296SOL     OW21523   0.964   3.927  17.000 -0.1425  0.0686 -0.4961
 3296SOL    HW121524   0.955   3.952  17.092 -0.3905 -2.0927  0.0633
 3296SOL    HW221525   1.025   3.998  16.977  1.9542 -2.0201 -1.3350
 3297SOL     OW21526   2.911   1.360  17.496  0.7661 -0.1561  0.6774
 3297SOL    HW121527   2.843   1.347  17.431 -0.4402  1.7540  1.5471
 3297SOL    HW221528   2.904   1.276  17.541 -0.1380 -0.1362  0.5704
 3298SOL     OW21529   0.448   1.020   9.375 -0.1430 -0.4452  0.3188
 3298SOL    HW121530   0.400   0.939   9.357 -0.4434 -0.8841  3.0244
 3298SOL    HW221531   0.431   1.023   9.469 -0.0727  0.4665  0.3000
 3299SOL     OW21532   3.272   1.382   4.907 -0.0560 -0.6807 -0.0832
 3299SOL    HW121533   3.276   1.477   4.922 -1.7956 -0.7527  0.8026
 3299SOL    HW221534   3.313   1.389   4.821 -0.5725 -0.8231 -0.3424
 3300SOL     OW21535   1.083   1.849   1.661 -0.2410 -0.0064  0.5253
 3300SOL    HW121536   1.068   1.868   1.753 -1.0840  0.8757  0.2117
 3300SOL    HW221537   1.142   1.918   1.631  1.0370 -0.2194  2.5835
 3301SOL     OW21538   0.153   4.543   0.606 -0.2487  0.1435 -0.1870
 3301SOL    HW121539   0.176   4.488   0.682  0.2102 -1.5727 -1.5620
 3301SOL    HW221540   0.243   4.555   0.575 -0.7656 -0.0483 -1.7401
 3302SOL     OW21541   2.222   3.980   5.300  0.1734 -0.4098 -0.0962
 3302SOL    HW121542   2.248   3.889   5.286  0.2468 -0.2166 -1.1923
 3302SOL    HW221543   2.275   4.029   5.237 -0.7598  2.3186  1.2446
 3303SOL     OW21544   3.541   2.549   4.321  0.6963  0.1971 -0.5183
 3303SOL    HW121545   3.631   2.525   4.343  0.4466  0.0049  0.2976
 3303SOL    HW221546   3.510   2.596   4.398  1.8632 -1.3330  0.8696
 3304SOL     OW21547   2.903   2.050  12.571 -0.2000 -0.3570  0.0071
 3304SOL    HW121548   2.942   1.968  12.603  2.9300  0.5849 -1.3244
 3304SOL    HW221549   2.915   2.043  12.476  3.6256  1.1014  0.3776
 3305SOL     OW21550   3.663   0.667   4.855 -0.5644  0.6556  0.3428
 3305SOL    HW121551   3.706   0.621   4.783  0.4054  0.0808  1.2938
 3305SOL    HW221552   3.585   0.699   4.810 -0.3219  0.8221  0.0439
 3306SOL     OW21553   2.180   3.083   9.313  0.0817  0.3303 -0.1805
 3306SOL    HW121554   2.173   3.148   9.384 -1.3814 -2.3762  2.1449
 3306SOL    HW221555   2.100   3.107   9.265  1.4921 -1.8347 -3.6039
 3307SOL     OW21556   1.475   0.119   4.044 -0.2111 -0.0523 -0.2490
 3307SOL    HW121557   1.404   0.182   4.059  0.0358 -0.3826  2.2721
 3307SOL    HW221558   1.551   0.176   4.032 -1.7757  2.1474  0.2106
 3308SOL     OW21559   2.423   3.982   4.171 -0.3904  0.2353 -0.5674
 3308SOL    HW121560   2.379   4.067   4.167 -0.3748  0.2377 -0.7086
 3308SOL    HW221561   2.367   3.927   4.226 -1.2858 -0.1985 -1.9197
 3309SOL     OW21562   1.535   2.039   2.988  0.3737  0.0845  0.3211
 3309SOL    HW121563   1.552   1.993   3.071  0.5787 -0.5940 -0.0938
 3309SOL    HW221564   1.456   1.994   2.958  0.8184 -1.0710  0.8659
 3310SOL     OW21565   4.009   1.125  11.525  0.0737  0.2136 -0.2023
 3310SOL    HW121566   4.062   1.047  11.539  0.3116  0.3513 -0.3400
 3310SOL    HW221567   4.044   1.176  11.599 -1.6924  1.3722 -0.1522
 3311SOL     OW21568   0.342   3.742  12.335 -0.1159  0.4141  0.4792
 3311SOL    HW121569   0.397   3.670  12.304 -0.7597  0.0917  0.1035
 3311SOL    HW221570   0.316   3.766  12.246 -1.9613  1.1509  1.2143
 3312SOL     OW21571   0.318   3.350   5.695  0.1087  0.1744 -0.3741
 3312SOL    HW121572   0.274   3.423   5.738  1.6106  0.0973  1.2825
 3312SOL    HW221573   0.328   3.286   5.765  2.3738  1.1589  0.1831
 3313SOL     OW21574   1.063   0.751   8.752 -0.0184 -0.1708  0.5106
 3313SOL    HW121575   1.027   0.802   8.680 -0.3067 -1.3194 -0.1637
 3313SOL    HW221576   1.079   0.812   8.824 -0.6078  1.6093 -0.8735
 3314SOL     OW21577   2.040   0.837  15.212  0.1614 -0.0539  0.2763
 3314SOL    HW121578   2.071   0.771  15.275  0.4041  0.5357  0.7752
 3314SOL    HW221579   2.101   0.814  15.142 -2.6125  0.6322 -2.3641
 3315SOL     OW21580   0.207   1.343   5.615 -0.1959  0.4127  0.0539
 3315SOL    HW121581   0.279   1.398   5.645  0.6774 -0.2192 -0.8798
 3315SOL    HW221582   0.144   1.399   5.569 -0.6355 -0.1739 -0.0606
 3316SOL     OW21583   3.469   4.469  12.448  0.4036 -0.2000 -0.1180
 3316SOL    HW121584   3.540   4.533  12.455  1.5815 -1.0461 -4.2953
 3316SOL    HW221585   3.465   4.478  12.353  0.7280  0.3374 -0.0828
 3317SOL     OW21586   3.435   0.193   3.102 -0.5124  0.4531 -0.1646
 3317SOL    HW121587   3.469   0.112   3.064 -2.3158 -0.6466  0.5568
 3317SOL    HW221588   3.364   0.150   3.149  0.7440 -0.2032  1.1302
 3318SOL     OW21589   3.091   2.503   4.212 -0.2910 -0.3111  0.2895
 3318SOL    HW121590   3.020   2.454   4.170  0.8209 -2.0377  0.4343
 3318SOL    HW221591   3.037   2.577   4.240 -0.0453  0.9662 -2.6287
 3319SOL     OW21592   4.145   3.493   5.240 -0.2406 -0.1532  0.5053
 3319SOL    HW121593   4.151   3.425   5.174 -0.7118  1.8452 -1.6107
 3319SOL    HW221594   4.055   3.524   5.239  0.0738  0.7935  1.0042
 3320SOL     OW21595   3.749   1.476   5.585 -0.3742  0.2892  0.1811
 3320SOL    HW121596   3.676   1.510   5.534 -1.2758  0.9297  1.9235
 3320SOL    HW221597   3.802   1.556   5.581  0.7513 -0.4659  0.1035
 3321SOL     OW21598   2.846   1.548   5.000  0.1019  0.6965  0.3541
 3321SOL    HW121599   2.785   1.508   5.063  1.6738  0.4209  1.7111
 3321SOL    HW221600   2.788   1.607   4.952 -0.3191  1.7990  2.2005
 3322SOL     OW21601   1.082   1.825   3.311  0.0089  0.0394 -0.5962
 3322SOL    HW121602   1.088   1.780   3.226 -1.6337  0.0543 -0.7152
 3322SOL    HW221603   1.068   1.909   3.267  2.1632  1.0553  0.6841
 3323SOL     OW21604   4.116   0.899  15.501  0.2725  0.1468 -0.1556
 3323SOL    HW121605   4.155   0.979  15.466  1.3327 -0.4866 -0.4081
 3323SOL    HW221606   4.025   0.923  15.516  0.4054  1.2212 -1.0679
 3324SOL     OW21607   1.201   3.941   6.462 -0.1067 -0.0687  0.2331
 3324SOL    HW121608   1.106   3.942   6.474 -0.3945  0.3279 -2.0153
 3324SOL    HW221609   1.239   3.943   6.550  1.5668  0.7936 -0.5232
 3325SOL     OW21610   2.713   3.557   2.276 -0.3602 -0.2238  0.1956
 3325SOL    HW121611   2.738   3.510   2.356 -2.8404  1.5413  2.0102
 3325SOL    HW221612   2.644   3.507   2.234 -1.4229  0.7441  0.7933
 3326SOL     OW21613   0.188   4.495   6.183  0.0427 -0.1985 -0.0070
 3326SOL    HW121614   0.109   4.546   6.163  1.6965  2.6213  0.6503
 3326SOL    HW221615   0.158   4.410   6.215 -0.5822  0.7919  2.0209
 3327SOL     OW21616   2.492   2.740  13.107  0.3738  0.5530  0.0753
 3327SOL    HW121617   2.553   2.711  13.039 -1.9147 -3.4841 -0.2963
 3327SOL    HW221618   2.445   2.811  13.063 -3.6683 -2.6135 -0.7485
 3328SOL     OW21619   1.802   0.880   9.489  0.8644 -0.1850 -0.3640
 3328SOL    HW121620   1.797   0.867   9.394 -0.8360 -1.2744 -0.1327
 3328SOL    HW221621   1.897   0.873   9.496  0.7248 -0.9888  0.7454
 3329SOL     OW21622   2.147   3.038   6.721  0.2422  0.2797 -0.1324
 3329SOL    HW121623   2.206   3.005   6.654  0.5169  4.0085 -1.7457
 3329SOL    HW221624   2.063   3.025   6.676 -0.3495  0.7028  0.8436
 3330SOL     OW21625   0.722   4.569   5.831 -0.0141  0.1992  0.7702
 3330SOL    HW121626   0.650   4.508   5.818  0.7596 -0.8090  1.1760
 3330SOL    HW221627   0.726   4.586   5.926 -0.7803  0.9261  0.6662
 3331SOL     OW21628   1.349   0.591   7.073 -0.0549  0.0873  0.1274
 3331SOL    HW121629   1.284   0.537   7.029 -2.7148  2.1736  1.4739
 3331SOL    HW221630   1.425   0.574   7.018 -0.0205  0.6252  0.0047
 3332SOL     OW21631   0.471   1.972   8.772  0.0424 -0.4350  0.1768
 3332SOL    HW121632   0.531   2.040   8.800 -0.9101  0.7017 -0.5186
 3332SOL    HW221633   0.486   1.893   8.825  1.4117 -0.2052  0.1196
 3333SOL     OW21634   2.025   2.691   2.276  0.6933 -0.0953 -0.3449
 3333SOL    HW121635   2.119   2.705   2.262  0.9469 -1.0898  0.4272
 3333SOL    HW221636   1.994   2.720   2.190  0.1674 -1.6967 -0.6895
 3334SOL     OW21637   4.167   1.327  15.102 -0.0741 -0.3031 -0.0828
 3334SOL    HW121638   4.250   1.323  15.150  1.0960 -0.3840 -2.0976
 3334SOL    HW221639   4.101   1.353  15.167  0.1548 -0.8673  0.3753
 3335SOL     OW21640   2.991   0.613   3.073  0.5940 -0.0757  0.8344
 3335SOL    HW121641   2.919   0.665   3.036  0.6764 -1.6921 -1.5815
 3335SOL    HW221642   2.937   0.537   3.095  0.0824 -0.4630 -1.7541
 3336SOL     OW21643   2.354   3.790  13.536  0.5526 -1.3288  0.0988
 3336SOL    HW121644   2.309   3.749  13.462 -0.5704  1.3284 -0.6711
 3336SOL    HW221645   2.330   3.882  13.527  2.7969 -0.9051 -1.4800
 3337SOL     OW21646   1.550   3.607   5.154 -0.1832 -0.1740  0.0995
 3337SOL    HW121647   1.512   3.693   5.137 -2.5858 -1.3133 -0.2966
 3337SOL    HW221648   1.530   3.590   5.246 -0.4713 -1.0981 -0.1317
 3338SOL     OW21649   0.186   3.819  17.199 -0.1020  0.1782  0.3979
 3338SOL    HW121650   0.187   3.769  17.280  1.3846 -1.8346 -0.8497
 3338SOL    HW221651   0.100   3.859  17.205  0.2723  0.9623  0.6342
 3339SOL     OW21652   3.033   2.026   3.324  0.1214  0.6040 -0.2232
 3339SOL    HW121653   3.083   2.023   3.405 -1.1771  1.8723  0.6437
 3339SOL    HW221654   2.957   1.973   3.348  0.1263  0.8081  0.2492
 3340SOL     OW21655   1.455   0.903   0.693  0.2283 -0.2508 -0.2532
 3340SOL    HW121656   1.491   0.948   0.769 -0.2067 -1.8488  0.9038
 3340SOL    HW221657   1.436   0.975   0.633 -0.6847 -1.9888 -2.0371
 3341SOL     OW21658   0.982   1.985  13.025  0.1247  0.3113  0.2240
 3341SOL    HW121659   1.055   1.948  13.075  0.2043  1.3856  0.9172
 3341SOL    HW221660   0.918   1.945  13.084  1.1603 -0.6572  0.6769
 3342SOL     OW21661   2.874   3.445   4.384 -0.1484  0.2521  0.3655
 3342SOL    HW121662   2.864   3.499   4.462 -0.5928  2.7072 -1.4057
 3342SOL    HW221663   2.918   3.505   4.324  0.4945 -1.0894 -0.5012
 3343SOL     OW21664   1.849   0.117   5.210  0.0791  0.1886 -0.0085
 3343SOL    HW121665   1.928   0.133   5.261  0.1357 -2.3309  0.6845
 3343SOL    HW221666   1.780   0.159   5.260 -0.8822 -1.4527  0.0592
 3344SOL     OW21667   2.792   3.085   8.772  0.0735  0.1927 -0.1611
 3344SOL    HW121668   2.733   3.124   8.708  0.2261 -1.1772 -1.1297
 3344SOL    HW221669   2.802   3.156   8.836  2.2914 -1.3769  1.2421
 3345SOL     OW21670   1.416   1.138   3.184 -0.6859  0.2807  0.0795
 3345SOL    HW121671   1.452   1.201   3.122  0.6197 -1.1550 -0.6240
 3345SOL    HW221672   1.326   1.167   3.192 -0.5786  0.7263 -0.3493
 3346SOL     OW21673   0.935   2.141   8.567 -0.3647  0.4217  0.0023
 3346SOL    HW121674   0.989   2.071   8.603 -1.8568 -0.7072  0.0671
 3346SOL    HW221675   0.870   2.088   8.521 -2.2014  0.9449  1.9665
 3347SOL     OW21676   2.923   1.698   0.349 -0.4315 -0.6348  0.1130
 3347SOL    HW121677   2.948   1.753   0.424  2.7590 -1.8435 -0.1112
 3347SOL    HW221678   2.956   1.613   0.376 -0.6714  0.0279  2.5567
 3348SOL     OW21679   3.457   2.676   4.548  0.0944 -0.6540 -0.1736
 3348SOL    HW121680   3.377   2.728   4.541 -2.2732 -4.3719 -0.2528
 3348SOL    HW221681   3.442   2.620   4.624 -2.2335 -2.2359 -1.8234
 3349SOL     OW21682   0.409   4.581   3.973 -0.1244 -0.5338 -0.2899
 3349SOL    HW121683   0.325   4.610   3.937  0.1971  0.6364 -0.1169
 3349SOL    HW221684   0.430   4.500   3.926 -0.1217  0.1753 -1.5014
 3350SOL     OW21685   4.244   4.688  10.000 -0.1092  0.0326 -0.3540
 3350SOL    HW121686   4.199   4.712   9.919  0.8914  0.2202 -0.8549
 3350SOL    HW221687   4.173   4.678  10.063 -0.8214  0.8482 -1.0313
 3351SOL     OW21688   3.647   4.562   7.197 -0.7812 -0.0059  0.1615
 3351SOL    HW121689   3.632   4.470   7.174 -0.0102 -0.2463  0.6312
 3351SOL    HW221690   3.572   4.573   7.256 -0.3787  0.2356  0.6188
 3352SOL     OW21691   3.962   2.447   3.574  0.2380 -0.3452  0.9254
 3352SOL    HW121692   3.991   2.356   3.586  1.7612  0.1529  1.0567
 3352SOL    HW221693   3.952   2.481   3.662 -1.8607  0.5969  0.3244
 3353SOL     OW21694   4.357   2.074   8.376 -0.4886 -0.3645 -0.7766
 3353SOL    HW121695   4.439   2.047   8.418  0.9442  2.6604 -1.6231
 3353SOL    HW221696   4.328   2.156   8.416  2.1404  0.8308 -1.2834
 3354SOL     OW21697   0.738   0.912   6.148 -0.0193 -0.2893  0.0473
 3354SOL    HW121698   0.746   0.827   6.105 -1.2646 -1.4115  2.0751
 3354SOL    HW221699   0.766   0.888   6.237  0.0615 -1.0609 -0.1867
 3355SOL     OW21700   1.878   2.969  10.345  0.5362  0.0080  0.5554
 3355SOL    HW121701   1.885   2.880  10.311  0.0902  0.2134 -0.0787
 3355SOL    HW221702   1.821   2.956  10.421  1.2572  3.8873  1.7346
 3356SOL     OW21703   0.203   1.698   2.399 -0.1264 -1.0864  0.1480
 3356SOL    HW121704   0.261   1.712   2.475 -1.3288 -1.0479  1.0537
 3356SOL    HW221705   0.232   1.776   2.351 -2.9185 -1.1525 -1.6433
 3357SOL     OW21706   3.371   3.064   8.356 -0.1304  0.5147 -0.4751
 3357SOL    HW121707   3.283   3.061   8.394  0.1501 -1.1175  0.0225
 3357SOL    HW221708   3.337   3.057   8.267 -2.0210  2.5717  0.0654
 3358SOL     OW21709   2.299   3.316  13.945  0.6927  0.6878  0.2258
 3358SOL    HW121710   2.217   3.353  13.912  1.9204  1.9557 -1.4041
 3358SOL    HW221711   2.344   3.290  13.865  1.8525  0.2580  1.0278
 3359SOL     OW21712   1.069   0.739  10.010  0.1824  0.0990 -0.0256
 3359SOL    HW121713   1.018   0.659  10.023 -1.1352  0.9120 -0.1160
 3359SOL    HW221714   1.027   0.767   9.928 -0.9451 -1.6631 -0.0439
 3360SOL     OW21715   1.941   0.915   4.421  0.1296  0.0481  0.3794
 3360SOL    HW121716   2.003   0.983   4.445  0.4989 -0.4722  0.9064
 3360SOL    HW221717   1.903   0.960   4.346  0.8255  1.7913  1.0797
 3361SOL     OW21718   2.667   4.718   5.897  0.0346  0.4032 -0.5103
 3361SOL    HW121719   2.626   0.004   5.980  1.0811 -0.3575  0.2306
 3361SOL    HW221720   2.591   4.738   5.842 -0.8762 -1.6913 -0.0184
 3362SOL     OW21721   1.450   0.580   3.936 -0.0624  0.5951 -0.4073
 3362SOL    HW121722   1.517   0.525   3.976 -2.6218 -2.8382 -0.8711
 3362SOL    HW221723   1.469   0.662   3.982 -0.6172  0.8559 -0.6392
 3363SOL     OW21724   3.882   2.249   5.012  0.8784  0.1872 -0.4525
 3363SOL    HW121725   3.833   2.201   4.946  3.9544 -1.4219 -1.5761
 3363SOL    HW221726   3.841   2.334   4.996  0.9135  0.4221  0.6760
 3364SOL     OW21727   1.273   0.955   9.473  0.4253  0.4284 -0.1793
 3364SOL    HW121728   1.319   0.882   9.430 -1.3652 -1.2990  0.8081
 3364SOL    HW221729   1.216   0.908   9.534  1.8373  0.2618  1.0167
 3365SOL     OW21730   1.432   0.092   2.147  0.4376 -0.1536 -0.3494
 3365SOL    HW121731   1.509   0.136   2.111 -0.5336  1.9327  0.0661
 3365SOL    HW221732   1.469   0.067   2.231  1.2660  0.3835 -0.5595
 3366SOL     OW21733   1.526   1.657  15.231 -0.3186  0.0089 -0.0841
 3366SOL    HW121734   1.491   1.633  15.317  1.0391 -0.5446  0.3011
 3366SOL    HW221735   1.447   1.673  15.179 -1.0230 -0.2563  0.9139
 3367SOL     OW21736   0.879   2.722   2.728 -0.0115 -0.6738 -0.4325
 3367SOL    HW121737   0.832   2.794   2.686  0.6372  0.0956  0.1415
 3367SOL    HW221738   0.851   2.724   2.819 -1.1608 -0.0374 -0.8043
 3368SOL     OW21739   3.818   3.171  17.388 -0.5394 -0.6125 -0.7290
 3368SOL    HW121740   3.813   3.263  17.413  3.6706 -1.1441  2.0385
 3368SOL    HW221741   3.733   3.140  17.419 -1.5846  1.4530 -1.5387
 3369SOL     OW21742   4.454   0.897   6.638  0.5933  0.1025 -0.0468
 3369SOL    HW121743   4.535   0.847   6.632  0.2538 -0.4778  0.1950
 3369SOL    HW221744   4.395   0.824   6.658 -0.8518  1.5951  1.1373
 3370SOL     OW21745   3.812   3.126   8.544 -0.7503 -0.1184 -0.5299
 3370SOL    HW121746   3.857   3.202   8.582 -1.2113  0.4812 -1.1933
 3370SOL    HW221747   3.754   3.159   8.476  0.4129  1.6601 -0.6460
 3371SOL     OW21748   2.490   3.683   6.774  0.0897  0.0909 -0.4649
 3371SOL    HW121749   2.467   3.608   6.828  0.9660  1.2082  1.4418
 3371SOL    HW221750   2.436   3.660   6.699  1.1453  3.1257 -2.1849
 3372SOL     OW21751   4.611   2.620  10.691  0.2086 -0.5970  0.5998
 3372SOL    HW121752   4.622   2.613  10.786 -2.8472 -0.9631  0.9322
 3372SOL    HW221753   4.579   2.709  10.680 -0.3483 -1.0428 -1.2969
 3373SOL     OW21754   1.103   4.220   5.843  0.5227 -0.4897  0.6871
 3373SOL    HW121755   1.118   4.303   5.797 -0.4642 -1.2279 -0.9795
 3373SOL    HW221756   1.016   4.221   5.883  0.5984 -0.7932  0.8618
 3374SOL     OW21757   4.595   3.572   5.303 -0.0587 -0.0727 -0.0705
 3374SOL    HW121758   4.670   3.524   5.339  0.5909  1.4274  0.5531
 3374SOL    HW221759   4.529   3.503   5.310  0.3794 -0.4383  0.5309
 3375SOL     OW21760   4.377   4.104   3.052  0.6607 -0.4478 -0.2456
 3375SOL    HW121761   4.466   4.139   3.056  1.4081 -2.1751 -1.9935
 3375SOL    HW221762   4.399   4.041   2.984 -1.9520 -0.6352 -0.9059
 3376SOL     OW21763   2.003   0.113   9.902  0.2813 -0.2659  0.1005
 3376SOL    HW121764   1.909   0.109   9.921 -0.0290  2.3148 -0.8315
 3376SOL    HW221765   2.024   0.021   9.914  2.0627  0.2920  1.2980
 3377SOL     OW21766   2.203   0.509   0.049 -0.0095 -0.0099  0.3557
 3377SOL    HW121767   2.190   0.485   0.140  1.7319  0.1100  0.6283
 3377SOL    HW221768   2.262   0.583   0.065 -2.0082  1.3615  1.3056
 3378SOL     OW21769   2.050   4.603   8.940  0.0217 -0.4886  0.2167
 3378SOL    HW121770   2.146   4.601   8.936  0.0178  1.3125 -0.7115
 3378SOL    HW221771   2.030   4.681   8.888 -1.7071 -1.0313  0.0655
 3379SOL     OW21772   4.618   0.301   5.711  0.2730 -0.3660 -0.1902
 3379SOL    HW121773   4.680   0.370   5.690 -1.1054  1.3358  1.4320
 3379SOL    HW221774   4.619   0.238   5.638 -0.1804 -1.4790  0.7515
 3380SOL     OW21775   1.438   3.237  13.599  0.0565 -0.6625 -0.2317
 3380SOL    HW121776   1.504   3.304  13.616 -0.1694 -0.5453  0.1785
 3380SOL    HW221777   1.357   3.283  13.624 -0.8892 -1.2132 -2.2259
 3381SOL     OW21778   1.330   3.112  17.018  0.0684 -0.3258 -0.1888
 3381SOL    HW121779   1.240   3.117  16.986 -0.5543  1.0454  1.8039
 3381SOL    HW221780   1.366   3.199  17.036  0.2847 -0.6848  1.0916
 3382SOL     OW21781   4.287   4.323   3.201 -0.2117 -0.2828 -0.3749
 3382SOL    HW121782   4.323   4.243   3.163  1.8536  0.4784 -0.0188
 3382SOL    HW221783   4.356   4.337   3.266 -0.6405  2.0727 -0.4097
 3383SOL     OW21784   3.257   1.147   4.448 -0.1227 -0.0101 -0.0636
 3383SOL    HW121785   3.247   1.070   4.392 -1.2760  1.0340 -1.3002
 3383SOL    HW221786   3.221   1.208   4.384  2.4765  0.9004 -0.6418
 3384SOL     OW21787   1.410   3.721   7.720 -0.0561 -0.5914  0.9806
 3384SOL    HW121788   1.502   3.727   7.745 -0.3888 -2.7162  2.6660
 3384SOL    HW221789   1.380   3.812   7.724 -0.6874 -0.9382  3.7506
 3385SOL     OW21790   1.827   2.791   6.123 -0.3483  0.0670  0.2037
 3385SOL    HW121791   1.763   2.805   6.192 -0.5445 -1.6841  0.3679
 3385SOL    HW221792   1.793   2.856   6.061  1.0788  1.0638  0.4641
 3386SOL     OW21793   0.620   3.285   6.632 -1.4994 -0.2731 -0.7233
 3386SOL    HW121794   0.566   3.248   6.702  0.8831  0.3157  1.4095
 3386SOL    HW221795   0.700   3.318   6.674 -2.1066  0.2929  0.0095
 3387SOL     OW21796   3.894   0.242   8.042 -0.1469 -0.1616  0.1083
 3387SOL    HW121797   3.847   0.159   8.032 -1.0532  0.4185 -0.4527
 3387SOL    HW221798   3.894   0.242   8.138  1.7298 -0.6777  0.1226
 3388SOL     OW21799   3.775   0.545  15.223  0.0927 -0.4807  0.0431
 3388SOL    HW121800   3.819   0.561  15.306 -2.2057  1.8390  0.8157
 3388SOL    HW221801   3.824   0.605  15.166  1.6658 -1.0777  0.7682
 3389SOL     OW21802   3.667   2.382   5.205  0.6446 -0.1363 -0.0528
 3389SOL    HW121803   3.585   2.432   5.205  0.4061 -0.5226 -0.7142
 3389SOL    HW221804   3.724   2.445   5.248 -1.0191  1.2864  0.0668
 3390SOL     OW21805   4.127   1.743   3.369  0.3863 -0.3869  0.2286
 3390SOL    HW121806   4.213   1.704   3.383 -0.3647 -1.2734  2.3992
 3390SOL    HW221807   4.104   1.738   3.461  0.9785 -2.0437  0.2908
 3391SOL     OW21808   2.023   1.013   5.283  0.9693 -0.4558 -0.4162
 3391SOL    HW121809   1.937   1.032   5.245  1.2966  0.0346 -0.9000
 3391SOL    HW221810   2.018   1.071   5.359 -0.2359  0.5500 -1.2489
 3392SOL     OW21811   3.671   4.420   8.902 -0.7124  0.0431 -0.1887
 3392SOL    HW121812   3.718   4.503   8.900  3.2730 -2.2128 -2.0953
 3392SOL    HW221813   3.707   4.379   8.980  0.0823  2.6274  0.7984
 3393SOL     OW21814   4.375   4.446  15.408  0.3928  0.3185  0.0833
 3393SOL    HW121815   4.425   4.367  15.388  2.6369  1.2785  1.9969
 3393SOL    HW221816   4.431   4.479  15.478 -0.0708 -0.9882  1.0872
 3394SOL     OW21817   1.519   0.532   1.423  0.2603 -0.0648  0.4811
 3394SOL    HW121818   1.516   0.465   1.354  1.6470  0.0493  0.3224
 3394SOL    HW221819   1.453   0.491   1.478 -0.3673 -0.0007 -0.2136
 3395SOL     OW21820   4.372   4.352   0.805 -0.3620  0.0614 -0.5068
 3395SOL    HW121821   4.364   4.268   0.761  2.6777 -0.9994  0.9807
 3395SOL    HW221822   4.283   4.386   0.797 -0.3527  0.4686  1.1325
 3396SOL     OW21823   3.824   3.875   3.161  0.2265  0.0749 -0.4630
 3396SOL    HW121824   3.885   3.934   3.205 -0.1993 -0.5370  0.9598
 3396SOL    HW221825   3.820   3.915   3.074  0.0817  0.9917 -0.0296
 3397SOL     OW21826   0.457   3.824  12.929  0.3561  0.2054 -0.1629
 3397SOL    HW121827   0.398   3.866  12.867 -0.8452 -1.2702 -0.0183
 3397SOL    HW221828   0.534   3.819  12.872 -0.4642 -3.1296 -0.9527
 3398SOL     OW21829   1.625   2.365   7.748 -0.1251  0.2575 -0.3740
 3398SOL    HW121830   1.541   2.405   7.727  0.3512  1.3180 -0.2518
 3398SOL    HW221831   1.676   2.364   7.667 -1.9952  0.5557 -1.5516
 3399SOL     OW21832   3.063   0.093  14.439 -0.6945  0.5674 -0.7467
 3399SOL    HW121833   3.116   0.073  14.516  0.5347  3.3018 -0.8981
 3399SOL    HW221834   2.993   0.146  14.476 -0.6050  0.0335  0.2021
 3400SOL     OW21835   2.149   0.691   1.864 -0.1855  0.3386  1.4758
 3400SOL    HW121836   2.167   0.672   1.956  0.4313  1.7999  1.6396
 3400SOL    HW221837   2.241   0.694   1.838 -0.2319 -0.1055  1.2552
 3401SOL     OW21838   2.179   1.677  17.216  0.3420 -0.0411  0.5043
 3401SOL    HW121839   2.127   1.635  17.147  1.2522  1.5838 -1.1715
 3401SOL    HW221840   2.120   1.746  17.246  1.0482  1.0596 -0.6089
 3402SOL     OW21841   4.379   2.366   3.968 -0.1552  0.0587 -0.1077
 3402SOL    HW121842   4.432   2.430   3.920  1.0023 -1.2790 -0.6235
 3402SOL    HW221843   4.378   2.401   4.057 -0.1517  2.8727 -1.2203
 3403SOL     OW21844   3.237   1.222   5.364 -0.0970  0.8347 -0.3276
 3403SOL    HW121845   3.241   1.158   5.293  2.6326 -1.2857  1.7756
 3403SOL    HW221846   3.288   1.184   5.435 -1.8692 -0.7014  0.1421
 3404SOL     OW21847   0.994   0.754   3.199  0.2679 -0.7570 -0.1432
 3404SOL    HW121848   0.977   0.842   3.234  1.1316  0.5742 -3.0194
 3404SOL    HW221849   1.085   0.739   3.224  0.6892 -0.5961 -1.5287
 3405SOL     OW21850   1.607   2.946   2.338 -0.5580 -0.0362  0.7709
 3405SOL    HW121851   1.521   2.958   2.378 -0.9015  0.8834 -0.2312
 3405SOL    HW221852   1.589   2.933   2.245  0.4383  0.0114  0.5667
 3406SOL     OW21853   1.904   2.349   6.202  0.2574 -0.4698  0.2835
 3406SOL    HW121854   1.961   2.387   6.134  1.4658 -0.1815  1.4687
 3406SOL    HW221855   1.886   2.429   6.252  0.9296  1.0340 -1.8768
 3407SOL     OW21856   2.766   2.819   8.823  0.0134 -0.2847  0.6455
 3407SOL    HW121857   2.846   2.772   8.845  0.0870  0.1474  1.2976
 3407SOL    HW221858   2.777   2.913   8.835  1.0517 -0.2114 -0.9615
 3408SOL     OW21859   1.808   1.271  10.228 -0.3121  0.5358  0.0274
 3408SOL    HW121860   1.716   1.248  10.218 -0.0434 -0.7299  0.4760
 3408SOL    HW221861   1.814   1.283  10.323 -1.1465  1.0077  0.0150
 3409SOL     OW21862   2.555   0.952   3.603 -0.3293  0.4483 -0.4523
 3409SOL    HW121863   2.626   0.901   3.642 -1.3982 -1.7759 -1.4649
 3409SOL    HW221864   2.479   0.922   3.652  1.0190 -1.0472  0.7080
 3410SOL     OW21865   4.717   4.663   5.445 -0.8841  0.2206 -0.5107
 3410SOL    HW121866   4.690   4.626   5.360 -0.0976  0.9894 -1.0957
 3410SOL    HW221867   4.688   4.595   5.505  4.1524 -1.5060 -0.0992
 3411SOL     OW21868   4.536   0.111   4.367  0.3481  0.3785 -0.2891
 3411SOL    HW121869   4.542   0.035   4.308 -0.0869  2.1642 -2.6402
 3411SOL    HW221870   4.551   0.077   4.455  3.9231  0.7109 -0.7861
 3412SOL     OW21871   0.406   1.656   7.096  0.6833  0.5865 -0.2945
 3412SOL    HW121872   0.453   1.683   7.176 -0.8229 -1.1722  1.1737
 3412SOL    HW221873   0.391   1.569   7.132  1.7330 -0.2007 -1.7811
 3413SOL     OW21874   2.932   3.216   3.757  0.0075  0.4818 -0.2200
 3413SOL    HW121875   2.894   3.128   3.749 -1.4592  0.9697  1.5168
 3413SOL    HW221876   2.880   3.261   3.691  2.2471 -0.5160 -2.6617
 3414SOL     OW21877   0.247   3.414  16.381  0.1284  0.0096  0.0338
 3414SOL    HW121878   0.180   3.374  16.435 -0.3408  1.9441  0.8891
 3414SOL    HW221879   0.223   3.507  16.379  1.8095  0.4460 -0.6496
 3415SOL     OW21880   0.050   4.200   5.080  0.3016  0.5462 -0.2816
 3415SOL    HW121881   0.142   4.217   5.100 -0.5248  2.1791  2.1269
 3415SOL    HW221882   0.061   4.152   4.998 -2.2249 -0.4132 -0.0724
 3416SOL     OW21883   1.715   3.077   9.833  0.2688  0.1220 -0.1171
 3416SOL    HW121884   1.622   3.070   9.853  0.5485  2.6632  2.0052
 3416SOL    HW221885   1.733   2.983   9.837  3.2063  0.5690 -2.4862
 3417SOL     OW21886   3.519   3.315  12.056 -0.5472  0.2364 -0.0537
 3417SOL    HW121887   3.511   3.293  12.149 -1.9477  0.9183 -0.0145
 3417SOL    HW221888   3.492   3.231  12.020 -0.4599  0.5298 -0.8120
 3418SOL     OW21889   3.422   0.981  12.408 -0.4181  0.2233 -0.0369
 3418SOL    HW121890   3.456   0.989  12.497 -0.3071 -0.9313  0.0213
 3418SOL    HW221891   3.329   1.005  12.412 -0.7263 -0.8755 -0.8780
 3419SOL     OW21892   1.060   4.529   8.562  0.3539  0.3938  0.1114
 3419SOL    HW121893   1.079   4.503   8.653  1.8086 -3.1730 -1.1772
 3419SOL    HW221894   1.088   4.447   8.520 -2.6477 -0.5960  0.0517
 3420SOL     OW21895   0.972   1.356   4.424 -0.1841 -0.0233  0.1299
 3420SOL    HW121896   0.998   1.288   4.361 -0.1801  0.6217 -0.5606
 3420SOL    HW221897   1.051   1.352   4.479  0.3804 -1.4623 -0.7740
 3421SOL     OW21898   3.194   4.083   7.716 -0.1555  0.1168 -0.1575
 3421SOL    HW121899   3.135   4.080   7.641  1.0829  2.9699 -1.2521
 3421SOL    HW221900   3.130   4.090   7.787 -0.7231  1.2410 -0.7771
 3422SOL     OW21901   2.531   1.870  17.208  0.1773 -0.3813 -0.2352
 3422SOL    HW121902   2.573   1.943  17.254  0.0460 -0.4559  0.0073
 3422SOL    HW221903   2.499   1.908  17.127  0.3492  0.0781 -0.0896
 3423SOL     OW21904   1.629   0.635   3.125  0.2894 -0.3535 -0.2056
 3423SOL    HW121905   1.658   0.582   3.051  1.6030  3.6291 -2.5338
 3423SOL    HW221906   1.641   0.717   3.078  0.7110 -0.1959  0.1830
 3424SOL     OW21907   1.563   1.624   0.489  0.0340  0.5715  0.2904
 3424SOL    HW121908   1.506   1.552   0.462 -0.6647  0.5684  1.8148
 3424SOL    HW221909   1.579   1.662   0.402 -0.0550 -1.1410 -0.4677
 3425SOL     OW21910   0.169   3.590  17.734  0.0664  0.5247  0.4201
 3425SOL    HW121911   0.124   3.650   0.043 -2.1768  0.7877 -1.4794
 3425SOL    HW221912   0.256   3.595   0.021  0.8370 -0.4289 -1.2078
 3426SOL     OW21913   0.318   2.604   3.836 -0.1036  0.5660  0.8169
 3426SOL    HW121914   0.392   2.637   3.785 -0.1444  0.0536  0.4226
 3426SOL    HW221915   0.275   2.540   3.778  0.9553 -0.0508  0.7177
 3427SOL     OW21916   2.877   4.099   7.439 -0.0329  0.6479 -0.1451
 3427SOL    HW121917   2.782   4.086   7.439 -0.0099  0.5093 -1.7638
 3427SOL    HW221918   2.915   4.034   7.381  0.7438  1.3606 -0.4300
 3428SOL     OW21919   0.149   1.847   0.140  0.0494 -0.4825 -0.0300
 3428SOL    HW121920   0.158   1.753   0.158 -1.4541 -0.3166  1.5810
 3428SOL    HW221921   0.057   1.854   0.114 -0.1033  0.6369  0.8285
 3429SOL     OW21922   3.664   1.361  15.962 -0.4165  0.0084 -0.0994
 3429SOL    HW121923   3.754   1.389  15.947 -0.3633  0.1359  0.4709
 3429SOL    HW221924   3.668   1.268  15.938  0.7026 -0.0888  0.4694
 3430SOL     OW21925   1.234   3.137   5.926  0.1604  0.1827 -0.4137
 3430SOL    HW121926   1.297   3.196   5.967 -1.2423  1.3787  0.0503
 3430SOL    HW221927   1.295   3.088   5.871 -1.3838 -2.0154 -0.1670
 3431SOL     OW21928   4.407   0.894   8.161  0.4917  0.0261  0.1745
 3431SOL    HW121929   4.419   0.800   8.176 -0.1311 -0.3270 -1.5089
 3431SOL    HW221930   4.496   0.924   8.181  0.9395 -1.3994  0.3778
 3432SOL     OW21931   1.424   1.926   8.433 -0.1514 -0.1984 -0.0393
 3432SOL    HW121932   1.332   1.953   8.433 -0.3415 -0.8659 -1.0606
 3432SOL    HW221933   1.425   1.833   8.457 -1.4710 -0.0951  0.3958
 3433SOL     OW21934   3.601   4.514  11.184  0.1431  0.5657  0.4440
 3433SOL    HW121935   3.635   4.545  11.100 -0.2852 -1.1049 -0.3432
 3433SOL    HW221936   3.563   4.598  11.212  0.9254  0.7858  0.8482
 3434SOL     OW21937   0.762   3.395   3.260  0.0902  0.4361 -0.0968
 3434SOL    HW121938   0.826   3.441   3.205 -1.2591  1.5165 -0.7500
 3434SOL    HW221939   0.809   3.313   3.277 -1.7942 -0.9625 -1.6196
 3435SOL     OW21940   2.807   3.331   5.960 -0.1543 -0.3728  0.0426
 3435SOL    HW121941   2.881   3.357   6.016 -1.6100  1.8134  0.9345
 3435SOL    HW221942   2.812   3.391   5.885 -1.0140 -0.1892  0.1391
 3436SOL     OW21943   1.223   1.179   9.010  0.0029 -0.3212  0.0623
 3436SOL    HW121944   1.277   1.221   8.943 -0.4982 -1.6687 -1.1820
 3436SOL    HW221945   1.283   1.193   9.084 -0.4228  2.6519 -0.1723
 3437SOL     OW21946   0.185   1.309   1.078 -0.1232 -0.1473  0.0879
 3437SOL    HW121947   0.225   1.239   1.130  0.5330 -0.0456 -0.2844
 3437SOL    HW221948   0.158   1.369   1.147  0.4795  0.3411 -0.1028
 3438SOL     OW21949   3.033   2.434   8.552  0.2071 -0.3814  0.6761
 3438SOL    HW121950   2.979   2.384   8.490  0.3440  0.5164 -0.1788
 3438SOL    HW221951   2.977   2.443   8.629 -3.5435 -2.6738 -1.7753
 3439SOL     OW21952   4.461   0.051   5.023 -0.0866  0.2400  0.5891
 3439SOL    HW121953   4.534   0.076   4.966 -1.8561  2.6617 -0.6032
 3439SOL    HW221954   4.498   4.737   5.094 -0.6731  1.8349  2.0620
 3440SOL     OW21955   4.704   1.732  17.439  0.1760  0.2855 -0.0987
 3440SOL    HW121956   4.623   1.778  17.420  1.0170  1.6996 -0.2791
 3440SOL    HW221957   0.012   1.764  17.362 -0.7708  1.2616 -0.2601
 3441SOL     OW21958   3.740   4.611   8.494  0.4545 -0.0715  0.5516
 3441SOL    HW121959   3.700   4.692   8.525 -1.9723 -0.4658 -1.4551
 3441SOL    HW221960   3.683   4.544   8.533 -2.0683  0.5621 -2.0217
 3442SOL     OW21961   0.280   1.286  16.623 -0.0687 -0.0357  0.0875
 3442SOL    HW121962   0.330   1.286  16.541  0.5105 -1.3945  0.4478
 3442SOL    HW221963   0.248   1.196  16.616 -0.0064 -0.1206  0.8651
 3443SOL     OW21964   0.587   0.793   9.516  0.0700  0.6672  0.3623
 3443SOL    HW121965   0.665   0.792   9.461  0.7647 -3.5101  1.4339
 3443SOL    HW221966   0.528   0.733   9.471 -1.8833  1.8752  1.2984
 3444SOL     OW21967   2.252   4.295  13.278 -0.1349  0.0992  0.4528
 3444SOL    HW121968   2.186   4.251  13.224  0.6650  1.8735 -1.9609
 3444SOL    HW221969   2.327   4.235  13.275  1.7753  2.4708  0.0814
 3445SOL     OW21970   2.398   0.257  11.812 -0.1776  0.3213  0.3653
 3445SOL    HW121971   2.455   0.182  11.828  0.4033  1.1639  2.2136
 3445SOL    HW221972   2.405   0.263  11.717 -1.9912  2.0322  0.3435
 3446SOL     OW21973   2.732   2.515   6.962  0.4146 -0.5777  0.4282
 3446SOL    HW121974   2.738   2.543   7.054  2.3549 -1.7557  0.6660
 3446SOL    HW221975   2.821   2.520   6.926  0.1599 -2.2599 -0.4201
 3447SOL     OW21976   3.349   1.016   8.096  0.5032 -0.2353 -0.4275
 3447SOL    HW121977   3.282   0.965   8.050 -0.0988  0.1223  0.0395
 3447SOL    HW221978   3.325   1.001   8.187 -2.1537 -1.6434 -1.3349
 3448SOL     OW21979   0.286   1.709  14.690 -0.4546  0.3525 -0.0417
 3448SOL    HW121980   0.257   1.709  14.781 -2.0802  2.3063 -0.5650
 3448SOL    HW221981   0.380   1.724  14.689  0.1656 -3.0828  4.6432
 3449SOL     OW21982   4.733   1.010   8.506  0.0958 -0.1685  0.0709
 3449SOL    HW121983   0.049   1.086   8.529 -1.1779  0.4026  1.2049
 3449SOL    HW221984   4.727   0.967   8.591  0.0420 -0.1286  0.0873
 3450SOL     OW21985   2.744   2.019  11.770 -0.9053 -0.1770  0.3042
 3450SOL    HW121986   2.786   1.998  11.686 -0.0493  1.8590  0.2275
 3450SOL    HW221987   2.655   2.051  11.756 -0.4509  0.4516 -1.1508
 3451SOL     OW21988   0.061   3.837  10.054  0.0468 -0.2437 -0.4121
 3451SOL    HW121989   0.026   3.923  10.032 -2.5345 -1.0326  0.5934
 3451SOL    HW221990   0.061   3.827  10.149  0.2574  0.5760 -0.3284
 3452SOL     OW21991   1.473   2.952   1.421 -0.0999 -0.6629 -0.4776
 3452SOL    HW121992   1.426   2.959   1.337 -0.5193 -0.8409 -0.2602
 3452SOL    HW221993   1.399   2.952   1.482  0.4113  0.7478  0.1278
 3453SOL     OW21994   0.515   3.983   4.030  0.1612  0.3259 -0.0371
 3453SOL    HW121995   0.556   4.009   4.113  0.3546  0.2529 -0.1103
 3453SOL    HW221996   0.582   3.930   3.988  1.3255  0.0219  2.1912
 3454SOL     OW21997   1.095   4.175  16.014  0.6092  0.4897  0.3464
 3454SOL    HW121998   1.040   4.125  16.076 -1.5134  0.6390 -1.4115
 3454SOL    HW221999   1.128   4.113  15.949 -2.1047 -0.3529 -0.2451
 3455SOL     OW22000   2.174   3.631   3.919  0.3097 -0.4438  0.0471
 3455SOL    HW122001   2.250   3.689   3.921 -0.3009  0.4302 -1.7085
 3455SOL    HW222002   2.178   3.591   4.006  2.1381 -1.1939 -0.3958
 3456SOL     OW22003   3.297   2.118  14.425  0.6057  0.0733 -0.0628
 3456SOL    HW122004   3.327   2.207  14.410  2.1220 -0.3542  0.4244
 3456SOL    HW222005   3.241   2.132  14.501  3.2019  1.7518  1.5488
 3457SOL     OW22006   0.884   1.910   4.109  0.3610 -0.7689 -0.4441
 3457SOL    HW122007   0.905   1.979   4.046  0.3157  0.3617  0.7782
 3457SOL    HW222008   0.939   1.946   4.178  1.2272 -0.3626 -1.3503
 3458SOL     OW22009   2.649   1.894   4.655  0.6307  0.4063 -0.3119
 3458SOL    HW122010   2.571   1.916   4.707 -0.2247 -0.7985 -1.0822
 3458SOL    HW222011   2.597   1.888   4.575  0.1053 -1.4854  0.1624
 3459SOL     OW22012   0.190   0.358   4.964  0.9703 -0.4170  0.0764
 3459SOL    HW122013   0.227   0.402   5.041 -0.7766  1.1296  0.0199
 3459SOL    HW222014   0.121   0.418   4.936 -1.9150 -2.5526  2.6499
 3460SOL     OW22015   0.111   3.038  17.013 -0.5904 -0.3174 -0.1044
 3460SOL    HW122016   0.033   3.050  17.067  1.2773 -1.7941  2.8813
 3460SOL    HW222017   0.124   2.944  17.023 -1.5084 -0.7010 -2.5838
 3461SOL     OW22018   0.775   1.626   3.400  0.2067 -0.3524  0.1504
 3461SOL    HW122019   0.853   1.651   3.448 -0.3891  1.7423  0.0126
 3461SOL    HW222020   0.803   1.629   3.308 -0.3344 -1.6123 -0.0588
 3462SOL     OW22021   3.866   0.449  16.683 -0.5443  0.5694  0.0658
 3462SOL    HW122022   3.960   0.434  16.672 -0.6312  0.1955 -0.1629
 3462SOL    HW222023   3.854   0.483  16.771  1.3308  2.3392 -0.3666
 3463SOL     OW22024   2.814   2.553  14.982 -0.1853  0.2547  0.1391
 3463SOL    HW122025   2.727   2.511  14.982  0.5404 -1.2954  1.9669
 3463SOL    HW222026   2.881   2.484  14.980 -0.1401  0.1034  5.4262
 3464SOL     OW22027   4.640   2.567   2.437  0.4407  0.5044 -0.0288
 3464SOL    HW122028   4.719   2.597   2.483  1.2805 -0.0952 -1.0857
 3464SOL    HW222029   4.644   2.633   2.367 -0.0811 -2.0283 -2.4756
 3465SOL     OW22030   1.287   3.104   2.023  1.0802 -0.7022 -0.3938
 3465SOL    HW122031   1.272   3.167   1.953  0.5581 -0.9529 -0.5037
 3465SOL    HW222032   1.202   3.060   2.025  0.5089  0.4747  1.2736
 3466SOL     OW22033   0.170   1.216   7.577 -0.5125 -0.0380 -0.0254
 3466SOL    HW122034   0.264   1.202   7.585 -0.5594 -0.1670  0.2853
 3466SOL    HW222035   0.161   1.302   7.619 -0.6007  0.3912 -0.9195
 3467SOL     OW22036   4.315   4.312   5.739  0.2065 -0.1138 -0.3754
 3467SOL    HW122037   4.235   4.354   5.772  0.6344  0.6190 -0.2830
 3467SOL    HW222038   4.353   4.270   5.817  2.9130  1.7922 -0.6751
 3468SOL     OW22039   2.538   4.436   8.193  0.1616 -0.5213 -0.1224
 3468SOL    HW122040   2.621   4.438   8.242 -1.2670  3.0564  2.0983
 3468SOL    HW222041   2.495   4.515   8.226  0.6330 -0.3086 -0.0149
 3469SOL     OW22042   0.136   1.811   1.935  0.2086 -0.3526  0.0017
 3469SOL    HW122043   0.067   1.762   1.980  0.4155  0.9492  1.7622
 3469SOL    HW222044   0.112   1.793   1.844 -2.2165 -1.9858  0.9766
 3470SOL     OW22045   2.267   1.385  10.890 -0.3074  0.4257 -0.4210
 3470SOL    HW122046   2.362   1.383  10.880 -0.4601 -0.4596 -1.6985
 3470SOL    HW222047   2.245   1.377  10.797 -3.2859  0.2239  0.2727
 3471SOL     OW22048   2.799   4.269   2.272  0.0363 -0.1706 -0.3810
 3471SOL    HW122049   2.744   4.301   2.200 -0.3680 -2.5721 -1.1484
 3471SOL    HW222050   2.867   4.337   2.276  0.8556 -0.8579 -2.5617
 3472SOL     OW22051   0.081   3.441   8.080  0.6157 -0.2135 -0.1970
 3472SOL    HW122052   4.736   3.396   8.090  0.5559 -0.3441 -1.1979
 3472SOL    HW222053   0.050   3.527   8.049 -0.7742 -0.7965 -0.4047
 3473SOL     OW22054   1.664   3.871   5.412 -0.0218  0.8521 -0.4471
 3473SOL    HW122055   1.591   3.810   5.424  1.3401 -0.9691 -1.4994
 3473SOL    HW222056   1.699   3.888   5.499  0.9723  0.0880 -0.7073
 3474SOL     OW22057   1.694   2.943   9.247 -0.4374 -0.2040 -0.2569
 3474SOL    HW122058   1.670   3.026   9.206 -4.2927  0.6877  3.8348
 3474SOL    HW222059   1.607   2.924   9.283  0.5040 -0.2599  1.9759
 3475SOL     OW22060   2.661   4.436  12.787  0.1002 -0.4133  0.5108
 3475SOL    HW122061   2.621   4.432  12.874 -3.0947 -0.8843 -0.9912
 3475SOL    HW222062   2.686   4.344  12.778  0.4011  0.1280 -4.1957
 3476SOL     OW22063   0.927   2.437   5.771 -0.0438  0.0202  0.7034
 3476SOL    HW122064   0.940   2.485   5.690  0.3442 -2.2269 -0.5672
 3476SOL    HW222065   0.965   2.503   5.829  0.7752  2.0991 -2.2307
 3477SOL     OW22066   2.627   1.924   9.500  0.5756 -0.3835  0.1323
 3477SOL    HW122067   2.542   1.888   9.477  0.0199 -0.7268  2.7272
 3477SOL    HW222068   2.680   1.846   9.511 -1.3731 -1.7840 -0.3589
 3478SOL     OW22069   0.001   0.124   5.038  0.0465 -0.0522 -0.3006
 3478SOL    HW122070   4.699   0.167   5.113  1.4150 -0.3457  0.6116
 3478SOL    HW222071   0.027   0.203   4.991 -0.7066  1.6921  2.2545
 3479SOL     OW22072   3.538   0.284   9.180  0.7776  0.0328 -0.4188
 3479SOL    HW122073   3.630   0.303   9.198  0.5152 -0.9650  1.9288
 3479SOL    HW222074   3.506   0.373   9.168  0.3302 -0.0770 -0.0274
 3480SOL     OW22075   4.535   2.973   2.445 -0.2140 -0.1160  0.5854
 3480SOL    HW122076   4.543   3.062   2.411  1.3813  0.3488  2.1958
 3480SOL    HW222077   4.441   2.962   2.433  0.1847 -2.3532 -0.5742
 3481SOL     OW22078   3.536   1.153  12.951 -0.3863  0.0922 -0.1173
 3481SOL    HW122079   3.506   1.086  13.012  3.1777  0.6563  2.2532
 3481SOL    HW222080   3.510   1.229  13.003  1.7427  0.1145  0.9092
 3482SOL     OW22081   4.304   0.589   2.179  0.1094 -0.0369  0.0636
 3482SOL    HW122082   4.392   0.580   2.216 -0.2880 -1.5057  0.6371
 3482SOL    HW222083   4.252   0.579   2.258  0.1477  1.9946  0.3392
 3483SOL     OW22084   1.739   0.915   8.026  0.4879 -0.3019  0.8470
 3483SOL    HW122085   1.704   0.840   7.978 -0.0813  0.3527  0.2583
 3483SOL    HW222086   1.773   0.864   8.100  0.4800 -0.2016  0.9201
 3484SOL     OW22087   4.437   2.390   7.607 -1.0204 -0.1807 -0.2177
 3484SOL    HW122088   4.372   2.448   7.648 -1.1397 -1.4865  1.4770
 3484SOL    HW222089   4.505   2.456   7.615  1.0305 -2.0607 -2.3120
 3485SOL     OW22090   3.174   2.612   9.625 -0.9021  0.3477  0.2886
 3485SOL    HW122091   3.136   2.644   9.706 -0.6944  1.3654 -0.0199
 3485SOL    HW222092   3.222   2.536   9.659 -1.0611 -0.3469 -1.0180
 3486SOL     OW22093   4.545   0.518  16.326  0.6753  0.0080 -0.2103
 3486SOL    HW122094   4.614   0.575  16.362  0.5015  0.0995 -0.0240
 3486SOL    HW222095   4.535   0.571  16.246 -2.0019  0.9288  0.7184
 3487SOL     OW22096   2.978   4.457   7.717 -0.0505 -0.2047  0.1774
 3487SOL    HW122097   2.969   4.395   7.645 -0.5474  2.3545 -1.9519
 3487SOL    HW222098   3.058   4.426   7.758 -0.7431  2.3637  3.5779
 3488SOL     OW22099   4.410   1.629   4.518 -0.3337  0.2475 -0.0778
 3488SOL    HW122100   4.387   1.537   4.520  0.4865  0.0234 -0.7831
 3488SOL    HW222101   4.364   1.642   4.600  1.1080  0.2616  0.7365
 3489SOL     OW22102   4.575   4.591  11.000 -0.3840 -0.4553  0.6203
 3489SOL    HW122103   4.523   4.536  11.058  0.6590 -1.4880  0.5823
 3489SOL    HW222104   4.632   4.632  11.065  1.6295 -0.4904 -1.1270
 3490SOL     OW22105   4.493   2.956   8.433  0.5636 -0.3095  0.6299
 3490SOL    HW122106   4.571   3.011   8.426 -0.2161  0.8036  0.6798
 3490SOL    HW222107   4.512   2.899   8.508 -0.4175 -0.4796  0.7614
 3491SOL     OW22108   0.998   4.662   2.854 -0.0597 -0.5825 -0.6617
 3491SOL    HW122109   0.948   4.737   2.821  0.9362 -0.8768 -2.7902
 3491SOL    HW222110   0.962   4.589   2.804 -0.7407  0.0292 -1.0630
 3492SOL     OW22111   3.912   0.307   3.322 -0.1546 -0.8300 -0.1213
 3492SOL    HW122112   3.947   0.302   3.234  1.6740  0.6148  0.5128
 3492SOL    HW222113   3.835   0.253   3.308  0.4643 -1.8467  0.3763
 3493SOL     OW22114   1.476   0.994   8.320 -0.2865  0.4062 -0.0053
 3493SOL    HW122115   1.545   1.008   8.385 -0.1653 -1.5943  0.2817
 3493SOL    HW222116   1.404   0.979   8.381 -1.3809  2.3072 -0.8067
 3494SOL     OW22117   1.346   1.641   3.590 -0.2220 -0.7113 -0.4241
 3494SOL    HW122118   1.397   1.595   3.524 -0.1258 -2.0536  0.5866
 3494SOL    HW222119   1.383   1.602   3.670  0.6499  0.3567 -0.3117
 3495SOL     OW22120   4.065   3.353   5.978  0.3674  0.0477  0.4359
 3495SOL    HW122121   4.066   3.345   5.882 -0.3048 -2.2851  0.6279
 3495SOL    HW222122   3.979   3.318   6.000  0.1741  0.4708  0.3534
 3496SOL     OW22123   4.638   3.707   8.304  0.4946  0.0101  0.5804
 3496SOL    HW122124   4.619   3.800   8.293 -0.1396 -0.2466 -0.5758
 3496SOL    HW222125   4.733   3.695   8.296  0.5005  0.0719  0.5586
 3497SOL     OW22126   1.179   2.486   7.866  0.2128  0.5197 -0.5372
 3497SOL    HW122127   1.248   2.499   7.801  0.5322 -2.2043 -0.7602
 3497SOL    HW222128   1.188   2.392   7.880 -3.6425  0.2317 -0.0009
 3498SOL     OW22129   0.185   1.970  15.624 -0.1786  0.3015 -0.4318
 3498SOL    HW122130   0.104   1.918  15.617  0.8899 -1.3299 -0.7366
 3498SOL    HW222131   0.171   1.998  15.715  3.3006 -0.7674  0.4360
 3499SOL     OW22132   1.544   2.384   9.487  0.3758  0.0346  0.1473
 3499SOL    HW122133   1.579   2.296   9.497  0.3636 -0.0881 -0.8087
 3499SOL    HW222134   1.475   2.366   9.423  1.7760 -0.0789 -1.3525
 3500SOL     OW22135   4.077   2.869   6.300  0.5041 -0.3326  0.2092
 3500SOL    HW122136   4.171   2.870   6.281  0.4209  1.2728 -0.0830
 3500SOL    HW222137   4.055   2.961   6.309 -0.0723 -0.3155 -1.3655
 3501SOL     OW22138   0.903   0.600   5.588 -0.3324  0.0104 -0.5423
 3501SOL    HW122139   0.856   0.565   5.512 -1.4148 -1.9168  1.0159
 3501SOL    HW222140   0.841   0.665   5.622  0.3206  1.2925 -1.8108
 3502SOL     OW22141   3.507   3.743   1.428 -0.0173 -0.0269 -0.1316
 3502SOL    HW122142   3.460   3.784   1.501  1.7768  3.2146 -0.7773
 3502SOL    HW222143   3.577   3.703   1.480 -0.0966  0.5600  0.4285
 3503SOL     OW22144   0.552   2.955  10.028  0.1510  0.4525  0.4270
 3503SOL    HW122145   0.555   2.961  10.123  0.5234  1.6836  0.3401
 3503SOL    HW222146   0.568   2.862  10.017 -0.1386  0.5275 -0.6428
 3504SOL     OW22147   2.442   3.011   5.684  0.3346  0.1213  0.3542
 3504SOL    HW122148   2.430   2.933   5.739 -3.3996  0.2203 -0.3653
 3504SOL    HW222149   2.405   2.986   5.600 -3.3751  2.0545  1.4138
 3505SOL     OW22150   1.280   0.990  11.337 -0.1481 -0.1156  0.2606
 3505SOL    HW122151   1.370   0.981  11.307 -0.2493  1.1996 -0.4570
 3505SOL    HW222152   1.289   0.969  11.430 -0.8731 -0.5559  0.2314
 3506SOL     OW22153   0.646   4.007   2.066  0.1550  0.2491 -0.4984
 3506SOL    HW122154   0.687   4.057   2.137 -2.2341  0.5948  0.6259
 3506SOL    HW222155   0.637   4.076   2.000 -0.0031  0.0760 -0.6569
 3507SOL     OW22156   4.326   2.398   4.737 -0.7211  0.6930  0.0760
 3507SOL    HW122157   4.363   2.375   4.652  1.5072  1.5458  0.8056
 3507SOL    HW222158   4.260   2.465   4.721  1.9438  2.9697 -1.4500
 3508SOL     OW22159   2.311   1.561   4.304 -0.1203  0.0225  0.0235
 3508SOL    HW122160   2.287   1.570   4.397  0.2688 -0.4827  0.1739
 3508SOL    HW222161   2.402   1.585   4.318  0.0762 -0.4603 -0.4730
 3509SOL     OW22162   2.188   4.010   1.294  0.1963  0.1707 -0.5124
 3509SOL    HW122163   2.113   4.007   1.234 -0.6595  0.5972  0.5450
 3509SOL    HW222164   2.244   4.079   1.258  0.5315  0.6893  1.0269
 3510SOL     OW22165   1.856   3.115  16.152  0.2993 -0.4817 -0.8174
 3510SOL    HW122166   1.796   3.055  16.107 -1.2123  0.0401  0.5195
 3510SOL    HW222167   1.820   3.115  16.240 -0.2173  0.4058 -1.0228
 3511SOL     OW22168   2.781   4.149   9.907  0.2123 -0.0084 -0.4660
 3511SOL    HW122169   2.789   4.117   9.817  1.6538  2.4373 -1.2133
 3511SOL    HW222170   2.771   4.065   9.952  0.0932 -0.1636 -0.7822
 3512SOL     OW22171   2.310   4.587   2.938 -0.3066 -0.5040  0.1891
 3512SOL    HW122172   2.348   4.605   2.852  0.5159 -0.4451  0.5603
 3512SOL    HW222173   2.257   4.508   2.927 -1.6831  0.6636 -1.6122
 3513SOL     OW22174   3.045   1.229   9.470  0.5413 -0.4727 -0.4447
 3513SOL    HW122175   2.990   1.211   9.547  1.0421 -1.5677 -0.3400
 3513SOL    HW222176   3.096   1.150   9.457 -0.6958 -0.9290 -2.3658
 3514SOL     OW22177   4.177   4.412  15.575 -0.2476  0.1559  0.3900
 3514SOL    HW122178   4.110   4.481  15.571  1.8182  2.1328 -0.1710
 3514SOL    HW222179   4.241   4.448  15.514  0.6280 -0.5701  0.8898
 3515SOL     OW22180   3.179   2.537   7.032  0.7799  0.4095  0.8296
 3515SOL    HW122181   3.130   2.521   7.112 -0.0108  3.1469  0.8927
 3515SOL    HW222182   3.164   2.631   7.018 -0.8670 -0.1417 -1.0947
 3516SOL     OW22183   0.545   4.678   3.345 -0.1162 -0.2898 -0.0674
 3516SOL    HW122184   0.611   4.714   3.286 -1.9470  2.5303 -0.3718
 3516SOL    HW222185   0.585   4.593   3.365  1.8165  0.3946 -1.0613
 3517SOL     OW22186   3.015   0.265   3.950 -0.0911  0.2666 -0.0432
 3517SOL    HW122187   2.956   0.324   3.996 -0.0061 -0.1875  0.6474
 3517SOL    HW222188   2.988   0.289   3.861  1.5321 -1.4874 -1.0255
 3518SOL     OW22189   2.581   0.656  10.458 -0.0723 -0.2724 -0.6678
 3518SOL    HW122190   2.577   0.707  10.377 -2.6046  0.9860  0.2736
 3518SOL    HW222191   2.538   0.711  10.523  1.2549 -3.0566  2.5574
 3519SOL     OW22192   2.002   3.998   5.921 -0.0867 -0.2426 -0.2046
 3519SOL    HW122193   2.029   3.979   5.831 -0.1563  0.7292 -0.4243
 3519SOL    HW222194   1.924   3.943   5.920  1.4763 -2.4451 -1.9499
 3520SOL     OW22195   2.185   1.884   5.619  0.4686  0.1278  0.1540
 3520SOL    HW122196   2.229   1.967   5.602  0.1606  0.3218  0.3042
 3520SOL    HW222197   2.231   1.856   5.698 -0.6802 -0.5210  0.5975
 3521SOL     OW22198   4.017   2.044   7.752 -0.4085 -0.1223 -0.7764
 3521SOL    HW122199   3.977   2.001   7.677  0.0074 -2.5747  0.4288
 3521SOL    HW222200   3.962   2.026   7.828 -1.0287 -0.0643 -1.2089
 3522SOL     OW22201   1.258   4.225  17.297  0.5407 -0.3051 -0.9970
 3522SOL    HW122202   1.251   4.294  17.363  2.1210  0.0771 -1.2206
 3522SOL    HW222203   1.179   4.236  17.244 -1.5073 -0.0853  2.1330
 3523SOL     OW22204   2.985   4.504  11.957  0.8161 -0.0439 -0.2618
 3523SOL    HW122205   2.945   4.590  11.942  3.4133  1.1094 -0.5356
 3523SOL    HW222206   3.019   4.512  12.045 -2.6732 -0.0809  1.1049
 3524SOL     OW22207   1.558   1.431   7.440  0.1973  0.1332 -0.0613
 3524SOL    HW122208   1.586   1.516   7.473  0.1716 -0.0667  0.4735
 3524SOL    HW222209   1.491   1.448   7.374 -0.6087  0.8435  0.9533
 3525SOL     OW22210   4.665   0.230   4.650  0.4995  0.0011 -0.4001
 3525SOL    HW122211   0.019   0.235   4.628  0.7192 -2.0647  0.0990
 3525SOL    HW222212   4.646   0.139   4.625  0.5420 -0.1679  0.2040
 3526SOL     OW22213   3.786   0.822  15.768 -0.3174 -0.1044 -0.2764
 3526SOL    HW122214   3.693   0.801  15.760  0.0221 -0.6542 -2.6388
 3526SOL    HW222215   3.818   0.821  15.678  0.9488 -1.0175  0.1860
 3527SOL     OW22216   4.673   3.389   1.496  0.5842 -0.0885 -0.0137
 3527SOL    HW122217   4.604   3.362   1.557  0.0014  1.8923  0.2111
 3527SOL    HW222218   4.725   3.458   1.536 -0.4284  1.3592 -1.1920
 3528SOL     OW22219   2.152   2.368   8.628 -0.0762 -0.2909  0.1596
 3528SOL    HW122220   2.174   2.301   8.693 -0.3601 -0.9200 -0.3975
 3528SOL    HW222221   2.227   2.424   8.651  0.4305 -0.7075 -0.4930
 3529SOL     OW22222   0.503   0.129   2.853 -0.4038  0.3624  0.5361
 3529SOL    HW122223   0.570   0.198   2.861 -1.2512  0.9566  2.4473
 3529SOL    HW222224   0.551   0.050   2.827 -2.5462 -0.8322  0.2334
 3530SOL     OW22225   1.222   2.334   3.630 -0.0377  0.1926 -0.6381
 3530SOL    HW122226   1.176   2.411   3.661  1.8775  0.8518  0.6045
 3530SOL    HW222227   1.190   2.327   3.540  1.9967  0.9980 -1.4321
 3531SOL     OW22228   0.196   3.984   6.600  0.3003 -0.2806 -0.5222
 3531SOL    HW122229   0.197   3.965   6.694  2.6910 -3.5253 -1.2247
 3531SOL    HW222230   0.128   3.930   6.561 -0.6857 -0.1261  0.9806
 3532SOL     OW22231   4.116   0.424  17.383  0.2428 -0.2707  0.0982
 3532SOL    HW122232   4.142   0.364  17.313 -1.3502 -1.0485  0.1873
 3532SOL    HW222233   4.031   0.447  17.347  0.0152 -0.3371  0.5961
 3533SOL     OW22234   3.127   2.420   6.317 -0.6364  0.1860 -0.1731
 3533SOL    HW122235   3.075   2.500   6.324 -0.4122  0.4277 -1.3822
 3533SOL    HW222236   3.090   2.368   6.245 -1.0663 -0.9670  0.8757
 3534SOL     OW22237   4.055   3.487   4.503 -0.5966 -0.0466  0.3016
 3534SOL    HW122238   3.977   3.455   4.457  0.7204 -1.9015 -0.6302
 3534SOL    HW222239   4.111   3.419   4.464 -2.7994 -1.6128 -0.1289
 3535SOL     OW22240   1.251   1.066  15.934  0.5349  0.3402  0.3232
 3535SOL    HW122241   1.324   1.009  15.909 -1.1763 -0.5080 -2.7666
 3535SOL    HW222242   1.250   1.135  15.868  0.1621  0.6307  0.6355
 3536SOL     OW22243   4.700   2.923  11.197 -0.6771 -0.2561  0.6788
 3536SOL    HW122244   4.643   2.901  11.123  0.2071 -0.0901 -0.0561
 3536SOL    HW222245   4.647   2.877  11.263 -0.2083 -3.0020 -0.8499
 3537SOL     OW22246   1.135   0.218  14.371 -0.0936  0.7142 -0.2086
 3537SOL    HW122247   1.115   0.310  14.353  1.1493  0.9457 -0.4111
 3537SOL    HW222248   1.116   0.186  14.283  2.8186  0.5372 -0.7545
 3538SOL     OW22249   1.269   0.669   7.773 -0.4263 -0.1908 -0.6661
 3538SOL    HW122250   1.354   0.710   7.758 -0.7314  0.6190 -0.1926
 3538SOL    HW222251   1.229   0.752   7.799  0.6228  0.4396 -1.0730
 3539SOL     OW22252   1.331   2.204   3.097 -0.4324 -0.2579 -0.5312
 3539SOL    HW122253   1.303   2.294   3.082 -2.4569 -0.8186 -0.0316
 3539SOL    HW222254   1.410   2.201   3.042 -0.3385 -0.3922 -0.3863
 3540SOL     OW22255   3.176   2.193   5.738 -0.3142  0.5446 -0.0014
 3540SOL    HW122256   3.246   2.220   5.797  0.3905 -1.3665  0.0210
 3540SOL    HW222257   3.173   2.102   5.766  1.9865 -0.0617 -1.6848
 3541SOL     OW22258   3.522   2.538   8.087 -0.2640 -0.0724  0.1995
 3541SOL    HW122259   3.470   2.561   8.010 -0.2272 -0.5467  0.0333
 3541SOL    HW222260   3.542   2.450   8.056  1.2212  0.4480 -0.3205
 3542SOL     OW22261   2.346   1.236   7.060 -0.0908 -0.5296  0.6811
 3542SOL    HW122262   2.365   1.257   6.969 -0.1014 -0.3798  0.7142
 3542SOL    HW222263   2.417   1.175   7.077 -0.2865 -0.8036  0.5278
 3543SOL     OW22264   2.359   4.144   8.600 -0.3941  0.5264 -0.0886
 3543SOL    HW122265   2.280   4.092   8.584 -0.4034  1.5254 -3.2380
 3543SOL    HW222266   2.412   4.119   8.524 -1.0034  1.4036 -0.7972
 3544SOL     OW22267   0.118   2.582   1.362 -0.4199 -0.0008 -0.1202
 3544SOL    HW122268   0.200   2.537   1.345 -0.1922  0.1450  0.5876
 3544SOL    HW222269   0.156   2.670   1.363 -0.5093  0.0335  0.8777
 3545SOL     OW22270   3.724   3.824   5.508  0.0284 -0.2470 -0.1017
 3545SOL    HW122271   3.726   3.883   5.433  0.1468  2.0803  1.7168
 3545SOL    HW222272   3.692   3.743   5.468  0.1571 -0.9950  1.3136
 3546SOL     OW22273   1.296   2.546   4.531  0.0307  0.0743  0.2249
 3546SOL    HW122274   1.335   2.467   4.569  1.8517  1.5682  1.4625
 3546SOL    HW222275   1.307   2.606   4.605 -2.4471  0.3151  0.3901
 3547SOL     OW22276   2.772   0.486   9.507 -0.1088 -0.3585 -0.0011
 3547SOL    HW122277   2.681   0.496   9.482  0.2066  1.0492 -0.5768
 3547SOL    HW222278   2.761   0.490   9.602 -0.7283 -0.6558 -0.0655
 3548SOL     OW22279   0.257   1.489   6.708  0.0868  0.2147  0.3452
 3548SOL    HW122280   0.216   1.424   6.650 -1.0755  0.4163  0.9382
 3548SOL    HW222281   0.254   1.450   6.795 -2.1479  0.8960  0.5807
 3549SOL     OW22282   3.189   3.512  14.414 -0.0256  0.0463 -0.4345
 3549SOL    HW122283   3.224   3.549  14.495  0.7451  3.6987 -2.4334
 3549SOL    HW222284   3.196   3.422  14.447  0.6327  0.7050  1.2336
 3550SOL     OW22285   1.263   1.424  10.173  0.0246 -0.6159  0.3406
 3550SOL    HW122286   1.269   1.519  10.175 -2.1240 -0.5248  2.0107
 3550SOL    HW222287   1.227   1.411  10.261  1.0168  0.7449  0.9510
 3551SOL     OW22288   2.984   0.793   5.745  0.2672 -0.3334  0.1697
 3551SOL    HW122289   2.982   0.815   5.838 -1.8328 -0.7008  0.2188
 3551SOL    HW222290   2.920   0.724   5.727 -0.9160  0.8787 -0.3310
 3552SOL     OW22291   3.216   4.172  13.663 -0.5274  0.4304 -0.1008
 3552SOL    HW122292   3.159   4.155  13.738 -1.8843  1.3887 -0.9230
 3552SOL    HW222293   3.225   4.266  13.675 -1.8762  0.6372 -0.8245
 3553SOL     OW22294   3.747   0.612   6.549  0.1438  0.7653 -0.0371
 3553SOL    HW122295   3.736   0.646   6.638  1.3805  3.0737 -0.7584
 3553SOL    HW222296   3.843   0.609   6.551 -0.0105 -2.3102  1.9174
 3554SOL     OW22297   0.514   3.179   3.125  0.4701 -0.8700  0.1619
 3554SOL    HW122298   0.586   3.190   3.187  0.5674  0.6593 -0.2260
 3554SOL    HW222299   0.441   3.223   3.168 -0.4154  0.5688 -2.8453
 3555SOL     OW22300   0.065   3.473  11.288 -0.3096  0.6126 -0.2044
 3555SOL    HW122301   4.732   3.498  11.228  0.0323 -2.0286 -1.7063
 3555SOL    HW222302   0.145   3.521  11.269 -0.6858  1.8926  1.3916
 3556SOL     OW22303   3.675   2.133   5.294 -0.4481  0.2201  0.1262
 3556SOL    HW122304   3.697   2.219   5.259 -2.0371  0.6227  0.1092
 3556SOL    HW222305   3.625   2.147   5.374 -0.9984 -1.9104  0.1439
 3557SOL     OW22306   0.971   4.642   4.926 -0.1941  0.1278  0.3395
 3557SOL    HW122307   0.946   4.619   5.016  2.2060  0.7253  1.1555
 3557SOL    HW222308   0.910   4.709   4.896  1.8124  1.0537 -1.6050
 3558SOL     OW22309   3.156   4.738   3.656 -0.7676  0.1247 -0.7941
 3558SOL    HW122310   3.155   4.653   3.700 -0.2349  0.4282 -0.2027
 3558SOL    HW222311   3.067   0.006   3.621 -1.5108  0.5086  1.1741
 3559SOL     OW22312   0.113   1.460  16.310  0.2888 -0.9573 -0.0406
 3559SOL    HW122313   0.019   1.468  16.322  0.5881  0.9311  0.9628
 3559SOL    HW222314   0.140   1.551  16.315  0.9222 -1.2159  1.2560
 3560SOL     OW22315   4.346   1.304   2.130  0.1361 -0.1594  0.3466
 3560SOL    HW122316   4.328   1.383   2.181 -0.3027 -0.1728  0.2104
 3560SOL    HW222317   4.371   1.338   2.044 -3.0270 -1.6099 -1.1554
 3561SOL     OW22318   4.080   3.037  14.353 -0.1109 -0.7920 -0.1877
 3561SOL    HW122319   4.130   3.008  14.276 -0.8058  1.0998 -1.3819
 3561SOL    HW222320   4.017   3.095  14.310  1.3762 -0.5102 -1.9975
 3562SOL     OW22321   2.352   4.240   3.193  0.5264 -0.3491  0.1196
 3562SOL    HW122322   2.413   4.312   3.179  1.2114 -0.7810  0.9080
 3562SOL    HW222323   2.364   4.192   3.112  3.2762 -0.0124  0.3452
 3563SOL     OW22324   1.523   1.611   5.110  0.9199  0.3437  0.1490
 3563SOL    HW122325   1.515   1.580   5.200 -2.0433  0.2657 -0.1650
 3563SOL    HW222326   1.511   1.533   5.057  1.0148  0.4979 -0.1022
 3564SOL     OW22327   0.338   4.187   4.726  0.0053 -0.0846  0.1237
 3564SOL    HW122328   0.418   4.166   4.774  0.6488 -2.8540 -2.2152
 3564SOL    HW222329   0.316   4.275   4.758  0.6705  0.0075  0.3180
 3565SOL     OW22330   0.464   1.354   1.409 -0.3295  0.3682  0.1078
 3565SOL    HW122331   0.557   1.344   1.387 -0.5201  0.2268 -0.6337
 3565SOL    HW222332   0.412   1.301   1.349 -0.8704  0.4081  0.5383
 3566SOL     OW22333   0.008   4.341   9.652  0.8436  0.3316  0.1610
 3566SOL    HW122334   4.673   4.301   9.699  1.5678 -0.8973  0.2539
 3566SOL    HW222335   0.007   4.282   9.577 -0.2547 -0.2019  0.5855
 3567SOL     OW22336   1.428   1.533  11.330 -0.0716 -0.5997 -0.8989
 3567SOL    HW122337   1.521   1.529  11.351 -0.5658  1.5510  1.8280
 3567SOL    HW222338   1.405   1.448  11.367 -0.7662  0.2785  0.7090
 3568SOL     OW22339   2.752   4.712   7.129 -0.0536  0.6592  0.5587
 3568SOL    HW122340   2.730   4.651   7.058 -0.1713 -0.1085  1.2602
 3568SOL    HW222341   2.699   4.676   7.200  0.5188  1.2577  1.2756
 3569SOL     OW22342   3.822   3.881   7.550 -0.3647  0.5523 -0.2051
 3569SOL    HW122343   3.798   3.941   7.622  0.5009  0.9713 -0.2649
 3569SOL    HW222344   3.754   3.814   7.556 -0.4445  0.7705  1.3209
 3570SOL     OW22345   1.540   4.491  12.620 -0.2431  0.4137 -0.8854
 3570SOL    HW122346   1.619   4.487  12.675 -2.3276  0.9814  2.1792
 3570SOL    HW222347   1.476   4.469  12.687 -0.0147 -0.1673 -0.8544
 3571SOL     OW22348   1.719   1.452   2.620  0.3372 -0.3937 -0.1208
 3571SOL    HW122349   1.737   1.495   2.703  0.7832 -0.4218 -0.2032
 3571SOL    HW222350   1.669   1.524   2.581  3.4103  0.5862 -2.3285
 3572SOL     OW22351   3.939   3.711   6.151 -0.0214  0.0717  0.2784
 3572SOL    HW122352   3.896   3.664   6.080  1.8251 -0.6633 -0.3478
 3572SOL    HW222353   3.863   3.750   6.195  0.2583 -1.7272  2.3855
 3573SOL     OW22354   0.158   0.745   0.010 -0.7090  0.3772  0.7508
 3573SOL    HW122355   0.219   0.690   0.059 -2.2322 -1.4588  0.5783
 3573SOL    HW222356   0.075   0.714   0.047  1.1678 -3.7015  1.4753
 3574SOL     OW22357   3.648   0.549   4.404  0.3592 -0.0292  0.2987
 3574SOL    HW122358   3.588   0.515   4.470 -2.4229 -1.3074 -2.8974
 3574SOL    HW222359   3.632   0.644   4.402  0.7433  0.0177 -0.5162
 3575SOL     OW22360   4.653   2.606   2.823 -0.0583 -0.0360 -0.0985
 3575SOL    HW122361   4.650   2.658   2.903  1.1713 -0.4326  0.2022
 3575SOL    HW222362   4.590   2.537   2.847 -1.2113  1.0207 -0.1136
 3576SOL     OW22363   0.634   4.136  14.154  0.4259  0.7919 -0.7442
 3576SOL    HW122364   0.610   4.045  14.170 -0.7489  1.2298  0.0144
 3576SOL    HW222365   0.556   4.170  14.110 -0.7618  1.4620  1.8301
 3577SOL     OW22366   0.451   4.399   0.166  0.2098 -1.0185  0.2396
 3577SOL    HW122367   0.363   4.433   0.152  0.2832 -0.9870 -0.1595
 3577SOL    HW222368   0.502   4.478   0.185 -1.6931  1.0198 -3.1288
 3578SOL     OW22369   0.059   0.283  12.364 -0.1915  0.1264 -0.0570
 3578SOL    HW122370   0.084   0.369  12.398  0.5010  0.4714 -1.4080
 3578SOL    HW222371   0.145   0.240  12.363 -0.4840 -0.4543  0.8878
 3579SOL     OW22372   3.914   0.501   2.355 -0.1091 -0.6822  0.0215
 3579SOL    HW122373   3.819   0.506   2.364 -0.0628  0.9379 -0.3304
 3579SOL    HW222374   3.928   0.525   2.263 -0.1603 -0.7222  0.0028
 3580SOL     OW22375   0.137   0.257  12.027  0.0588 -0.3908  0.6755
 3580SOL    HW122376   0.050   0.284  12.058  0.2928  1.4407 -0.2430
 3580SOL    HW222377   0.120   0.217  11.941  0.8974 -2.3267  1.4199
 3581SOL     OW22378   1.665   2.792   9.914  0.0902  0.1164 -0.2040
 3581SOL    HW122379   1.732   2.783   9.981  0.8634 -0.1089 -1.0100
 3581SOL    HW222380   1.637   2.701   9.905 -0.0007  0.1830 -0.6284
 3582SOL     OW22381   4.384   0.688   7.134 -0.2212 -0.7348  0.2600
 3582SOL    HW122382   4.432   0.708   7.054  0.3222  2.3276  1.3535
 3582SOL    HW222383   4.444   0.649   7.198  1.0423 -0.8409 -0.9958
 3583SOL     OW22384   1.134   2.757   8.695  0.2066 -0.1636 -0.0577
 3583SOL    HW122385   1.112   2.834   8.644 -1.4153 -0.3142  0.4312
 3583SOL    HW222386   1.050   2.719   8.720 -0.3823  1.3167  0.1678
 3584SOL     OW22387   1.389   1.863   1.835  0.0119  0.7036  0.7322
 3584SOL    HW122388   1.371   1.848   1.743 -2.1016  1.6911  1.0027
 3584SOL    HW222389   1.468   1.809   1.847  0.1209  0.5007 -0.9796
 3585SOL     OW22390   2.370   2.791   8.309 -0.0631  0.0095 -0.2986
 3585SOL    HW122391   2.416   2.840   8.377 -2.4194 -0.4935  1.6837
 3585SOL    HW222392   2.332   2.850   8.243  0.2858 -1.2512 -1.6323
 3586SOL     OW22393   4.489   1.390  14.232  0.8974 -0.8999 -0.5304
 3586SOL    HW122394   4.552   1.444  14.280 -0.4643  0.7601 -0.5815
 3586SOL    HW222395   4.469   1.439  14.152  0.5091  2.1493  1.4239
 3587SOL     OW22396   3.963   1.686   7.738 -0.2662 -0.4406 -0.7317
 3587SOL    HW122397   3.961   1.749   7.666  2.1879  3.1697  2.3688
 3587SOL    HW222398   3.896   1.623   7.710  0.3307 -1.8892  1.0822
 3588SOL     OW22399   3.671   1.380   7.847  0.0011 -0.1400  0.4128
 3588SOL    HW122400   3.636   1.453   7.899  0.3259  0.9906 -0.9463
 3588SOL    HW222401   3.686   1.323   7.922  2.7877  0.8986  0.6466
 3589SOL     OW22402   2.911   2.025  15.618  0.1279 -0.4746 -0.2434
 3589SOL    HW122403   2.997   2.028  15.661  0.5659 -0.5367 -1.1106
 3589SOL    HW222404   2.896   2.119  15.607  0.6834 -0.3804 -0.2029
 3590SOL     OW22405   2.915   0.307   2.348 -0.2932  0.2781  0.2661
 3590SOL    HW122406   2.828   0.328   2.313  1.2528  2.3862 -2.3032
 3590SOL    HW222407   2.955   0.393   2.357 -0.6103  0.3768  0.7075
 3591SOL     OW22408   1.620   2.964  12.340 -0.3685 -0.0198  0.2476
 3591SOL    HW122409   1.689   2.923  12.288  0.4907  1.1201  0.5041
 3591SOL    HW222410   1.544   2.950  12.284 -1.2036 -0.1876  1.4080
 3592SOL     OW22411   1.557   2.216  15.426  0.5734  0.3407  0.4011
 3592SOL    HW122412   1.464   2.241  15.433  0.7749  1.5897 -1.3077
 3592SOL    HW222413   1.578   2.271  15.350 -2.7386 -0.8091 -1.3566
 3593SOL     OW22414   1.326   0.040   9.631 -0.0344 -0.3763  1.3961
 3593SOL    HW122415   1.354   4.689   9.609  1.3875 -0.0667  1.9792
 3593SOL    HW222416   1.298   0.071   9.545 -0.4793 -0.0629  1.6561
 3594SOL     OW22417   0.434   2.073  16.258 -0.1199  0.1062 -0.0879
 3594SOL    HW122418   0.454   2.040  16.170  1.4118  0.4736  0.1270
 3594SOL    HW222419   0.371   2.006  16.284  0.9151  0.1312  2.4521
 3595SOL     OW22420   2.829   1.600   4.566 -0.1811  0.6225  0.2605
 3595SOL    HW122421   2.923   1.616   4.577  0.1020 -1.4940  0.9597
 3595SOL    HW222422   2.794   1.683   4.598 -0.1803 -0.0753  2.0639
 3596SOL     OW22423   2.485   3.381   0.877  0.1050  0.2979 -0.3782
 3596SOL    HW122424   2.500   3.440   0.951 -1.0276  0.2952 -0.1425
 3596SOL    HW222425   2.391   3.366   0.893  0.6081 -1.5158  0.8757
 3597SOL     OW22426   2.666   1.433   2.028  0.3244  0.2087  0.3435
 3597SOL    HW122427   2.571   1.439   2.017  0.3751 -1.4007 -1.0124
 3597SOL    HW222428   2.676   1.384   2.110  1.3554 -0.2295 -0.0468
 3598SOL     OW22429   3.394   0.742  15.944  0.1374 -0.6135  0.1981
 3598SOL    HW122430   3.476   0.700  15.969  0.9411  0.0353 -1.3506
 3598SOL    HW222431   3.323   0.706  15.996 -0.6468  0.9230  0.1906
 3599SOL     OW22432   0.813   1.491   3.677  0.0956  0.3195 -0.1061
 3599SOL    HW122433   0.817   1.573   3.727  1.3937  1.7928 -2.6000
 3599SOL    HW222434   0.738   1.451   3.721  0.3744 -0.4419 -0.3344
 3600SOL     OW22435   1.571   3.987   1.312  0.1854 -0.0894 -0.2379
 3600SOL    HW122436   1.573   3.898   1.276  0.8771 -0.1462 -0.0572
 3600SOL    HW222437   1.483   3.988   1.349  0.3865  0.4623  0.2194
 3601SOL     OW22438   1.579   3.603  10.250 -0.2620  0.6077  0.2704
 3601SOL    HW122439   1.656   3.563  10.290 -0.8622 -1.0679 -0.2571
 3601SOL    HW222440   1.528   3.523  10.238 -2.2904  1.6742  1.8815
 3602SOL     OW22441   1.164   0.470   5.446 -0.5161 -0.1633  0.0843
 3602SOL    HW122442   1.250   0.495   5.478 -1.3544  0.5154  1.8030
 3602SOL    HW222443   1.173   0.459   5.351 -1.6615 -1.3036  0.1045
 3603SOL     OW22444   3.846   1.005   2.521 -0.3849  0.4745  0.1497
 3603SOL    HW122445   3.870   1.087   2.564  2.4216  0.0663 -0.6966
 3603SOL    HW222446   3.926   0.988   2.472 -0.7343  1.9648 -0.9321
 3604SOL     OW22447   1.493   1.376   1.256  0.4152  0.1802 -0.4351
 3604SOL    HW122448   1.460   1.459   1.291 -2.0989 -0.2899 -1.6991
 3604SOL    HW222449   1.582   1.372   1.290  0.2578  2.4831  0.2432
 3605SOL     OW22450   2.910   4.104   4.996 -0.0394  0.6551  0.5148
 3605SOL    HW122451   2.843   4.057   4.946 -0.2929 -0.6218  2.0797
 3605SOL    HW222452   2.939   4.155   4.920 -1.2695  0.7100  0.0883
 3606SOL     OW22453   4.449   0.320   5.982 -0.5305 -0.4998  0.3939
 3606SOL    HW122454   4.481   0.410   5.982  2.0270 -1.4153 -0.1881
 3606SOL    HW222455   4.494   0.295   5.902  1.0891  0.3381  1.0500
 3607SOL     OW22456   4.307   3.537  16.224  0.1507  0.2801 -0.4957
 3607SOL    HW122457   4.351   3.486  16.156 -0.0976  0.4691 -0.8004
 3607SOL    HW222458   4.266   3.611  16.179 -1.5820 -0.8151 -0.7097
 3608SOL     OW22459   3.130   1.422   0.037 -0.4690 -0.2430  0.3075
 3608SOL    HW122460   3.189   1.349   0.058 -3.3345 -2.7780 -0.5311
 3608SOL    HW222461   3.180   1.493   0.078 -0.4849 -0.8011  1.2907
 3609SOL     OW22462   4.384   3.526   5.658 -0.1278  0.0638 -0.0936
 3609SOL    HW122463   4.302   3.565   5.627  0.1657  0.9234  0.2267
 3609SOL    HW222464   4.354   3.512   5.748  0.2203 -1.8152 -0.2748
 3610SOL     OW22465   0.330   3.217   3.559  0.4566  0.6387  0.1193
 3610SOL    HW122466   0.416   3.227   3.517  0.6149 -1.7754 -0.1268
 3610SOL    HW222467   0.346   3.129   3.594 -2.3278 -0.8239 -2.2398
 3611SOL     OW22468   4.293   1.936   0.167  0.0388  0.4868  0.4689
 3611SOL    HW122469   4.335   2.011   0.125  0.2187  0.4945  0.6606
 3611SOL    HW222470   4.305   1.876   0.094  0.9831  2.6089 -1.1396
 3612SOL     OW22471   4.530   3.321   4.639 -0.2600  0.0565  0.3762
 3612SOL    HW122472   4.535   3.391   4.574 -0.3667  0.1471  0.4656
 3612SOL    HW222473   4.519   3.366   4.723  2.6645 -0.9771  1.3007
 3613SOL     OW22474   4.594   2.610   6.514 -0.3767 -0.6244 -0.2044
 3613SOL    HW122475   4.620   2.522   6.541 -0.4432 -0.1849  1.3065
 3613SOL    HW222476   4.567   2.595   6.424 -0.5353  0.8347 -0.4045
 3614SOL     OW22477   2.415   3.527   4.347 -0.1909 -0.7898 -0.1091
 3614SOL    HW122478   2.485   3.462   4.360  0.2098  0.0500  2.0486
 3614SOL    HW222479   2.373   3.528   4.433 -0.4405  0.8119 -0.2496
 3615SOL     OW22480   3.148   1.648   7.594  0.1821  0.4204  0.3399
 3615SOL    HW122481   3.071   1.639   7.539  0.2323 -2.0243  0.6505
 3615SOL    HW222482   3.213   1.606   7.538  0.8782  2.2455 -0.2310
 3616SOL     OW22483   2.583   2.335   2.953  0.1280  0.0786 -0.1506
 3616SOL    HW122484   2.659   2.393   2.948  0.1813  0.0465  0.2934
 3616SOL    HW222485   2.510   2.393   2.931 -1.2205 -1.7086 -0.3496
 3617SOL     OW22486   4.312   3.820  15.846  0.0640  0.7851  0.3404
 3617SOL    HW122487   4.347   3.769  15.774 -2.0533 -0.4209  0.1540
 3617SOL    HW222488   4.340   3.910  15.832  0.1982  0.7021  0.0873
 3618SOL     OW22489   2.454   4.082   2.987 -0.1344 -0.1180  0.3763
 3618SOL    HW122490   2.468   3.988   2.977 -2.9397 -0.4806 -0.1865
 3618SOL    HW222491   2.545   4.107   2.967 -0.0007 -2.5565 -2.0461
 3619SOL     OW22492   3.122   4.091  14.881 -0.2267  0.2815 -0.1949
 3619SOL    HW122493   3.137   4.048  14.966  1.8751  0.0446 -0.6853
 3619SOL    HW222494   3.095   4.021  14.821  1.9064 -1.0967  0.4603
 3620SOL     OW22495   3.229   1.202  17.278 -0.2445  0.0325  0.1793
 3620SOL    HW122496   3.256   1.234  17.365  1.8008 -0.0380 -0.4213
 3620SOL    HW222497   3.150   1.250  17.254 -0.1620  0.4370  0.7164
 3621SOL     OW22498   0.444   2.756  13.862 -0.0174  0.2709 -0.5258
 3621SOL    HW122499   0.458   2.798  13.947 -1.8426 -1.8931  0.8500
 3621SOL    HW222500   0.410   2.829  13.811  0.9803  1.4284  0.4664
 3622SOL     OW22501   2.171   3.273   5.837  0.0155 -0.0656  0.1271
 3622SOL    HW122502   2.162   3.367   5.853  0.7465  0.0887 -0.3997
 3622SOL    HW222503   2.166   3.273   5.741  0.1091 -2.3081  0.1265
 3623SOL     OW22504   4.094   1.524   7.440  0.1225  0.1557 -0.3150
 3623SOL    HW122505   4.025   1.578   7.477 -0.4903 -0.0804 -1.1107
 3623SOL    HW222506   4.098   1.451   7.503 -0.8822  3.0974  3.1576
 3624SOL     OW22507   2.953   2.634   6.350  0.0491 -0.1149  0.0511
 3624SOL    HW122508   2.896   2.559   6.370 -3.8369  3.2951  1.6529
 3624SOL    HW222509   2.899   2.696   6.301  1.5270  0.5293 -0.7319
 3625SOL     OW22510   3.856   0.275   2.140  0.2080  0.3842 -0.1915
 3625SOL    HW122511   3.803   0.213   2.090  1.2114  1.4721 -2.5914
 3625SOL    HW222512   3.818   0.359   2.115 -2.4308 -0.1293  2.0397
 3626SOL     OW22513   3.723   4.271   6.917  0.2596 -0.5098 -0.1844
 3626SOL    HW122514   3.733   4.296   7.009  0.3975  0.3762 -0.4382
 3626SOL    HW222515   3.646   4.214   6.923  0.3928 -0.5683  1.0713
 3627SOL     OW22516   1.996   1.656   0.650  0.4186 -0.4973  0.1150
 3627SOL    HW122517   2.003   1.724   0.716 -0.9060 -0.1538 -0.1048
 3627SOL    HW222518   1.916   1.687   0.607  0.3922  0.4929  0.8823
 3628SOL     OW22519   3.282   0.926   5.825  0.1340 -0.0770  0.1524
 3628SOL    HW122520   3.242   0.924   5.912  2.4376  1.7838  1.2599
 3628SOL    HW222521   3.348   0.996   5.827  0.6649 -0.5891  0.6801
 3629SOL     OW22522   4.551   1.146   9.042  0.2418  0.6264 -0.4426
 3629SOL    HW122523   4.536   1.121   8.951 -0.7474 -0.0488 -0.0925
 3629SOL    HW222524   4.541   1.060   9.084  3.6536  0.9907  1.1532
 3630SOL     OW22525   2.403   0.330   3.868  0.3218 -0.4914  0.0394
 3630SOL    HW122526   2.463   0.256   3.877 -0.5064 -1.1738 -0.0324
 3630SOL    HW222527   2.332   0.269   3.847  1.0770 -1.0839 -0.7889
 3631SOL     OW22528   0.771   1.079   5.786 -0.1897  0.7862  0.1784
 3631SOL    HW122529   0.734   1.003   5.742  0.8921  1.0597 -1.1869
 3631SOL    HW222530   0.767   1.146   5.718  2.3875 -0.9482 -1.6481
 3632SOL     OW22531   3.047   4.015  14.289 -0.0102  0.4515  0.7601
 3632SOL    HW122532   3.001   3.965  14.356 -0.5014 -1.2082 -0.8123
 3632SOL    HW222533   2.971   4.068  14.263  1.4657  1.6547 -1.0627
 3633SOL     OW22534   0.256   4.438  14.066 -0.5894 -0.5649  0.4004
 3633SOL    HW122535   0.297   4.354  14.090  0.3927 -0.9810 -2.6832
 3633SOL    HW222536   0.319   4.500  14.102 -1.0443 -0.8796  1.7230
 3634SOL     OW22537   1.168   3.928   2.801  0.1835 -0.4331 -0.2047
 3634SOL    HW122538   1.098   3.868   2.777  0.6443 -1.9979  2.3859
 3634SOL    HW222539   1.116   4.007   2.818 -0.8550 -1.8890  3.1944
 3635SOL     OW22540   3.904   2.927   5.181 -0.2676  0.0834 -0.2861
 3635SOL    HW122541   3.980   2.984   5.168 -0.0234 -0.0088  0.7262
 3635SOL    HW222542   3.937   2.877   5.256  0.4012  1.0213  0.0391
 3636SOL     OW22543   3.132   1.733  12.125 -0.2875  0.3993 -0.0215
 3636SOL    HW122544   3.181   1.711  12.045 -0.1348  1.5298 -0.2406
 3636SOL    HW222545   3.096   1.648  12.150  2.4816 -0.2174  1.9225
 3637SOL     OW22546   1.930   2.900   4.902 -0.3255 -0.0258 -0.3988
 3637SOL    HW122547   1.952   2.907   4.995 -2.4010 -3.1767  0.3275
 3637SOL    HW222548   1.931   2.993   4.878  4.0999 -0.2334 -1.0508
 3638SOL     OW22549   0.643   4.364   8.906  0.7418  0.1535  0.2276
 3638SOL    HW122550   0.664   4.273   8.886 -0.7022 -0.3482  0.9576
 3638SOL    HW222551   0.701   4.409   8.845  0.3089  0.3876 -0.0070
 3639SOL     OW22552   3.666   1.725   4.406  0.1969 -0.4198 -0.5277
 3639SOL    HW122553   3.675   1.763   4.319 -1.1371  4.1553  1.3258
 3639SOL    HW222554   3.757   1.732   4.433 -0.5150 -3.6423  2.7219
 3640SOL     OW22555   0.925   3.784   2.763 -0.2907  0.2571 -1.0142
 3640SOL    HW122556   0.846   3.837   2.769 -2.2665 -3.1695  2.8864
 3640SOL    HW222557   0.902   3.718   2.828  6.1040 -0.8017  0.2064
 3641SOL     OW22558   0.172   2.809  10.043 -0.6291  0.5717  0.1762
 3641SOL    HW122559   0.204   2.762  10.120 -0.4435 -1.2245 -0.9988
 3641SOL    HW222560   0.250   2.816   9.988 -0.3057 -1.8325  0.3399
 3642SOL     OW22561   4.670   1.725  16.822  0.0478  0.6499 -0.0406
 3642SOL    HW122562   4.671   1.672  16.902  2.8341 -0.0845 -0.5747
 3642SOL    HW222563   4.641   1.811  16.852  0.6289  0.7669  0.1873
 3643SOL     OW22564   2.284   3.601   8.387  0.0741 -0.7703  0.2819
 3643SOL    HW122565   2.251   3.533   8.445 -1.0831  0.3994  0.9797
 3643SOL    HW222566   2.278   3.549   8.307 -0.5553  0.1119 -0.2545
 3644SOL     OW22567   1.123   4.644  12.522 -0.7631 -0.1462  0.6910
 3644SOL    HW122568   1.093   4.605  12.440 -1.2324  0.1286  0.7362
 3644SOL    HW222569   1.217   4.643  12.504 -1.0732  3.4691 -0.9878
 3645SOL     OW22570   0.858   4.242   7.643  0.1049 -0.1359 -0.2776
 3645SOL    HW122571   0.913   4.168   7.619  0.6156  0.5153 -1.1106
 3645SOL    HW222572   0.871   4.258   7.736 -0.6284 -2.8848  0.3008
 3646SOL     OW22573   2.857   3.044   5.993 -0.8801  0.0973  0.4025
 3646SOL    HW122574   2.815   3.126   5.967  3.6944  1.7512 -1.7227
 3646SOL    HW222575   2.948   3.075   5.991 -0.3595 -1.3836  1.1766
 3647SOL     OW22576   2.274   2.749   9.247  0.6113  0.4243 -0.0994
 3647SOL    HW122577   2.236   2.832   9.218  1.1163  1.8238  3.1928
 3647SOL    HW222578   2.220   2.721   9.321  1.4007 -0.0485  0.2969
 3648SOL     OW22579   1.058   2.712   9.160  0.0355  0.9325 -0.5199
 3648SOL    HW122580   0.985   2.764   9.191  1.6114  2.6005  0.3652
 3648SOL    HW222581   1.129   2.765   9.195 -0.0733  1.0471 -0.4723
 3649SOL     OW22582   4.142   2.984   9.292  0.5406  0.4890 -0.6949
 3649SOL    HW122583   4.085   3.032   9.353  2.5890  0.2721  1.3801
 3649SOL    HW222584   4.089   2.990   9.212 -1.0161 -3.2390  0.0976
 3650SOL     OW22585   4.124   4.443   7.659  0.1825 -0.6911  0.2099
 3650SOL    HW122586   4.134   4.392   7.578  0.8915  0.6388 -0.5499
 3650SOL    HW222587   4.073   4.379   7.708  1.4305 -3.1963 -1.7392
 3651SOL     OW22588   0.552   3.133   3.920  0.1341 -0.3233  0.2995
 3651SOL    HW122589   0.510   3.079   3.854  0.9973  1.1800 -1.4570
 3651SOL    HW222590   0.521   3.093   4.002 -2.0014 -0.1620 -0.4327
 3652SOL     OW22591   4.390   4.437   4.010 -0.7141  0.3673 -0.1781
 3652SOL    HW122592   4.363   4.371   4.073 -1.0500  0.3809 -0.3067
 3652SOL    HW222593   4.319   4.501   4.021  0.4139  2.0395 -2.4031
 3653SOL     OW22594   2.784   0.470  14.361  0.4595  0.0547 -0.4416
 3653SOL    HW122595   2.854   0.498  14.301  0.7718 -1.4897 -0.8033
 3653SOL    HW222596   2.752   0.394  14.312  1.2988 -0.2513 -0.5194
 3654SOL     OW22597   2.862   3.023   4.282  0.0610  0.8635 -0.1691
 3654SOL    HW122598   2.777   3.062   4.302  0.0649  1.5919 -1.6099
 3654SOL    HW222599   2.909   3.097   4.243  1.9748 -0.7922 -1.0120
 3655SOL     OW22600   3.725   1.119  15.802 -0.1032 -0.1679  0.2837
 3655SOL    HW122601   3.651   1.058  15.801  0.4416 -0.8414  0.9050
 3655SOL    HW222602   3.794   1.054  15.791 -0.5534 -0.8507  1.4797
 3656SOL     OW22603   1.434   3.856   5.116  0.1919 -0.1123  0.3854
 3656SOL    HW122604   1.412   3.918   5.186 -3.1560 -0.2357 -0.5721
 3656SOL    HW222605   1.478   3.916   5.056 -0.2752  1.2667  1.4376
 3657SOL     OW22606   1.267   3.836   5.990 -0.1338  0.1998 -0.4205
 3657SOL    HW122607   1.209   3.814   5.917 -1.4828  1.2980  0.3080
 3657SOL    HW222608   1.203   3.852   6.059 -0.6272  4.8206 -1.9132
 3658SOL     OW22609   0.486   1.474   8.351 -0.4268  0.0684  0.3495
 3658SOL    HW122610   0.554   1.501   8.289 -0.4919  1.8800  1.0449
 3658SOL    HW222611   0.403   1.497   8.308 -0.4175 -0.9626 -0.2235
 3659SOL     OW22612   4.133   2.926   5.684 -0.1631 -0.3352 -0.1372
 3659SOL    HW122613   4.156   2.874   5.607 -0.4490  1.3043 -1.3167
 3659SOL    HW222614   4.204   2.991   5.687 -0.3350 -0.1846  0.8504
 3660SOL     OW22615   1.774   4.697   3.447  0.1884 -0.0725  0.0538
 3660SOL    HW122616   1.841   0.025   3.432  0.1351  0.0714  0.4640
 3660SOL    HW222617   1.703   0.017   3.420  1.0866  1.3150  0.7122
 3661SOL     OW22618   0.455   0.295  15.051  0.4540 -0.3255  0.3160
 3661SOL    HW122619   0.401   0.373  15.064 -1.9451 -2.0252  0.4609
 3661SOL    HW222620   0.442   0.270  14.960  0.8038  1.9071 -0.3644
 3662SOL     OW22621   0.318   2.661   5.289 -0.1457 -0.3556  0.0957
 3662SOL    HW122622   0.358   2.732   5.339 -0.1858 -1.3490  1.5747
 3662SOL    HW222623   0.389   2.595   5.294  0.4548 -0.0456 -4.3422
 3663SOL     OW22624   2.907   2.887   1.495  0.0475  0.8248  0.6642
 3663SOL    HW122625   2.997   2.857   1.496 -0.5758 -1.0344  1.7511
 3663SOL    HW222626   2.922   2.980   1.482 -2.6363  1.3321  1.1771
 3664SOL     OW22627   2.147   4.068   2.232  0.3210 -0.2501  0.4629
 3664SOL    HW122628   2.101   4.151   2.248  2.3604  0.9859 -0.0627
 3664SOL    HW222629   2.231   4.101   2.267  0.6138 -1.4158  0.8539
 3665SOL     OW22630   4.107   0.059   9.492 -0.4736 -0.1304 -0.1150
 3665SOL    HW122631   4.145   0.096   9.413 -0.2618 -0.5754 -0.2204
 3665SOL    HW222632   4.019   0.029   9.465  0.1119 -3.0108  1.1557
 3666SOL     OW22633   2.829   1.122   3.442 -0.2538  0.2538 -0.4198
 3666SOL    HW122634   2.852   1.055   3.507 -1.6118  0.5301  0.3603
 3666SOL    HW222635   2.741   1.145   3.471 -0.9449 -3.3959  0.4271
 3667SOL     OW22636   0.816   2.227   7.669  0.1730  0.3286  0.4048
 3667SOL    HW122637   0.734   2.199   7.628 -0.3486  2.2083  0.1391
 3667SOL    HW222638   0.791   2.228   7.761  0.4684 -2.4167  0.5023
 3668SOL     OW22639   1.607   2.520  16.409  0.2199 -0.0850  0.2178
 3668SOL    HW122640   1.520   2.551  16.432  0.2874 -0.2785  0.7265
 3668SOL    HW222641   1.601   2.502  16.315 -1.4923 -2.3234  0.7690
 3669SOL     OW22642   1.900   0.373   2.657 -0.3824 -0.0004 -0.4826
 3669SOL    HW122643   1.895   0.452   2.602  0.8092  0.0636 -0.5028
 3669SOL    HW222644   1.834   0.318   2.615 -0.3836 -2.8452  3.1897
 3670SOL     OW22645   2.422   1.143   4.855 -0.8888  0.0605 -0.7442
 3670SOL    HW122646   2.339   1.097   4.840 -1.6542  0.9012  0.8720
 3670SOL    HW222647   2.476   1.087   4.911 -2.1109  0.4687  0.8598
 3671SOL     OW22648   1.614   0.023  16.309 -0.0958 -0.1131  0.1219
 3671SOL    HW122649   1.643   0.081  16.238  1.0196 -2.5203 -1.3742
 3671SOL    HW222650   1.666   0.059  16.382 -0.8175  1.5975 -0.1958
 3672SOL     OW22651   2.287   2.131   1.723  0.1249 -0.1206  0.6219
 3672SOL    HW122652   2.293   2.137   1.819 -2.2369  0.5136  0.7461
 3672SOL    HW222653   2.213   2.188   1.704  0.8000  0.0240 -1.5651
 3673SOL     OW22654   0.032   1.483   8.010  0.8527  0.2540  0.6064
 3673SOL    HW122655   4.692   1.485   8.064 -0.5703  0.3379 -1.4751
 3673SOL    HW222656   4.735   1.520   7.929 -5.1198 -1.8498  2.3415
 3674SOL     OW22657   2.502   0.850   7.261 -0.3058  0.5314 -0.1172
 3674SOL    HW122658   2.540   0.884   7.342  1.2927 -1.0253 -0.2079
 3674SOL    HW222659   2.583   0.859   7.211  1.0627  1.9814  2.3557
 3675SOL     OW22660   2.152   1.674  11.148  0.4040  0.2949  0.1164
 3675SOL    HW122661   2.150   1.579  11.141 -0.4107  0.5472 -2.9195
 3675SOL    HW222662   2.208   1.688  11.225  0.8086  0.9567 -0.2953
 3676SOL     OW22663   3.849   0.079   6.404  0.0272 -0.2231  0.1168
 3676SOL    HW122664   3.880   0.127   6.480 -0.2108  0.7791 -0.4108
 3676SOL    HW222665   3.790   0.016   6.444  1.1882 -0.6979  1.0435
 3677SOL     OW22666   1.729   4.733   1.326  0.1851  0.1229  0.0621
 3677SOL    HW122667   1.659   0.058   1.311 -0.5202 -0.4864  0.7001
 3677SOL    HW222668   1.713   4.716   1.419  1.6746  0.2286  0.3369
 3678SOL     OW22669   3.814   4.630   6.212 -0.5681 -0.5120 -0.1780
 3678SOL    HW122670   3.864   4.639   6.130 -2.1980  3.3223 -0.7338
 3678SOL    HW222671   3.830   4.716   6.249 -2.1205 -1.3040  2.3604
 3679SOL     OW22672   0.828   0.812   4.943 -0.4810  0.2447 -0.6612
 3679SOL    HW122673   0.808   0.728   4.902 -0.0527 -0.0928 -0.1688
 3679SOL    HW222674   0.902   0.780   4.994 -1.2955 -1.4424 -0.5476
 3680SOL     OW22675   1.505   4.143   4.567 -0.2925 -0.5832 -0.9189
 3680SOL    HW122676   1.530   4.188   4.648 -0.9882 -0.0331 -1.0100
 3680SOL    HW222677   1.514   4.211   4.500  2.9905  1.0147  1.1477
 3681SOL     OW22678   1.864   0.275   6.960  0.5848 -0.1173  0.2859
 3681SOL    HW122679   1.803   0.207   6.931  0.7234 -1.9695  4.3028
 3681SOL    HW222680   1.825   0.318   7.035  0.6325  1.2397 -0.4694
 3682SOL     OW22681   1.576   4.479   3.076  0.4835  0.0358  0.3068
 3682SOL    HW122682   1.620   4.435   3.003 -1.8768 -0.7918 -0.6057
 3682SOL    HW222683   1.638   4.484   3.149  0.9063 -2.6263  0.1071
 3683SOL     OW22684   1.114   0.056   9.398  0.0214 -0.1165  0.3106
 3683SOL    HW122685   1.034   0.081   9.352  0.3405 -0.5469 -0.4841
 3683SOL    HW222686   1.085   0.064   9.489 -0.6027 -0.5791  0.1522
 3684SOL     OW22687   3.088   3.019   5.057  0.1762 -0.1707  0.1028
 3684SOL    HW122688   3.070   3.013   4.963  0.6638 -1.1426  0.0833
 3684SOL    HW222689   3.151   2.953   5.085 -0.5244 -2.2497 -3.3259
 3685SOL     OW22690   2.343   0.490   2.133  0.0783  0.2571 -0.7477
 3685SOL    HW122691   2.260   0.496   2.180 -1.2035 -1.1016 -2.8346
 3685SOL    HW222692   2.384   0.576   2.140 -1.6508  1.2484 -2.5862
 3686SOL     OW22693   0.060   0.781   1.764 -0.0238 -0.7578 -0.3396
 3686SOL    HW122694   0.109   0.719   1.818 -1.7866 -0.9882  0.9769
 3686SOL    HW222695   4.717   0.731   1.751  0.2873 -1.4543  0.3734
 3687SOL     OW22696   1.888   3.809   1.990  0.5817 -0.3493  0.0231
 3687SOL    HW122697   1.980   3.831   1.977  0.7716 -1.0301  0.2404
 3687SOL    HW222698   1.859   3.898   2.011 -1.6138 -0.8150 -0.9715
 3688SOL     OW22699   2.327   0.902  16.290  0.4072  0.0796  0.4636
 3688SOL    HW122700   2.367   0.966  16.231 -2.8392  1.6209 -0.0600
 3688SOL    HW222701   2.288   0.846  16.223 -1.7410  1.9818  0.1329
 3689SOL     OW22702   2.758   2.356   3.217 -0.3743 -0.0017  0.6233
 3689SOL    HW122703   2.749   2.373   3.123  1.4932 -1.8839  0.1079
 3689SOL    HW222704   2.665   2.349   3.240 -0.8472 -2.5225 -1.9839
 3690SOL     OW22705   2.977   2.836   5.275  0.5839 -0.6047  0.4585
 3690SOL    HW122706   3.067   2.851   5.305 -0.7199  3.6021  2.3325
 3690SOL    HW222707   2.991   2.852   5.182  1.6450 -2.4292  0.3042
 3691SOL     OW22708   1.577   1.318   5.803 -0.3123 -0.0927  0.7957
 3691SOL    HW122709   1.534   1.368   5.872 -0.5162 -0.5944  1.0299
 3691SOL    HW222710   1.531   1.235   5.789  0.4918 -0.8847  2.8018
 3692SOL     OW22711   0.471   1.107   8.584 -0.4779  0.2221  0.0260
 3692SOL    HW122712   0.453   1.085   8.492 -2.1984 -1.2238  0.7146
 3692SOL    HW222713   0.478   1.200   8.564  0.5712  0.5280  1.7910
 3693SOL     OW22714   3.256   4.130   4.043 -0.0189  0.4577  0.2282
 3693SOL    HW122715   3.215   4.070   4.105  0.1139 -1.7041 -1.7896
 3693SOL    HW222716   3.337   4.148   4.092  1.0107 -0.6029 -1.0753
 3694SOL     OW22717   3.861   0.027   0.268  0.5385  0.2900 -0.3895
 3694SOL    HW122718   3.806   4.713   0.210 -1.0801  0.5024  0.9452
 3694SOL    HW222719   3.936   0.056   0.216  2.1274  0.1719  1.8262
 3695SOL     OW22720   3.293   2.456   8.625 -0.3785 -0.2728 -0.8386
 3695SOL    HW122721   3.347   2.432   8.549  1.2745 -0.4807  0.4018
 3695SOL    HW222722   3.204   2.450   8.589  0.1801 -0.2124 -2.2537
 3696SOL     OW22723   1.663   2.467   8.945  1.3086 -0.0518  0.2396
 3696SOL    HW122724   1.664   2.506   9.032 -0.9019  3.9988 -1.5608
 3696SOL    HW222725   1.708   2.386   8.968  0.4777 -0.5585  0.0913
 3697SOL     OW22726   3.171   3.525  15.725  0.6062 -0.4135  0.1085
 3697SOL    HW122727   3.248   3.578  15.702  0.2238  1.8690  4.0044
 3697SOL    HW222728   3.206   3.440  15.700  4.0694  1.6955 -2.2376
 3698SOL     OW22729   1.528   2.124   6.890 -0.0105 -0.0212 -0.5394
 3698SOL    HW122730   1.600   2.085   6.939  1.1535  1.0170 -1.4082
 3698SOL    HW222731   1.538   2.216   6.912 -2.4597  0.4088 -1.1648
 3699SOL     OW22732   0.408   0.683   8.369 -0.1354 -0.1084 -0.0288
 3699SOL    HW122733   0.414   0.618   8.439 -4.6317 -1.0298 -0.5082
 3699SOL    HW222734   0.363   0.639   8.296  0.9928  1.3115 -1.5796
 3700SOL     OW22735   1.161   1.733   5.174  0.2290  0.1879 -0.0969
 3700SOL    HW122736   1.142   1.725   5.268  0.2923 -0.4718 -0.1461
 3700SOL    HW222737   1.095   1.674   5.138 -0.4251  0.2419  0.9807
 3701SOL     OW22738   2.588   3.714   9.159  0.6295  0.2934 -0.0200
 3701SOL    HW122739   2.672   3.679   9.191  0.6454  2.7840  2.6465
 3701SOL    HW222740   2.546   3.739   9.240 -1.6754 -0.6745 -0.9201
 3702SOL     OW22741   2.837   3.971   1.930  0.7009 -0.2627 -0.2047
 3702SOL    HW122742   2.841   4.063   1.902 -1.2710 -0.0877  0.0901
 3702SOL    HW222743   2.841   3.937   1.841 -1.3430 -0.2693 -0.2726
 3703SOL     OW22744   1.207   3.263  15.247  0.0242  0.0740  0.0932
 3703SOL    HW122745   1.260   3.339  15.269 -0.1234 -0.1130  1.1113
 3703SOL    HW222746   1.178   3.276  15.157  0.3573  1.1461  0.1379
 3704SOL     OW22747   2.820   2.465   2.915 -0.6715  0.1707  0.2815
 3704SOL    HW122748   2.832   2.540   2.857 -3.3464  0.9495  0.7673
 3704SOL    HW222749   2.902   2.423   2.889 -0.3407  0.4245  0.9244
 3705SOL     OW22750   1.951   0.138  11.811 -0.5418 -0.1794 -0.0249
 3705SOL    HW122751   2.011   0.066  11.793 -1.8569 -1.1523 -0.5150
 3705SOL    HW222752   1.874   0.098  11.771 -0.8955  1.4829 -1.0288
 3706SOL     OW22753   1.946   1.520  16.139 -0.2332  0.0853 -0.0289
 3706SOL    HW122754   1.904   1.587  16.193  1.2285  0.4671  0.6350
 3706SOL    HW222755   2.030   1.521  16.186  0.1470 -1.3501 -0.6697
 3707SOL     OW22756   1.301   4.351   8.302 -0.0235  0.2685  0.2702
 3707SOL    HW122757   1.386   4.397   8.305  0.0955  0.1263 -1.1331
 3707SOL    HW222758   1.334   4.263   8.319  1.4479  1.2138  2.3675
 3708SOL     OW22759   2.815   4.693   2.791 -0.0123  0.3667  0.1047
 3708SOL    HW122760   2.857   4.624   2.843 -2.0244 -1.4657 -0.6683
 3708SOL    HW222761   2.818   0.027   2.853 -1.3471  0.5790 -0.0821
 3709SOL     OW22762   1.496   4.204   8.692  0.1364  0.4205 -0.4772
 3709SOL    HW122763   1.466   4.140   8.756  0.4284 -0.8072 -1.5804
 3709SOL    HW222764   1.590   4.207   8.710  0.2127 -1.2009 -0.6171
 3710SOL     OW22765   2.406   3.357   8.014  0.2526 -0.0596 -0.1154
 3710SOL    HW122766   2.410   3.384   7.922 -0.6532 -0.1605 -0.1838
 3710SOL    HW222767   2.318   3.388   8.037 -0.7048 -2.1169 -1.0498
 3711SOL     OW22768   2.047   3.869   3.198  0.1592 -0.2293 -0.3404
 3711SOL    HW122769   2.074   3.858   3.107  2.0383 -0.7266  0.2639
 3711SOL    HW222770   2.129   3.896   3.241  0.8046 -0.7594 -1.2462
 3712SOL     OW22771   3.100   3.513   4.689  0.2982  0.2915 -0.4994
 3712SOL    HW122772   3.117   3.421   4.667 -0.8566 -0.6881  2.8020
 3712SOL    HW222773   3.007   3.515   4.669  0.4076 -1.5801 -1.2270
 3713SOL     OW22774   4.472   0.642   3.030  0.0083  0.1617  0.1406
 3713SOL    HW122775   4.403   0.704   3.055  0.6114  0.4155  1.1560
 3713SOL    HW222776   4.473   0.642   2.934 -2.4812 -0.0225  0.1137
 3714SOL     OW22777   1.649   0.550  11.766 -0.9870 -0.2925 -0.1045
 3714SOL    HW122778   1.635   0.634  11.810  2.5310 -0.6813  1.7909
 3714SOL    HW222779   1.721   0.574  11.707 -1.7465 -0.6055 -1.1463
 3715SOL     OW22780   3.932   0.351   8.944 -0.0475  0.1736  0.1310
 3715SOL    HW122781   3.900   0.266   8.915  2.5758 -1.1138  1.0147
 3715SOL    HW222782   4.016   0.333   8.985  0.3243  0.0000 -0.7176
 3716SOL     OW22783   1.752   3.968  10.314  0.1751  0.7233  0.3027
 3716SOL    HW122784   1.673   4.003  10.273 -1.2047 -2.9592 -0.2219
 3716SOL    HW222785   1.808   4.042  10.291  1.5083 -0.7312 -1.1041
 3717SOL     OW22786   0.158   2.829   9.631 -0.3974 -0.1972 -0.0776
 3717SOL    HW122787   0.089   2.890   9.606 -0.8833 -0.1977  1.2400
 3717SOL    HW222788   0.237   2.856   9.584 -0.8537  0.7965 -0.2842
 3718SOL     OW22789   3.920   3.008   1.327  0.1162 -0.4175  0.6181
 3718SOL    HW122790   3.956   3.090   1.362  0.8671 -1.1128  1.4894
 3718SOL    HW222791   3.847   3.042   1.277  0.0356 -1.3978  0.0702
 3719SOL     OW22792   2.809   2.532   7.527 -0.3228  0.0873  0.1484
 3719SOL    HW122793   2.818   2.604   7.589  2.5303 -0.6561  0.5763
 3719SOL    HW222794   2.768   2.470   7.588  1.3026 -0.6917  0.4299
 3720SOL     OW22795   1.381   2.946   6.263 -0.0445  0.5447 -0.3096
 3720SOL    HW122796   1.385   2.869   6.207  1.4088 -1.1983  2.1723
 3720SOL    HW222797   1.288   2.957   6.279  0.3430  1.4990  1.3153
 3721SOL     OW22798   3.983   4.002   4.688  0.3078 -0.0754  0.6386
 3721SOL    HW122799   4.048   3.932   4.678  0.5454  0.0488  1.2877
 3721SOL    HW222800   4.026   4.062   4.627  1.7764  0.8676  2.5878
 3722SOL     OW22801   4.120   1.180  15.632 -0.1563  0.0531  0.4136
 3722SOL    HW122802   4.096   1.135  15.714  0.7341 -0.5381  0.3507
 3722SOL    HW222803   4.037   1.218  15.604  1.1916  1.3350 -1.8020
 3723SOL     OW22804   2.262   2.823   7.254 -0.0304 -0.9178  0.2846
 3723SOL    HW122805   2.182   2.858   7.294 -0.4108 -0.3204 -1.0317
 3723SOL    HW222806   2.322   2.884   7.297  0.0585 -2.4592  2.3631
 3724SOL     OW22807   0.133   1.073   3.012 -0.5873 -0.0275 -0.4275
 3724SOL    HW122808   0.224   1.080   3.041 -0.7387 -1.1226  0.3194
 3724SOL    HW222809   0.141   1.020   2.933 -1.7357  0.9132 -1.1719
 3725SOL     OW22810   4.661   4.032   6.872 -0.6937  0.3625 -0.0461
 3725SOL    HW122811   4.651   4.026   6.967  1.5453 -0.1766  0.1605
 3725SOL    HW222812   4.616   4.113   6.851 -1.9239 -0.4624 -0.5524
 3726SOL     OW22813   0.095   4.065   4.841 -0.0138 -0.3468 -0.0496
 3726SOL    HW122814   0.061   4.008   4.772 -0.1281  1.3643 -1.4223
 3726SOL    HW222815   0.187   4.069   4.815  0.2524 -0.0265  0.9563
 3727SOL     OW22816   0.424   4.234   3.946 -0.3555  0.0418 -0.1247
 3727SOL    HW122817   0.443   4.152   3.993 -1.3752 -0.4620 -0.5764
 3727SOL    HW222818   0.331   4.256   3.955  0.3838  1.4162  3.9010
 3728SOL     OW22819   0.070   3.738   6.595 -0.1255 -0.4483 -0.3031
 3728SOL    HW122820   0.007   3.808   6.610  1.0824  0.7312 -0.7727
 3728SOL    HW222821   0.053   3.681   6.671  1.5588  0.2106  0.5719
 3729SOL     OW22822   1.745   3.241   3.462  0.3205 -0.0185  0.3640
 3729SOL    HW122823   1.829   3.267   3.426  0.0722  1.5557  0.8795
 3729SOL    HW222824   1.765   3.153   3.493  0.0162 -0.0769  0.3955
 3730SOL     OW22825   0.297   2.937   3.677  0.2403  0.1728 -0.8074
 3730SOL    HW122826   0.248   2.982   3.746  2.3480  0.8292  0.2851
 3730SOL    HW222827   0.381   2.920   3.720 -1.6727 -1.1052  2.4890
 3731SOL     OW22828   2.831   1.282   4.909 -0.6166 -0.1135  0.2904
 3731SOL    HW122829   2.849   1.373   4.932 -0.7558 -0.8085  3.1592
 3731SOL    HW222830   2.777   1.291   4.831 -0.1549  0.9015  0.0867
 3732SOL     OW22831   2.337   2.461   2.872 -0.2886 -0.4049  0.7984
 3732SOL    HW122832   2.334   2.545   2.919  0.0062 -0.0518  0.1858
 3732SOL    HW222833   2.245   2.436   2.864  0.1063 -1.8071  0.6373
 3733SOL     OW22834   1.105   2.022   2.206 -0.0607  0.2206  0.3907
 3733SOL    HW122835   1.159   2.099   2.221  1.4564 -0.6491 -0.5858
 3733SOL    HW222836   1.129   1.978   2.287 -0.5640 -0.7728 -0.0045
 3734SOL     OW22837   2.627   4.393   5.958 -0.2199  0.3797 -0.1008
 3734SOL    HW122838   2.594   4.467   6.009 -0.5640  0.4641 -0.4404
 3734SOL    HW222839   2.542   4.357   5.930 -1.3989  2.6341  0.5869
 3735SOL     OW22840   3.707   2.379   4.780 -0.1854  0.1451  0.3838
 3735SOL    HW122841   3.702   2.474   4.764 -0.9063 -0.0277 -0.4769
 3735SOL    HW222842   3.619   2.356   4.811 -0.0085 -1.2042 -0.1483
 3736SOL     OW22843   1.239   0.830  15.013 -0.1488 -0.1091 -0.2625
 3736SOL    HW122844   1.278   0.785  14.938  0.2136  0.1004 -0.1995
 3736SOL    HW222845   1.236   0.919  14.978  0.9257 -1.8318 -4.7800
 3737SOL     OW22846   0.766   1.977   3.391  0.6630 -0.4802 -0.0465
 3737SOL    HW122847   0.851   1.959   3.431  0.6059  2.8616  1.5627
 3737SOL    HW222848   0.721   1.904   3.432  0.0652  0.1723  0.4499
 3738SOL     OW22849   2.605   3.783   4.252  0.4936 -0.0425 -0.8155
 3738SOL    HW122850   2.578   3.858   4.199  0.0591 -0.8448 -1.7300
 3738SOL    HW222851   2.558   3.793   4.335  0.8714 -0.0359 -0.6022
 3739SOL     OW22852   1.392   1.139   9.217  0.2545 -0.1102 -0.4517
 3739SOL    HW122853   1.437   1.111   9.297  2.1418 -0.3091 -1.5840
 3739SOL    HW222854   1.423   1.069   9.160  0.6507 -1.6282  1.6523
 3740SOL     OW22855   3.851   0.067   3.527  0.0418 -0.2147 -0.1283
 3740SOL    HW122856   3.822   0.150   3.489  0.8655 -1.0128 -2.5232
 3740SOL    HW222857   3.766   0.022   3.532  0.6260 -1.4378 -1.1050
 3741SOL     OW22858   0.309   4.504   3.248  0.6287 -0.0905 -0.0754
 3741SOL    HW122859   0.361   4.576   3.214 -0.9143  0.5639 -1.0495
 3741SOL    HW222860   0.274   4.534   3.332 -2.9943 -3.8129 -0.2381
 3742SOL     OW22861   3.198   2.011   7.851 -0.4107  0.4855  0.4957
 3742SOL    HW122862   3.197   1.916   7.839  0.8280  0.3505  1.4785
 3742SOL    HW222863   3.287   2.019   7.884 -0.1597  2.6725 -0.6953
 3743SOL     OW22864   2.553   1.154   8.493  0.0059 -0.2706 -0.1740
 3743SOL    HW122865   2.532   1.222   8.556  0.9241  0.4558 -0.6510
 3743SOL    HW222866   2.604   1.203   8.428 -1.9699 -0.0867 -1.5616
 3744SOL     OW22867   0.135   1.920  13.830  0.1859 -0.2482 -0.4559
 3744SOL    HW122868   0.164   1.979  13.761 -3.1310  1.1954 -0.5918
 3744SOL    HW222869   0.195   1.945  13.900 -1.5504 -0.3395  1.0524
 3745SOL     OW22870   0.520   3.037   7.313  0.3760 -0.6933  0.4516
 3745SOL    HW122871   0.458   3.024   7.384 -0.5969  1.1483 -0.0513
 3745SOL    HW222872   0.603   3.017   7.356  0.2955  1.4068  1.5926
 3746SOL     OW22873   4.247   1.023   6.960  0.4264  0.6039 -0.5396
 3746SOL    HW122874   4.297   1.100   6.932  2.1326  0.2457  1.5332
 3746SOL    HW222875   4.263   0.974   6.879 -0.3445 -2.2940  1.0811
 3747SOL     OW22876   1.845   1.634  10.534  0.4850  0.0179 -0.1669
 3747SOL    HW122877   1.750   1.623  10.530  0.1854  2.8084 -0.7209
 3747SOL    HW222878   1.853   1.719  10.578 -1.5254 -0.7977  1.7681
 3748SOL     OW22879   2.468   0.720   2.982 -0.0539 -0.1679 -0.0746
 3748SOL    HW122880   2.402   0.749   2.918  0.6999  0.0312 -0.7525
 3748SOL    HW222881   2.460   0.800   3.035 -0.5088 -1.1545  1.3708
 3749SOL     OW22882   1.888   2.487   3.738  0.2672 -0.4645 -0.1605
 3749SOL    HW122883   1.885   2.490   3.642 -1.6381  0.4143 -0.0688
 3749SOL    HW222884   1.801   2.516   3.764  0.6355 -0.5095  1.1253
 3750SOL     OW22885   3.439   0.472   4.560  0.8710 -0.6456 -0.0109
 3750SOL    HW122886   3.378   0.419   4.509 -2.0364  1.0023  1.7493
 3750SOL    HW222887   3.378   0.502   4.628  2.8872  0.5955  1.2633
 3751SOL     OW22888   4.148   3.037   7.452 -0.4026 -0.3132  0.1840
 3751SOL    HW122889   4.117   3.049   7.362  0.1243  0.3149  0.0781
 3751SOL    HW222890   4.094   2.965   7.484  0.7893 -1.1668  0.2579
 3752SOL     OW22891   4.715   2.757  13.223 -0.1241 -0.1058 -0.2110
 3752SOL    HW122892   0.050   2.713  13.266 -0.0865 -2.5205 -2.7555
 3752SOL    HW222893   4.728   2.846  13.258  0.9549 -0.6488  0.7757
 3753SOL     OW22894   0.817   3.963   6.909 -0.4478  0.7508  0.1858
 3753SOL    HW122895   0.816   3.870   6.933 -1.0987  0.2745 -1.6744
 3753SOL    HW222896   0.741   4.001   6.953  0.3438  0.6603  1.6416
 3754SOL     OW22897   4.147   2.770   1.791  0.0446  0.4340  0.1147
 3754SOL    HW122898   4.139   2.855   1.747  3.2899  0.6189 -0.1459
 3754SOL    HW222899   4.241   2.756   1.779 -0.2059  0.2024 -1.6439
 3755SOL     OW22900   2.260   0.202   4.801  0.4037  0.9123  0.3383
 3755SOL    HW122901   2.195   0.270   4.823  0.7025  0.7781  1.6690
 3755SOL    HW222902   2.297   0.241   4.722  2.6609 -0.1736  0.8645
 3756SOL     OW22903   1.242   3.963   5.704 -0.1805 -0.2339 -0.2038
 3756SOL    HW122904   1.214   4.018   5.777 -0.6263  0.6133 -1.0096
 3756SOL    HW222905   1.294   4.017   5.645 -1.2079 -0.1456 -1.0336
 3757SOL     OW22906   3.154   3.777  15.023 -0.1044 -0.9237  0.3210
 3757SOL    HW122907   3.142   3.779  15.118  0.1807 -0.7052  0.3512
 3757SOL    HW222908   3.083   3.720  14.994 -1.6019  0.3212  1.4990
 3758SOL     OW22909   0.542   3.938   5.397 -0.0063  0.4042  0.1386
 3758SOL    HW122910   0.556   3.844   5.382  0.9846  0.1444  2.6809
 3758SOL    HW222911   0.566   3.963   5.308  1.7110 -0.8070  0.2562
 3759SOL     OW22912   4.356   0.626   8.206  0.3676  0.3606  0.8445
 3759SOL    HW122913   4.434   0.571   8.198  0.2901  0.2873  0.5673
 3759SOL    HW222914   4.291   0.568   8.167  0.7927  0.0005  0.6718
 3760SOL     OW22915   2.110   0.992   7.801  0.3721  0.5266 -0.1483
 3760SOL    HW122916   2.079   1.041   7.877 -0.4659 -0.2349 -0.0060
 3760SOL    HW222917   2.161   0.917   7.833  0.6480  0.7743 -0.0061
 3761SOL     OW22918   0.993   1.667  11.282  0.6434  0.1913  0.2910
 3761SOL    HW122919   0.925   1.685  11.347  1.6286  2.7732  0.6409
 3761SOL    HW222920   0.997   1.574  11.305 -1.5145  0.3863  1.3920
 3762SOL     OW22921   0.778   1.464   6.922 -0.3505 -0.4549 -0.2693
 3762SOL    HW122922   0.711   1.524   6.887 -1.5431 -1.3012  0.5816
 3762SOL    HW222923   0.767   1.476   7.016  0.7526  0.7088 -0.2833
 3763SOL     OW22924   4.192   4.641   0.187 -0.2237 -0.6565 -0.3659
 3763SOL    HW122925   4.192   4.679   0.275 -3.4564 -0.2039 -0.5602
 3763SOL    HW222926   4.287   4.630   0.178  0.1814  1.5164  1.2922
 3764SOL     OW22927   1.315   1.725  11.172  0.5265 -0.2467 -0.5446
 3764SOL    HW122928   1.301   1.781  11.248  3.2603  1.3921 -1.2199
 3764SOL    HW222929   1.354   1.654  11.223 -0.7782 -0.2789  0.3804
 3765SOL     OW22930   4.451   3.732   0.522  0.3261 -0.5858 -0.2130
 3765SOL    HW122931   4.414   3.705   0.438 -0.5341  0.2853 -0.1223
 3765SOL    HW222932   4.495   3.654   0.554  1.1209 -0.1635 -0.2666
 3766SOL     OW22933   1.348   1.911   2.528  0.7469 -0.0838  0.0021
 3766SOL    HW122934   1.405   1.867   2.591 -0.6096  0.4363  1.5788
 3766SOL    HW222935   1.320   1.993   2.570 -0.7776 -0.7143  0.1822
 3767SOL     OW22936   4.345   2.876   6.272 -0.0617 -0.2364 -0.1938
 3767SOL    HW122937   4.401   2.814   6.318 -2.0624 -2.4504 -0.7733
 3767SOL    HW222938   4.351   2.955   6.326 -0.0105 -0.9359  0.8037
 3768SOL     OW22939   4.263   1.708   9.637  1.1512 -0.0365 -0.1865
 3768SOL    HW122940   4.168   1.720   9.636  1.2290  0.5285 -0.8919
 3768SOL    HW222941   4.285   1.801   9.625 -0.3318  0.5270  1.4157
 3769SOL     OW22942   1.734   4.662   3.946  0.0249  1.0956 -0.3567
 3769SOL    HW122943   1.790   4.644   4.021  0.1821 -0.9472 -0.9616
 3769SOL    HW222944   1.729   0.019   3.939 -1.5865  1.1712  1.8413
 3770SOL     OW22945   0.604   3.966  15.233 -0.1175  0.8562 -0.2303
 3770SOL    HW122946   0.651   3.953  15.315 -0.5549 -0.0540 -0.1271
 3770SOL    HW222947   0.527   3.910  15.244 -0.3789  1.0365 -1.1152
 3771SOL     OW22948   3.493   3.631   3.813 -0.1030 -0.0687  0.8245
 3771SOL    HW122949   3.460   3.699   3.755 -0.2516 -0.6666  0.2092
 3771SOL    HW222950   3.543   3.682   3.877 -0.9973  0.8903  0.7630
 3772SOL     OW22951   4.559   1.201   2.428 -0.2846  0.3871  0.1395
 3772SOL    HW122952   4.637   1.185   2.481  0.1753  1.4395 -0.2201
 3772SOL    HW222953   4.596   1.250   2.355 -2.6651 -0.2181 -1.4617
 3773SOL     OW22954   1.963   4.293   9.986 -0.2726 -0.0487 -0.0454
 3773SOL    HW122955   2.038   4.249   9.946 -1.3061 -0.5713 -1.4034
 3773SOL    HW222956   1.895   4.258   9.928  0.9676 -0.4265 -1.2930
 3774SOL     OW22957   0.405   0.057   5.282  0.3997 -0.5192  0.0924
 3774SOL    HW122958   0.343   0.059   5.209 -0.3910 -0.8761  0.7529
 3774SOL    HW222959   0.475   4.738   5.251 -0.1431 -1.5878  0.8089
 3775SOL     OW22960   0.281   3.705   1.896  1.0238 -0.1393 -0.5323
 3775SOL    HW122961   0.339   3.651   1.843  2.3451  0.8551 -0.0837
 3775SOL    HW222962   0.282   3.791   1.854  1.8786  0.4209  0.6080
 3776SOL     OW22963   1.257   2.534   4.878  0.2767  0.1024 -0.1397
 3776SOL    HW122964   1.162   2.529   4.888  0.3107  0.6091  0.4213
 3776SOL    HW222965   1.292   2.456   4.921  2.2018  0.3904 -1.1654
 3777SOL     OW22966   0.339   1.197  13.438  0.3375  0.5118 -0.2893
 3777SOL    HW122967   0.281   1.260  13.481  0.8629  0.4251  0.5451
 3777SOL    HW222968   0.427   1.231  13.452  0.8784 -0.6613 -0.8516
 3778SOL     OW22969   1.999   1.669   6.961  0.0243  0.3452  0.2424
 3778SOL    HW122970   1.989   1.723   7.039 -1.2596  2.0017 -1.0769
 3778SOL    HW222971   2.063   1.718   6.910  0.8919 -0.0916  0.9131
 3779SOL     OW22972   3.443   3.641  13.928 -0.1873 -0.0789  0.5156
 3779SOL    HW122973   3.391   3.644  14.008  0.2305 -1.2662  0.8237
 3779SOL    HW222974   3.516   3.697  13.957  0.8650 -1.2401  0.1009
 3780SOL     OW22975   4.676   3.305  11.511 -0.3381 -0.4315 -0.2334
 3780SOL    HW122976   4.718   3.340  11.433 -0.8919  1.4774  0.3146
 3780SOL    HW222977   0.005   3.240  11.530  0.8306  0.0104 -2.9419
 3781SOL     OW22978   1.673   4.472   4.313 -0.1778  0.2708 -0.2115
 3781SOL    HW122979   1.646   4.520   4.391  0.2369  0.9521 -0.4903
 3781SOL    HW222980   1.596   4.484   4.257 -0.3424 -1.5661 -0.3867
 3782SOL     OW22981   4.341   0.169   2.996  0.5918  0.0948 -0.1481
 3782SOL    HW122982   4.279   0.126   2.938  1.0085 -0.3707 -0.2493
 3782SOL    HW222983   4.378   0.097   3.048 -0.6566  0.5611  1.4052
 3783SOL     OW22984   2.529   0.222  16.045 -0.1483 -0.5087 -0.1995
 3783SOL    HW122985   2.442   0.225  16.085 -0.3906 -3.2646 -0.5278
 3783SOL    HW222986   2.572   0.302  16.074 -0.3828 -0.5881  0.3577
 3784SOL     OW22987   1.803   0.679   4.442  0.3927 -0.3363  0.0048
 3784SOL    HW122988   1.719   0.698   4.400  1.1306  0.9667 -0.8652
 3784SOL    HW222989   1.840   0.767   4.440  2.0877 -1.0899 -1.5075
 3785SOL     OW22990   1.887   3.556   9.544 -0.4193 -0.5429 -0.6523
 3785SOL    HW122991   1.923   3.494   9.480 -2.5762 -0.1138 -2.2986
 3785SOL    HW222992   1.826   3.609   9.493  0.4122  0.5857 -0.4595
 3786SOL     OW22993   3.072   3.306   0.733 -0.3570  0.0175 -0.2440
 3786SOL    HW122994   3.109   3.386   0.773  0.4516 -0.8766  0.7994
 3786SOL    HW222995   3.085   3.334   0.642  0.3255  1.2237  0.2125
 3787SOL     OW22996   1.861   3.090   7.071 -0.0805  0.2965  0.4538
 3787SOL    HW122997   1.849   3.000   7.039  1.2126  0.7554 -1.3262
 3787SOL    HW222998   1.848   3.138   6.989 -2.2320 -0.2353  0.4745
 3788SOL     OW22999   0.243   1.931   9.034  0.5102 -0.0419 -0.2458
 3788SOL    HW123000   0.218   1.919   9.125  0.2874  3.5046  0.1482
 3788SOL    HW223001   0.255   1.842   9.001 -0.0503  0.0421 -0.6788
 3789SOL     OW23002   1.864   1.450   3.503  0.1825 -0.0459 -0.1286
 3789SOL    HW123003   1.836   1.406   3.423 -0.9315  0.0270  0.2295
 3789SOL    HW223004   1.797   1.517   3.509 -0.7143 -1.0892  1.7119
 3790SOL     OW23005   0.558   3.792   8.067 -0.4508 -0.5050  0.4428
 3790SOL    HW123006   0.502   3.733   8.018  0.3456 -1.4689  0.6978
 3790SOL    HW223007   0.636   3.742   8.090 -1.6303 -0.8983  3.6719
 3791SOL     OW23008   3.904   1.446  16.446 -0.5911  0.2040  0.3170
 3791SOL    HW123009   3.876   1.496  16.369 -2.2959 -0.5496  0.4287
 3791SOL    HW223010   3.844   1.484  16.510 -0.1625  0.0371  0.8139
 3792SOL     OW23011   2.734   2.889  11.154  0.9327  0.2569  0.0886
 3792SOL    HW123012   2.729   2.863  11.063 -0.5642  0.1162  0.2028
 3792SOL    HW223013   2.653   2.847  11.183  1.8700 -2.0890 -0.7384
 3793SOL     OW23014   0.746   2.806   0.518 -0.3248 -0.0509 -0.0447
 3793SOL    HW123015   0.716   2.736   0.576  2.8186  0.0511  1.6841
 3793SOL    HW223016   0.788   2.870   0.575 -0.3946 -0.0841  0.0450
 3794SOL     OW23017   2.593   4.609   7.308 -0.2880  0.1822 -0.4332
 3794SOL    HW123018   2.601   4.611   7.404  0.3636 -1.2508 -0.4587
 3794SOL    HW223019   2.509   4.653   7.296  0.0229  0.1765 -2.6127
 3795SOL     OW23020   2.717   0.569   8.615 -0.1118  0.1748  0.1615
 3795SOL    HW123021   2.661   0.568   8.693 -0.4712 -1.5913 -0.1417
 3795SOL    HW223022   2.797   0.532   8.651 -0.2034  2.2965  2.6034
 3796SOL     OW23023   0.375   2.011   0.154  0.1999 -0.1700 -0.1799
 3796SOL    HW123024   0.303   1.949   0.144  0.6585 -0.8195  0.6358
 3796SOL    HW223025   0.435   1.959   0.207 -0.2554  1.6958  2.1450
 3797SOL     OW23026   4.175   2.694   9.989 -0.1022 -0.2407  0.3719
 3797SOL    HW123027   4.123   2.765  10.026  0.1629 -0.4097  1.0671
 3797SOL    HW223028   4.234   2.738   9.927 -0.2057 -1.7276 -0.7890
 3798SOL     OW23029   3.614   0.339  16.994  0.2413 -0.0168 -0.2822
 3798SOL    HW123030   3.702   0.373  17.010  0.6178 -1.2903  0.3496
 3798SOL    HW223031   3.576   0.413  16.946  1.8594  0.6345 -0.5506
 3799SOL     OW23032   1.235   0.858   3.587 -0.0294 -1.3191  0.4601
 3799SOL    HW123033   1.256   0.868   3.680 -1.2201  0.6641  0.5048
 3799SOL    HW223034   1.250   0.946   3.553  2.3394 -1.6562  0.6382
 3800SOL     OW23035   4.309   2.820   6.006 -0.3756  0.3489  0.8974
 3800SOL    HW123036   4.384   2.870   5.974 -0.6953  1.0991  1.3123
 3800SOL    HW223037   4.330   2.820   6.099  2.5744 -0.4009  0.2194
 3801SOL     OW23038   0.054   2.632   4.255  0.0532 -0.2375  0.2859
 3801SOL    HW123039   0.030   2.543   4.230 -1.9883  0.3075  0.2970
 3801SOL    HW223040   4.709   2.652   4.297 -0.2265 -1.9777  0.5650
 3802SOL     OW23041   0.404   0.562  12.365 -0.3728 -0.3515  0.1587
 3802SOL    HW123042   0.494   0.581  12.341 -0.3296 -0.1862  0.4509
 3802SOL    HW223043   0.418   0.468  12.352 -3.0853 -0.5346 -1.3727
 3803SOL     OW23044   1.651   0.686   8.654 -0.1030 -0.1418  0.0678
 3803SOL    HW123045   1.727   0.639   8.687  0.5682  1.3483  0.6408
 3803SOL    HW223046   1.669   0.772   8.693  0.0233 -0.5747  0.9682
 3804SOL     OW23047   2.776   4.058  11.500  0.2054 -0.5870  0.0395
 3804SOL    HW123048   2.695   4.087  11.540  1.1961  0.0762  1.5678
 3804SOL    HW223049   2.735   4.004  11.432  0.3686  2.1071 -2.1912
 3805SOL     OW23050   2.499   3.320   4.090  0.0038  0.4263  0.3435
 3805SOL    HW123051   2.457   3.404   4.072 -1.2611 -0.1742  0.4974
 3805SOL    HW223052   2.514   3.320   4.185  3.2396  1.5055 -0.1691
 3806SOL     OW23053   2.510   2.032  16.999  0.0194  0.0607  0.2214
 3806SOL    HW123054   2.505   2.004  16.908 -1.4258 -1.7138  0.8450
 3806SOL    HW223055   2.592   2.080  16.999  0.8943 -1.4474 -1.3430
 3807SOL     OW23056   1.305   3.711  11.332 -0.3425  0.2384 -0.1434
 3807SOL    HW123057   1.324   3.780  11.269 -0.6019  1.3222  0.9576
 3807SOL    HW223058   1.243   3.655  11.285 -0.1501  0.6533 -0.8827
 3808SOL     OW23059   3.715   4.370   9.209  0.3592 -0.4109  0.2956
 3808SOL    HW123060   3.645   4.399   9.267 -1.6165 -1.6744 -1.4402
 3808SOL    HW223061   3.706   4.275   9.213  0.0295 -0.3641  0.5945
 3809SOL     OW23062   0.111   3.767   5.462  0.1667  0.6659  0.1411
 3809SOL    HW123063   0.073   3.791   5.547 -2.4475  0.3617 -0.9544
 3809SOL    HW223064   0.112   3.672   5.465  1.1477  0.7221  1.7972
 3810SOL     OW23065   2.068   3.993   3.565 -0.0479 -0.3207  0.0405
 3810SOL    HW123066   2.089   4.081   3.597 -0.5770 -0.7091  1.4585
 3810SOL    HW223067   2.137   3.970   3.503  1.0591 -0.4228  1.3022
 3811SOL     OW23068   0.282   2.878  11.010 -0.2150 -0.6660  0.6040
 3811SOL    HW123069   0.275   2.784  10.997 -0.5534 -0.8397  2.0614
 3811SOL    HW223070   0.370   2.880  11.047 -0.2183 -1.6309  0.6567
 3812SOL     OW23071   4.511   3.170   5.264  0.8244 -0.2593 -0.0028
 3812SOL    HW123072   4.460   3.248   5.287  0.3850 -0.8988  1.1691
 3812SOL    HW223073   4.518   3.133   5.352  0.4593 -0.1813  0.0615
 3813SOL     OW23074   2.846   0.100   1.814  0.1535  0.1149 -0.6309
 3813SOL    HW123075   2.867   0.152   1.892 -2.3744  1.2234 -0.6915
 3813SOL    HW223076   2.914   0.033   1.817  0.0395  0.0892  1.3122
 3814SOL     OW23077   2.693   0.320   4.422  0.0396 -0.2061  0.5017
 3814SOL    HW123078   2.752   0.285   4.356 -0.8092  0.7873 -0.7867
 3814SOL    HW223079   2.716   0.413   4.423 -0.0719 -0.1496 -2.7767
 3815SOL     OW23080   2.943   1.872   4.577 -0.4221  0.0482 -0.1999
 3815SOL    HW123081   3.021   1.867   4.632 -0.7112 -1.8482  0.0242
 3815SOL    HW223082   2.896   1.945   4.617  0.2042 -0.5763  1.6758
 3816SOL     OW23083   3.802   2.398   4.344  0.2568  0.1048 -0.2168
 3816SOL    HW123084   3.840   2.401   4.432 -1.1582  1.5696  0.3499
 3816SOL    HW223085   3.868   2.444   4.292  2.4692 -1.5670  1.0974
 3817SOL     OW23086   1.698   3.159  16.643  0.6819 -0.1432 -0.3942
 3817SOL    HW123087   1.767   3.177  16.707  0.7963 -1.6520 -0.0850
 3817SOL    HW223088   1.624   3.129  16.695  1.5211 -2.6534 -0.6578
 3818SOL     OW23089   4.510   1.374   9.206  0.1549 -0.4849 -0.8810
 3818SOL    HW123090   4.536   1.301   9.149 -0.0083  0.0987 -1.6973
 3818SOL    HW223091   4.594   1.414   9.229 -0.7221  0.6118  0.3605
 3819SOL     OW23092   1.034   3.637  11.418 -0.2234  0.6243  0.3527
 3819SOL    HW123093   0.966   3.614  11.482 -0.4588  0.6879  0.1250
 3819SOL    HW223094   1.107   3.670  11.471 -0.5215  0.8988  0.5872
 3820SOL     OW23095   2.728   0.078   5.079 -0.1429  0.0950  0.2165
 3820SOL    HW123096   2.648   0.125   5.057 -0.2611  0.4164  1.3094
 3820SOL    HW223097   2.702   4.725   5.071  1.8028 -0.2926 -1.6530
 3821SOL     OW23098   1.153   2.048   5.347 -0.7309  0.4048 -0.6004
 3821SOL    HW123099   1.183   1.992   5.275  0.7740  2.1302 -1.3349
 3821SOL    HW223100   1.213   2.018   5.415 -3.4764 -0.4419  1.4430
 3822SOL     OW23101   0.274   0.090   5.038  0.2131 -0.5448  0.1620
 3822SOL    HW123102   0.276   0.183   5.013 -1.4217 -0.2655  1.0888
 3822SOL    HW223103   0.185   0.071   5.007 -0.2681  0.5830  0.8683
 3823SOL     OW23104   2.814   1.705   5.433  0.4261  0.1777 -0.2967
 3823SOL    HW123105   2.749   1.692   5.363  1.3873 -1.7189 -0.8431
 3823SOL    HW223106   2.798   1.797   5.450 -0.5061 -0.5347  2.7519
 3824SOL     OW23107   4.255   1.658  16.510 -0.3125  0.1068 -0.4492
 3824SOL    HW123108   4.180   1.611  16.548 -0.6739  1.1302  0.1091
 3824SOL    HW223109   4.321   1.629  16.572 -0.7728  0.8642  0.3955
 3825SOL     OW23110   1.797   3.120   1.458 -0.1445 -0.2810 -0.1893
 3825SOL    HW123111   1.886   3.154   1.467  0.1152 -1.3497  1.2771
 3825SOL    HW223112   1.780   3.091   1.547  0.5085  2.0439  0.7015
 3826SOL     OW23113   2.575   4.682   1.631 -0.5075  0.3730 -0.1413
 3826SOL    HW123114   2.626   0.008   1.583 -0.0263  1.8625  2.4110
 3826SOL    HW223115   2.495   4.722   1.664 -1.0378 -2.2282  1.7248
 3827SOL     OW23116   2.806   3.158  15.207  0.5449 -0.1331 -0.1628
 3827SOL    HW123117   2.802   3.220  15.279  0.6039 -0.6292  0.2722
 3827SOL    HW223118   2.751   3.088  15.244  0.3315  1.0716  1.7410
 3828SOL     OW23119   1.324   1.020   6.123 -0.0852 -0.2453  0.4128
 3828SOL    HW123120   1.262   0.950   6.147 -0.4319 -0.3607 -0.8413
 3828SOL    HW223121   1.403   0.976   6.154  0.4725  0.2946 -0.2425
 3829SOL     OW23122   0.743   2.397   7.361 -0.1155 -0.1471 -0.8947
 3829SOL    HW123123   0.827   2.366   7.326 -0.5404 -2.1654 -0.1605
 3829SOL    HW223124   0.683   2.325   7.340  1.9330 -2.6950  1.9227
 3830SOL     OW23125   1.076   4.237   1.742  0.1650  0.1666  0.7885
 3830SOL    HW123126   1.143   4.295   1.705  1.8478 -2.5672 -0.4112
 3830SOL    HW223127   1.124   4.167   1.786  1.2574  0.5337  0.1638
 3831SOL     OW23128   3.495   3.665  16.831  0.0430  0.0366 -0.5139
 3831SOL    HW123129   3.473   3.588  16.778  2.4575  0.0534 -1.5149
 3831SOL    HW223130   3.414   3.717  16.827  0.5388  0.8247 -0.2601
 3832SOL     OW23131   1.344   4.307  14.295  0.2962  0.0235  0.7027
 3832SOL    HW123132   1.355   4.374  14.227 -0.7455  0.3482  0.8481
 3832SOL    HW223133   1.259   4.342  14.321  0.6813  0.9901  0.6743
 3833SOL     OW23134   2.025   1.953   8.827 -0.0791  0.1045 -0.0784
 3833SOL    HW123135   1.950   2.011   8.815  0.8801  0.9413 -2.0622
 3833SOL    HW223136   1.990   1.892   8.891  0.1992  0.6029  0.5399
 3834SOL     OW23137   0.391   4.379   2.275 -0.4523  0.2508  0.2029
 3834SOL    HW123138   0.311   4.421   2.243 -0.1220  0.9746  0.3272
 3834SOL    HW223139   0.363   4.358   2.364 -3.8056 -0.9796 -1.1190
 3835SOL     OW23140   1.467   3.919   8.042 -0.4034  0.1234  0.2720
 3835SOL    HW123141   1.512   3.978   8.103 -1.8920 -0.0131  1.5151
 3835SOL    HW223142   1.496   3.835   8.075 -0.9122  0.0597  0.5607
 3836SOL     OW23143   0.146   4.606   2.394  0.1926 -0.4890 -0.1742
 3836SOL    HW123144   0.058   4.645   2.395  0.3976 -0.0387  0.4591
 3836SOL    HW223145   0.167   4.628   2.484 -0.3585 -1.6085  0.2292
 3837SOL     OW23146   0.067   1.312  13.964  0.1881 -0.8588 -0.2237
 3837SOL    HW123147   0.029   1.398  13.979  2.1702  0.4293 -2.6045
 3837SOL    HW223148   0.068   1.263  14.046  0.1655 -0.3450  0.0801
 3838SOL     OW23149   2.976   0.133   6.602  0.1432 -0.0667 -0.2479
 3838SOL    HW123150   2.888   0.109   6.632 -0.1021  1.7818  0.4886
 3838SOL    HW223151   2.981   0.212   6.655 -1.6016  0.7774 -1.3499
 3839SOL     OW23152   2.992   3.853  16.715 -0.3103 -0.2982  0.1723
 3839SOL    HW123153   2.935   3.892  16.649  1.1813  3.1811  0.9017
 3839SOL    HW223154   2.964   3.764  16.695 -1.5807  0.5134 -1.6726
 3840SOL     OW23155   0.132   2.626   7.195  0.3910 -0.2883 -0.2287
 3840SOL    HW123156   0.091   2.613   7.280 -0.2411  0.3498 -0.4244
 3840SOL    HW223157   0.064   2.673   7.145 -1.5914 -2.2755  0.6035
 3841SOL     OW23158   1.549   3.219   1.446  0.2933  0.3175  0.2883
 3841SOL    HW123159   1.517   3.134   1.416 -1.2672  0.8060  0.5877
 3841SOL    HW223160   1.643   3.201   1.437  0.1761 -0.5419  0.8271
 3842SOL     OW23161   3.782   3.447   9.487  0.0951 -0.0667  0.0189
 3842SOL    HW123162   3.796   3.355   9.464  0.2120 -0.4443  1.5888
 3842SOL    HW223163   3.864   3.468   9.531 -0.3835  0.6146  0.5845
 3843SOL     OW23164   1.860   2.580   1.078 -0.2398 -0.1153  0.3574
 3843SOL    HW123165   1.924   2.510   1.089  0.9169  0.6795 -1.2299
 3843SOL    HW223166   1.792   2.564   1.144  1.4192  1.2585  2.3824
 3844SOL     OW23167   3.384   0.938   7.347  0.1530  0.3517  0.3220
 3844SOL    HW123168   3.383   0.945   7.252  1.0872  2.0693  0.4418
 3844SOL    HW223169   3.452   0.870   7.350  1.5826  1.7836  0.5447
 3845SOL     OW23170   3.120   1.119   8.568 -0.4919  0.3464  0.1692
 3845SOL    HW123171   3.040   1.157   8.532 -0.5984  0.9199  0.9996
 3845SOL    HW223172   3.149   1.183   8.633  0.5479  1.0077 -0.9441
 3846SOL     OW23173   0.387   3.386   5.431  0.1256  0.1700 -0.0374
 3846SOL    HW123174   0.306   3.360   5.388 -0.1176  1.9515 -0.6685
 3846SOL    HW223175   0.355   3.373   5.520 -3.6595  1.0017 -1.2652
 3847SOL     OW23176   2.503   0.609   5.521 -0.3948  0.1509 -0.0202
 3847SOL    HW123177   2.542   0.658   5.448  1.1931 -2.6566 -1.0657
 3847SOL    HW223178   2.411   0.609   5.498 -0.8737  0.7127  1.8741
 3848SOL     OW23179   1.829   0.765   6.807  0.2418 -0.6474 -0.4748
 3848SOL    HW123180   1.806   0.672   6.799  1.0002 -0.8234 -0.5738
 3848SOL    HW223181   1.846   0.771   6.901 -1.5399  0.5202 -0.2104
 3849SOL     OW23182   0.014   4.606   9.428 -0.5964 -0.9106  0.2716
 3849SOL    HW123183   0.069   4.615   9.506 -0.1952  1.9893 -0.3428
 3849SOL    HW223184   4.707   4.690   9.427 -1.8282 -1.5984 -1.5065
 3850SOL     OW23185   0.227   3.246  11.338 -0.1160  0.7196  0.2108
 3850SOL    HW123186   0.189   3.176  11.284 -1.7267  1.6160  0.1919
 3850SOL    HW223187   0.170   3.319  11.316 -2.1864 -0.2323  2.4648
 3851SOL     OW23188   3.913   2.408   6.827  0.2221  0.5608 -0.2021
 3851SOL    HW123189   3.927   2.323   6.868 -1.7512  0.8860  1.1286
 3851SOL    HW223190   3.838   2.438   6.879  1.6117  0.9603  1.5757
 3852SOL     OW23191   3.048   2.272  12.504 -0.3721 -0.0430  0.2494
 3852SOL    HW123192   3.022   2.211  12.573  1.6130 -0.1188  0.9248
 3852SOL    HW223193   3.018   2.352  12.545  0.0081 -0.4353  1.2858
 3853SOL     OW23194   1.198   3.523  10.347  0.0643  0.0188 -0.4215
 3853SOL    HW123195   1.126   3.462  10.332 -0.0347 -0.0885  0.4592
 3853SOL    HW223196   1.266   3.470  10.306  0.4188  0.2173 -0.0880
 3854SOL     OW23197   0.018   1.881   5.197 -0.0219  0.0400  0.0904
 3854SOL    HW123198   0.004   1.972   5.220 -3.1867 -0.2582 -0.7436
 3854SOL    HW223199   0.085   1.886   5.128  0.5821  3.6719  0.9707
 3855SOL     OW23200   0.919   0.497   3.183 -0.1197  0.5060  0.5387
 3855SOL    HW123201   0.975   0.523   3.256  0.2953 -2.9700  1.4485
 3855SOL    HW223202   0.906   0.586   3.151 -1.4040 -0.6989 -2.2748
 3856SOL     OW23203   1.230   3.003   0.677 -0.1346 -0.1619 -0.2171
 3856SOL    HW123204   1.242   2.915   0.643 -0.6877  0.1292 -1.1621
 3856SOL    HW223205   1.223   3.059   0.600  0.8350  0.6382  0.2599
 3857SOL     OW23206   4.216   2.706  13.270  0.3086  0.3702 -0.7949
 3857SOL    HW123207   4.236   2.613  13.282  0.8520  0.5831 -0.0824
 3857SOL    HW223208   4.149   2.713  13.338 -0.0243  0.0006 -1.0773
 3858SOL     OW23209   4.302   2.738   9.303  0.5889 -0.4667  0.0103
 3858SOL    HW123210   4.246   2.804   9.262  2.9340  0.3879 -1.7958
 3858SOL    HW223211   4.368   2.716   9.237 -2.4698 -2.4308 -2.4525
 3859SOL     OW23212   2.209   1.654   5.351  0.2540 -0.0957 -0.0650
 3859SOL    HW123213   2.206   1.716   5.278  0.4247  0.8053  0.6992
 3859SOL    HW223214   2.246   1.713   5.416 -0.2493 -1.0076  1.0482
 3860SOL     OW23215   4.283   2.697   7.726 -0.0469 -0.0607 -0.1466
 3860SOL    HW123216   4.274   2.719   7.819  0.2543 -2.4877  0.4611
 3860SOL    HW223217   4.325   2.774   7.687  0.0161  0.5862  1.1621
 3861SOL     OW23218   2.391   0.526   3.662 -0.1952 -0.1919  0.1595
 3861SOL    HW123219   2.396   0.461   3.592  3.2926  0.4254 -0.1622
 3861SOL    HW223220   2.401   0.474   3.742 -0.5425 -2.0737 -1.0218
 3862SOL     OW23221   2.507   2.733   8.831  0.4873 -0.0219 -0.1051
 3862SOL    HW123222   2.499   2.705   8.922  0.8600  0.1840 -0.0068
 3862SOL    HW223223   2.595   2.772   8.835  0.0475  0.8938  0.8068
 3863SOL     OW23224   4.161   1.057  15.254  0.6178 -0.1206 -0.0842
 3863SOL    HW123225   4.209   1.133  15.285  0.7874  0.2585 -1.2752
 3863SOL    HW223226   4.226   1.030  15.188  0.0185  1.8582 -1.4820
 3864SOL     OW23227   3.851   0.301  15.378  0.1715 -0.0127  0.4281
 3864SOL    HW123228   3.824   0.214  15.407  1.9505 -0.2978  1.1946
 3864SOL    HW223229   3.827   0.301  15.286 -1.2426  0.7364  0.7947
 3865SOL     OW23230   0.846   1.638   6.574  0.6189 -0.0202 -0.1273
 3865SOL    HW123231   0.815   1.726   6.598 -0.2139 -0.1724 -0.6605
 3865SOL    HW223232   0.768   1.611   6.525  0.1612 -0.0489  0.6211
 3866SOL     OW23233   2.804   0.053  12.732 -0.6106 -0.0357  0.2148
 3866SOL    HW123234   2.737   4.731  12.702 -1.7837  3.1272 -3.5459
 3866SOL    HW223235   2.889   0.022  12.701 -1.1368 -0.3055 -0.9295
 3867SOL     OW23236   3.402   3.264   8.556  0.4946 -0.0593  0.2181
 3867SOL    HW123237   3.419   3.193   8.495 -1.3323 -0.8172  0.5798
 3867SOL    HW223238   3.306   3.265   8.555  0.5057 -0.2771 -0.5878
 3868SOL     OW23239   1.033   0.293   2.100 -0.4652 -0.6060 -0.1177
 3868SOL    HW123240   0.963   0.347   2.134 -0.5501 -0.7526 -0.0584
 3868SOL    HW223241   1.110   0.338   2.135 -2.2481  1.6137  0.9242
 3869SOL     OW23242   0.651   0.067   5.637  0.0470 -0.3511 -0.3171
 3869SOL    HW123243   0.658   4.732   5.699  0.1893  0.6113  0.8222
 3869SOL    HW223244   0.559   0.065   5.614 -0.0580  0.1704  0.0427
 3870SOL     OW23245   2.364   3.607   1.570  0.0430  0.4205 -0.9435
 3870SOL    HW123246   2.319   3.692   1.578 -1.6482 -0.5274 -0.3155
 3870SOL    HW223247   2.324   3.589   1.485 -1.0504  2.1228 -0.7961
 3871SOL     OW23248   4.671   1.566  13.623 -0.4552  0.2403 -0.1500
 3871SOL    HW123249   0.002   1.574  13.689 -0.1079 -1.4294 -0.3267
 3871SOL    HW223250   4.695   1.650  13.583 -0.5902  0.2779 -0.1525
 3872SOL     OW23251   2.110   2.670   5.692 -0.3512  0.2978 -0.1090
 3872SOL    HW123252   2.046   2.710   5.632 -1.1715  1.6116  1.6385
 3872SOL    HW223253   2.192   2.673   5.642 -1.9265  2.0407 -2.6124
 3873SOL     OW23254   3.552   2.788   3.644 -0.6998 -0.2213 -0.0453
 3873SOL    HW123255   3.500   2.861   3.612 -2.0608 -1.1532  0.0649
 3873SOL    HW223256   3.486   2.725   3.671 -2.2035  1.0463 -0.7796
 3874SOL     OW23257   1.536   0.143   4.908 -0.1037 -0.4953  0.4455
 3874SOL    HW123258   1.605   0.208   4.918  1.2482 -1.6022 -1.7389
 3874SOL    HW223259   1.484   0.171   4.983 -0.2621 -0.1070  0.1844
 3875SOL     OW23260   2.259   3.601  10.302 -0.2983  0.1543  0.0970
 3875SOL    HW123261   2.301   3.687  10.302  0.5774 -0.2724  0.9350
 3875SOL    HW223262   2.190   3.614  10.366 -1.0013  0.1033 -0.6512
 3876SOL     OW23263   2.842   4.157   4.732 -0.2689 -0.3445  0.0165
 3876SOL    HW123264   2.841   4.113   4.647 -0.1564 -2.6637  1.2259
 3876SOL    HW223265   2.812   4.243   4.701 -2.8226 -0.6096  1.7433
 3877SOL     OW23266   3.922   0.358   6.335  0.3058 -0.0837 -0.2662
 3877SOL    HW123267   3.895   0.272   6.366  0.2248 -0.1168 -0.4305
 3877SOL    HW223268   3.856   0.372   6.267 -0.3387 -0.8105  0.2140
 3878SOL     OW23269   0.476   0.655   8.846 -0.0477  0.0985  0.5474
 3878SOL    HW123270   0.489   0.729   8.786 -0.1522 -0.6480 -0.3964
 3878SOL    HW223271   0.397   0.612   8.813  1.2107 -1.9737  0.2691
 3879SOL     OW23272   3.466   0.224  15.347 -0.7382  0.4510 -0.2104
 3879SOL    HW123273   3.506   0.295  15.398  0.3972 -0.6457  0.4228
 3879SOL    HW223274   3.422   0.268  15.274 -1.2267  1.6014  0.7733
 3880SOL     OW23275   3.356   4.035   3.738 -0.2562 -0.1949 -0.4607
 3880SOL    HW123276   3.451   4.019   3.744 -0.4353 -0.9240  0.5506
 3880SOL    HW223277   3.336   4.071   3.824 -0.5559  0.6205 -0.8750
 3881SOL     OW23278   3.097   1.460   5.116 -0.2033 -0.0179 -0.3172
 3881SOL    HW123279   3.156   1.433   5.046 -0.9445  0.2660 -1.0500
 3881SOL    HW223280   3.038   1.516   5.066  0.1890 -0.3030 -1.1067
 3882SOL     OW23281   4.383   3.589   6.879  0.0705 -0.2144  0.0888
 3882SOL    HW123282   4.311   3.563   6.937 -0.6172  1.2913 -0.0890
 3882SOL    HW223283   4.349   3.670   6.842 -1.1348 -0.2656  1.0779
 3883SOL     OW23284   3.608   0.511   5.667 -0.1846 -0.3034 -0.1098
 3883SOL    HW123285   3.522   0.543   5.692 -0.5839 -0.9706 -0.6358
 3883SOL    HW223286   3.649   0.503   5.754 -1.8518 -0.5208  0.6579
 3884SOL     OW23287   2.631   3.769   1.973 -0.2345  0.6089  0.2287
 3884SOL    HW123288   2.546   3.800   2.004 -1.6493  0.8587 -3.8755
 3884SOL    HW223289   2.679   3.852   1.969  0.6475  0.1321  0.9521
 3885SOL     OW23290   1.937   3.301   0.811  0.3911 -0.2696  0.2354
 3885SOL    HW123291   1.878   3.312   0.886  2.9512 -0.2202  2.2815
 3885SOL    HW223292   1.958   3.207   0.806  1.6263  0.0426 -0.3943
 3886SOL     OW23293   0.233   1.518   8.227  0.1119  0.7407 -0.1193
 3886SOL    HW123294   0.169   1.543   8.294 -2.0782  0.5963 -2.1659
 3886SOL    HW223295   0.175   1.523   8.150  0.4234  0.2248 -0.3893
 3887SOL     OW23296   4.306   2.177  12.619  0.3374 -0.0987  0.0528
 3887SOL    HW123297   4.379   2.118  12.635 -0.6904 -1.8350 -1.6434
 3887SOL    HW223298   4.236   2.115  12.596  0.3110  0.8773 -2.5226
 3888SOL     OW23299   2.211   0.427   0.297  0.3369  0.2944 -0.3360
 3888SOL    HW123300   2.274   0.435   0.367  1.1115 -1.1946 -0.8532
 3888SOL    HW223301   2.250   0.348   0.258  0.0680  0.5605 -1.1527
 3889SOL     OW23302   3.496   3.242   4.166 -0.5043  0.3531 -0.4360
 3889SOL    HW123303   3.408   3.204   4.165 -0.1145 -0.6554  2.7890
 3889SOL    HW223304   3.543   3.184   4.227 -1.6533  1.4533  1.4960
 3890SOL     OW23305   3.329   1.282   8.333  0.4342  0.0302 -0.0280
 3890SOL    HW123306   3.280   1.204   8.360 -0.0413  0.1324 -0.6180
 3890SOL    HW223307   3.319   1.355   8.394 -2.3932 -0.2974 -0.0987
 3891SOL     OW23308   4.527   0.811   4.371 -0.2606  0.1765 -0.5149
 3891SOL    HW123309   4.456   0.869   4.400  0.1488 -0.9948  2.8046
 3891SOL    HW223310   4.481   0.727   4.377 -0.2207  0.1848 -0.0882
 3892SOL     OW23311   1.519   4.681  15.767  0.2620  0.6253  0.3516
 3892SOL    HW123312   1.479   0.019  15.808 -0.3078 -0.6216  2.1235
 3892SOL    HW223313   1.468   4.613  15.812 -1.4619  0.4154 -1.8933
 3893SOL     OW23314   4.567   0.788   6.974 -1.0221 -0.0815 -0.4443
 3893SOL    HW123315   4.581   0.795   6.879 -0.7372  0.3583 -0.3709
 3893SOL    HW223316   4.575   0.880   6.999 -0.1180 -0.5945  1.1728
 3894SOL     OW23317   0.668   4.659   2.864 -0.3426  0.1119  0.0992
 3894SOL    HW123318   0.750   4.696   2.835 -0.3582 -0.3885 -0.5917
 3894SOL    HW223319   0.689   4.621   2.949 -1.2163  0.9203  0.6728
 3895SOL     OW23320   0.604   1.671   5.900  0.3202  0.1676  0.2907
 3895SOL    HW123321   0.627   1.592   5.851 -1.4934 -0.7036  0.8296
 3895SOL    HW223322   0.532   1.710   5.850  1.7227  1.0567 -1.0133
 3896SOL     OW23323   1.097   4.253   0.454  0.5129  0.7577  0.0188
 3896SOL    HW123324   1.116   4.328   0.511  0.1943 -0.2026  1.3926
 3896SOL    HW223325   1.067   4.294   0.373 -1.4269 -0.1869  0.2571
 3897SOL     OW23326   2.662   0.435   9.178 -0.5563  0.5741  0.5459
 3897SOL    HW123327   2.606   0.359   9.198 -0.6556  0.7755  1.0314
 3897SOL    HW223328   2.597   0.500   9.155  2.1640  3.5213  1.1802
 3898SOL     OW23329   0.348   1.464  13.747  0.2829 -0.4164  0.0490
 3898SOL    HW123330   0.281   1.532  13.755 -0.8042 -1.3906 -0.8625
 3898SOL    HW223331   0.344   1.440  13.655  2.6715  1.3171 -0.5103
 3899SOL     OW23332   1.742   1.842   2.283  0.0393 -0.0607 -0.5109
 3899SOL    HW123333   1.663   1.791   2.269 -0.2495  0.9249 -2.4242
 3899SOL    HW223334   1.743   1.851   2.379 -0.3199  0.2317 -0.5339
 3900SOL     OW23335   4.136   1.839  17.418 -0.0858 -0.1563  0.3417
 3900SOL    HW123336   4.085   1.792  17.484 -3.2676 -0.3352 -2.2794
 3900SOL    HW223337   4.197   1.772  17.386  1.7975  0.7518  1.9764
 3901SOL     OW23338   3.024   3.573  13.139 -0.3726  0.1970 -0.2316
 3901SOL    HW123339   2.933   3.572  13.170 -0.1019 -2.3686  0.4831
 3901SOL    HW223340   3.047   3.661  13.170 -0.3589 -0.0828  0.5447
 3902SOL     OW23341   1.296   0.446   6.450  0.3544 -0.3155 -0.3725
 3902SOL    HW123342   1.278   0.518   6.510  0.2478  0.8173 -1.7626
 3902SOL    HW223343   1.388   0.439   6.474  0.3800  0.8206 -0.1583
 3903SOL     OW23344   0.583   1.247   3.919 -0.2799 -0.4495  0.3307
 3903SOL    HW123345   0.572   1.184   3.849 -1.0980 -0.8640  0.8301
 3903SOL    HW223346   0.578   1.329   3.870 -3.0941 -0.3635  0.7534
 3904SOL     OW23347   2.591   3.286   9.086 -0.3241 -0.9086  0.9106
 3904SOL    HW123348   2.659   3.220   9.076  2.3727  1.6934  2.1848
 3904SOL    HW223349   2.519   3.224   9.101  0.5034 -1.9246  0.6602
 3905SOL     OW23350   0.615   2.214   8.755  0.2367  0.2857 -0.2625
 3905SOL    HW123351   0.549   2.242   8.692  1.0582  0.5558 -1.0086
 3905SOL    HW223352   0.681   2.282   8.743  0.0578  0.8368  1.9374
 3906SOL     OW23353   1.925   0.921  14.869  0.1768 -0.4070 -0.0183
 3906SOL    HW123354   2.000   0.866  14.849  0.7832 -0.4140  2.2960
 3906SOL    HW223355   1.885   0.916  14.782  1.8618 -3.8890 -0.5939
 3907SOL     OW23356   1.270   3.818   1.084  0.3214  0.3458 -0.1842
 3907SOL    HW123357   1.336   3.820   1.154  1.6201  1.8637 -1.4582
 3907SOL    HW223358   1.305   3.890   1.031  1.0809  0.1787  0.0798
 3908SOL     OW23359   0.742   3.313   3.834 -0.0437 -0.3724  0.2153
 3908SOL    HW123360   0.688   3.238   3.858  0.4579 -0.2179  1.8493
 3908SOL    HW223361   0.702   3.342   3.752  0.8563  0.8962  0.2150
 3909SOL     OW23362   0.597   1.886   6.376 -0.3716  0.3023 -0.6025
 3909SOL    HW123363   0.604   1.823   6.304 -1.1087  1.3050 -1.5557
 3909SOL    HW223364   0.513   1.932   6.362 -0.3015  0.5756 -0.1126
 3910SOL     OW23365   3.838   2.289   2.654  0.0951 -0.7437 -0.4515
 3910SOL    HW123366   3.811   2.366   2.703  1.3336 -0.6130  0.0139
 3910SOL    HW223367   3.882   2.333   2.581 -1.0142 -1.2593 -1.4343
 3911SOL     OW23368   1.745   0.927   1.265  0.2453  0.5397  1.0690
 3911SOL    HW123369   1.757   0.843   1.220 -3.3732 -0.0675  1.2834
 3911SOL    HW223370   1.654   0.916   1.291 -0.1670  0.2242 -0.4893
 3912SOL     OW23371   0.197   0.651   7.568  0.4324  0.3666  0.1747
 3912SOL    HW123372   0.184   0.739   7.602  0.7120  0.5373 -0.1654
 3912SOL    HW223373   0.133   0.654   7.498  0.5829 -2.5726 -0.1242
 3913SOL     OW23374   0.114   2.910   8.550 -0.2614  0.2000  0.0649
 3913SOL    HW123375   0.033   2.937   8.592 -0.0689  0.6434  0.1495
 3913SOL    HW223376   0.172   2.986   8.562  0.3227 -0.8423  3.7534
 3914SOL     OW23377   0.142   4.678   3.952 -0.0832 -0.0788 -0.7093
 3914SOL    HW123378   0.142   4.728   4.034  3.2789 -1.3610  0.0769
 3914SOL    HW223379   0.086   4.606   3.979  0.5723 -0.6840 -0.9907
 3915SOL     OW23380   3.354   1.677   4.600 -0.5487  0.2801  0.1044
 3915SOL    HW123381   3.316   1.760   4.626  0.3406  0.4664  0.8313
 3915SOL    HW223382   3.418   1.652   4.666  0.2481  0.6795 -0.5134
 3916SOL     OW23383   1.008   3.580   9.765  0.3719 -0.2939  0.3802
 3916SOL    HW123384   1.002   3.526   9.686  1.3955  0.8696 -0.4948
 3916SOL    HW223385   0.922   3.621   9.773  0.6577  0.1851  1.0108
 3917SOL     OW23386   2.701   0.726   1.918 -0.1681 -0.4229 -0.2346
 3917SOL    HW123387   2.686   0.661   1.849 -0.4146  1.6042 -2.1054
 3917SOL    HW223388   2.731   0.801   1.867 -2.1474  0.6250  0.1453
 3918SOL     OW23389   3.975   4.353   4.075  1.0055  0.6206 -0.3941
 3918SOL    HW123390   3.929   4.354   4.158  1.0241 -1.6469 -0.3755
 3918SOL    HW223391   3.938   4.280   4.025  0.3930  0.6233  0.0534
 3919SOL     OW23392   2.245   3.078   6.995 -0.3828  0.0042 -0.1959
 3919SOL    HW123393   2.278   2.988   6.988  0.8970  0.3860  1.0116
 3919SOL    HW223394   2.233   3.096   6.901 -0.8823  1.0654  0.0755
 3920SOL     OW23395   1.023   1.512   7.840  0.1196 -0.3660  0.2224
 3920SOL    HW123396   1.020   1.572   7.766  0.5359  0.5652  0.9463
 3920SOL    HW223397   1.062   1.432   7.805 -0.5539 -1.4255  1.9135
 3921SOL     OW23398   3.810   2.395   8.334 -0.3399  0.0046 -0.0615
 3921SOL    HW123399   3.818   2.490   8.326 -0.8673  0.1576  1.1789
 3921SOL    HW223400   3.799   2.383   8.429  1.0610  1.2093  0.2450
 3922SOL     OW23401   4.281   4.716  14.137 -0.5019  0.2648 -0.1108
 3922SOL    HW123402   4.349   4.706  14.204 -0.9269 -1.9128 -0.0281
 3922SOL    HW223403   4.209   4.677  14.186  0.0883 -0.5543  0.1082
 3923SOL     OW23404   1.968   3.948   7.453  0.3881  0.2328 -0.0742
 3923SOL    HW123405   1.996   4.034   7.484 -0.3764  0.7545 -0.8294
 3923SOL    HW223406   2.041   3.924   7.397  1.9979 -1.2825  2.6844
 3924SOL     OW23407   1.025   1.552   1.031  0.4463 -0.6088 -0.2198
 3924SOL    HW123408   1.066   1.545   0.945 -0.3708 -0.4692 -0.6210
 3924SOL    HW223409   0.952   1.493   1.015 -0.7766  1.1586 -1.0762
 3925SOL     OW23410   4.598   4.230   4.795 -0.0050  0.1441 -0.4443
 3925SOL    HW123411   4.665   4.186   4.848  0.2667  0.3573 -0.6137
 3925SOL    HW223412   4.525   4.178   4.828  1.1867 -1.5150 -0.4453
 3926SOL     OW23413   1.058   4.615  15.107 -0.0608 -0.2304  0.4249
 3926SOL    HW123414   1.097   4.527  15.101  0.2732  0.0175 -0.9479
 3926SOL    HW223415   1.068   4.648  15.018  0.6869  1.5889  1.1959
 3927SOL     OW23416   1.443   3.041   9.901  0.2281 -0.3136 -0.2182
 3927SOL    HW123417   1.374   3.081   9.954  0.7397 -0.6556  0.7169
 3927SOL    HW223418   1.432   2.948   9.917  1.1496 -0.3714  0.0864
 3928SOL     OW23419   0.825   4.363  10.013  0.2159 -0.0773  0.2981
 3928SOL    HW123420   0.919   4.353  10.000  0.3892 -1.4354  2.5978
 3928SOL    HW223421   0.797   4.278   9.978  0.3207 -0.7383  1.8348
 3929SOL     OW23422   3.987   0.303   4.677 -0.1236 -0.0754 -0.2593
 3929SOL    HW123423   3.987   0.280   4.770 -0.7605 -1.7457 -0.6672
 3929SOL    HW223424   4.078   0.282   4.657  0.3907  1.4534  0.4987
 3930SOL     OW23425   4.578   2.307  16.918  0.1586  0.0929 -0.0466
 3930SOL    HW123426   4.520   2.232  16.902  2.4169 -1.8164  0.7229
 3930SOL    HW223427   4.628   2.277  16.994 -2.7001 -2.4817  0.8360
 3931SOL     OW23428   0.842   1.336   8.426  0.2551 -0.0522 -0.0718
 3931SOL    HW123429   0.843   1.338   8.330 -2.0722  0.9810 -0.0800
 3931SOL    HW223430   0.864   1.245   8.447 -0.1499  0.4721  2.6307
 3932SOL     OW23431   4.579   0.141   3.551  0.0089 -0.2880 -0.0659
 3932SOL    HW123432   4.488   0.155   3.578  1.1228  1.7059  2.6467
 3932SOL    HW223433   4.623   0.216   3.591  0.1702  0.4829 -1.6826
 3933SOL     OW23434   3.317   4.295   6.511  0.1132  0.3070  0.0247
 3933SOL    HW123435   3.270   4.259   6.436  0.9059 -0.9532  0.1359
 3933SOL    HW223436   3.371   4.218   6.530  0.5129  0.1140 -1.9289
 3934SOL     OW23437   0.103   0.590   5.988  0.2791  0.5522  0.2442
 3934SOL    HW123438   0.013   0.585   5.954  0.4533 -2.1739  0.1915
 3934SOL    HW223439   0.152   0.590   5.906  0.5070  1.8698  0.3855
 3935SOL     OW23440   0.782   0.734   9.329 -0.1020 -0.0364  0.8282
 3935SOL    HW123441   0.873   0.754   9.352  0.7775 -0.4962 -2.2073
 3935SOL    HW223442   0.798   0.650   9.286  0.5765  0.8135 -0.5655
 3936SOL     OW23443   2.048   3.649   5.633  0.2223  0.6275  0.0370
 3936SOL    HW123444   2.113   3.665   5.701 -1.5073 -3.7033  2.6687
 3936SOL    HW223445   2.084   3.593   5.564 -2.0561 -0.8280  0.0195
 3937SOL     OW23446   0.700   0.152   4.199  0.1116  0.4720 -0.7186
 3937SOL    HW123447   0.675   0.060   4.185  1.1584 -0.0544  0.9155
 3937SOL    HW223448   0.687   0.194   4.114  2.5328  1.4755 -0.5776
 3938SOL     OW23449   3.277   3.686   9.406 -0.1052  0.3528  0.0258
 3938SOL    HW123450   3.215   3.673   9.478  0.1261 -0.3848  0.0978
 3938SOL    HW223451   3.360   3.678   9.452 -0.7671 -2.4444  0.7697
 3939SOL     OW23452   0.619   3.922   9.495  0.1059  0.1840  0.7710
 3939SOL    HW123453   0.643   3.989   9.560  0.7802 -1.1545  1.8939
 3939SOL    HW223454   0.524   3.913   9.500  0.2943 -0.4821  3.5329
 3940SOL     OW23455   2.739   1.710   5.856 -0.5574 -0.0868 -0.1671
 3940SOL    HW123456   2.718   1.651   5.783 -1.7008  0.0913  0.0299
 3940SOL    HW223457   2.816   1.666   5.894 -2.6108 -2.8367  0.8308
 3941SOL     OW23458   3.864   4.476   5.566  0.7223  0.1622  0.3047
 3941SOL    HW123459   3.814   4.418   5.508 -0.0488  0.5711  0.5564
 3941SOL    HW223460   3.795   4.533   5.601 -0.4597 -1.0871  0.0283
 3942SOL     OW23461   0.889   1.641   4.495  0.2560  0.2847 -0.0873
 3942SOL    HW123462   0.980   1.629   4.522  0.3909  0.3996 -0.4963
 3942SOL    HW223463   0.839   1.572   4.538 -0.6392  0.6915 -0.4812
 3943SOL     OW23464   3.077   2.013   3.051  0.2060 -0.2164  0.5079
 3943SOL    HW123465   3.055   2.023   3.144  1.4548  0.5387  0.7307
 3943SOL    HW223466   3.163   1.972   3.058  1.2424  2.0579  1.3437
 3944SOL     OW23467   0.631   2.517   1.948 -0.4687 -0.6246 -0.2059
 3944SOL    HW123468   0.592   2.533   2.034  1.2096 -0.1212  0.4628
 3944SOL    HW223469   0.646   2.604   1.909 -0.5759 -0.3035  0.4611
 3945SOL     OW23470   4.379   3.918  13.423 -0.2915  0.3543 -0.5377
 3945SOL    HW123471   4.422   3.894  13.505 -0.6539  2.2163  0.2090
 3945SOL    HW223472   4.293   3.895  13.458  1.1439 -2.1522  1.2788
 3946SOL     OW23473   3.319   0.721   0.503 -0.0920 -0.2828  0.0866
 3946SOL    HW123474   3.380   0.666   0.553 -0.4027 -0.9037 -0.2170
 3946SOL    HW223475   3.274   0.785   0.558 -2.3168  1.0334 -3.2556
 3947SOL     OW23476   3.353   4.682   0.790  0.0659 -0.5755 -0.0098
 3947SOL    HW123477   3.411   0.003   0.836 -0.7051  0.4643 -0.3895
 3947SOL    HW223478   3.420   4.627   0.750  0.6766 -0.3414  0.6973
 3948SOL     OW23479   1.889   0.744   3.448 -0.1908  0.5743 -0.2270
 3948SOL    HW123480   1.939   0.759   3.528  0.2264 -0.1209 -0.3609
 3948SOL    HW223481   1.897   0.830   3.407 -0.5669  1.2421  1.0994
 3949SOL     OW23482   0.060   0.985   9.566  0.2049 -0.0069  0.1879
 3949SOL    HW123483   0.154   0.988   9.581  0.4681 -0.5973 -1.3705
 3949SOL    HW223484   0.045   1.078   9.550 -3.1866 -0.7644 -0.9963
 3950SOL     OW23485   4.053   3.397  17.168 -0.0002 -0.0704 -0.1736
 3950SOL    HW123486   4.045   3.437  17.255 -0.2314  0.6632 -0.5296
 3950SOL    HW223487   4.041   3.466  17.102  1.1218  3.1738  2.9775
 3951SOL     OW23488   4.579   3.202   2.331  0.5647  0.4351  0.2761
 3951SOL    HW123489   4.628   3.266   2.278  0.4705 -0.0305 -0.3723
 3951SOL    HW223490   4.503   3.256   2.352 -0.2376 -1.4637  2.2340
 3952SOL     OW23491   2.339   2.053   7.977  0.4728 -0.3138  0.3214
 3952SOL    HW123492   2.370   2.092   7.895 -0.5966 -3.4387 -1.5998
 3952SOL    HW223493   2.325   1.962   7.950 -0.0547 -0.1150 -0.0709
 3953SOL     OW23494   1.647   3.216   2.208 -0.5836  0.1584  0.4988
 3953SOL    HW123495   1.665   3.295   2.258  0.4416 -0.9853  1.9507
 3953SOL    HW223496   1.643   3.154   2.281 -0.7751  0.4292  0.7200
 3954SOL     OW23497   3.127   3.114   5.981 -0.2915 -0.1771 -0.1369
 3954SOL    HW123498   3.219   3.090   5.993 -0.4359  0.1896  1.7482
 3954SOL    HW223499   3.130   3.209   5.984  2.7475 -0.2500 -0.8493
 3955SOL     OW23500   0.222   2.908   1.999 -0.0715  0.1704  0.0584
 3955SOL    HW123501   0.135   2.888   1.965 -0.4427  2.1859 -0.1682
 3955SOL    HW223502   0.211   2.999   2.027 -2.5973  0.6003 -2.3378
 3956SOL     OW23503   1.895   1.886   0.333  0.3195  0.0997 -0.0175
 3956SOL    HW123504   1.989   1.884   0.319  0.3131 -0.7967  0.0671
 3956SOL    HW223505   1.870   1.835   0.410 -0.3495  0.9717  0.3507
 3957SOL     OW23506   4.643   4.440   3.690  0.1463 -0.0534  0.5317
 3957SOL    HW123507   4.688   4.511   3.644 -0.2601  0.1501  0.4468
 3957SOL    HW223508   4.550   4.453   3.669  0.4849  0.9108 -0.3994
 3958SOL     OW23509   1.105   2.536   7.014  0.5953  0.4526 -0.2040
 3958SOL    HW123510   1.077   2.600   7.080  1.6168  0.8040 -0.1086
 3958SOL    HW223511   1.108   2.597   6.941  2.9410  0.9872  0.3365
 3959SOL     OW23512   3.661   1.520   3.298  0.0373  0.0936 -0.6735
 3959SOL    HW123513   3.662   1.430   3.267  1.9898 -0.0212 -0.3134
 3959SOL    HW223514   3.727   1.516   3.368 -1.8510 -0.4238  1.0644
 3960SOL     OW23515   3.756   3.616   7.267  0.0069 -0.0771 -0.5284
 3960SOL    HW123516   3.685   3.552   7.258 -0.4360  0.7211 -2.8313
 3960SOL    HW223517   3.700   3.684   7.229 -1.0012 -0.9963 -0.7033
 3961SOL     OW23518   2.417   2.558   8.157  0.2502  0.0835 -0.2144
 3961SOL    HW123519   2.372   2.501   8.219  1.3800  0.3704  0.8653
 3961SOL    HW223520   2.372   2.640   8.178  0.2314 -0.5007  1.9749
 3962SOL     OW23521   4.063   2.301   8.522  0.0802 -0.3036  0.1006
 3962SOL    HW123522   4.105   2.278   8.439 -1.7632  0.0901 -0.9359
 3962SOL    HW223523   4.064   2.397   8.521 -1.6854 -0.2862  0.3917
 3963SOL     OW23524   2.174   0.617   3.981  0.4220 -0.3944 -0.1174
 3963SOL    HW123525   2.269   0.611   3.973  0.4316 -0.1958 -0.1482
 3963SOL    HW223526   2.165   0.587   4.071  3.9290  0.2460  0.4334
 3964SOL     OW23527   1.414   1.723   7.993 -0.0795  0.1007 -0.0760
 3964SOL    HW123528   1.483   1.741   7.930  2.3723  3.5791  3.6000
 3964SOL    HW223529   1.431   1.795   8.054  0.7401 -0.6870  0.6293
 3965SOL     OW23530   3.641   3.394   3.842  0.9256 -0.2030 -0.2328
 3965SOL    HW123531   3.603   3.478   3.816 -0.5932 -0.4561  1.1447
 3965SOL    HW223532   3.662   3.416   3.933 -1.2220 -2.0753  0.7433
 3966SOL     OW23533   2.427   0.181   6.555 -0.1000 -0.0803  0.0530
 3966SOL    HW123534   2.356   0.117   6.570  0.7646 -0.3572  2.9270
 3966SOL    HW223535   2.385   0.264   6.575  1.9072  0.4490  2.0395
 3967SOL     OW23536   2.127   3.994   5.659 -0.0215  0.3181  0.2827
 3967SOL    HW123537   2.141   4.072   5.604  2.1810  1.6981  2.8064
 3967SOL    HW223538   2.211   3.949   5.658 -0.2475 -0.0850 -1.9257
 3968SOL     OW23539   1.881   1.211  14.092  0.0627  0.5864 -0.4797
 3968SOL    HW123540   1.953   1.151  14.071  0.4946  0.4639  1.3693
 3968SOL    HW223541   1.835   1.131  14.118 -0.1979  1.9958  3.4874
 3969SOL     OW23542   4.346   3.197   8.032  0.1479 -0.5852  0.6236
 3969SOL    HW123543   4.309   3.165   8.114  1.2741 -0.9685  0.9847
 3969SOL    HW223544   4.283   3.265   8.006  0.6605  0.1866  1.4209
 3970SOL     OW23545   3.087   2.246  14.854  0.1206 -0.2852 -0.2257
 3970SOL    HW123546   3.071   2.165  14.903  0.5070 -0.4932 -0.4397
 3970SOL    HW223547   3.043   2.219  14.773  0.4778 -1.8714  0.0979
 3971SOL     OW23548   0.027   0.293  17.041 -0.2552  0.1326  0.1513
 3971SOL    HW123549   4.712   0.322  17.115  0.7680 -1.7930  1.6511
 3971SOL    HW223550   4.704   0.226  17.011 -0.9567  0.2843  1.2166
 3972SOL     OW23551   2.205   3.472   9.288  0.1093 -0.3886 -0.0114
 3972SOL    HW123552   2.215   3.447   9.380 -0.8527 -2.5075 -0.4779
 3972SOL    HW223553   2.291   3.455   9.249 -0.3977 -1.5446 -0.6437
 3973SOL     OW23554   2.826   2.513   4.944  0.5790  0.3869 -0.0476
 3973SOL    HW123555   2.811   2.601   4.979  1.8921  1.5788 -2.5139
 3973SOL    HW223556   2.793   2.533   4.857 -3.9786  0.6976  1.7658
 3974SOL     OW23557   0.310   3.436   1.706 -0.4184 -1.0410  0.4499
 3974SOL    HW123558   0.327   3.407   1.616  0.7603  2.5853 -0.4869
 3974SOL    HW223559   0.358   3.370   1.756  0.0031 -0.5920  0.6259
 3975SOL     OW23560   2.298   2.352   5.261  0.1370 -0.0564  0.5119
 3975SOL    HW123561   2.228   2.390   5.314  0.3417  0.8992  0.1054
 3975SOL    HW223562   2.331   2.419   5.201 -0.4166  0.1016  0.3833
 3976SOL     OW23563   0.695   1.884   0.755 -0.1626 -0.3078  0.7783
 3976SOL    HW123564   0.651   1.884   0.670  0.9539 -0.3553  0.2016
 3976SOL    HW223565   0.682   1.793   0.782 -0.8896 -0.3717  0.2252
 3977SOL     OW23566   2.648   1.714   8.752 -0.1861 -0.0137 -0.2383
 3977SOL    HW123567   2.598   1.714   8.833 -0.6492  0.1502 -0.5221
 3977SOL    HW223568   2.702   1.793   8.760  0.6081 -0.6231  0.3110
 3978SOL     OW23569   2.876   0.251  14.584 -0.0574  0.9937 -0.6426
 3978SOL    HW123570   2.961   0.291  14.604 -0.2161  0.4076  1.1397
 3978SOL    HW223571   2.805   0.311  14.604  1.2767  1.0524  3.8728
 3979SOL     OW23572   3.044   1.812   5.296 -0.1714 -0.4123  0.8837
 3979SOL    HW123573   3.103   1.778   5.230 -1.4876  0.0115 -0.5065
 3979SOL    HW223574   3.041   1.741   5.361  1.0329 -1.1975  0.0696
 3980SOL     OW23575   3.113   1.276  15.239  0.0821  0.1069  0.2193
 3980SOL    HW123576   3.125   1.371  15.243 -1.1407  0.2568  0.3855
 3980SOL    HW223577   3.037   1.272  15.298  0.8510 -2.5860  1.0680
 3981SOL     OW23578   3.502   4.592   4.163 -0.4109 -0.7499 -0.2555
 3981SOL    HW123579   3.504   4.554   4.251  1.5322  1.7047  0.7823
 3981SOL    HW223580   3.581   4.647   4.170 -0.8173 -0.3574  1.2535
 3982SOL     OW23581   2.566   2.266   1.661 -0.2334 -0.4610  0.0194
 3982SOL    HW123582   2.627   2.199   1.693 -0.8174 -1.1509 -0.2969
 3982SOL    HW223583   2.505   2.198   1.630 -0.4026  0.1204 -0.9124
 3983SOL     OW23584   1.608   1.128   8.120 -0.3160 -0.1633 -0.0183
 3983SOL    HW123585   1.561   1.084   8.191 -1.5455  2.8795  1.0666
 3983SOL    HW223586   1.661   1.055   8.089 -3.4158 -2.3728 -0.1687
 3984SOL     OW23587   3.693   4.263  14.846 -0.0029  0.1112  0.1148
 3984SOL    HW123588   3.604   4.249  14.878  0.2831  0.3254  0.9865
 3984SOL    HW223589   3.702   4.356  14.863 -1.0241 -0.0244  1.3981
 3985SOL     OW23590   0.999   4.403   5.373 -0.3223  0.6523 -0.1649
 3985SOL    HW123591   1.020   4.309   5.369 -0.8629  0.5505 -0.7272
 3985SOL    HW223592   0.948   4.406   5.453 -1.3389 -0.1113 -0.7786
 3986SOL     OW23593   0.722   3.373   7.690  0.5313 -0.0964  0.1864
 3986SOL    HW123594   0.683   3.291   7.659  1.4716  0.2537 -1.9768
 3986SOL    HW223595   0.761   3.351   7.775 -0.3914 -1.0994  0.3462
 3987SOL     OW23596   2.074   4.323   5.385 -1.2939 -0.0661  0.3136
 3987SOL    HW123597   2.039   4.345   5.472  0.9479 -0.7526  1.4082
 3987SOL    HW223598   2.165   4.343   5.406 -2.1755  0.6732  3.4608
 3988SOL     OW23599   1.653   4.673   8.522  0.6667  0.6680  0.2247
 3988SOL    HW123600   1.644   0.013   8.576  1.3747 -0.6864  2.3087
 3988SOL    HW223601   1.741   4.648   8.551 -0.4619 -0.2770  2.7309
 3989SOL     OW23602   3.429   1.029   6.719  0.0459 -0.1604 -0.0627
 3989SOL    HW123603   3.513   0.989   6.743  0.2352 -0.4476 -1.1783
 3989SOL    HW223604   3.374   0.953   6.701 -0.3192  0.3033 -0.9362
 3990SOL     OW23605   2.050   3.445  15.917 -0.2846  1.1141 -0.9357
 3990SOL    HW123606   2.119   3.501  15.952  1.2602 -0.3932 -1.5936
 3990SOL    HW223607   2.001   3.415  15.994 -0.9186  0.1181 -1.7297
 3991SOL     OW23608   2.490   1.068   2.064  0.1945 -0.5464  0.0314
 3991SOL    HW123609   2.461   1.034   1.979  1.6031  0.7054 -0.9521
 3991SOL    HW223610   2.569   1.016   2.077  0.1493 -0.2879  1.3112
 3992SOL     OW23611   2.855   0.860   5.137  0.0813 -0.7272 -0.2484
 3992SOL    HW123612   2.843   0.801   5.062  1.4957 -3.2740  1.5266
 3992SOL    HW223613   2.890   0.940   5.099  0.4576 -0.5606  0.4484
 3993SOL     OW23614   0.195   4.009   8.273 -0.0281  0.4262 -0.5083
 3993SOL    HW123615   0.151   4.065   8.209  2.2545  2.2888 -0.4153
 3993SOL    HW223616   0.285   4.003   8.241  0.1725  0.4863  0.0458
 3994SOL     OW23617   2.751   0.317  11.079  0.1164  0.1580 -0.3086
 3994SOL    HW123618   2.738   0.393  11.136 -1.3193 -0.0165 -0.4101
 3994SOL    HW223619   2.665   0.277  11.070  0.3391 -0.9973  2.8494
 3995SOL     OW23620   2.695   4.308  13.292 -0.1422  0.2730  0.2302
 3995SOL    HW123621   2.767   4.249  13.273 -0.0731  0.4183  0.0420
 3995SOL    HW223622   2.733   4.394  13.273 -1.1634  0.6446 -0.1807
 3996SOL     OW23623   1.411   1.676   8.505  0.0218 -0.1411 -0.4400
 3996SOL    HW123624   1.372   1.626   8.433 -0.3071  0.5652 -0.7564
 3996SOL    HW223625   1.470   1.611   8.543  2.4284  2.2210 -0.2348
 3997SOL     OW23626   2.828   1.419   2.547 -0.5370 -0.6457  0.0267
 3997SOL    HW123627   2.916   1.451   2.533 -0.6233 -0.4389 -0.0389
 3997SOL    HW223628   2.833   1.355   2.618  1.1368 -1.3544 -0.7358
 3998SOL     OW23629   0.200   3.408   7.667 -0.3529 -0.4129 -0.0360
 3998SOL    HW123630   0.262   3.444   7.603  1.7347 -1.1129  1.5879
 3998SOL    HW223631   0.153   3.481   7.707  0.3006  0.7968 -1.4455
 3999SOL     OW23632   2.504   0.292  11.546  0.0374 -0.0299 -0.9331
 3999SOL    HW123633   2.599   0.285  11.553  0.2238  2.1661 -1.2567
 3999SOL    HW223634   2.483   0.263  11.458  1.0840 -0.1720 -1.1375
 4000SOL     OW23635   3.527   0.039   9.287 -0.3150 -0.3837  0.1214
 4000SOL    HW123636   3.538   0.092   9.366 -0.6948 -2.0785  1.2915
 4000SOL    HW223637   3.538   0.122   9.239  1.0658  0.7181  2.3220
 4001SOL     OW23638   4.653   0.710  11.466 -0.1977 -0.3076  0.8741
 4001SOL    HW123639   4.584   0.648  11.442 -0.2374  1.1523 -2.7309
 4001SOL    HW223640   4.643   0.766  11.389 -1.4809 -0.5230  0.8830
 4002SOL     OW23641   3.251   1.551   4.412  0.1326 -0.3694 -0.3176
 4002SOL    HW123642   3.295   1.608   4.348 -0.0941  1.4742  1.1532
 4002SOL    HW223643   3.301   1.589   4.485  0.9227 -0.9415 -0.5621
 4003SOL     OW23644   1.200   1.816   1.401  0.2337 -0.3863 -0.1216
 4003SOL    HW123645   1.116   1.784   1.368  0.0605  0.6950 -0.7150
 4003SOL    HW223646   1.222   1.884   1.338 -1.0398  0.1285 -0.0036
 4004SOL     OW23647   1.716   2.752   7.426  0.1223  0.1431 -0.0691
 4004SOL    HW123648   1.765   2.827   7.393  1.6881 -2.1297 -2.8486
 4004SOL    HW223649   1.657   2.793   7.490  1.3264 -0.9191  1.7129
 4005SOL     OW23650   3.216   0.194   6.824 -0.2540 -0.1154  0.6363
 4005SOL    HW123651   3.136   0.144   6.804 -0.1256  1.1319 -2.8697
 4005SOL    HW223652   3.275   0.119   6.835 -1.3648 -0.7971  2.0115
 4006SOL     OW23653   2.137   3.110   4.014  0.5577  0.3117 -0.0941
 4006SOL    HW123654   2.090   3.035   4.051 -1.0148 -0.0285 -2.7594
 4006SOL    HW223655   2.088   3.129   3.933 -0.0782  0.4827  0.3282
 4007SOL     OW23656   3.304   1.780   3.358  0.3366 -0.4849 -0.0335
 4007SOL    HW123657   3.340   1.697   3.389 -1.6707 -0.6978  1.7362
 4007SOL    HW223658   3.212   1.760   3.380 -0.3713  2.4294 -0.4199
 4008SOL     OW23659   3.254   1.537  11.291 -0.3984 -0.3731  0.3897
 4008SOL    HW123660   3.242   1.595  11.216 -1.0325  0.3974  1.0823
 4008SOL    HW223661   3.297   1.460  11.253  1.8815 -0.0828  2.3877
 4009SOL     OW23662   3.609   0.098  13.810  0.0523 -0.1450  0.3958
 4009SOL    HW123663   3.610   0.021  13.868 -1.3461 -0.4372  0.0287
 4009SOL    HW223664   3.527   0.093  13.762  0.0660 -2.5612  0.6058
 4010SOL     OW23665   0.059   3.528   7.374 -0.6528 -0.1084 -0.0581
 4010SOL    HW123666   0.076   3.602   7.316 -2.0909  1.2668  1.2688
 4010SOL    HW223667   4.705   3.530   7.399 -1.1057  0.1946 -1.7904
 4011SOL     OW23668   1.625   3.157  11.200 -0.0977 -0.4489 -0.2914
 4011SOL    HW123669   1.639   3.196  11.114 -2.7587 -0.3914 -0.6888
 4011SOL    HW223670   1.693   3.091  11.186 -0.2662 -0.9090  1.0546
 4012SOL     OW23671   0.936   1.096   8.258 -0.2043  0.1083  0.1268
 4012SOL    HW123672   0.986   1.155   8.201  2.3777 -1.0452  1.1975
 4012SOL    HW223673   0.853   1.088   8.210 -0.7511  1.0920  0.8935
 4013SOL     OW23674   1.872   2.871   2.095 -0.2638 -0.3512  0.4258
 4013SOL    HW123675   1.815   2.795   2.084 -1.1711  0.2039  1.3122
 4013SOL    HW223676   1.824   2.936   2.043  1.1834  0.5587  0.2452
 4014SOL     OW23677   3.223   0.163  14.239  0.3916 -0.1735 -0.0783
 4014SOL    HW123678   3.159   0.119  14.295 -0.1120  0.9889  0.2676
 4014SOL    HW223679   3.175   0.239  14.206 -1.2536 -1.8295 -1.4573
 4015SOL     OW23680   0.907   2.622   2.266 -0.3971  0.3170  0.8840
 4015SOL    HW123681   0.825   2.666   2.243  0.3765  3.0294  3.2155
 4015SOL    HW223682   0.887   2.539   2.223 -3.1548  0.9111  1.0304
 4016SOL     OW23683   4.330   3.587   0.820 -0.2078  0.1403 -0.2963
 4016SOL    HW123684   4.339   3.528   0.895 -1.0897  0.2419 -0.1084
 4016SOL    HW223685   4.404   3.568   0.763 -0.6276  2.3070 -1.5569
 4017SOL     OW23686   0.540   2.311   4.231 -0.4666 -0.2932  0.1868
 4017SOL    HW123687   0.598   2.278   4.162 -1.4490 -0.1294 -0.7281
 4017SOL    HW223688   0.484   2.366   4.177  0.9749 -0.2069 -1.2121
 4018SOL     OW23689   2.053   3.525   8.656 -0.8373 -0.1521 -0.1351
 4018SOL    HW123690   2.140   3.486   8.663  0.2368  2.6311  1.9863
 4018SOL    HW223691   1.999   3.462   8.608 -1.6722  0.4520 -0.0048
 4019SOL     OW23692   3.577   2.246   2.292 -0.6012 -0.5622  0.0466
 4019SOL    HW123693   3.568   2.167   2.345 -0.5124  0.4447  1.5522
 4019SOL    HW223694   3.485   2.255   2.267 -1.1974 -1.0463  2.1164
 4020SOL     OW23695   2.694   3.201  13.584  0.3271 -0.0659 -0.8722
 4020SOL    HW123696   2.612   3.241  13.612  0.1604  0.5984 -2.3576
 4020SOL    HW223697   2.717   3.273  13.526 -1.2326 -0.6496 -2.2001
 4021SOL     OW23698   0.766   2.498   1.523 -0.0733  0.3981  0.1191
 4021SOL    HW123699   0.861   2.501   1.531 -0.1525  0.3567  1.0514
 4021SOL    HW223700   0.763   2.482   1.429  1.0617 -2.7404  0.5948
 4022SOL     OW23701   4.399   0.770  17.469  0.0120 -0.0234 -0.5832
 4022SOL    HW123702   4.306   0.778  17.489  0.5074  3.6174  0.3109
 4022SOL    HW223703   4.397   0.674  17.469  0.4048 -0.0346 -0.2934
 4023SOL     OW23704   0.398   0.611   2.688 -0.7301  0.1167 -0.7795
 4023SOL    HW123705   0.450   0.581   2.763 -2.6075  0.2332  0.5575
 4023SOL    HW223706   0.406   0.706   2.697  0.6579 -0.0510 -0.1982
 4024SOL     OW23707   2.794   4.258   9.433 -0.2012  0.2679 -0.3150
 4024SOL    HW123708   2.808   4.352   9.439  0.8879  0.0276  0.7717
 4024SOL    HW223709   2.857   4.218   9.493 -0.1930 -0.9794 -1.1446
 4025SOL     OW23710   0.002   1.377   7.245  0.4424 -0.2672  0.1740
 4025SOL    HW123711   4.647   1.357   7.253  0.2826  0.3367 -0.2442
 4025SOL    HW223712   0.022   1.395   7.153  0.7308  1.4115  0.5706
 4026SOL     OW23713   1.469   3.034  16.759 -0.1925  0.6366 -0.3526
 4026SOL    HW123714   1.375   3.050  16.753 -0.3818 -0.2351  0.2530
 4026SOL    HW223715   1.477   3.010  16.852 -3.8677  3.4024  0.6806
 4027SOL     OW23716   4.651   1.096   5.943 -0.0506 -0.4276 -0.3128
 4027SOL    HW123717   4.570   1.137   5.913 -1.6221 -1.8996  1.8712
 4027SOL    HW223718   4.620   1.024   5.998  0.3426  0.0594  0.5646
 4028SOL     OW23719   3.214   1.437   5.706 -0.8661  0.7560 -0.1665
 4028SOL    HW123720   3.284   1.427   5.770  1.2148  1.0271 -2.3988
 4028SOL    HW223721   3.141   1.481   5.749 -1.0582  1.7375 -1.4806
 4029SOL     OW23722   2.444   0.175  12.224 -0.5540  0.0865 -0.1008
 4029SOL    HW123723   2.361   0.129  12.212 -0.1815  0.0163 -2.5184
 4029SOL    HW223724   2.421   0.252  12.172  0.0841 -0.1925 -0.7891
 4030SOL     OW23725   4.640   2.667   1.541  0.2700 -0.0995 -0.1311
 4030SOL    HW123726   4.718   2.648   1.488 -0.0310 -0.5670 -0.4105
 4030SOL    HW223727   4.688   2.674   1.623  0.5045  0.7103 -0.3415
 4031SOL     OW23728   1.045   1.759  13.769  0.0699 -0.1340  0.0652
 4031SOL    HW123729   0.988   1.740  13.843 -0.2262 -0.3349 -0.2128
 4031SOL    HW223730   1.131   1.761  13.811  0.3208 -1.1202 -0.3875
 4032SOL     OW23731   2.204   4.353   2.865 -0.3172  0.0047  0.4175
 4032SOL    HW123732   2.268   4.287   2.840  1.7714  0.1084  5.4998
 4032SOL    HW223733   2.135   4.300   2.905  0.0373 -0.8606 -0.1195
 4033SOL     OW23734   1.565   0.537  10.116 -0.2766  0.6160  0.6014
 4033SOL    HW123735   1.578   0.455  10.068  1.1228  1.8218 -1.0835
 4033SOL    HW223736   1.650   0.580  10.110  0.3311 -0.8679 -1.6605
 4034SOL     OW23737   2.895   4.721  14.085  0.1364 -0.0579  0.0368
 4034SOL    HW123738   2.851   4.714  14.170  1.0712 -4.4020  0.1733
 4034SOL    HW223739   2.877   4.632  14.053  2.0239 -1.3734  2.5549
 4035SOL     OW23740   1.209   0.984  13.263  0.0140  0.0990 -0.4211
 4035SOL    HW123741   1.285   0.991  13.205  1.5898  1.1305  1.7733
 4035SOL    HW223742   1.261   0.981  13.343 -0.5869 -0.6653 -0.0536
 4036SOL     OW23743   4.602   2.839   7.794 -0.2897 -0.1468 -0.2228
 4036SOL    HW123744   4.508   2.848   7.812  0.0709 -1.7464  2.4519
 4036SOL    HW223745   4.632   2.924   7.825  0.8557  0.0475 -1.8608
 4037SOL     OW23746   0.674   0.438   5.008 -0.2156  0.0142 -0.3229
 4037SOL    HW123747   0.611   0.510   5.008 -0.8667 -0.5584 -0.0600
 4037SOL    HW223748   0.657   0.399   5.094 -1.9962  1.7629  0.1196
 4038SOL     OW23749   2.491   4.387   9.335 -0.1276 -0.0835  0.1990
 4038SOL    HW123750   2.422   4.321   9.334 -0.3749  0.1708  0.3426
 4038SOL    HW223751   2.458   4.455   9.394 -0.2418  2.1128 -2.3746
 4039SOL     OW23752   0.013   3.845   0.429 -0.0483 -0.4128 -0.0249
 4039SOL    HW123753   4.672   3.898   0.419  0.3032 -0.1458 -1.4420
 4039SOL    HW223754   0.036   3.870   0.519 -0.5016 -0.1393  0.0168
 4040SOL     OW23755   4.006   4.697   3.755 -0.1152 -0.6756  0.1580
 4040SOL    HW123756   4.016   0.043   3.798  2.6603 -0.4328 -1.0036
 4040SOL    HW223757   3.974   4.729   3.671  1.4233  0.7925  0.1425
 4041SOL     OW23758   4.550   0.584   5.969 -0.2511  0.0601  0.1060
 4041SOL    HW123759   4.517   0.599   5.880  1.2265 -1.1390 -0.6381
 4041SOL    HW223760   4.513   0.652   6.024 -0.4334  0.4561 -0.5059
 4042SOL     OW23761   0.183   4.408   0.971  0.6490 -0.1873 -0.2226
 4042SOL    HW123762   0.124   4.405   1.046  1.6420 -2.1231  0.4881
 4042SOL    HW223763   0.208   4.316   0.960 -0.3357 -0.4748 -0.0308
 4043SOL     OW23764   3.067   2.127  11.113  0.1899  0.0830  0.3436
 4043SOL    HW123765   3.033   2.044  11.145  1.6384 -1.2777 -1.6298
 4043SOL    HW223766   3.155   2.119  11.151  0.4881  1.3703 -0.0549
 4044SOL     OW23767   0.653   2.113   3.173 -0.1763 -0.1440  0.2776
 4044SOL    HW123768   0.694   2.058   3.240 -0.7907 -0.3579  0.4761
 4044SOL    HW223769   0.603   2.172   3.228  1.7310  0.3877  1.4392
 4045SOL     OW23770   4.228   0.700   1.602 -0.4897 -0.1852  0.0848
 4045SOL    HW123771   4.312   0.654   1.607  0.3391  1.1511 -1.6941
 4045SOL    HW223772   4.201   0.658   1.520  0.3489 -0.2374 -0.1734
 4046SOL     OW23773   0.535   1.337   6.557  0.8360  0.0185  0.0600
 4046SOL    HW123774   0.546   1.407   6.493 -2.5301  1.0932  0.6639
 4046SOL    HW223775   0.560   1.382   6.638  1.2260  2.4029 -1.4120
 4047SOL     OW23776   0.430   1.454   5.977 -0.7740  0.1755 -0.1830
 4047SOL    HW123777   0.501   1.518   5.973  0.2108 -0.8388  1.2505
 4047SOL    HW223778   0.440   1.420   6.066 -1.6466 -1.4123 -0.7042
 4048SOL     OW23779   3.428   2.800  12.683  0.8230  0.4066  0.3620
 4048SOL    HW123780   3.343   2.763  12.707  1.2046  0.2383  1.4402
 4048SOL    HW223781   3.476   2.779  12.763 -1.0198  0.3218  1.4556
 4049SOL     OW23782   2.907   1.274   3.032  0.1016  0.2654  0.3162
 4049SOL    HW123783   2.898   1.194   3.084  0.2241 -0.7636 -1.2415
 4049SOL    HW223784   2.878   1.337   3.097 -0.1055  1.4715 -0.9450
 4050SOL     OW23785   4.531   2.757   8.859  0.3978  0.1960  0.2937
 4050SOL    HW123786   4.538   2.662   8.850 -2.1199 -0.1207  1.7076
 4050SOL    HW223787   4.437   2.761   8.846  0.1135 -1.2720  1.8006
 4051SOL     OW23788   4.571   4.496   2.312 -0.0475 -0.0313  0.5313
 4051SOL    HW123789   4.518   4.482   2.390 -0.2332  0.2797  0.4589
 4051SOL    HW223790   4.542   4.582   2.282  0.4992  0.2327  0.7663
 4052SOL     OW23791   1.255   1.700   9.173 -0.0338  0.4312  0.1880
 4052SOL    HW123792   1.238   1.670   9.084  1.0559 -0.1971  0.1881
 4052SOL    HW223793   1.189   1.650   9.221 -0.6406 -0.6649 -1.8051
 4053SOL     OW23794   2.154   3.396   7.779 -0.1641  0.9529  0.2494
 4053SOL    HW123795   2.109   3.312   7.775 -0.0192  0.9973 -2.6392
 4053SOL    HW223796   2.071   3.441   7.791 -0.2760  0.7534  0.2103
 4054SOL     OW23797   0.870   2.516   3.391  0.0935 -0.1362  0.0188
 4054SOL    HW123798   0.873   2.612   3.393  0.5534 -0.1746  1.3295
 4054SOL    HW223799   0.897   2.491   3.480 -0.0972 -0.2092  0.0542
 4055SOL     OW23800   1.833   3.773  10.949  0.0133  0.1871  0.2319
 4055SOL    HW123801   1.797   3.709  11.010  1.4663  0.8118  1.7413
 4055SOL    HW223802   1.902   3.726  10.903 -1.3081  1.3431 -2.9021
 4056SOL     OW23803   3.630   1.822   3.692 -0.2002  0.0455  0.0570
 4056SOL    HW123804   3.718   1.796   3.664 -0.4207  2.5658 -2.8770
 4056SOL    HW223805   3.583   1.861   3.620  1.3255  0.2196 -0.8496
 4057SOL     OW23806   4.128   0.349  14.705 -0.0875 -0.1490  0.2148
 4057SOL    HW123807   4.104   0.295  14.630 -0.3879 -1.5451  1.3193
 4057SOL    HW223808   4.121   0.439  14.671 -2.3814 -0.6000 -0.5069
 4058SOL     OW23809   2.258   1.264   6.746 -0.7751 -0.2861  0.1331
 4058SOL    HW123810   2.253   1.247   6.652  0.5183 -1.3192  0.2545
 4058SOL    HW223811   2.184   1.210   6.775 -0.7822 -1.0206 -1.2556
 4059SOL     OW23812   0.399   3.554  12.726  0.2970  0.3762 -0.8706
 4059SOL    HW123813   0.315   3.512  12.708  0.3314  0.5212 -1.3693
 4059SOL    HW223814   0.394   3.556  12.821 -0.0950 -1.6283 -0.8438
 4060SOL     OW23815   2.860   2.881   7.405  0.7623  0.2486 -0.2959
 4060SOL    HW123816   2.794   2.832   7.454  1.9437  1.2149  2.3060
 4060SOL    HW223817   2.869   2.963   7.454 -1.5863  0.9427 -1.0517
 4061SOL     OW23818   0.865   1.554   2.783  0.0968 -0.1393 -0.4363
 4061SOL    HW123819   0.830   1.579   2.869 -2.1129 -2.8033 -0.5641
 4061SOL    HW223820   0.899   1.639   2.756  0.5317 -0.4698 -0.9011
 4062SOL     OW23821   0.575   3.189   8.865 -0.6041 -0.1345 -0.0320
 4062SOL    HW123822   0.578   3.111   8.810 -1.7183  0.1288 -0.4620
 4062SOL    HW223823   0.508   3.163   8.929  0.3403  0.8062  1.3451
 4063SOL     OW23824   1.657   3.668  17.651 -0.1751 -0.4236 -0.2063
 4063SOL    HW123825   1.652   3.648  17.558 -1.3611 -0.8668 -0.0541
 4063SOL    HW223826   1.739   3.630  17.683  1.8817  4.2395  0.0595
 4064SOL     OW23827   1.313   2.006   6.782  0.1221  0.0235 -0.8968
 4064SOL    HW123828   1.350   1.921   6.756 -1.1486 -0.5643 -0.7623
 4064SOL    HW223829   1.390   2.046   6.823  0.2040 -0.5446 -0.4844
 4065SOL     OW23830   1.156   3.928   4.076 -0.3492 -0.0279 -0.0240
 4065SOL    HW123831   1.075   3.960   4.036  1.6328  3.0777 -1.5377
 4065SOL    HW223832   1.220   3.966   4.017 -1.8927  1.2992 -0.8292
 4066SOL     OW23833   1.275   1.758   2.069  0.3399 -0.2053  0.1005
 4066SOL    HW123834   1.313   1.786   1.985  1.7208 -1.6484  0.2669
 4066SOL    HW223835   1.183   1.782   2.058  0.0777 -0.8939  0.8026
 4067SOL     OW23836   0.856   3.139   3.284 -0.3012 -0.2202 -0.4572
 4067SOL    HW123837   0.867   3.073   3.215 -1.0157 -0.0975 -0.6944
 4067SOL    HW223838   0.946   3.165   3.301 -0.3712 -0.9460  1.0476
 4068SOL     OW23839   0.941   0.717   3.668 -0.1084  0.3158 -0.1257
 4068SOL    HW123840   0.937   0.801   3.713  0.3410  1.0368 -1.4327
 4068SOL    HW223841   0.860   0.735   3.620 -0.2782 -1.3278 -0.4698
 4069SOL     OW23842   0.169   4.261   2.447  0.2401  0.1516  0.3298
 4069SOL    HW123843   0.207   4.182   2.409  1.7836  0.4067  1.3742
 4069SOL    HW223844   0.076   4.254   2.423  0.5350  1.3164 -1.1463
 4070SOL     OW23845   0.557   3.034   8.275  0.0490 -0.2421 -0.2457
 4070SOL    HW123846   0.639   3.051   8.228 -0.4641  0.5301 -0.8715
 4070SOL    HW223847   0.529   2.958   8.225 -0.7541  2.7014 -4.3266
 4071SOL     OW23848   2.260   1.372   9.291  0.4261 -0.3048  0.5787
 4071SOL    HW123849   2.208   1.345   9.367  0.9219 -1.0507  0.6466
 4071SOL    HW223850   2.240   1.295   9.237 -0.8325  0.3536  0.0994
 4072SOL     OW23851   4.645   1.215  13.223 -0.3103  0.1764  0.0959
 4072SOL    HW123852   4.595   1.285  13.265 -1.0491  0.9138 -1.9964
 4072SOL    HW223853   4.676   1.176  13.304  0.6170  0.3489 -0.1690
 4073SOL     OW23854   1.422   3.561   1.355  0.4668  0.1450 -0.0981
 4073SOL    HW123855   1.473   3.625   1.305 -0.9655  1.0240 -0.4154
 4073SOL    HW223856   1.367   3.530   1.283  0.1953  2.2456 -0.8024
 4074SOL     OW23857   3.929   1.134   3.868  0.2404 -0.3626  0.0110
 4074SOL    HW123858   4.011   1.120   3.916 -0.3277 -0.9320  0.8082
 4074SOL    HW223859   3.951   1.108   3.779 -1.2690 -0.6412 -0.2718
 4075SOL     OW23860   3.383   2.719   0.108  0.0408  0.0878 -0.2489
 4075SOL    HW123861   3.449   2.744   0.173 -0.9033  1.6773  0.0824
 4075SOL    HW223862   3.325   2.794   0.113 -2.2102 -1.8682  2.5439
 4076SOL     OW23863   1.760   3.742   1.670 -0.2978 -0.6825  0.1721
 4076SOL    HW123864   1.754   3.739   1.766  2.7558  2.5634  0.4669
 4076SOL    HW223865   1.666   3.750   1.651 -0.0619  1.4689 -0.0245
 4077SOL     OW23866   0.293   1.321   9.240 -0.2194 -0.1413 -0.2185
 4077SOL    HW123867   0.362   1.385   9.250  0.0625  0.0123 -3.0330
 4077SOL    HW223868   0.222   1.357   9.294 -1.1997  0.2505 -1.7668
 4078SOL     OW23869   0.171   4.381   4.244  0.3518 -0.6921 -0.2917
 4078SOL    HW123870   0.253   4.401   4.289 -0.6754  1.2744  0.7101
 4078SOL    HW223871   0.140   4.468   4.219  1.9617 -0.5912 -1.9440
 4079SOL     OW23872   0.964   0.065   3.116 -0.0276 -0.1299  0.1059
 4079SOL    HW123873   1.052   0.066   3.153  0.0066 -0.9994  0.0499
 4079SOL    HW223874   0.967   0.018   3.033  2.0806  0.2150  0.0041
 4080SOL     OW23875   2.171   4.093  16.119  0.3714 -0.3957 -0.0405
 4080SOL    HW123876   2.246   4.084  16.178 -1.2988  1.2616  2.3123
 4080SOL    HW223877   2.095   4.103  16.175  0.1103 -1.9877 -0.1216
 4081SOL     OW23878   4.539   2.276  11.826  0.5314 -0.1763 -0.4107
 4081SOL    HW123879   4.605   2.279  11.756  0.3576  0.3457 -0.5505
 4081SOL    HW223880   4.464   2.274  11.766  1.7188 -1.2538 -1.8650
 4082SOL     OW23881   2.160   2.984   8.140  0.4000  0.1441  0.0321
 4082SOL    HW123882   2.256   2.987   8.138  0.4929 -1.1947  1.7540
 4082SOL    HW223883   2.142   2.946   8.054  1.1790 -1.2307  0.4652
 4083SOL     OW23884   1.091   3.645   1.032  0.5857  0.0698  0.2621
 4083SOL    HW123885   1.141   3.727   1.030  1.4467 -0.5424 -3.3145
 4083SOL    HW223886   1.042   3.651   0.950  0.1261 -3.0581  0.3166
 4084SOL     OW23887   1.998   0.552  13.093  0.4370  0.1157 -0.0831
 4084SOL    HW123888   2.090   0.550  13.067  0.1806  3.2463 -1.3210
 4084SOL    HW223889   2.010   0.532  13.186 -0.2891  2.1173  0.4395
 4085SOL     OW23890   3.202   3.766  11.176  0.0869 -0.2555 -0.1073
 4085SOL    HW123891   3.239   3.696  11.231  2.2737 -1.2618 -2.8750
 4085SOL    HW223892   3.283   3.783  11.129  0.4921  0.9827  1.0223
 4086SOL     OW23893   3.789   3.495   6.402  0.0091  0.0140  0.4770
 4086SOL    HW123894   3.777   3.413   6.355  0.0794 -1.0985  2.3798
 4086SOL    HW223895   3.877   3.487   6.439 -0.5726  0.4865  1.9740
 4087SOL     OW23896   0.425   0.676   1.634  0.2166  0.1296  0.3700
 4087SOL    HW123897   0.454   0.754   1.681  2.4814 -0.0217 -0.7711
 4087SOL    HW223898   0.397   0.715   1.551  2.3613  0.4901 -0.1869
 4088SOL     OW23899   0.507   2.016  12.193  0.3858  0.2139  0.4877
 4088SOL    HW123900   0.595   1.980  12.207  1.5887  2.1886 -1.9631
 4088SOL    HW223901   0.469   1.998  12.279 -0.6876  0.7893  0.1342
 4089SOL     OW23902   0.133   0.462   6.709 -0.1567  0.3222  0.2528
 4089SOL    HW123903   0.174   0.509   6.782 -1.1813 -0.2564  1.2004
 4089SOL    HW223904   0.197   0.484   6.641  2.5291  0.0777  2.6672
 4090SOL     OW23905   2.029   4.298   2.334 -0.2218  0.2413  0.6688
 4090SOL    HW123906   1.994   4.387   2.325  0.9355  0.8566  2.3612
 4090SOL    HW223907   2.035   4.293   2.429  1.2318 -3.2917  0.3790
 4091SOL     OW23908   1.858   1.707  16.323 -0.0099 -0.6261 -0.2374
 4091SOL    HW123909   1.768   1.713  16.354 -0.0826  1.0429 -0.7380
 4091SOL    HW223910   1.903   1.785  16.355  0.0528 -0.6947 -0.1602
 4092SOL     OW23911   3.154   3.184   2.800 -0.8530 -0.6833  0.4183
 4092SOL    HW123912   3.163   3.168   2.894  2.0757 -1.5480  0.0035
 4092SOL    HW223913   3.208   3.113   2.764  0.5286  1.3188 -1.4416
 4093SOL     OW23914   2.281   1.605  14.056  0.2930  0.3867 -0.0589
 4093SOL    HW123915   2.299   1.608  14.150  0.3446  1.3774 -0.1044
 4093SOL    HW223916   2.195   1.562  14.053  0.5907 -0.2747  0.9642
 4094SOL     OW23917   2.854   2.237  17.707  0.4226 -0.1253 -0.4197
 4094SOL    HW123918   2.921   2.305  17.714  1.8756 -1.5786  0.0201
 4094SOL    HW223919   2.900   2.168   0.005 -0.3805 -0.4954 -0.1975
 4095SOL     OW23920   1.443   0.755   1.099  0.0930 -0.0299  0.4172
 4095SOL    HW123921   1.448   0.788   1.188 -0.7665 -0.9835  0.8088
 4095SOL    HW223922   1.510   0.806   1.053 -0.6873  0.5287 -0.0888
 4096SOL     OW23923   3.415   0.975  14.613 -0.1639  0.1842 -0.1384
 4096SOL    HW123924   3.453   0.889  14.631 -1.4159 -0.3036  0.1754
 4096SOL    HW223925   3.447   0.988  14.524 -1.1009  0.4178 -0.4453
 4097SOL     OW23926   0.993   1.706   3.959 -0.0220 -0.4766  0.3956
 4097SOL    HW123927   0.962   1.764   4.029  1.7290 -0.3552  1.0624
 4097SOL    HW223928   0.956   1.756   3.886 -3.8081 -0.0746  2.6111
 4098SOL     OW23929   3.087   1.957   2.000 -0.4964  0.4706  0.3121
 4098SOL    HW123930   3.098   1.864   1.980  1.1357  0.1691  2.7106
 4098SOL    HW223931   3.083   1.955   2.095 -0.1118  0.3001  0.3232
 4099SOL     OW23932   1.253   4.365   6.673 -0.3093 -0.0884  0.3664
 4099SOL    HW123933   1.241   4.458   6.693 -2.0392 -0.0786 -0.7170
 4099SOL    HW223934   1.207   4.326   6.748 -1.9241  1.8560  0.3929
 4100SOL     OW23935   2.388   3.820   3.919 -0.5485  0.0307 -0.0063
 4100SOL    HW123936   2.355   3.873   3.991 -0.0493 -0.3475  0.5055
 4100SOL    HW223937   2.390   3.889   3.852  0.0024 -1.2589 -1.3432
 4101SOL     OW23938   0.242   0.935   8.399 -0.0151 -0.0095 -0.1972
 4101SOL    HW123939   0.296   0.861   8.428 -0.3885  0.8516  2.5922
 4101SOL    HW223940   0.171   0.927   8.463 -0.3244  1.6823 -0.3287
 4102SOL     OW23941   3.556   0.633  13.497 -0.2173 -0.5432 -0.3997
 4102SOL    HW123942   3.479   0.577  13.494 -0.4351 -0.3689  2.0707
 4102SOL    HW223943   3.596   0.605  13.579 -1.4006 -1.4769 -0.1497
 4103SOL     OW23944   1.445   0.451   5.059  0.7228 -0.5063  0.3716
 4103SOL    HW123945   1.410   0.416   4.977  0.2863 -2.2363  1.2805
 4103SOL    HW223946   1.409   0.382   5.116  2.2057 -2.2895 -0.8250
 4104SOL     OW23947   1.730   0.721   1.103  0.0558 -0.4728 -0.0798
 4104SOL    HW123948   1.683   0.649   1.145 -0.3416  0.0616  0.3838
 4104SOL    HW223949   1.792   0.669   1.050 -0.3051 -1.1806  0.1873
 4105SOL     OW23950   1.793   0.181   8.487 -0.2457  0.2221 -0.1548
 4105SOL    HW123951   1.831   0.106   8.441 -0.3461  2.0115 -3.1237
 4105SOL    HW223952   1.879   0.215   8.514 -0.0123 -0.5284  0.0544
 4106SOL     OW23953   1.035   0.746   9.397  0.2868 -0.4386  0.2034
 4106SOL    HW123954   1.066   0.657   9.414 -2.6300 -1.1135  1.9544
 4106SOL    HW223955   1.042   0.787   9.484 -0.8587 -2.9098  1.4614
 4107SOL     OW23956   3.494   1.160   9.581  0.1461 -0.1779  0.0476
 4107SOL    HW123957   3.432   1.233   9.576 -0.4393 -0.7906 -1.7452
 4107SOL    HW223958   3.441   1.083   9.563  0.2522  0.2056 -1.8466
 4108SOL     OW23959   0.935   0.080  10.518 -0.0461  0.2356  0.1605
 4108SOL    HW123960   0.890   0.148  10.568  1.9237  1.2562  0.5398
 4108SOL    HW223961   1.025   0.090  10.549  0.2318 -1.2451 -0.1297
 4109SOL     OW23962   4.546   1.125   3.406 -0.4042  0.1796  0.0077
 4109SOL    HW123963   4.564   1.058   3.472  1.8651 -1.2956 -2.0968
 4109SOL    HW223964   4.597   1.082   3.337 -0.0922  0.9022 -0.2149
 4110SOL     OW23965   0.180   0.566   2.184 -0.5541  0.4050  0.2111
 4110SOL    HW123966   0.124   0.635   2.148  0.6684  1.0420 -0.4898
 4110SOL    HW223967   0.208   0.514   2.109 -1.3233  0.9206 -0.4301
 4111SOL     OW23968   0.045   0.570   5.708 -0.4657  0.1445 -0.0874
 4111SOL    HW123969   0.007   0.532   5.629 -0.8112  0.2023  0.0475
 4111SOL    HW223970   4.721   0.640   5.729 -0.1064  0.1114  1.1229
 4112SOL     OW23971   0.417   1.303   8.106 -0.9581  0.3337  0.7879
 4112SOL    HW123972   0.363   1.230   8.137  0.7591 -0.6462  1.4876
 4112SOL    HW223973   0.368   1.376   8.145 -0.5764  1.6681 -1.2260
 4113SOL     OW23974   3.305   3.607  14.180  0.8162 -0.1653  0.5708
 4113SOL    HW123975   3.293   3.698  14.208  2.5870  0.3571 -0.3567
 4113SOL    HW223976   3.257   3.570  14.254  1.2265  0.3770  1.1125
 4114SOL     OW23977   1.670   1.801   4.597 -0.2724  0.3457  0.5364
 4114SOL    HW123978   1.625   1.718   4.586  0.9081 -0.1928 -0.2615
 4114SOL    HW223979   1.752   1.779   4.552 -0.1073  0.1052  0.9665
 4115SOL     OW23980   1.267   1.462  10.480  0.4526 -0.4420  0.0823
 4115SOL    HW123981   1.233   1.510  10.555  1.0220  0.3931 -0.2050
 4115SOL    HW223982   1.188   1.408  10.467 -0.5552  1.2605 -0.8940
 4116SOL     OW23983   0.601   1.360  12.606  0.3741 -0.4422 -0.4561
 4116SOL    HW123984   0.671   1.420  12.634 -0.6998  0.1602  0.9119
 4116SOL    HW223985   0.521   1.392  12.646 -1.0561 -2.6683 -1.5757
 4117SOL     OW23986   2.632   1.966  12.162 -0.1013 -0.0034  0.2120
 4117SOL    HW123987   2.681   2.048  12.151 -0.9843  0.5083  0.0674
 4117SOL    HW223988   2.701   1.907  12.193  1.4066  0.3478 -2.4885
 4118SOL     OW23989   1.507   0.269   8.044  0.2200 -0.2270  0.0335
 4118SOL    HW123990   1.485   0.207   8.114  1.3771 -0.2438  0.3870
 4118SOL    HW223991   1.449   0.341   8.068 -0.6329 -1.0287  0.3753
 4119SOL     OW23992   3.018   2.161  10.357  0.5631 -0.8346 -0.1918
 4119SOL    HW123993   2.965   2.210  10.420  0.0753 -0.8371 -0.6049
 4119SOL    HW223994   3.106   2.166  10.394 -0.6354  0.5560  2.4283
 4120SOL     OW23995   3.373   0.097   2.324  0.3546 -0.1339 -0.6577
 4120SOL    HW123996   3.290   0.142   2.341  0.2259 -0.9027  0.7158
 4120SOL    HW223997   3.350   0.006   2.341 -1.0716  0.1615 -1.0212
 4121SOL     OW23998   3.131   2.062   3.614 -0.6097  0.1177  0.2868
 4121SOL    HW123999   3.102   2.067   3.705  1.9461  1.7686  1.0076
 4121SOL    HW224000   3.216   2.103   3.629  0.8054 -2.2094 -1.5570
 4122SOL     OW24001   3.509   2.020   6.093 -0.3721  0.1703 -0.4241
 4122SOL    HW124002   3.545   1.952   6.036 -0.8755 -0.2720 -0.2183
 4122SOL    HW224003   3.588   2.051   6.137 -1.1460 -0.3466  1.3429
 4123SOL     OW24004   2.874   1.355   1.201  0.3665 -0.0397  0.0007
 4123SOL    HW124005   2.810   1.420   1.171  0.3141  0.4219  1.0892
 4123SOL    HW224006   2.907   1.402   1.278 -1.0488  0.4037  0.3379
 4124SOL     OW24007   1.153   0.730  14.345  0.2344 -0.3304  0.4291
 4124SOL    HW124008   1.156   0.744  14.440 -0.5283  2.5201  0.0318
 4124SOL    HW224009   1.101   0.803  14.311  0.2636  0.2043  1.5149
 4125SOL     OW24010   4.055   1.398   8.766  0.5708 -0.0963  0.3634
 4125SOL    HW124011   4.048   1.493   8.758  2.3730  0.0087 -0.1423
 4125SOL    HW224012   3.967   1.370   8.791 -0.4482  2.2872 -0.4884
 4126SOL     OW24013   0.157   0.239   8.774  0.1148 -0.6563  0.0901
 4126SOL    HW124014   0.197   0.259   8.859  1.0858 -0.0206 -0.5135
 4126SOL    HW224015   0.165   0.322   8.728  0.9882 -1.0182 -0.4150
 4127SOL     OW24016   2.229   2.822   1.932  0.1180  0.4992 -0.5830
 4127SOL    HW124017   2.209   2.914   1.914 -1.4462  0.0394 -1.1721
 4127SOL    HW224018   2.232   2.782   1.845  0.2394  0.0023 -0.3504
 4128SOL     OW24019   4.269   2.074  15.135  0.2862  0.1086  0.0286
 4128SOL    HW124020   4.284   2.127  15.213  1.2497  0.2419 -0.2391
 4128SOL    HW224021   4.347   2.019  15.128  1.2124  1.4648 -0.4051
 4129SOL     OW24022   4.635   0.794  15.251 -0.6301 -0.1252  0.0274
 4129SOL    HW124023   4.663   0.735  15.321 -0.1911  1.4733  1.2018
 4129SOL    HW224024   4.541   0.796  15.268 -0.8399 -1.4965 -1.0454
 4130SOL     OW24025   3.561   0.809   7.788  0.2616  0.1907 -0.4908
 4130SOL    HW124026   3.596   0.784   7.873  0.7161  0.8231 -0.4899
 4130SOL    HW224027   3.626   0.767   7.731 -0.3223 -0.4530 -0.6867
 4131SOL     OW24028   0.590   4.444   2.622  0.1131  0.2304 -0.2906
 4131SOL    HW124029   0.521   4.467   2.685  1.6710 -1.7297  2.1366
 4131SOL    HW224030   0.650   4.417   2.692 -1.7286 -0.2820  1.1132
 4132SOL     OW24031   1.847   2.033   7.353 -0.2596 -0.4167  0.5881
 4132SOL    HW124032   1.781   2.071   7.410 -0.9569  0.6078 -0.9062
 4132SOL    HW224033   1.870   1.955   7.404  1.2856 -0.5061 -0.2503
 4133SOL     OW24034   1.898   3.219  16.793 -0.1123 -0.0863 -0.7049
 4133SOL    HW124035   1.966   3.203  16.727  0.6428 -0.3421  0.1477
 4133SOL    HW224036   1.916   3.136  16.837 -1.5795  1.1950  2.2530
 4134SOL     OW24037   0.314   3.358   6.495 -0.3854  0.1730  0.0338
 4134SOL    HW124038   0.377   3.347   6.424 -1.1832  2.3944 -1.0472
 4134SOL    HW224039   0.228   3.363   6.452  1.2537  0.8793 -3.1734
 4135SOL     OW24040   1.991   1.844  10.080  0.6584  0.4219  0.4465
 4135SOL    HW124041   1.991   1.754  10.049  2.1056  0.2114  1.0536
 4135SOL    HW224042   1.949   1.839  10.166 -0.3090 -1.5672 -0.1550
 4136SOL     OW24043   2.640   2.915   1.430 -0.0431  0.0449 -0.5651
 4136SOL    HW124044   2.729   2.891   1.456 -0.0961 -1.3877 -1.7202
 4136SOL    HW224045   2.648   3.009   1.411 -0.2492  0.4039  1.1036
 4137SOL     OW24046   3.329   2.310  14.980  0.3581  0.7033  0.6072
 4137SOL    HW124047   3.242   2.284  14.948  1.6918 -1.2330 -1.4402
 4137SOL    HW224048   3.382   2.267  14.913  1.4489  1.4596  0.9804
 4138SOL     OW24049   2.470   2.620   5.250  0.5842  0.1328  0.2088
 4138SOL    HW124050   2.541   2.676   5.218 -0.8284  2.4345  1.0774
 4138SOL    HW224051   2.403   2.683   5.276  0.2778 -0.6679  1.3485
 4139SOL     OW24052   3.825   2.144   8.518  0.2034 -0.5004 -0.3717
 4139SOL    HW124053   3.865   2.227   8.546  1.1316 -0.4828 -1.7539
 4139SOL    HW224054   3.748   2.147   8.575  0.1170  0.0239 -0.5204
 4140SOL     OW24055   1.337   4.257  10.947  0.3518 -0.3259 -0.1128
 4140SOL    HW124056   1.350   4.349  10.925 -1.1894 -0.6494 -2.3422
 4140SOL    HW224057   1.385   4.244  11.029 -1.4115  0.8315  1.0868
 4141SOL     OW24058   0.131   2.334   4.168  0.0486 -0.4169  0.0422
 4141SOL    HW124059   0.153   2.274   4.239  1.5509 -0.1806 -0.2231
 4141SOL    HW224060   0.101   2.272   4.101 -1.9612 -0.7453  1.2742
 4142SOL     OW24061   1.353   3.822   1.952  0.4035  0.1061 -0.2002
 4142SOL    HW124062   1.442   3.841   1.983  0.5033  1.3049 -1.1870
 4142SOL    HW224063   1.366   3.729   1.936  1.9635  0.4773 -1.1607
 4143SOL     OW24064   2.703   2.677   3.707  0.4000 -0.3976  0.4512
 4143SOL    HW124065   2.608   2.670   3.695 -0.0188  2.2455  2.3135
 4143SOL    HW224066   2.716   2.747   3.643  1.2393  0.7797  1.9116
 4144SOL     OW24067   0.031   1.960   7.266  0.1551 -0.4399  0.7828
 4144SOL    HW124068   4.707   1.901   7.310 -1.5738 -0.8636 -2.2837
 4144SOL    HW224069   0.002   2.048   7.287 -0.4617 -0.4933  0.1537
 4145SOL     OW24070   4.594   3.689   2.185 -0.4946  0.1272  0.0874
 4145SOL    HW124071   4.663   3.755   2.186 -0.1760 -0.2182  0.9693
 4145SOL    HW224072   4.626   3.616   2.133  1.9546  1.3283 -0.0953
 4146SOL     OW24073   4.526   2.808   3.297 -0.1686  0.6233 -0.2577
 4146SOL    HW124074   4.477   2.746   3.352 -0.0532 -0.5145 -1.4350
 4146SOL    HW224075   4.458   2.870   3.271 -0.4482 -0.7737 -2.8330
 4147SOL     OW24076   3.138   2.866   4.009  0.0114 -0.7972  0.0711
 4147SOL    HW124077   3.175   2.824   4.087  0.5554  0.2272  0.3568
 4147SOL    HW224078   3.045   2.846   4.002  0.0575 -1.8339  2.5826
 4148SOL     OW24079   3.332   0.607   7.766 -0.3039  0.5043  0.2401
 4148SOL    HW124080   3.391   0.683   7.758  2.0269 -0.9544  3.3064
 4148SOL    HW224081   3.364   0.566   7.847 -3.6280 -1.9021  0.3064
 4149SOL     OW24082   2.994   2.021  12.296 -0.2869  0.7037  0.0765
 4149SOL    HW124083   3.058   2.010  12.226 -1.5303 -3.3843 -0.4614
 4149SOL    HW224084   2.920   1.963  12.277 -0.1998  0.2480  1.0938
 4150SOL     OW24085   2.744   4.378   4.594  0.0914  0.4074  0.6847
 4150SOL    HW124086   2.836   4.406   4.601 -0.2547  1.5687  0.5813
 4150SOL    HW224087   2.711   4.452   4.645  0.6610  0.5257  0.8908
 4151SOL     OW24088   0.454   0.623   7.472 -0.2630  0.0048 -0.5405
 4151SOL    HW124089   0.364   0.635   7.502  0.1075 -3.6025  2.0501
 4151SOL    HW224090   0.470   0.530   7.485 -2.6958 -0.2814  0.3900
 4152SOL     OW24091   1.118   4.553   4.710  0.3250  0.0714 -0.5302
 4152SOL    HW124092   1.045   4.566   4.770 -0.5160  0.4177 -1.6349
 4152SOL    HW224093   1.101   4.624   4.648  2.7435 -0.4636 -1.7999
 4153SOL     OW24094   1.607   2.072   7.853  0.1023 -0.3149 -0.4385
 4153SOL    HW124095   1.620   2.163   7.825  0.9587 -0.2692  0.1245
 4153SOL    HW224096   1.682   2.058   7.911 -0.9637 -2.6908  0.3534
 4154SOL     OW24097   0.292   4.379   8.789  0.4212  0.0880  0.1710
 4154SOL    HW124098   0.326   4.290   8.799 -0.6031 -0.2016  1.0387
 4154SOL    HW224099   0.343   4.424   8.856  1.2797 -1.9430  0.8608
 4155SOL     OW24100   3.781   3.002   2.225 -0.1384 -0.3645 -0.1312
 4155SOL    HW124101   3.784   3.029   2.134 -0.6233 -3.9830 -1.2156
 4155SOL    HW224102   3.741   2.915   2.222  0.2682 -0.5659  0.1485
 4156SOL     OW24103   4.341   4.653   5.374 -0.0638 -0.0404  0.7985
 4156SOL    HW124104   4.251   4.652   5.340  0.2919 -0.9137 -0.1171
 4156SOL    HW224105   4.336   4.570   5.421 -1.8662 -0.4190 -0.0282
 4157SOL     OW24106   3.990   0.302  12.117  0.5146  0.3368 -0.1894
 4157SOL    HW124107   3.976   0.300  12.212 -1.9756 -3.0439 -0.6309
 4157SOL    HW224108   3.931   0.371  12.090 -2.2178 -0.8912  2.5825
 4158SOL     OW24109   4.111   3.434   8.402 -0.6271 -0.5654 -0.2605
 4158SOL    HW124110   4.110   3.522   8.364 -0.8473 -0.3507  0.2272
 4158SOL    HW224111   4.094   3.383   8.323 -0.8129 -2.8846  1.2736
 4159SOL     OW24112   2.172   0.830  16.882  0.0598  0.2177 -0.2685
 4159SOL    HW124113   2.143   0.798  16.796  0.5375 -1.3428  0.1485
 4159SOL    HW224114   2.157   0.747  16.927  4.1199  0.0126  0.6287
 4160SOL     OW24115   1.604   2.105   8.560  0.3877 -0.6631  0.0861
 4160SOL    HW124116   1.690   2.070   8.536  0.3593 -0.0269 -0.9369
 4160SOL    HW224117   1.552   2.053   8.499 -1.9885  1.2177  0.5558
 4161SOL     OW24118   2.826   3.230  15.979 -0.1808  0.9490  0.2073
 4161SOL    HW124119   2.823   3.175  16.058  1.7228  2.0491  1.0420
 4161SOL    HW224120   2.742   3.273  15.996 -0.3966  0.7060 -0.2403
 4162SOL     OW24121   0.764   3.301   9.196  0.1087  0.0274 -0.8813
 4162SOL    HW124122   0.823   3.375   9.208  0.5655 -0.3794 -0.6051
 4162SOL    HW224123   0.814   3.234   9.150 -1.8152 -1.5056 -0.7618
 4163SOL     OW24124   2.783   1.565   2.302  0.3156  0.1430 -0.2178
 4163SOL    HW124125   2.779   1.492   2.364 -2.2144  1.3408  1.0261
 4163SOL    HW224126   2.866   1.555   2.254  0.0358 -2.5557 -0.1237
 4164SOL     OW24127   3.599   0.824   4.470  0.5170  0.0690 -0.2617
 4164SOL    HW124128   3.562   0.847   4.555 -1.4497 -1.4740 -0.7156
 4164SOL    HW224129   3.691   0.845   4.489  1.5335 -0.8929 -4.0058
 4165SOL     OW24130   2.774   3.885   4.914  0.0625 -0.3851 -0.1285
 4165SOL    HW124131   2.810   3.797   4.922 -0.6525 -0.6680  0.0315
 4165SOL    HW224132   2.688   3.877   4.957  0.6089 -1.0155  0.8369
 4166SOL     OW24133   3.744   2.239   7.548 -0.1193  0.7147 -0.5950
 4166SOL    HW124134   3.750   2.154   7.592 -1.6257  1.1950  0.5640
 4166SOL    HW224135   3.653   2.266   7.555 -0.7477 -1.9919  1.5935
 4167SOL     OW24136   2.736   4.437   5.714 -0.5117  0.1427 -0.2308
 4167SOL    HW124137   2.691   4.430   5.799 -1.3408 -0.5872 -0.7295
 4167SOL    HW224138   2.819   4.479   5.738 -0.7259 -0.6250  1.9125
 4168SOL     OW24139   1.909   3.936   7.876 -0.5000 -0.1355  0.0218
 4168SOL    HW124140   1.895   3.857   7.929 -1.1823 -0.7285 -1.0249
 4168SOL    HW224141   1.997   3.920   7.841  0.1459  0.3627  1.4173
 4169SOL     OW24142   4.733   2.976   9.379  0.2247  0.6279 -0.1388
 4169SOL    HW124143   4.693   2.965   9.465 -1.4717 -0.6171 -1.1018
 4169SOL    HW224144   4.661   2.944   9.325  0.9923 -0.1061 -0.7372
 4170SOL     OW24145   4.184   0.805  14.079 -0.0629  0.4319 -0.3344
 4170SOL    HW124146   4.276   0.799  14.052  0.4274  0.2705  1.3368
 4170SOL    HW224147   4.188   0.864  14.155 -1.6078 -0.5988  0.5399
 4171SOL     OW24148   1.954   0.932   7.585 -0.0673 -0.2112 -0.0902
 4171SOL    HW124149   1.871   0.977   7.574  0.3256  0.6019  0.2925
 4171SOL    HW224150   1.989   0.978   7.661  0.1341 -0.8015  0.1794
 4172SOL     OW24151   3.578   2.675  14.839  0.0220 -0.2088  0.6912
 4172SOL    HW124152   3.611   2.749  14.890  0.8519 -1.2409  1.6654
 4172SOL    HW224153   3.658   2.642  14.797 -0.3556 -0.9437  0.5540
 4173SOL     OW24154   0.203   3.358  13.094 -0.2106  0.1381  0.4135
 4173SOL    HW124155   0.252   3.403  13.025 -0.5155  1.3461  0.9930
 4173SOL    HW224156   0.196   3.436  13.149  1.4246 -0.3420  1.3069
 4174SOL     OW24157   2.443   2.794   4.743  0.0172 -0.0240 -0.4882
 4174SOL    HW124158   2.370   2.742   4.709 -0.4261 -0.8510  1.7172
 4174SOL    HW224159   2.409   2.880   4.718  0.5306  0.2283 -0.3212
 4175SOL     OW24160   1.434   0.306   8.462  0.0975  0.1739  0.0453
 4175SOL    HW124161   1.430   0.225   8.512  2.7960  0.3429  0.5146
 4175SOL    HW224162   1.441   0.368   8.535  3.8884 -0.6413  0.3730
 4176SOL     OW24163   3.960   3.610   9.935 -0.1733 -0.5189 -0.1965
 4176SOL    HW124164   4.049   3.644   9.925 -1.4753  2.7145 -0.6965
 4176SOL    HW224165   3.913   3.678   9.984  1.5930  0.2834  0.4299
 4177SOL     OW24166   4.648   0.591  15.418  0.4252 -0.4640 -0.0184
 4177SOL    HW124167   4.555   0.571  15.420  0.1343  0.8855 -0.4356
 4177SOL    HW224168   4.675   0.567  15.507 -1.3415 -4.0374 -0.4492
 4178SOL     OW24169   1.539   0.021   8.297 -0.6015  0.2522  0.3112
 4178SOL    HW124170   1.611   0.009   8.359 -1.5140 -0.3765  1.2377
 4178SOL    HW224171   1.484   4.682   8.305  0.2439 -0.4049 -0.2371
 4179SOL     OW24172   1.661   2.693  17.724 -0.0559  0.4888  0.0112
 4179SOL    HW124173   1.660   2.699   0.068  0.0002  1.5230 -0.0538
 4179SOL    HW224174   1.697   2.604  17.720  0.7366  0.8596 -0.7379
 4180SOL     OW24175   4.694   1.573   9.145 -0.3927  0.1315 -0.2292
 4180SOL    HW124176   4.718   1.523   9.068  1.9914  0.0698  0.5502
 4180SOL    HW224177   0.040   1.615   9.163  0.2732 -0.5134 -1.8790
 4181SOL     OW24178   1.202   2.224   7.884 -0.4104  0.1520 -0.4792
 4181SOL    HW124179   1.293   2.196   7.892 -0.4406  0.4426  0.8229
 4181SOL    HW224180   1.149   2.145   7.885  0.4580 -0.4356 -1.1432
 4182SOL     OW24181   1.444   0.239   6.855  0.2196 -0.0542  0.1833
 4182SOL    HW124182   1.383   0.175   6.817 -0.0057 -0.6042  1.4608
 4182SOL    HW224183   1.526   0.191   6.860 -0.6272 -1.5581 -0.3783
 4183SOL     OW24184   2.702   3.569   0.175 -0.6900 -0.4765 -0.1804
 4183SOL    HW124185   2.728   3.603   0.261  2.6826  0.6169 -1.6378
 4183SOL    HW224186   2.667   3.481   0.190 -0.4224 -0.6034 -0.3011
 4184SOL     OW24187   2.368   3.266   3.188  0.6988 -0.3685 -0.3000
 4184SOL    HW124188   2.415   3.200   3.239  4.9344  1.1988 -2.1806
 4184SOL    HW224189   2.282   3.243   3.222  1.4761 -0.2059  1.8018
 4185SOL     OW24190   3.277   0.714   6.311 -0.0733 -0.2446  0.2091
 4185SOL    HW124191   3.315   0.726   6.224 -0.7452  2.6982  0.3504
 4185SOL    HW224192   3.228   0.796   6.318  0.7863  0.2415  0.5535
 4186SOL     OW24193   3.632   0.827   7.290 -0.6051 -0.5305 -0.7519
 4186SOL    HW124194   3.707   0.819   7.350 -0.0638  1.5914 -1.1369
 4186SOL    HW224195   3.628   0.737   7.259  2.8723 -0.5216 -1.2029
 4187SOL     OW24196   0.330   0.744   5.835 -0.0823  0.5004 -0.0236
 4187SOL    HW124197   0.336   0.838   5.853  0.8293  0.4976 -0.3238
 4187SOL    HW224198   0.302   0.759   5.744  3.8148  2.3125 -0.9309
 4188SOL     OW24199   1.571   3.879   4.198 -0.4078 -0.3026  0.2155
 4188SOL    HW124200   1.609   3.842   4.118  1.1786  1.5189  0.1381
 4188SOL    HW224201   1.591   3.800   4.249 -0.3856 -0.5053 -0.1084
 4189SOL     OW24202   2.964   2.471  12.666  0.4276 -0.1653  0.2603
 4189SOL    HW124203   3.030   2.491  12.732  1.4110 -2.9948  0.1264
 4189SOL    HW224204   2.916   2.554  12.665 -0.5342 -0.7228 -0.2798
 4190SOL     OW24205   0.104   2.427   7.431  0.0872  0.1439  0.6416
 4190SOL    HW124206   0.190   2.434   7.473  0.3867 -0.8780  0.1869
 4190SOL    HW224207   0.111   2.344   7.385 -0.3954 -0.4471  1.6314
 4191SOL     OW24208   2.196   3.707   0.925  0.5751 -0.0972 -0.2203
 4191SOL    HW124209   2.274   3.739   0.971  1.5461 -0.9239 -1.3066
 4191SOL    HW224210   2.235   3.688   0.840 -0.7936 -2.3056 -0.3518
 4192SOL     OW24211   0.063   3.149   2.492  0.2969 -0.3612 -0.5445
 4192SOL    HW124212   0.125   3.219   2.471 -0.9900  0.4747 -1.5427
 4192SOL    HW224213   0.002   3.154   2.419  0.9142  1.3493 -0.9474
 4193SOL     OW24214   4.431   3.803  14.656  0.1759 -0.0355  0.5650
 4193SOL    HW124215   4.526   3.816  14.661  0.5209 -1.2380 -2.6403
 4193SOL    HW224216   4.400   3.828  14.743  1.7250  0.9050  0.8412
 4194SOL     OW24217   0.865   2.338   2.275 -0.0106  0.5434 -0.5602
 4194SOL    HW124218   0.850   2.250   2.242 -0.1863  0.9222 -1.4837
 4194SOL    HW224219   0.787   2.346   2.330  0.0488 -1.0770 -0.2494
 4195SOL     OW24220   3.596   3.727   7.556  0.0257 -0.2284  0.2734
 4195SOL    HW124221   3.520   3.786   7.555  0.3276  0.1435 -0.3776
 4195SOL    HW224222   3.561   3.653   7.506  0.6513  0.6766 -1.4995
 4196SOL     OW24223   0.142   0.509  12.453 -0.2529  0.2678 -0.1690
 4196SOL    HW124224   0.225   0.527  12.409  0.0695 -1.7209 -0.3867
 4196SOL    HW224225   0.141   0.578  12.519  0.7413  1.3482 -1.2785
 4197SOL     OW24226   4.037   2.973   2.236 -0.5853 -0.2680  0.8229
 4197SOL    HW124227   3.950   3.010   2.223 -0.2212  0.7292  1.2143
 4197SOL    HW224228   4.034   2.884   2.202  0.0229 -0.1967  0.5813
 4198SOL     OW24229   3.116   2.680   6.579 -0.6557 -0.1148 -0.5798
 4198SOL    HW124230   3.058   2.677   6.503  0.7919 -0.9736 -1.6674
 4198SOL    HW224231   3.060   2.708   6.650  1.0645  0.5055  0.5401
 4199SOL     OW24232   3.842   0.821   6.383  0.7742 -0.0396 -0.0088
 4199SOL    HW124233   3.915   0.844   6.441 -0.2166 -1.0826  1.6311
 4199SOL    HW224234   3.788   0.774   6.446 -0.4727 -0.7042 -1.5511
 4200SOL     OW24235   3.160   2.268   4.992 -0.1244 -0.0907  0.9160
 4200SOL    HW124236   3.103   2.198   5.024  0.8463 -1.0600  0.5203
 4200SOL    HW224237   3.177   2.234   4.905 -0.2106 -0.2750  0.9718
 4201SOL     OW24238   3.217   4.473  13.684  0.3625  0.5261 -0.0300
 4201SOL    HW124239   3.157   4.483  13.611 -1.0093 -0.8571  0.9151
 4201SOL    HW224240   3.256   4.560  13.690  0.3002  0.5143  0.5775
 4202SOL     OW24241   4.324   2.081  17.504  0.0106  0.0304  0.0952
 4202SOL    HW124242   4.253   2.018  17.493  2.1655 -2.4882  0.4297
 4202SOL    HW224243   4.283   2.152  17.455  2.3934  0.9672 -0.5906
 4203SOL     OW24244   3.545   2.042   2.487  0.2001  0.6182 -0.1458
 4203SOL    HW124245   3.556   1.947   2.487 -0.1662  0.5548 -3.4889
 4203SOL    HW224246   3.565   2.059   2.579 -3.4680  2.3019  0.3338
 4204SOL     OW24247   4.037   1.899  13.548  0.5908  0.5370  0.1228
 4204SOL    HW124248   4.007   1.963  13.484  1.0308 -1.9807 -2.5781
 4204SOL    HW224249   3.954   1.855  13.567 -0.3996  2.5817  0.5427
 4205SOL     OW24250   3.020   3.976   5.454  0.5294  0.4237 -0.1163
 4205SOL    HW124251   2.989   3.904   5.400  2.5204  0.4334 -1.2704
 4205SOL    HW224252   2.934   4.017   5.467  0.5072  0.9128 -1.7820
 4206SOL     OW24253   3.364   1.005   1.397 -0.2521 -0.4535 -0.0791
 4206SOL    HW124254   3.353   1.060   1.474  0.3351 -1.9128  1.0618
 4206SOL    HW224255   3.371   0.918   1.437  1.4730 -0.6751 -0.8366
 4207SOL     OW24256   1.799   2.538   9.162 -0.6090 -1.0244 -0.2430
 4207SOL    HW124257   1.867   2.586   9.115  0.0004 -0.8733  0.8026
 4207SOL    HW224258   1.851   2.462   9.188  1.2257 -0.0569 -1.1695
 4208SOL     OW24259   1.031   0.728  12.729  0.2506  0.6683 -0.5630
 4208SOL    HW124260   1.026   0.717  12.634  0.4466  0.6241 -0.5664
 4208SOL    HW224261   1.123   0.707  12.740 -0.4303 -1.0407  1.9623
 4209SOL     OW24262   0.054   0.612   7.330  0.1450 -0.3405 -0.1946
 4209SOL    HW124263   0.058   0.613   7.234  1.2247 -0.7943 -0.1535
 4209SOL    HW224264   4.702   0.638   7.347  0.6029  1.7035 -0.8370
 4210SOL     OW24265   1.515   0.813   1.690 -0.0331  0.5803 -0.1409
 4210SOL    HW124266   1.424   0.814   1.720 -0.4703  1.9904 -1.5578
 4210SOL    HW224267   1.560   0.784   1.770  0.0132 -3.9878 -1.7933
 4211SOL     OW24268   1.976   0.583   9.124 -0.4148 -0.2569  0.0524
 4211SOL    HW124269   2.018   0.659   9.084  1.4910 -0.8531  0.9088
 4211SOL    HW224270   1.929   0.625   9.196 -0.2236  1.5911 -0.8961
 4212SOL     OW24271   1.665   2.433  12.106  0.0104  0.2900 -0.1718
 4212SOL    HW124272   1.590   2.492  12.112 -0.5220 -0.7451  3.0653
 4212SOL    HW224273   1.654   2.390  12.191 -1.2370  1.0327  0.0415
 4213SOL     OW24274   0.021   2.501   5.627  0.3048 -0.2739  0.1154
 4213SOL    HW124275   0.042   2.518   5.535 -0.5377 -1.5992 -0.3216
 4213SOL    HW224276   4.666   2.486   5.611  0.6227 -1.0959 -1.0554
 4214SOL     OW24277   3.625   3.712   6.340 -0.3819  0.5482 -0.5489
 4214SOL    HW124278   3.689   3.642   6.343  0.7251  1.6445  1.5636
 4214SOL    HW224279   3.560   3.682   6.276 -0.4013 -4.2246  1.7737
 4215SOL     OW24280   4.639   1.703   3.961  0.1434 -0.4883  0.2272
 4215SOL    HW124281   4.628   1.687   4.055  1.3802 -1.5441  0.1803
 4215SOL    HW224282   4.734   1.693   3.954  0.1774  0.2627 -0.4574
 4216SOL     OW24283   3.110   3.347   7.049  0.0206 -0.1782  0.0256
 4216SOL    HW124284   3.063   3.413   6.999  0.5817  0.3997  0.2664
 4216SOL    HW224285   3.038   3.289   7.072  0.0790 -0.1543  0.2644
 4217SOL     OW24286   1.658   2.896   6.343 -0.0486  0.6594 -0.0751
 4217SOL    HW124287   1.705   2.972   6.378 -1.6215  0.7983  1.7539
 4217SOL    HW224288   1.579   2.946   6.321  0.1496  0.5537 -1.0116
 4218SOL     OW24289   2.388   3.765   5.250  0.2885 -0.3786 -0.0621
 4218SOL    HW124290   2.303   3.722   5.244  0.1245 -0.1465  0.5519
 4218SOL    HW224291   2.431   3.692   5.296 -0.2740 -2.1390 -2.3201
 4219SOL     OW24292   2.087   2.751   3.553  0.1277 -0.7416 -0.0260
 4219SOL    HW124293   2.141   2.771   3.476 -0.7260  1.5840 -0.0023
 4219SOL    HW224294   2.021   2.820   3.557  0.5967 -0.2823 -0.2167
 4220SOL     OW24295   2.794   3.703   2.826  0.1000 -0.0078  0.1363
 4220SOL    HW124296   2.799   3.684   2.920  1.5171 -0.5054 -0.0381
 4220SOL    HW224297   2.722   3.643   2.807  1.1650 -1.0919 -0.4857
 4221SOL     OW24298   4.243   4.600   2.263  0.2005  0.4241 -0.0671
 4221SOL    HW124299   4.227   4.673   2.322 -2.2596 -0.2617  0.0900
 4221SOL    HW224300   4.267   4.644   2.182  0.1545 -1.9894 -1.4072
 4222SOL     OW24301   1.678   2.294   3.303 -0.0945  0.0938 -0.3997
 4222SOL    HW124302   1.589   2.291   3.336 -0.5042 -0.2847 -1.5421
 4222SOL    HW224303   1.720   2.228   3.358 -0.3736 -0.5798 -1.0067
 4223SOL     OW24304   0.253   2.272  13.114 -0.0739  0.1498 -0.7111
 4223SOL    HW124305   0.161   2.262  13.137 -0.2679  3.0026 -0.3287
 4223SOL    HW224306   0.251   2.350  13.059  0.6152  1.1031  0.6075
 4224SOL     OW24307   2.823   3.696  17.687  0.1661  0.0389  0.1751
 4224SOL    HW124308   2.881   3.638  17.736  2.0727  0.7744 -1.2343
 4224SOL    HW224309   2.755   3.704   0.002 -0.0099 -0.8197  0.0940
 4225SOL     OW24310   1.311   1.427   7.272  0.0991  0.6024  0.1068
 4225SOL    HW124311   1.363   1.386   7.203  1.5912  2.0176  0.3819
 4225SOL    HW224312   1.295   1.357   7.336 -0.1752 -0.1339 -0.7782
 4226SOL     OW24313   4.283   2.054   1.436 -0.4000  0.0023  0.0400
 4226SOL    HW124314   4.296   2.043   1.531  4.6771  1.6043 -0.4836
 4226SOL    HW224315   4.305   2.147   1.427  2.3527 -0.7527 -0.9355
 4227SOL     OW24316   1.508   1.081   3.715  0.0917  0.1201  0.2435
 4227SOL    HW124317   1.508   0.988   3.692  1.4394 -0.1963  1.5503
 4227SOL    HW224318   1.501   1.126   3.630  0.5826 -3.5166 -1.7485
 4228SOL     OW24319   0.922   1.299   4.848  0.1048  0.2528 -0.5701
 4228SOL    HW124320   0.959   1.213   4.826  2.8427  0.8822  1.5527
 4228SOL    HW224321   0.887   1.291   4.937  0.4170 -0.0684 -0.4731
 4229SOL     OW24322   0.297   4.318  17.628  0.2209 -0.0290 -0.4730
 4229SOL    HW124323   0.381   4.273  17.631 -0.9207 -2.1534 -0.1263
 4229SOL    HW224324   0.265   4.287  17.712 -0.4383 -0.3464 -0.8329
 4230SOL     OW24325   1.856   2.500  17.728  0.3958  0.4824  0.2542
 4230SOL    HW124326   1.939   2.538   0.003  1.5397 -2.1439  0.4386
 4230SOL    HW224327   1.875   2.458  17.644 -1.9281 -0.0877  0.0042
 4231SOL     OW24328   2.270   3.726   4.821  0.1924  0.1586 -0.2766
 4231SOL    HW124329   2.244   3.773   4.742 -0.3414 -0.3265 -0.3877
 4231SOL    HW224330   2.191   3.698   4.866  0.5912  1.9755  1.5644
 4232SOL     OW24331   3.786   2.400  15.158 -0.1149 -0.2913  0.5040
 4232SOL    HW124332   3.704   2.439  15.127 -0.3061  0.0946  1.5097
 4232SOL    HW224333   3.842   2.408  15.080 -2.2484  0.1125 -0.9730
 4233SOL     OW24334   1.989   2.677   4.788 -0.4878 -0.5598  0.4149
 4233SOL    HW124335   1.925   2.671   4.717 -1.1152 -1.0457  1.0199
 4233SOL    HW224336   1.961   2.759   4.827 -0.5229 -1.3199  2.0063
 4234SOL     OW24337   4.441   4.314   8.951  0.2348  0.3917 -0.2122
 4234SOL    HW124338   4.492   4.345   9.026  2.1356 -0.0807 -1.3256
 4234SOL    HW224339   4.354   4.340   8.982  1.0387  0.9045  1.5896
 4235SOL     OW24340   1.254   4.413   1.627  0.0018  0.3180 -0.0611
 4235SOL    HW124341   1.284   4.406   1.536  0.4429 -1.1187  0.1836
 4235SOL    HW224342   1.237   4.506   1.637 -2.4506  0.0009 -1.3131
 4236SOL     OW24343   4.637   4.241   0.988  0.4617 -0.7969 -0.6155
 4236SOL    HW124344   4.659   4.229   0.896 -0.4113  2.3395 -1.2230
 4236SOL    HW224345   4.717   4.208   1.030  0.0652  0.7363  1.3714
 4237SOL     OW24346   3.621   3.448   5.140  0.3384  0.6657 -0.0488
 4237SOL    HW124347   3.638   3.354   5.152  0.4702  0.9934  2.4414
 4237SOL    HW224348   3.536   3.451   5.097  1.2050 -0.4628 -1.8080
 4238SOL     OW24349   3.527   1.213  17.387  0.6523 -0.2314  0.2235
 4238SOL    HW124350   3.527   1.120  17.366  0.4822 -0.4949  1.3950
 4238SOL    HW224351   3.602   1.225  17.446  0.1129  1.5587  0.5562
 4239SOL     OW24352   2.436   3.992   9.071 -0.4005 -0.1842 -0.0988
 4239SOL    HW124353   2.367   3.996   9.137 -1.3686  0.7662 -1.1636
 4239SOL    HW224354   2.493   3.937   9.124 -0.4799  1.4527  1.6643
 4240SOL     OW24355   1.032   4.622  12.245  0.1766  0.2305 -0.2532
 4240SOL    HW124356   1.064   4.597  12.159 -1.5877 -0.0031 -0.8341
 4240SOL    HW224357   1.010   4.715  12.242  0.1512  0.2371  0.0488
 4241SOL     OW24358   1.767   0.561   9.437 -0.6293  0.5263  0.7413
 4241SOL    HW124359   1.730   0.604   9.514 -0.2679 -0.4994  1.4830
 4241SOL    HW224360   1.738   0.471   9.450  1.0526 -0.2375 -0.8595
 4242SOL     OW24361   0.628   0.926   9.176 -0.4397 -0.0915  0.0744
 4242SOL    HW124362   0.590   0.970   9.252 -1.1978 -0.0958 -0.3039
 4242SOL    HW224363   0.665   0.851   9.221  4.5755  1.1789 -1.9789
 4243SOL     OW24364   1.153   3.064   0.942 -0.5344 -0.0940 -0.8767
 4243SOL    HW124365   1.169   2.973   0.967 -1.3279 -0.2591 -0.9628
 4243SOL    HW224366   1.179   3.065   0.850  2.5935  1.8540  0.0326
 4244SOL     OW24367   0.464   2.362   4.507  0.1237  0.5053 -0.1808
 4244SOL    HW124368   0.509   2.337   4.425  1.3173 -0.8681  0.8826
 4244SOL    HW224369   0.476   2.286   4.564  2.2722  2.0115  1.3826
 4245SOL     OW24370   4.091   3.946   4.003  0.2118  0.1735  0.8200
 4245SOL    HW124371   4.023   3.909   3.947  0.8913 -0.3235  0.3309
 4245SOL    HW224372   4.043   4.026   4.021 -0.6436 -0.2558  0.4591
 4246SOL     OW24373   3.124   1.407   6.147  0.1713 -0.4840 -0.1128
 4246SOL    HW124374   3.201   1.459   6.122  0.6501 -1.6121 -0.9953
 4246SOL    HW224375   3.116   1.328   6.094 -1.9886  1.0622 -2.0695
 4247SOL     OW24376   3.076   1.814   6.261 -0.2958 -0.2526 -0.1556
 4247SOL    HW124377   3.080   1.742   6.324 -0.0119 -0.5653 -0.5349
 4247SOL    HW224378   3.168   1.836   6.270  0.2908 -1.7595 -2.6076
 4248SOL     OW24379   3.305   1.402   0.504  0.1987  0.5073 -0.3571
 4248SOL    HW124380   3.223   1.388   0.456  1.2500  0.8066 -2.2660
 4248SOL    HW224381   3.346   1.317   0.491 -2.5324 -0.8283 -0.1362
 4249SOL     OW24382   2.521   0.050   6.094 -0.4628  0.0883 -0.5979
 4249SOL    HW124383   2.532   0.103   6.173  0.1796 -2.7902  1.2655
 4249SOL    HW224384   2.431   0.066   6.066 -0.0850  1.5959 -0.9397
 4250SOL     OW24385   2.609   3.339   4.380 -0.1189  0.2747  0.2420
 4250SOL    HW124386   2.606   3.246   4.360  0.4204  0.6302 -1.4650
 4250SOL    HW224387   2.704   3.348   4.378  0.0435 -1.4149  0.7020
 4251SOL     OW24388   3.924   3.100  15.052 -0.1458  0.7892  0.4291
 4251SOL    HW124389   3.906   3.157  14.978  1.7091  1.2894  0.3521
 4251SOL    HW224390   4.017   3.112  15.073 -0.2163 -0.6307  1.5350
 4252SOL     OW24391   2.214   4.052   1.798  0.1269  0.3763 -0.6619
 4252SOL    HW124392   2.253   4.023   1.715  1.8586  0.5287  0.1041
 4252SOL    HW224393   2.223   4.145   1.774  3.8103  0.3957  0.8335
 4253SOL     OW24394   1.550   4.570   2.615  0.9550  0.0752 -0.3448
 4253SOL    HW124395   1.465   4.533   2.638  0.6153  0.4303 -1.0188
 4253SOL    HW224396   1.597   4.498   2.574  3.2050  2.0198 -1.1674
 4254SOL     OW24397   2.825   4.093   7.057  0.7264  0.0223  0.5073
 4254SOL    HW124398   2.762   4.121   6.991  0.2108 -2.0588  0.1059
 4254SOL    HW224399   2.859   4.180   7.078 -2.0639  1.7316 -2.1043
 4255SOL     OW24400   3.700   1.401   2.689  0.1264  0.2558 -0.0745
 4255SOL    HW124401   3.670   1.344   2.759  0.5824  1.5511  1.1685
 4255SOL    HW224402   3.738   1.476   2.734 -2.1469  2.1474 -1.2955
 4256SOL     OW24403   0.408   4.588   9.316  0.2378  0.0962  0.5117
 4256SOL    HW124404   0.389   4.521   9.381  1.5606 -1.0037 -0.2425
 4256SOL    HW224405   0.430   4.663   9.371  0.5005 -0.8981  1.7546
 4257SOL     OW24406   0.876   1.319  15.279 -0.8231  0.2250 -0.0270
 4257SOL    HW124407   0.937   1.309  15.352 -0.3323  1.9318 -0.1905
 4257SOL    HW224408   0.918   1.274  15.206 -0.8339 -0.1508  0.2000
 4258SOL     OW24409   2.200   3.654  17.168  0.7381  0.4504  0.1786
 4258SOL    HW124410   2.293   3.633  17.167  0.7467  0.5361 -1.0728
 4258SOL    HW224411   2.200   3.699  17.252  0.8975 -2.0841  1.5593
 4259SOL     OW24412   1.517   1.625  13.468  0.6350  0.4076 -0.1019
 4259SOL    HW124413   1.448   1.634  13.403  0.2376 -2.3746 -0.0621
 4259SOL    HW224414   1.476   1.672  13.541  0.2984  0.4181 -0.2970
 4260SOL     OW24415   3.852   4.119   3.962 -0.3763 -0.1679  0.1322
 4260SOL    HW124416   3.779   4.063   3.987  0.0487 -0.7649  0.0250
 4260SOL    HW224417   3.839   4.144   3.871  1.6558  1.7981  0.3872
 4261SOL     OW24418   2.094   3.073  10.180  0.1798 -0.0134 -0.0013
 4261SOL    HW124419   2.073   3.166  10.189 -0.5957 -0.3083  1.2300
 4261SOL    HW224420   2.038   3.050  10.254 -0.6630  0.8726 -0.3696
 4262SOL     OW24421   2.480   1.823  11.590  0.8216  0.2450 -0.2476
 4262SOL    HW124422   2.553   1.767  11.616  0.6246  1.3996  2.8659
 4262SOL    HW224423   2.473   1.860  11.678 -1.1108 -0.7106 -0.0079
 4263SOL     OW24424   1.450   4.038  14.848 -0.1742 -0.2783 -0.6088
 4263SOL    HW124425   1.435   4.110  14.787 -0.7169 -0.8522 -1.1648
 4263SOL    HW224426   1.478   3.966  14.790  1.3963 -1.3124  1.4174
 4264SOL     OW24427   3.798   1.663  10.051 -0.1919  0.3161  0.2164
 4264SOL    HW124428   3.757   1.720   9.986  1.4880  0.3158 -0.8471
 4264SOL    HW224429   3.783   1.576  10.013  1.6343  0.9300 -1.9149
 4265SOL     OW24430   1.798   2.729  10.225 -0.3733 -0.1485 -0.4884
 4265SOL    HW124431   1.855   2.740  10.149  0.0195  2.2822  0.1683
 4265SOL    HW224432   1.751   2.650  10.196 -0.3934 -0.1930 -0.3358
 4266SOL     OW24433   0.719   3.164   8.480  0.7161  0.3702  0.7192
 4266SOL    HW124434   0.698   3.110   8.557 -0.6038 -0.1280  0.0075
 4266SOL    HW224435   0.649   3.136   8.421  0.5341  1.7292  0.3024
 4267SOL     OW24436   1.333   1.138   2.750  0.1001  0.3580  0.2875
 4267SOL    HW124437   1.311   1.227   2.775  2.3451  1.7003 -2.6207
 4267SOL    HW224438   1.369   1.159   2.664  0.6622  1.3307  0.7678
 4268SOL     OW24439   1.058   2.437   2.066  0.1179 -1.0293 -0.2480
 4268SOL    HW124440   1.027   2.347   2.080 -0.6444 -1.0029 -1.7156
 4268SOL    HW224441   1.150   2.423   2.047  0.2030 -0.9252  0.0881
 4269SOL     OW24442   2.994   1.305  17.169  0.2779  0.0731 -0.1809
 4269SOL    HW124443   2.921   1.286  17.110 -1.0838 -0.0468  1.5537
 4269SOL    HW224444   2.967   1.390  17.203 -0.8655  0.3378 -1.7325
 4270SOL     OW24445   3.693   2.906   7.531  0.0992 -0.1927  0.4578
 4270SOL    HW124446   3.638   2.901   7.609  1.1550  1.7610  1.3233
 4270SOL    HW224447   3.659   2.972   7.471  0.8663 -1.4557 -1.3943
 4271SOL     OW24448   0.881   4.715   6.964 -0.3206 -0.0352  0.1210
 4271SOL    HW124449   0.833   4.663   7.028  2.4219 -2.5509  0.1485
 4271SOL    HW224450   0.803   0.004   6.915 -0.5748 -2.3142 -0.7660
 4272SOL     OW24451   4.192   0.116  10.862  0.6629  0.4008  0.5701
 4272SOL    HW124452   4.169   0.087  10.774 -0.4968 -0.2447  1.0833
 4272SOL    HW224453   4.180   0.211  10.857  1.6371  0.4583 -0.6592
 4273SOL     OW24454   2.033   3.716  15.309  0.6274  0.4609 -0.5342
 4273SOL    HW124455   2.014   3.645  15.370 -0.1874  0.1147 -1.1907
 4273SOL    HW224456   1.944   3.722  15.274  0.4527 -0.6870 -0.2656
 4274SOL     OW24457   1.572   3.319   3.268  0.3889  0.5389 -0.1238
 4274SOL    HW124458   1.625   3.268   3.329  0.7810  0.1680 -0.7760
 4274SOL    HW224459   1.627   3.319   3.190  0.2742 -0.9913 -0.2042
 4275SOL     OW24460   1.531   0.232   2.774  0.3395 -0.0975 -0.4842
 4275SOL    HW124461   1.492   0.278   2.849  0.9208 -1.4155  0.6317
 4275SOL    HW224462   1.452   0.189   2.740 -0.8691 -1.4154  3.9577
 4276SOL     OW24463   3.333   3.563   5.562  0.3968  0.3030 -0.3419
 4276SOL    HW124464   3.403   3.618   5.598  0.2345  1.8942 -2.5138
 4276SOL    HW224465   3.339   3.583   5.469 -1.3465 -0.7589 -0.6779
 4277SOL     OW24466   0.519   0.993   5.662 -0.0938 -0.1150  0.8666
 4277SOL    HW124467   0.508   0.998   5.567  1.4120  0.9032  0.7421
 4277SOL    HW224468   0.487   1.078   5.692 -2.4949 -0.6657 -0.1086
 4278SOL     OW24469   2.188   0.290   6.272 -0.1516  0.1602 -0.0330
 4278SOL    HW124470   2.134   0.332   6.205 -1.8036 -1.5629  0.1986
 4278SOL    HW224471   2.118   0.256   6.329 -2.6858  1.8733 -2.1390
 4279SOL     OW24472   1.022   0.104  15.677 -0.2563 -0.0415 -0.2179
 4279SOL    HW124473   1.116   0.112  15.661 -0.4465  0.5251 -1.0567
 4279SOL    HW224474   0.994   0.013  15.675  0.4463 -0.2682  0.3864
 4280SOL     OW24475   0.074   3.077   2.798  0.2844  0.4315  0.1348
 4280SOL    HW124476   0.083   3.099   2.705 -2.2939 -0.2572 -0.2736
 4280SOL    HW224477   0.004   3.013   2.786  0.6697 -0.1398  0.9315
 4281SOL     OW24478   2.856   2.298   1.950  0.2216 -0.0522 -0.4458
 4281SOL    HW124479   2.937   2.254   1.924 -1.0113 -3.2415  1.1136
 4281SOL    HW224480   2.796   2.224   1.960  0.3804 -0.0433  0.6604
 4282SOL     OW24481   1.131   3.872   9.880  0.9842  0.0573 -0.5840
 4282SOL    HW124482   1.081   3.820   9.944  0.8440  1.2193  0.2460
 4282SOL    HW224483   1.066   3.909   9.821  1.6978  1.0563 -0.7494
 4283SOL     OW24484   1.685   2.481   7.463  0.4359 -0.1867  0.6418
 4283SOL    HW124485   1.765   2.474   7.517  2.8250 -0.4392 -2.9412
 4283SOL    HW224486   1.691   2.568   7.425 -4.5082 -0.3988 -0.5370
 4284SOL     OW24487   0.204   3.477  13.808 -0.0594 -0.7231 -0.1312
 4284SOL    HW124488   0.200   3.569  13.785 -0.1140 -0.3656  1.2693
 4284SOL    HW224489   0.262   3.480  13.885  1.7253  1.0120 -1.5615
 4285SOL     OW24490   4.137   3.361   2.793  0.4562 -0.5722 -0.2990
 4285SOL    HW124491   4.192   3.400   2.724 -0.5060  2.7181  0.7755
 4285SOL    HW224492   4.058   3.415   2.786  1.3630  0.8172  0.0482
 4286SOL     OW24493   3.696   4.235   8.356  0.3407  0.1869 -0.2627
 4286SOL    HW124494   3.702   4.330   8.350  0.9751  0.1618 -0.0699
 4286SOL    HW224495   3.758   4.205   8.290 -0.6127  0.5264 -1.2981
 4287SOL     OW24496   3.880   3.494   2.515  0.4774 -0.5178 -0.0166
 4287SOL    HW124497   3.879   3.589   2.508 -0.0431 -0.6882 -2.3370
 4287SOL    HW224498   3.794   3.493   2.556 -0.1583  0.6629 -1.3330
 4288SOL     OW24499   4.277   4.163  10.996  0.3967  0.2754 -0.6921
 4288SOL    HW124500   4.274   4.068  11.003  2.2919  0.2063 -0.6107
 4288SOL    HW224501   4.246   4.189  10.909 -2.5246 -1.2551 -0.1072
 4289SOL     OW24502   3.250   1.880   4.104  0.0869 -0.2000  0.3539
 4289SOL    HW124503   3.203   1.797   4.101  0.2656 -0.1864 -2.3245
 4289SOL    HW224504   3.332   1.863   4.058  0.1570  0.2297  0.3233
 4290SOL     OW24505   2.589   2.824   4.120 -0.1397 -0.1772  0.1138
 4290SOL    HW124506   2.541   2.747   4.091 -1.4833  0.0821  1.6746
 4290SOL    HW224507   2.668   2.796   4.166  0.5297 -1.3725 -1.7572
 4291SOL     OW24508   1.365   0.841  12.877  0.0126 -0.6518  0.4917
 4291SOL    HW124509   1.362   0.749  12.904  0.5507 -0.7181  0.3280
 4291SOL    HW224510   1.316   0.831  12.795  0.4785  1.1712 -0.0021
 4292SOL     OW24511   4.238   2.692   1.416  0.1809 -0.2402 -0.3237
 4292SOL    HW124512   4.160   2.669   1.365 -0.0197 -0.6624  0.1845
 4292SOL    HW224513   4.260   2.606   1.451  1.6472  0.7282  1.1472
 4293SOL     OW24514   1.970   1.635   5.824  0.1177 -0.9348  0.5656
 4293SOL    HW124515   1.928   1.717   5.850 -0.4045 -1.5153  1.5791
 4293SOL    HW224516   1.914   1.573   5.872 -1.0873 -0.7491 -0.5794
 4294SOL     OW24517   2.788   0.931   1.014 -0.2220  0.1012  0.6940
 4294SOL    HW124518   2.706   0.980   1.001 -0.8992 -1.1469  0.2572
 4294SOL    HW224519   2.845   1.004   1.036  0.8130 -0.1855 -1.0177
 4295SOL     OW24520   2.281   0.760   7.126 -0.6018 -0.3660  0.0106
 4295SOL    HW124521   2.252   0.843   7.088 -0.0182 -0.8479 -1.4735
 4295SOL    HW224522   2.366   0.791   7.157 -0.0789 -0.9966 -0.7915
 4296SOL     OW24523   0.555   1.694   6.172 -0.0226  0.4195 -0.7348
 4296SOL    HW124524   0.588   1.620   6.223  0.4992  1.2250  0.1081
 4296SOL    HW224525   0.619   1.698   6.101  1.3653  2.4840  0.6109
 4297SOL     OW24526   3.845   1.211  15.566  0.1142  0.1694 -0.5597
 4297SOL    HW124527   3.765   1.229  15.517  1.2392  4.3423 -0.8562
 4297SOL    HW224528   3.817   1.218  15.657 -0.1536 -1.4557 -0.5259
 4298SOL     OW24529   0.555   0.563   2.918  0.1021 -0.2040  0.6676
 4298SOL    HW124530   0.512   0.501   2.978  0.1810 -2.3121 -1.4256
 4298SOL    HW224531   0.611   0.619   2.971  0.9405  0.2904 -0.7486
 4299SOL     OW24532   3.870   0.203   9.824  0.3370  0.2608  0.6098
 4299SOL    HW124533   3.900   0.239   9.741  0.6425  1.2183  1.1322
 4299SOL    HW224534   3.823   0.279   9.860 -3.4719 -1.2193 -1.3899
 4300SOL     OW24535   0.756   0.821  12.306 -0.2919 -0.0288  0.5515
 4300SOL    HW124536   0.689   0.794  12.243  0.0426 -0.1725  0.2615
 4300SOL    HW224537   0.838   0.800  12.262 -0.2251  0.7557  0.2970
 4301SOL     OW24538   4.571   2.513   3.509  0.6867 -0.3301 -0.3948
 4301SOL    HW124539   4.488   2.561   3.508  1.6057  1.2525 -2.0617
 4301SOL    HW224540   4.535   2.432   3.545 -0.0653  0.4381  0.6163
 4302SOL     OW24541   1.632   0.767   7.322  0.0309  0.3652 -0.7264
 4302SOL    HW124542   1.656   0.831   7.389 -0.0916 -0.1978 -0.1478
 4302SOL    HW224543   1.541   0.789   7.303 -0.0225 -0.6098 -1.5913
 4303SOL     OW24544   4.040   2.441   2.414  0.2092  0.1176 -0.2327
 4303SOL    HW124545   4.031   2.531   2.448  1.6817 -0.2185  1.0564
 4303SOL    HW224546   3.970   2.439   2.349 -0.4406  0.3127  0.4519
 4304SOL     OW24547   0.982   2.806   7.490 -0.1560 -0.1462 -0.0929
 4304SOL    HW124548   0.970   2.730   7.548  2.3624 -0.3689  0.1381
 4304SOL    HW224549   0.892   2.832   7.473 -0.5659 -0.3483  1.7308
 4305SOL     OW24550   1.499   2.528  13.076  0.0907  0.0572  0.0534
 4305SOL    HW124551   1.567   2.564  13.019 -0.8335 -1.4992 -2.0649
 4305SOL    HW224552   1.555   2.508  13.150  0.2895  3.8186  0.9037
 4306SOL     OW24553   1.270   4.120  15.015  0.4228 -0.2986  0.3348
 4306SOL    HW124554   1.189   4.115  14.963 -0.9595  3.5152  2.1645
 4306SOL    HW224555   1.343   4.085  14.964  1.5994  2.5905  0.0454
 4307SOL     OW24556   4.482   0.367   2.820  0.0184  0.0224 -0.3831
 4307SOL    HW124557   4.489   0.292   2.879 -3.0564 -0.9633 -1.2608
 4307SOL    HW224558   4.391   0.364   2.790 -1.2074 -1.4970  3.3984
 4308SOL     OW24559   1.732   3.657   7.523 -0.1757 -0.4012 -0.1842
 4308SOL    HW124560   1.666   3.644   7.455  0.3121 -1.5425 -0.4371
 4308SOL    HW224561   1.673   3.639   7.596 -0.4368 -1.6155 -0.6891
 4309SOL     OW24562   1.581   0.841   6.678  0.6110  0.1226  0.6931
 4309SOL    HW124563   1.672   0.815   6.692  0.3163 -0.5189  1.3957
 4309SOL    HW224564   1.580   0.929   6.715 -2.1451 -0.4875  2.0863
 4310SOL     OW24565   3.821   1.558   1.991 -0.3862 -0.2164 -0.1529
 4310SOL    HW124566   3.911   1.589   1.998 -0.3885 -1.2170  4.3104
 4310SOL    HW224567   3.822   1.465   2.014  1.0650  0.2477  1.6436
 4311SOL     OW24568   0.328   3.309   1.460  0.7228 -0.0862  0.0783
 4311SOL    HW124569   0.246   3.262   1.472 -0.5209  1.0917 -3.8574
 4311SOL    HW224570   0.388   3.234   1.464  0.4414 -0.2423  1.3558
 4312SOL     OW24571   4.655   4.488   3.980  0.8516  0.5899 -0.4536
 4312SOL    HW124572   4.565   4.465   4.001  1.2214 -1.0407 -0.6573
 4312SOL    HW224573   4.665   4.457   3.890  0.6363 -2.4215  0.5515
 4313SOL     OW24574   2.757   0.244   3.473  0.3633  0.2188 -0.4858
 4313SOL    HW124575   2.756   0.339   3.466 -2.0316  0.3921  1.9981
 4313SOL    HW224576   2.677   0.226   3.423  0.4561  0.1852 -0.6243
 4314SOL     OW24577   0.090   3.842   2.454  0.1732 -0.3490  0.2687
 4314SOL    HW124578   0.078   3.757   2.497 -2.3957 -0.8042 -1.2935
 4314SOL    HW224579   0.177   3.834   2.415  0.9409  1.0312  1.6851
 4315SOL     OW24580   1.096   2.759   3.488 -0.5414 -0.2492  0.2200
 4315SOL    HW124581   1.121   2.848   3.512  0.7073 -0.5344  0.0061
 4315SOL    HW224582   1.070   2.757   3.396 -0.1471  1.8534  0.0534
 4316SOL     OW24583   1.179   2.847  13.150  0.1523 -0.0271 -0.0352
 4316SOL    HW124584   1.132   2.894  13.081  0.3033 -1.4925 -1.1480
 4316SOL    HW224585   1.192   2.764  13.103  1.6473 -1.5603  3.0801
 4317SOL     OW24586   2.246   0.807  14.880  0.2014  0.3046  0.0028
 4317SOL    HW124587   2.263   0.899  14.859 -1.3268 -0.1242 -3.1901
 4317SOL    HW224588   2.308   0.759  14.826  0.8633 -0.0959  1.1240
 4318SOL     OW24589   3.161   0.006   0.974  0.2506  0.0695 -1.1787
 4318SOL    HW124590   3.133   4.656   0.949 -0.4416 -0.3237  0.9514
 4318SOL    HW224591   3.246   0.007   0.929  0.3620 -1.9337 -1.0311
 4319SOL     OW24592   4.035   2.195   1.902 -0.5758  0.1484  0.1534
 4319SOL    HW124593   3.982   2.116   1.896 -2.6440  1.7756 -3.0659
 4319SOL    HW224594   4.116   2.177   1.853 -0.2628 -3.2702  1.9522
 4320SOL     OW24595   0.201   0.262   4.430  0.2162  0.2723  0.1211
 4320SOL    HW124596   0.234   0.301   4.511 -1.2571  0.6909  0.5342
 4320SOL    HW224597   0.262   0.286   4.361 -0.2244 -1.7019 -0.9647
 4321SOL     OW24598   2.570   4.182   8.365  0.2828  0.2897 -0.0978
 4321SOL    HW124599   2.652   4.175   8.414 -0.4287  1.6830  1.2868
 4321SOL    HW224600   2.552   4.274   8.382 -1.1753  0.2046 -1.1517
 4322SOL     OW24601   4.131   2.343   2.765  0.1212 -0.3499  0.1121
 4322SOL    HW124602   4.128   2.437   2.748 -0.0757 -1.3687 -5.4431
 4322SOL    HW224603   4.176   2.342   2.850  2.2741  2.0585 -0.9731
 4323SOL     OW24604   0.182   0.053   1.543  0.4782  0.3285  0.9052
 4323SOL    HW124605   0.257   0.052   1.484  1.0330 -2.3031  1.6434
 4323SOL    HW224606   0.178   0.144   1.572 -0.6989  0.6192 -0.2096
 4324SOL     OW24607   0.876   2.403  14.536 -1.0090 -0.1199  0.4463
 4324SOL    HW124608   0.923   2.410  14.619  1.6220  0.1603 -1.0467
 4324SOL    HW224609   0.928   2.462  14.480  0.0537 -0.3620  1.1801
 4325SOL     OW24610   4.652   2.486   8.444 -0.6349  0.1005 -0.5700
 4325SOL    HW124611   4.714   2.556   8.425 -1.1472  0.4828 -0.8608
 4325SOL    HW224612   4.570   2.533   8.431 -0.3959  0.0621 -2.1941
 4326SOL     OW24613   3.575   4.402   3.145 -0.2831  0.0740 -0.6456
 4326SOL    HW124614   3.636   4.421   3.073 -1.0194 -0.2724 -1.3706
 4326SOL    HW224615   3.493   4.384   3.098  0.1255  1.7026 -1.9831
 4327SOL     OW24616   3.981   3.324   8.613  0.4757  0.3062 -0.3852
 4327SOL    HW124617   3.951   3.398   8.667  1.1273  1.6667 -1.8898
 4327SOL    HW224618   4.017   3.361   8.533  2.1823 -0.7304 -0.0853
 4328SOL     OW24619   1.031   0.499   2.748 -0.5098 -0.0015  0.0015
 4328SOL    HW124620   1.126   0.489   2.752 -0.8966 -3.6293  0.3565
 4328SOL    HW224621   1.007   0.446   2.824  0.9557  0.1985  0.5953
 4329SOL     OW24622   1.042   3.829   9.502  0.2971  0.0049  0.2464
 4329SOL    HW124623   1.105   3.761   9.479  2.2653  1.9783 -0.1667
 4329SOL    HW224624   0.959   3.788   9.479 -0.7263  0.9759  2.1518
 4330SOL     OW24625   0.363   2.358   5.762 -0.6325  0.1400 -0.1678
 4330SOL    HW124626   0.311   2.438   5.768 -1.9743 -0.7341  0.1017
 4330SOL    HW224627   0.297   2.301   5.721 -0.0604 -1.2620  0.8453
 4331SOL     OW24628   0.851   4.238   4.511  0.0097 -0.3844 -0.9232
 4331SOL    HW124629   0.850   4.152   4.553  2.6442  0.9131  1.7371
 4331SOL    HW224630   0.927   4.229   4.453  1.8732  0.5392  1.3798
 4332SOL     OW24631   2.203   2.690  14.102 -0.5254  0.0118 -0.7036
 4332SOL    HW124632   2.222   2.599  14.078 -0.6194 -0.4008  0.8016
 4332SOL    HW224633   2.113   2.706  14.074 -0.0330 -0.2758 -2.5007
 4333SOL     OW24634   2.293   1.021  12.367 -0.0705  0.6231  0.5890
 4333SOL    HW124635   2.284   1.012  12.272 -0.8755  0.6640  0.6584
 4333SOL    HW224636   2.206   0.989  12.392 -1.4130  1.7028 -2.8026
 4334SOL     OW24637   4.297   4.602  16.967 -0.1673  0.7422 -0.3138
 4334SOL    HW124638   4.267   4.666  16.902 -0.8728 -2.2097 -2.9214
 4334SOL    HW224639   4.239   4.623  17.040 -0.1426 -1.1867  0.2808
 4335SOL     OW24640   0.435   0.356  12.186  0.2518  0.3967  0.0960
 4335SOL    HW124641   0.411   0.304  12.262 -0.9455  1.3492  0.3532
 4335SOL    HW224642   0.530   0.347  12.184  0.3025  0.9600  0.3446
 4336SOL     OW24643   3.850   4.128   6.704 -0.3367  0.0531 -0.0297
 4336SOL    HW124644   3.806   4.146   6.788  3.2877  0.7005  1.7260
 4336SOL    HW224645   3.784   4.154   6.640  1.3914 -0.1603 -1.8705
 4337SOL     OW24646   4.391   1.248   6.915  0.0283 -0.4189  0.6933
 4337SOL    HW124647   4.478   1.251   6.954  0.2634  3.1046 -0.0768
 4337SOL    HW224648   4.356   1.333   6.943 -1.1719 -0.6268 -0.1537
 4338SOL     OW24649   4.193   1.342   7.750  0.2030 -0.2204 -0.1875
 4338SOL    HW124650   4.098   1.346   7.763  0.5969  0.4155  2.5087
 4338SOL    HW224651   4.193   1.263   7.697  1.1563  2.0757 -3.6142
 4339SOL     OW24652   0.324   1.051   4.914  0.4618  0.0998  0.0992
 4339SOL    HW124653   0.352   1.138   4.885  3.1160 -1.1199 -1.0291
 4339SOL    HW224654   0.403   1.013   4.951 -0.5134 -2.1072 -0.0717
 4340SOL     OW24655   3.102   1.560  17.457 -0.3859  0.1907  0.7211
 4340SOL    HW124656   3.032   1.497  17.439 -1.4968  1.1719  1.5573
 4340SOL    HW224657   3.053   1.610  17.522 -2.0421  0.3829 -0.6535
 4341SOL     OW24658   3.011   4.392  14.966  0.3606 -0.1471 -0.1684
 4341SOL    HW124659   3.095   4.436  14.953  0.4643 -1.0581 -2.6926
 4341SOL    HW224660   3.023   4.324  14.900 -1.5485 -0.5417 -0.1041
 4342SOL     OW24661   2.572   0.717   5.765  0.3205 -0.5364  0.2640
 4342SOL    HW124662   2.507   0.692   5.699 -0.1849 -0.1945  0.6394
 4342SOL    HW224663   2.578   0.812   5.764  1.4139 -0.6012  0.1020
 4343SOL     OW24664   1.344   0.272   4.540 -0.3235  0.0145 -0.3857
 4343SOL    HW124665   1.344   0.222   4.622  1.3098 -0.0701 -0.4449
 4343SOL    HW224666   1.418   0.228   4.499 -0.7373 -1.5403  0.5249
 4344SOL     OW24667   2.348   2.810   0.420  0.2710 -0.3688  0.2241
 4344SOL    HW124668   2.405   2.866   0.472 -0.2853  0.7112 -0.3520
 4344SOL    HW224669   2.371   2.729   0.466  1.0830 -0.5594 -0.5174
 4345SOL     OW24670   3.003   2.774   1.994  0.7522 -0.3540 -0.2259
 4345SOL    HW124671   2.920   2.742   2.030 -0.6134  1.0317 -2.1447
 4345SOL    HW224672   2.968   2.844   1.939  1.6178 -1.5099 -2.2616
 4346SOL     OW24673   0.928   3.648  16.952 -0.4488 -0.4666  0.3083
 4346SOL    HW124674   0.893   3.663  16.863 -0.3709  0.3392  0.4107
 4346SOL    HW224675   0.897   3.728  16.996  2.7431 -0.8158  3.1675
 4347SOL     OW24676   1.803   3.564  15.608 -0.6782 -0.3890 -0.3001
 4347SOL    HW124677   1.851   3.599  15.683 -0.5880  0.0730 -0.5741
 4347SOL    HW224678   1.881   3.548  15.555 -0.5143 -1.2268  0.2012
 4348SOL     OW24679   4.532   3.531   4.461  0.1030 -0.0503 -0.3412
 4348SOL    HW124680   4.519   3.574   4.377  1.7475  1.7516  0.3257
 4348SOL    HW224681   4.515   3.604   4.520 -0.7131  0.1325 -0.8073
 4349SOL     OW24682   1.784   3.888  15.679  0.2575  0.1421 -0.5647
 4349SOL    HW124683   1.813   3.820  15.740 -2.2229 -0.4903 -0.1118
 4349SOL    HW224684   1.867   3.886  15.631  0.9803  0.1153  0.6760
 4350SOL     OW24685   4.314   1.264  15.340  0.0026 -0.1091 -0.4924
 4350SOL    HW124686   4.343   1.344  15.383  1.4425 -0.3065 -1.0956
 4350SOL    HW224687   4.391   1.243  15.286  1.7332  3.7946  0.4727
 4351SOL     OW24688   1.340   4.122   7.012 -1.1923 -0.1236  0.4742
 4351SOL    HW124689   1.257   4.133   7.060 -0.5899 -0.5652  1.6157
 4351SOL    HW224690   1.369   4.035   7.038  1.0884  0.3092 -0.6913
 4352SOL     OW24691   1.151   3.642   3.869  0.5356  0.1012  0.3700
 4352SOL    HW124692   1.088   3.703   3.832 -1.2223 -2.4383 -0.7826
 4352SOL    HW224693   1.145   3.568   3.808  1.2811  0.5840 -0.3006
 4353SOL     OW24694   2.378   1.072   9.473  0.0629  0.2225  0.1021
 4353SOL    HW124695   2.457   1.056   9.525 -1.0102  1.2453  2.0616
 4353SOL    HW224696   2.384   1.007   9.403  0.2907 -0.2021  0.5094
 4354SOL     OW24697   2.041   0.347   4.868 -0.4630  0.0795  0.0899
 4354SOL    HW124698   1.947   0.332   4.879 -0.1982 -0.0300  2.2955
 4354SOL    HW224699   2.053   0.435   4.902  0.0122 -0.7106  1.9525
 4355SOL     OW24700   0.035   0.055   9.079 -0.2931  0.2743 -0.5096
 4355SOL    HW124701   0.051   0.149   9.074  0.6084  0.2230  1.5526
 4355SOL    HW224702   0.119   0.017   9.103 -0.2516  0.1583 -0.8396
 4356SOL     OW24703   1.653   3.124   7.671 -0.4974  0.1557  0.1458
 4356SOL    HW124704   1.593   3.097   7.602  1.5231 -0.7481 -1.2544
 4356SOL    HW224705   1.605   3.187   7.725 -1.1307  1.6810 -2.2022
 4357SOL     OW24706   1.037   2.306   8.885  0.2715  0.4659 -0.0254
 4357SOL    HW124707   1.073   2.247   8.952  0.0439  0.9277  0.4972
 4357SOL    HW224708   1.030   2.236   8.820 -0.2907  0.4752  0.0270
 4358SOL     OW24709   4.054   4.430   4.896  0.3833  0.0534 -0.1126
 4358SOL    HW124710   3.964   4.397   4.894  0.1229  0.9040 -2.2465
 4358SOL    HW224711   4.045   4.471   4.982  0.4284  1.1509 -0.6290
 4359SOL     OW24712   0.178   1.677   3.991 -0.4924  0.2775  0.3796
 4359SOL    HW124713   0.224   1.701   4.072 -0.6754 -0.7686  0.7908
 4359SOL    HW224714   0.207   1.742   3.927  0.4557  0.7670  1.2968
 4360SOL     OW24715   2.918   0.656   4.906  0.8075 -0.1449 -0.4340
 4360SOL    HW124716   2.899   0.618   4.992 -2.1505 -2.0356 -1.9154
 4360SOL    HW224717   3.013   0.659   4.908  0.7302  0.8929  1.2860
 4361SOL     OW24718   2.472   1.067  17.246  0.0900 -0.0894 -0.4938
 4361SOL    HW124719   2.425   1.030  17.171 -0.6361 -1.6550  0.7290
 4361SOL    HW224720   2.437   1.153  17.269 -1.2776 -0.5680 -0.7938
 4362SOL     OW24721   1.893   2.943   5.783 -0.5446  0.5113 -0.4057
 4362SOL    HW124722   1.817   2.947   5.841  0.7859 -2.4756  1.5103
 4362SOL    HW224723   1.865   2.867   5.732  0.4273 -0.1372  0.0463
 4363SOL     OW24724   0.917   1.078   0.462  0.1608 -0.3264  0.2338
 4363SOL    HW124725   0.943   1.170   0.458  1.0439 -0.6490 -1.1623
 4363SOL    HW224726   1.000   1.038   0.438  0.4120 -0.5520  1.4795
 4364SOL     OW24727   3.391   1.270  14.873 -0.6877  0.2808  0.7344
 4364SOL    HW124728   3.474   1.222  14.875 -0.8528  0.0713  2.4206
 4364SOL    HW224729   3.328   1.198  14.877 -1.0609  0.5767  0.2419
 4365SOL     OW24730   3.286   1.187   3.614  0.0817 -0.9414  0.0827
 4365SOL    HW124731   3.347   1.258   3.631 -1.6416  0.9332 -1.6294
 4365SOL    HW224732   3.203   1.234   3.614  0.6482  0.0697  0.4960
 4366SOL     OW24733   0.916   2.559   7.813 -0.3674  0.6647 -0.3199
 4366SOL    HW124734   0.930   2.553   7.719  1.3520  3.2931 -0.2400
 4366SOL    HW224735   1.005   2.541   7.845 -0.6845 -0.5413 -0.1101
 4367SOL     OW24736   2.824   1.873   2.171  0.5056 -0.8817  0.6699
 4367SOL    HW124737   2.895   1.916   2.218  0.4532 -2.2770  2.0224
 4367SOL    HW224738   2.784   1.946   2.124 -0.0065 -0.3743  1.8860
 4368SOL     OW24739   3.099   2.776   7.821 -0.2918  0.1737 -0.1365
 4368SOL    HW124740   3.174   2.784   7.762 -0.7703 -0.1690 -0.7945
 4368SOL    HW224741   3.091   2.862   7.862  0.1304 -0.5373  1.4050
 4369SOL     OW24742   1.950   0.619   2.478 -0.3468  0.0267  0.7800
 4369SOL    HW124743   2.041   0.591   2.470 -0.2169  0.6337  0.1315
 4369SOL    HW224744   1.935   0.628   2.384  3.1619 -3.1680 -0.1035
 4370SOL     OW24745   3.935   0.368  11.803  0.1550  0.1351  0.5867
 4370SOL    HW124746   3.873   0.392  11.872 -0.5702 -0.6530  0.2132
 4370SOL    HW224747   3.889   0.297  11.757 -0.0071 -0.1758  1.2344
 4371SOL     OW24748   3.263   1.642   1.986 -0.2807  0.2003  0.2034
 4371SOL    HW124749   3.305   1.562   2.018 -1.8249 -1.0764 -0.9267
 4371SOL    HW224750   3.178   1.632   2.029  0.9812 -0.1176  2.6179
 4372SOL     OW24751   0.664   3.790   0.734 -0.7915 -0.2589  0.0739
 4372SOL    HW124752   0.572   3.783   0.712 -0.3417 -0.5073 -1.7353
 4372SOL    HW224753   0.680   3.876   0.693 -2.3726  0.7285  1.5289
 4373SOL     OW24754   0.978   1.746  12.447 -0.7912  0.0075  0.5548
 4373SOL    HW124755   0.977   1.818  12.509 -2.8326 -1.3354  2.0807
 4373SOL    HW224756   0.885   1.733  12.428 -1.0357  0.5056  1.4278
 4374SOL     OW24757   3.230   0.321   9.804 -0.2822  0.1791  0.7995
 4374SOL    HW124758   3.265   0.241   9.842  0.6045 -1.1349 -2.7831
 4374SOL    HW224759   3.151   0.329   9.859 -1.4910 -0.8289 -0.7715
 4375SOL     OW24760   0.039   3.622  13.637 -0.3589  0.0898  0.2750
 4375SOL    HW124761   0.104   3.685  13.606 -0.4918  0.6130  1.0646
 4375SOL    HW224762   4.697   3.671  13.617  0.6858  2.0074  0.7730
 4376SOL     OW24763   1.213   3.323   1.422  0.5008  0.6670 -0.6100
 4376SOL    HW124764   1.228   3.364   1.337 -1.6554  0.3490 -1.1512
 4376SOL    HW224765   1.280   3.362   1.478 -1.2268  1.5268  0.8402
 4377SOL     OW24766   1.036   0.181   6.288 -0.3854  0.1684 -0.4433
 4377SOL    HW124767   1.069   0.264   6.252  1.8188 -0.2559  0.6410
 4377SOL    HW224768   0.950   0.200   6.325 -0.4129  1.6175 -1.2324
 4378SOL     OW24769   3.805   2.011   9.069  0.1293 -0.0481  0.0906
 4378SOL    HW124770   3.736   1.983   9.008 -0.0749  0.5537  0.0470
 4378SOL    HW224771   3.801   1.947   9.140 -2.8057  0.8733  0.7558
 4379SOL     OW24772   0.167   1.474   4.576  0.2031  0.3912 -0.0072
 4379SOL    HW124773   0.080   1.441   4.600 -0.2507  1.6216  0.0299
 4379SOL    HW224774   0.159   1.565   4.547  2.3155  0.3876 -0.6438
 4380SOL     OW24775   2.465   1.630   6.060 -0.0512  0.0316 -0.5303
 4380SOL    HW124776   2.469   1.575   6.139 -0.5191 -2.0343 -1.9306
 4380SOL    HW224777   2.529   1.582   6.007  1.0118  1.4160 -0.4942
 4381SOL     OW24778   4.408   2.689   1.721  0.7184 -0.1840  0.2638
 4381SOL    HW124779   4.473   2.712   1.656  0.1984 -2.4310 -1.0694
 4381SOL    HW224780   4.361   2.626   1.666  0.5600 -1.4338  1.8462
 4382SOL     OW24781   2.373   1.339   2.050  0.0723  0.5841  0.7224
 4382SOL    HW124782   2.312   1.300   1.988  0.6742  0.1779  0.3827
 4382SOL    HW224783   2.432   1.266   2.072  0.2152  1.1663  2.3082
 4383SOL     OW24784   4.169   1.926  16.711 -0.3588  0.7237 -0.0383
 4383SOL    HW124785   4.079   1.901  16.690 -0.2514 -0.3700  0.8375
 4383SOL    HW224786   4.183   1.979  16.632 -1.5118  0.8904 -0.1270
 4384SOL     OW24787   2.076   1.087  16.858 -0.2432 -0.0454  0.1236
 4384SOL    HW124788   2.152   1.120  16.810  0.2310 -0.2613  0.7211
 4384SOL    HW224789   2.097   0.995  16.872 -1.9284 -0.2047  1.6150
 4385SOL     OW24790   4.514   4.486   5.988 -0.0071  0.0892 -0.3263
 4385SOL    HW124791   4.534   4.533   6.069 -0.2260 -0.4253  0.0324
 4385SOL    HW224792   4.602   4.494   5.950 -1.1861 -3.7003 -3.8253
 4386SOL     OW24793   1.937   0.415   3.956  0.2168  0.0952  0.2837
 4386SOL    HW124794   2.027   0.449   3.954  2.2143 -5.2831 -0.2770
 4386SOL    HW224795   1.909   0.434   4.046 -3.5615  1.1111 -1.0937
 4387SOL     OW24796   2.823   0.394  11.955 -0.0307  0.0199 -0.4896
 4387SOL    HW124797   2.861   0.345  11.882 -0.9020 -3.2575  1.2739
 4387SOL    HW224798   2.810   0.322  12.016  0.6380  0.3582  0.0515
 4388SOL     OW24799   3.821   3.565   8.312  0.3400  0.2954 -0.9720
 4388SOL    HW124800   3.781   3.598   8.232 -0.9289  1.0686 -0.0268
 4388SOL    HW224801   3.859   3.483   8.281 -0.3047 -0.5073  0.3437
 4389SOL     OW24802   2.412   1.143   5.398 -0.7250 -0.0566 -0.0899
 4389SOL    HW124803   2.483   1.087   5.366 -1.1438 -0.9174  0.4889
 4389SOL    HW224804   2.359   1.153   5.320 -0.0744  1.5783 -0.3178
 4390SOL     OW24805   2.884   1.435   7.962 -0.8079 -0.5237  0.0690
 4390SOL    HW124806   2.967   1.417   7.919 -1.1773 -0.8290 -0.5070
 4390SOL    HW224807   2.874   1.522   7.922  0.6636 -0.2429  0.2861
 4391SOL     OW24808   3.618   4.082   2.417  0.1687  0.5079 -0.8540
 4391SOL    HW124809   3.536   4.038   2.395 -1.1918  1.4339  2.4358
 4391SOL    HW224810   3.613   4.075   2.512 -0.5083 -1.0194 -1.0105
 4392SOL     OW24811   4.572   1.981   2.114 -0.1207  0.6066  1.0843
 4392SOL    HW124812   4.628   2.003   2.188 -0.0527 -0.1858  1.2669
 4392SOL    HW224813   4.584   1.886   2.108 -2.4486  0.3579  0.0320
 4393SOL     OW24814   2.076   2.798   6.888  0.1573  0.1609 -0.2599
 4393SOL    HW124815   1.990   2.839   6.900 -1.1603 -1.8496 -2.7854
 4393SOL    HW224816   2.134   2.866   6.856  0.2583 -0.0496 -0.5242
 4394SOL     OW24817   2.908   0.972   7.530  0.0120  0.2924 -0.0032
 4394SOL    HW124818   2.916   0.903   7.596  0.4781  1.6613  1.3691
 4394SOL    HW224819   2.975   0.949   7.465  0.7525 -0.6728  1.0943
 4395SOL     OW24820   2.006   2.616   1.969 -0.0417 -0.0351 -0.3341
 4395SOL    HW124821   2.082   2.673   1.976  0.4430 -0.4536 -2.0549
 4395SOL    HW224822   1.995   2.616   1.874  1.4696  0.9593 -0.4980
 4396SOL     OW24823   3.641   3.912   0.110 -0.1664  0.0099  0.2804
 4396SOL    HW124824   3.559   3.876   0.074  0.1029  0.0509 -0.3770
 4396SOL    HW224825   3.641   3.865   0.193 -1.4813 -2.3238 -1.0450
 4397SOL     OW24826   3.575   3.839   9.859  0.1243  0.0287 -0.2150
 4397SOL    HW124827   3.596   3.920   9.907  2.5802 -0.2943 -0.7318
 4397SOL    HW224828   3.515   3.791   9.916 -0.1859  0.4866 -0.1525
 4398SOL     OW24829   4.090   2.184   2.540  0.3121  0.7888  0.5006
 4398SOL    HW124830   4.078   2.266   2.491 -3.2772  1.4541  2.4645
 4398SOL    HW224831   4.095   2.215   2.631 -1.5915 -0.0863  0.9034
 4399SOL     OW24832   3.725   0.649   6.814 -0.6977  1.0549 -0.1546
 4399SOL    HW124833   3.801   0.602   6.848 -2.0223 -0.6773  0.4459
 4399SOL    HW224834   3.654   0.595   6.851  2.5987 -3.0289  0.2040
 4400SOL     OW24835   3.847   0.590   9.044  0.2140 -0.2980 -0.4521
 4400SOL    HW124836   3.861   0.513   8.989  2.4082  0.0683 -0.4180
 4400SOL    HW224837   3.919   0.651   9.028  0.1793 -0.5693 -1.6051
 4401SOL     OW24838   2.552   2.592   7.949  0.2384 -0.3798 -0.2245
 4401SOL    HW124839   2.490   2.580   8.021  1.0035  0.2615  0.5441
 4401SOL    HW224840   2.493   2.597   7.875  0.5011  1.2341 -0.3304
 4402SOL     OW24841   4.339   3.316   2.346 -0.5871 -0.1914  0.3277
 4402SOL    HW124842   4.266   3.376   2.330  0.4147  0.3993 -1.9189
 4402SOL    HW224843   4.306   3.242   2.295  1.5761 -0.2205 -1.0067
 4403SOL     OW24844   2.322   3.481  10.595  0.2561 -0.0526  0.3548
 4403SOL    HW124845   2.271   3.404  10.568 -0.3736  0.0934  1.1274
 4403SOL    HW224846   2.294   3.499  10.685  0.6169  1.4488  0.1540
 4404SOL     OW24847   1.432   3.384  10.219 -0.1882  0.1938  0.1508
 4404SOL    HW124848   1.408   3.367  10.128  0.9867  2.1237 -0.5113
 4404SOL    HW224849   1.442   3.292  10.244 -0.4758 -0.3842 -1.8830
 4405SOL     OW24850   2.217   0.107   4.471 -0.1279  0.3060  0.0239
 4405SOL    HW124851   2.210   0.178   4.534  1.0353  0.5186 -0.0992
 4405SOL    HW224852   2.283   0.050   4.511  1.2829  2.5179  0.7911
 4406SOL     OW24853   4.210   1.191   8.892 -0.0839  0.0043  0.1133
 4406SOL    HW124854   4.147   1.123   8.870  0.9272 -0.6822 -0.6607
 4406SOL    HW224855   4.178   1.264   8.838  1.0757  0.2732 -0.2090
 4407SOL     OW24856   4.127   0.370  10.832  0.1442 -0.7724 -0.1688
 4407SOL    HW124857   4.086   0.456  10.838  1.0672 -0.2915 -0.7047
 4407SOL    HW224858   4.120   0.356  10.926 -1.2043  0.9836 -0.0244
 4408SOL     OW24859   2.269   4.081   6.004  0.1894  0.1977  0.4566
 4408SOL    HW124860   2.187   4.087   5.954 -1.3719  0.7575  3.1197
 4408SOL    HW224861   2.306   3.998   5.972  1.3484  1.2698 -0.9530
 4409SOL     OW24862   2.630   2.783  14.946 -0.0292 -0.4700 -0.2552
 4409SOL    HW124863   2.570   2.728  14.896  0.4044 -2.4821  1.3952
 4409SOL    HW224864   2.704   2.723  14.957 -0.3021 -0.9909 -1.2476
 4410SOL     OW24865   1.808   0.892   8.749 -0.5594 -0.3317  0.0173
 4410SOL    HW124866   1.815   0.966   8.809  0.8088 -0.8994  0.5543
 4410SOL    HW224867   1.850   0.823   8.799 -1.8657 -1.6964 -0.7810
 4411SOL     OW24868   1.018   2.207   2.598  0.1049  0.1987 -0.0388
 4411SOL    HW124869   0.946   2.226   2.658  1.7047  0.2217  1.8784
 4411SOL    HW224870   1.010   2.271   2.527  0.0398 -1.3291 -1.4061
 4412SOL     OW24871   3.315   1.466  16.679 -0.4154  0.3934 -0.0340
 4412SOL    HW124872   3.342   1.421  16.759  1.1327  0.0655 -0.7597
 4412SOL    HW224873   3.404   1.485  16.651 -0.4049  0.9410  0.3577
 4413SOL     OW24874   4.232   2.280   3.044  0.6177  0.6555  0.1628
 4413SOL    HW124875   4.302   2.227   3.007  2.3625  2.8962  0.2324
 4413SOL    HW224876   4.288   2.345   3.087  0.5668  0.2688  0.8110
 4414SOL     OW24877   3.917   2.352   6.516  0.1284  0.1137 -0.1362
 4414SOL    HW124878   3.992   2.398   6.479  0.0788 -0.0380 -0.4276
 4414SOL    HW224879   3.931   2.365   6.610 -2.0820  3.0270 -0.1880
 4415SOL     OW24880   0.995   3.547   8.596 -0.3043  0.0769 -0.2327
 4415SOL    HW124881   0.927   3.598   8.553  0.6196  0.1066 -1.6467
 4415SOL    HW224882   0.981   3.463   8.553  0.4942  1.0111 -2.2847
 4416SOL     OW24883   3.942   3.254   4.031 -0.1770  0.5528 -1.0967
 4416SOL    HW124884   3.968   3.328   3.976 -0.1217  0.5577 -1.0646
 4416SOL    HW224885   4.026   3.219   4.061 -0.6279  0.8369  0.5203
 4417SOL     OW24886   2.585   0.641   8.397  0.7540 -0.9626  0.0211
 4417SOL    HW124887   2.590   0.737   8.390  0.6862 -0.9790 -0.2350
 4417SOL    HW224888   2.657   0.616   8.455 -1.4140 -3.5520  1.5707
 4418SOL     OW24889   1.257   3.961   3.662 -0.1310  0.2057  0.3257
 4418SOL    HW124890   1.313   3.902   3.712 -0.2851  0.8913  1.2977
 4418SOL    HW224891   1.211   3.904   3.599 -0.8026 -0.1568  1.1496
 4419SOL     OW24892   1.947   1.546   8.160 -0.4438  0.4690 -0.3448
 4419SOL    HW124893   1.862   1.502   8.149  0.8955 -1.8117 -1.6818
 4419SOL    HW224894   1.934   1.597   8.240  1.2057  0.6357 -0.1821
 4420SOL     OW24895   1.957   1.954   2.755  0.6271  0.4015  0.5833
 4420SOL    HW124896   1.997   2.041   2.758 -1.9964  1.5787  2.1161
 4420SOL    HW224897   1.891   1.958   2.824 -0.9470  1.1399 -0.9537
 4421SOL     OW24898   3.452   1.423   3.124 -0.1282 -0.0018  0.1123
 4421SOL    HW124899   3.413   1.337   3.113  0.9538 -0.3725 -0.8418
 4421SOL    HW224900   3.444   1.437   3.219 -1.9911 -0.2680 -0.0005
 4422SOL     OW24901   2.132   3.191   4.938 -0.1387  0.0277  0.1599
 4422SOL    HW124902   2.052   3.209   4.890 -1.5628 -0.8416  2.1935
 4422SOL    HW224903   2.177   3.271   4.912  0.9765 -0.9388 -0.9112
 4423SOL     OW24904   2.263   0.486   8.880  0.0784  0.2895  0.3486
 4423SOL    HW124905   2.217   0.550   8.934  0.4022  0.5307  0.3367
 4423SOL    HW224906   2.220   0.408   8.915  0.9259 -1.7745 -3.1115
 4424SOL     OW24907   3.509   1.562   6.605  0.1216 -0.3841 -0.3730
 4424SOL    HW124908   3.418   1.532   6.595 -0.9187  3.0070 -1.0170
 4424SOL    HW224909   3.504   1.601   6.692  2.3085  2.0778 -1.3872
 4425SOL     OW24910   0.102   1.075   5.741  0.9263 -0.4948  0.4100
 4425SOL    HW124911   0.086   1.153   5.688  1.4739 -0.2522  0.6082
 4425SOL    HW224912   0.022   1.069   5.794  1.0124 -0.3658  0.5542
 4426SOL     OW24913   2.349   3.189   2.354  0.2305 -0.3740  0.5187
 4426SOL    HW124914   2.281   3.247   2.320  1.3764  0.0855 -0.9578
 4426SOL    HW224915   2.366   3.133   2.278 -1.7205  0.8556 -0.8300
 4427SOL     OW24916   3.321   1.299   0.955 -0.2076 -0.3308 -0.0454
 4427SOL    HW124917   3.334   1.274   1.047 -1.6613  0.6843  0.4388
 4427SOL    HW224918   3.362   1.224   0.911  1.4071  0.4822  0.0878
 4428SOL     OW24919   1.333   2.789   4.899  0.7664 -0.0642  0.5347
 4428SOL    HW124920   1.320   2.695   4.884 -0.9446  0.5452 -1.7312
 4428SOL    HW224921   1.247   2.825   4.920 -0.3814 -1.8735 -1.0261
 4429SOL     OW24922   0.221   0.642   3.072 -0.1108  0.2707 -0.4760
 4429SOL    HW124923   0.178   0.574   3.124 -0.1645  0.7574  0.1153
 4429SOL    HW224924   0.302   0.599   3.044  0.1709 -0.7734  1.8800
 4430SOL     OW24925   4.521   0.052   7.980  0.1478  0.0570  0.0241
 4430SOL    HW124926   4.516   4.720   7.915 -1.0789  1.0129 -0.9297
 4430SOL    HW224927   4.533   0.122   7.916  0.4480  0.8112  0.8989
 4431SOL     OW24928   1.469   3.868   8.862  0.3015  0.0535 -0.1663
 4431SOL    HW124929   1.525   3.912   8.798  1.2730  1.0887  1.4115
 4431SOL    HW224930   1.532   3.864   8.934 -0.1973  0.8346  0.3166
 4432SOL     OW24931   3.073   1.318  14.798 -0.1752 -0.5053  0.2027
 4432SOL    HW124932   3.091   1.367  14.877 -0.7864 -1.1792  0.7637
 4432SOL    HW224933   3.113   1.368  14.727 -1.5560 -0.2523 -0.3882
 4433SOL     OW24934   0.412   3.198   7.870  0.0407 -0.2121  0.1734
 4433SOL    HW124935   0.460   3.183   7.788 -0.7211  0.7794 -0.4539
 4433SOL    HW224936   0.459   3.274   7.906 -2.4891  1.6277 -0.4063
 4434SOL     OW24937   2.792   4.679  12.269  0.2860  0.9011  0.2827
 4434SOL    HW124938   2.783   4.731  12.189  0.9197  1.8288  0.8066
 4434SOL    HW224939   2.835   0.008  12.321 -1.2678  0.9704  1.4655
 4435SOL     OW24940   3.851   4.614   2.329 -0.0674 -0.2556  1.0826
 4435SOL    HW124941   3.822   4.608   2.238  1.0583 -1.2263  0.7948
 4435SOL    HW224942   3.809   4.697   2.352 -2.4524 -1.2403  0.3865
 4436SOL     OW24943   3.246   0.131   5.379  0.3338  0.4616 -0.3442
 4436SOL    HW124944   3.262   0.104   5.470 -1.0086  0.1492 -0.2030
 4436SOL    HW224945   3.232   0.225   5.378  1.0778  0.5706 -0.7403
 4437SOL     OW24946   4.162   3.872   5.499 -1.1320 -0.5659 -0.0487
 4437SOL    HW124947   4.247   3.881   5.544 -1.6782 -2.7284  1.4148
 4437SOL    HW224948   4.105   3.844   5.571  0.1049 -0.1612  1.0993
 4438SOL     OW24949   3.769   1.625   2.840 -0.1361  0.3016  0.0400
 4438SOL    HW124950   3.856   1.667   2.835 -0.0869  0.2737  0.7568
 4438SOL    HW224951   3.726   1.660   2.918  0.2981  1.5129 -0.2563
 4439SOL     OW24952   1.557   4.513   7.346 -0.1016  0.4057  0.2713
 4439SOL    HW124953   1.576   4.573   7.274  0.1009 -1.0917 -0.9046
 4439SOL    HW224954   1.464   4.496   7.330  0.1180  0.5740 -1.2102
 4440SOL     OW24955   1.056   1.867   4.578 -0.6163 -0.4324  0.1135
 4440SOL    HW124956   0.973   1.901   4.546 -0.5568 -2.8677 -2.5796
 4440SOL    HW224957   1.126   1.917   4.537 -0.6817  0.1641  0.7384
 4441SOL     OW24958   3.381   2.360  10.566 -0.3813 -0.1334  0.1409
 4441SOL    HW124959   3.357   2.446  10.532  1.3823  0.7964  1.2627
 4441SOL    HW224960   3.469   2.357  10.528  0.3520  1.1408  1.7741
 4442SOL     OW24961   4.393   0.867   4.775 -0.0582  0.3771 -0.5302
 4442SOL    HW124962   4.303   0.892   4.795  0.7720  2.1002  1.1240
 4442SOL    HW224963   4.382   0.799   4.709  0.2748 -0.8109  0.6433
 4443SOL     OW24964   2.895   0.883  11.932  0.2078 -0.2185 -0.1208
 4443SOL    HW124965   2.903   0.978  11.918 -0.1191 -0.2170 -0.2951
 4443SOL    HW224966   2.949   0.847  11.861  1.3155  1.7073 -0.2698
 4444SOL     OW24967   0.134   3.883  13.556 -0.4000 -0.0381 -0.2074
 4444SOL    HW124968   0.179   3.892  13.473  0.1394  0.9398  0.1953
 4444SOL    HW224969   0.065   3.948  13.548  0.1291  0.5321 -0.1287
 4445SOL     OW24970   0.386   0.710   9.981 -0.0424 -0.0576 -0.3570
 4445SOL    HW124971   0.461   0.764  10.007  0.0473 -0.1877 -0.3486
 4445SOL    HW224972   0.372   0.660  10.061 -0.1302  2.2352  1.0810
 4446SOL     OW24973   2.987   1.785   0.615 -0.6733 -0.5049  0.2608
 4446SOL    HW124974   3.064   1.730   0.603 -0.4799 -0.0233 -0.6591
 4446SOL    HW224975   2.965   1.748   0.700  2.9348 -0.4120  1.2190
 4447SOL     OW24976   0.954   4.367   0.220 -0.4229 -0.7243 -0.1622
 4447SOL    HW124977   0.870   4.378   0.176 -0.8835 -2.5306  0.2754
 4447SOL    HW224978   0.999   4.313   0.155 -0.5354 -0.3126 -0.5826
 4448SOL     OW24979   2.211   0.151   3.831 -0.1441 -0.0996  0.1639
 4448SOL    HW124980   2.117   0.140   3.819  0.1386 -2.4808  0.2199
 4448SOL    HW224981   2.240   0.063   3.855  1.7335  1.1023  2.2897
 4449SOL     OW24982   3.363   1.809   5.926  0.1003 -0.2223 -0.1190
 4449SOL    HW124983   3.358   1.830   6.019 -0.9765 -0.6827 -0.0746
 4449SOL    HW224984   3.456   1.826   5.910  0.2995  0.3852  1.6731
 4450SOL     OW24985   0.865   2.739  13.673  0.1762  0.0235  0.3697
 4450SOL    HW124986   0.863   2.700  13.586 -1.9102  0.7236  0.1074
 4450SOL    HW224987   0.958   2.762  13.682  0.1826 -0.0656  0.5349
 4451SOL     OW24988   2.394   1.585   2.891  0.3352  0.0855  0.8812
 4451SOL    HW124989   2.448   1.598   2.813 -1.4980  0.7496 -0.2844
 4451SOL    HW224990   2.381   1.678   2.913  1.3931 -0.1930  2.6671
 4452SOL     OW24991   3.411   0.117   4.179  0.0774 -0.2540 -0.7163
 4452SOL    HW124992   3.504   0.137   4.193 -0.4315  0.4359  1.6605
 4452SOL    HW224993   3.419   0.026   4.152  4.2446 -0.7146  2.0902
 4453SOL     OW24994   3.534   2.626   3.165  0.2033  0.3579  0.2335
 4453SOL    HW124995   3.544   2.693   3.098  3.4558 -0.2299  0.1335
 4453SOL    HW224996   3.460   2.581   3.122  0.3433 -0.3598  0.7585
 4454SOL     OW24997   1.362   1.441   0.438 -0.0848 -0.5078 -0.0994
 4454SOL    HW124998   1.288   1.502   0.434  0.3953  0.0551 -0.4267
 4454SOL    HW224999   1.337   1.394   0.359  0.7114 -0.6463 -0.2752
 4455SOL     OW25000   0.225   2.348  13.555 -0.1446 -0.1213  0.0545
 4455SOL    HW125001   0.199   2.336  13.646  3.2588  4.2949  1.6469
 4455SOL    HW225002   0.303   2.400  13.574  1.1057 -1.4462 -1.4826
 4456SOL     OW25003   0.235   2.296   2.367 -0.2552  0.3679 -0.0078
 4456SOL    HW125004   0.224   2.379   2.414  0.4562  0.3773  0.1468
 4456SOL    HW225005   0.148   2.292   2.329 -0.8794  0.2950  1.4592
 4457SOL     OW25006   3.820   3.515   8.753  0.4363 -0.0784 -0.0260
 4457SOL    HW125007   3.865   3.537   8.835  1.3088  1.8244 -1.0149
 4457SOL    HW225008   3.749   3.457   8.780 -1.5540  3.0198  1.4677
 4458SOL     OW25009   3.650   0.729   9.153  0.1736  0.1856  0.0716
 4458SOL    HW125010   3.720   0.689   9.102 -1.4693 -1.6554 -0.7123
 4458SOL    HW225011   3.702   0.777   9.218  3.3623 -2.9507 -0.1899
 4459SOL     OW25012   0.615   0.533  17.339  0.6542 -0.0725 -0.7188
 4459SOL    HW125013   0.534   0.525  17.389  1.1936 -0.9268  0.0286
 4459SOL    HW225014   0.677   0.509  17.408 -1.3885  1.1990  1.5659
 4460SOL     OW25015   2.783   2.118   7.258 -0.6273  0.1739 -0.1961
 4460SOL    HW125016   2.797   2.087   7.348 -1.2286 -0.2781 -0.2651
 4460SOL    HW225017   2.690   2.100   7.249 -0.7069 -0.2417  1.3730
 4461SOL     OW25018   2.832   4.160   2.516 -0.1019  0.2490 -0.5469
 4461SOL    HW125019   2.854   4.251   2.535  0.0104  0.3142 -0.9870
 4461SOL    HW225020   2.822   4.171   2.421 -1.8384 -2.6510 -0.7083
 4462SOL     OW25021   3.079   2.042   3.898  1.2738  0.8270  0.2602
 4462SOL    HW125022   3.084   2.016   3.990  0.3583 -1.4005 -0.3062
 4462SOL    HW225023   3.111   2.131   3.904 -1.0717  1.6936  0.0218
 4463SOL     OW25024   0.340   2.087  13.944  0.3527  0.3329 -0.0364
 4463SOL    HW125025   0.291   2.075  14.025  0.4698 -1.7569 -0.2775
 4463SOL    HW225026   0.421   2.138  13.954  0.3399  0.7483 -1.9768
 4464SOL     OW25027   0.308   2.927   3.381  0.8963 -0.0048 -0.0340
 4464SOL    HW125028   0.232   2.888   3.339  1.1511 -2.1847  1.5431
 4464SOL    HW225029   0.289   2.894   3.469 -1.5404  0.3418 -0.4393
 4465SOL     OW25030   4.602   2.705  14.089  0.2127 -0.4409  0.0599
 4465SOL    HW125031   4.689   2.743  14.080  0.0026  0.1566  0.5266
 4465SOL    HW225032   4.626   2.613  14.083  0.8670 -0.1462 -1.9014
 4466SOL     OW25033   0.609   1.029   7.877 -0.2850 -0.7920 -0.4450
 4466SOL    HW125034   0.620   1.103   7.818 -1.2540 -0.4865 -0.2579
 4466SOL    HW225035   0.541   0.985   7.826 -0.9154 -0.9439  0.5061
 4467SOL     OW25036   4.197   4.157   4.641 -0.3928 -0.5653 -0.0305
 4467SOL    HW125037   4.204   4.120   4.729 -0.0625 -0.9102 -0.2009
 4467SOL    HW225038   4.201   4.251   4.656  2.1348 -0.2917 -2.3967
 4468SOL     OW25039   0.249   1.160   3.541  0.4698 -0.1426  0.2321
 4468SOL    HW125040   0.286   1.162   3.453  1.9598 -0.6903  0.8479
 4468SOL    HW225041   0.257   1.066   3.559  3.0161 -0.0708 -0.6575
 4469SOL     OW25042   1.790   4.612   0.683 -0.1350 -0.5966  0.7130
 4469SOL    HW125043   1.726   4.541   0.680 -1.1447  0.2701  2.5356
 4469SOL    HW225044   1.747   4.680   0.734 -0.4220  1.4587 -2.2732
 4470SOL     OW25045   1.283   4.478   2.630  0.3960  0.5958 -0.4161
 4470SOL    HW125046   1.261   4.571   2.635 -0.6302  0.2063  2.2049
 4470SOL    HW225047   1.297   4.464   2.723 -0.5865 -1.3311 -0.5708
 4471SOL     OW25048   4.601   3.466  16.826  0.5731 -0.6053  0.9623
 4471SOL    HW125049   4.584   3.528  16.755  0.8576 -0.5627  0.9322
 4471SOL    HW225050   4.542   3.501  16.893 -1.5923  1.4955 -2.0260
 4472SOL     OW25051   3.515   0.052   6.435  0.6193  0.7652  0.0659
 4472SOL    HW125052   3.541   0.012   6.518  1.1351 -2.8157 -1.8385
 4472SOL    HW225053   3.439   0.105   6.458 -2.1594 -3.6641  0.9168
 4473SOL     OW25054   1.555   4.030  16.929 -0.3413 -0.1794  0.5085
 4473SOL    HW125055   1.476   3.997  16.972 -0.5284 -0.6471 -0.1988
 4473SOL    HW225056   1.612   4.037  17.005  2.9901  1.8713 -2.1595
 4474SOL     OW25057   0.981   0.028   7.709  0.3504 -0.4902  0.4612
 4474SOL    HW125058   1.031   0.070   7.780  0.7546 -0.9508  0.4483
 4474SOL    HW225059   0.899   0.078   7.707  0.6611  0.1993  6.2885
 4475SOL     OW25060   3.660   2.876   6.978  0.4064  0.0862 -0.2257
 4475SOL    HW125061   3.619   2.876   6.892 -2.1221 -0.4194  0.9619
 4475SOL    HW225062   3.740   2.925   6.960  0.4360  0.7864  1.8098
 4476SOL     OW25063   4.697   3.402  13.409  0.1531  0.6835 -0.2211
 4476SOL    HW125064   4.610   3.443  13.415 -0.1016  0.2099 -0.6687
 4476SOL    HW225065   0.011   3.472  13.371  1.4588 -0.6432 -0.8397
 4477SOL     OW25066   1.164   2.467   4.294  0.1113 -0.1730  0.3369
 4477SOL    HW125067   1.187   2.496   4.382  0.3689 -0.2168  0.2846
 4477SOL    HW225068   1.083   2.517   4.282 -0.5574 -1.0109  1.4682
 4478SOL     OW25069   2.139   3.589   2.756  0.7716  0.2189  0.2073
 4478SOL    HW125070   2.092   3.562   2.676 -0.8173 -0.7900  1.4758
 4478SOL    HW225071   2.220   3.540   2.746 -0.0426 -0.8105 -1.4624
 4479SOL     OW25072   4.109   3.216   4.691  0.2868 -0.1493 -0.5491
 4479SOL    HW125073   4.016   3.234   4.704  0.4604  0.1213  0.3003
 4479SOL    HW225074   4.133   3.298   4.648 -0.6041  0.8521  0.8670
 4480SOL     OW25075   4.328   3.840  14.276 -0.5367 -0.3935 -0.4642
 4480SOL    HW125076   4.347   3.903  14.346 -1.8163  0.8635 -1.2526
 4480SOL    HW225077   4.385   3.770  14.306 -1.6117 -0.3491  1.6541
 4481SOL     OW25078   3.543   4.218   8.037  0.0499  0.5616  0.2841
 4481SOL    HW125079   3.622   4.178   8.073  0.9066  1.4424 -0.6132
 4481SOL    HW225080   3.501   4.137   8.008  1.6709 -0.2953  0.2931
 4482SOL     OW25081   4.390   2.558   4.219 -0.2525 -0.2943 -0.9695
 4482SOL    HW125082   4.477   2.519   4.232 -0.7154 -1.8320 -2.3903
 4482SOL    HW225083   4.400   2.648   4.188 -2.5756 -0.1756 -1.3558
 4483SOL     OW25084   1.428   0.724  10.896 -0.0132 -1.0645 -0.5692
 4483SOL    HW125085   1.518   0.728  10.862 -0.1173  3.6513 -0.2772
 4483SOL    HW225086   1.371   0.752  10.825 -0.3074 -0.8496 -0.2442
 4484SOL     OW25087   3.448   3.960  16.648  0.5986 -0.0167 -0.0434
 4484SOL    HW125088   3.526   3.906  16.657 -0.9542 -2.2410  0.0699
 4484SOL    HW225089   3.493   4.038  16.617  0.2835  0.3715  0.4723
 4485SOL     OW25090   1.436   4.635   9.111 -0.6380  0.5215 -0.0887
 4485SOL    HW125091   1.466   4.592   9.191 -0.5584  0.0508 -0.3715
 4485SOL    HW225092   1.391   4.559   9.072  0.1345 -0.5843  1.1776
 4486SOL     OW25093   4.141   0.910   7.391  0.4978 -0.6217  0.0575
 4486SOL    HW125094   4.201   0.955   7.331 -1.3926  2.3360  0.3492
 4486SOL    HW225095   4.165   0.931   7.481 -2.8138  2.9935  0.1075
 4487SOL     OW25096   2.127   0.624   4.934 -0.5791  0.0515 -0.4361
 4487SOL    HW125097   2.039   0.643   4.902 -1.7836  0.9601  3.4569
 4487SOL    HW225098   2.134   0.696   4.996  0.1049 -2.3469  2.2494
 4488SOL     OW25099   4.203   4.669  11.454 -0.3276  0.3073  0.4816
 4488SOL    HW125100   4.224   4.736  11.390 -0.7318  0.6402  0.6988
 4488SOL    HW225101   4.285   4.621  11.463 -1.2054 -1.1679  0.7363
 4489SOL     OW25102   1.824   0.287  13.117  0.6178 -0.3199 -0.4131
 4489SOL    HW125103   1.882   0.315  13.188 -1.4154  1.6910  0.4458
 4489SOL    HW225104   1.875   0.272  13.038 -0.5859 -0.3607 -1.1905
 4490SOL     OW25105   0.036   4.227   1.978  0.8838 -0.3063  0.3713
 4490SOL    HW125106   4.732   4.307   2.007 -0.1782 -0.8571  0.3401
 4490SOL    HW225107   0.124   4.242   2.013  1.5663 -1.1260 -0.9846
 4491SOL     OW25108   0.851   0.103   9.301 -0.2676  0.0776 -0.6288
 4491SOL    HW125109   0.816   0.123   9.214 -0.8214 -0.6582 -0.5704
 4491SOL    HW225110   0.801   0.160   9.358  0.2850 -0.0183 -0.0464
 4492SOL     OW25111   1.852   4.256  13.538 -0.2587 -0.3322  0.3701
 4492SOL    HW125112   1.909   4.317  13.492 -1.3376  0.8456  0.5735
 4492SOL    HW225113   1.877   4.290  13.624  0.6310  0.5331 -0.2339
 4493SOL     OW25114   3.437   1.117   0.469 -0.5035 -0.0540  0.0595
 4493SOL    HW125115   3.413   1.069   0.389  0.7173 -1.4191  0.5057
 4493SOL    HW225116   3.515   1.069   0.497 -0.5926 -0.2475 -0.0291
 4494SOL     OW25117   4.401   4.139   1.924  0.0892  0.3787 -0.0861
 4494SOL    HW125118   4.485   4.098   1.945 -0.4140 -1.0416 -0.8375
 4494SOL    HW225119   4.409   4.142   1.829 -0.1160  1.5408 -0.0662
 4495SOL     OW25120   2.748   3.985   0.735  0.4433  0.2293  0.3442
 4495SOL    HW125121   2.713   4.072   0.757  1.0319  0.3921  0.6224
 4495SOL    HW225122   2.787   3.956   0.817  1.6784 -0.1867 -0.3942
 4496SOL     OW25123   0.586   1.380   8.575 -0.5514 -0.2630  0.3111
 4496SOL    HW125124   0.527   1.392   8.501  0.8473  2.9245 -0.3130
 4496SOL    HW225125   0.670   1.369   8.530 -0.5331  1.1064  0.0019
 4497SOL     OW25126   3.604   4.314  13.153  0.0536  0.4702  0.1934
 4497SOL    HW125127   3.623   4.297  13.245  0.3970  0.0669  0.0447
 4497SOL    HW225128   3.521   4.361  13.144 -1.1897 -1.3085  2.5795
 4498SOL     OW25129   3.596   2.228   5.770  0.7784 -0.0210  0.2952
 4498SOL    HW125130   3.592   2.139   5.735  0.3483 -0.0638  0.4581
 4498SOL    HW225131   3.588   2.280   5.690 -0.5277 -0.4957  0.1281
 4499SOL     OW25132   0.247   0.182   1.879  0.2341  0.0542 -0.2277
 4499SOL    HW125133   0.157   0.198   1.909  0.3223 -0.5025  0.3610
 4499SOL    HW225134   0.305   0.205   1.952  0.7420  0.4775 -0.7648
 4500SOL     OW25135   2.438   3.167   5.894  0.2579 -0.6206 -0.0398
 4500SOL    HW125136   2.462   3.126   5.811 -0.3389 -2.6747  0.8054
 4500SOL    HW225137   2.343   3.179   5.888  0.0681 -1.2601  1.6367
 4501SOL     OW25138   4.001   2.135   2.968  0.3464  0.0236  0.1114
 4501SOL    HW125139   4.090   2.163   2.987  0.3203  0.5989 -0.6106
 4501SOL    HW225140   3.969   2.210   2.918 -1.5703  0.5699  2.1795
 4502SOL     OW25141   0.584   4.024   7.045 -0.5877 -0.9175  0.0329
 4502SOL    HW125142   0.585   3.973   7.126 -1.5982  0.8214  1.1537
 4502SOL    HW225143   0.576   4.114   7.077 -2.2957 -0.6639 -1.1012
 4503SOL     OW25144   2.292   4.553   3.227  0.2690 -0.6916  0.2125
 4503SOL    HW125145   2.283   4.559   3.132  3.5022 -1.6397 -0.1403
 4503SOL    HW225146   2.387   4.545   3.229  0.0709 -2.5001  1.8690
 4504SOL     OW25147   3.383   1.757  16.884 -0.0794  0.5255  0.3768
 4504SOL    HW125148   3.461   1.793  16.925  0.0728  0.6021  0.0237
 4504SOL    HW225149   3.331   1.837  16.887 -1.7096 -0.5473  1.0413
 4505SOL     OW25150   0.599   2.407   2.405 -0.6490 -0.8995 -0.5457
 4505SOL    HW125151   0.519   2.390   2.455 -0.0155 -0.1827  0.6956
 4505SOL    HW225152   0.554   2.426   2.322  0.2808  0.3672 -0.7432
 4506SOL     OW25153   0.586   1.075   6.520 -0.1617 -0.1635 -0.2654
 4506SOL    HW125154   0.558   1.085   6.429  0.5589  2.0916 -0.2389
 4506SOL    HW225155   0.582   1.168   6.542  0.8308 -0.4915  1.2940
 4507SOL     OW25156   3.898   3.564   5.255 -0.2723 -0.3334 -0.0385
 4507SOL    HW125157   3.824   3.528   5.305  1.8431 -1.6886  2.1440
 4507SOL    HW225158   3.846   3.616   5.194 -0.7373 -0.1030  0.5514
 4508SOL     OW25159   0.359   3.189   2.836 -0.3701  0.3701  0.4726
 4508SOL    HW125160   0.365   3.196   2.932 -1.3094 -0.4706  0.5987
 4508SOL    HW225161   0.320   3.273   2.811 -2.1494 -0.5369  0.1902
 4509SOL     OW25162   1.265   1.232   2.062  0.2859 -0.2608 -0.4052
 4509SOL    HW125163   1.266   1.302   2.127  1.0692 -0.8259  0.1990
 4509SOL    HW225164   1.268   1.281   1.980  0.5514  2.6351  1.3502
 4510SOL     OW25165   3.196   1.639   0.625 -0.4889 -0.6032  0.1280
 4510SOL    HW125166   3.226   1.558   0.584 -1.1762 -0.9346  0.2695
 4510SOL    HW225167   3.270   1.666   0.680 -0.6113  0.5529 -0.2768
 4511SOL     OW25168   0.191   1.029   4.610 -0.1448 -0.4246  0.0608
 4511SOL    HW125169   0.177   1.120   4.584  0.7897  0.2998  2.0639
 4511SOL    HW225170   0.127   1.015   4.679  1.2941  3.3867  2.1882
 4512SOL     OW25171   1.625   1.090   4.084 -0.5923  0.6601 -0.4002
 4512SOL    HW125172   1.591   1.179   4.087 -1.3730  0.2983  1.4313
 4512SOL    HW225173   1.663   1.084   3.996  0.1013  1.2966 -0.1435
 4513SOL     OW25174   2.990   4.657   2.203 -0.2109  0.3801  0.0649
 4513SOL    HW125175   2.981   4.693   2.291 -0.4596  1.2609 -0.3253
 4513SOL    HW225176   3.067   4.702   2.167  2.5008 -2.8441  1.8083
 4514SOL     OW25177   1.266   4.283   4.133 -0.1639 -0.2183 -0.0239
 4514SOL    HW125178   1.349   4.236   4.141 -1.3084 -2.1620  0.2454
 4514SOL    HW225179   1.285   4.375   4.114 -1.3262  0.2631  1.1613
 4515SOL     OW25180   4.072   3.647   9.469 -0.0318 -0.0343 -0.0657
 4515SOL    HW125181   4.055   3.579   9.534 -0.0532 -0.5139 -0.5719
 4515SOL    HW225182   3.992   3.699   9.471  2.3657  3.5428  1.8102
 4516SOL     OW25183   3.268   4.547   5.330 -1.0287  0.4111  0.2583
 4516SOL    HW125184   3.259   4.534   5.425 -2.3952  0.3204  0.1052
 4516SOL    HW225185   3.262   4.457   5.299 -1.3623  0.8194 -0.8458
 4517SOL     OW25186   0.771   3.545   6.452  0.2325 -0.1781  0.1800
 4517SOL    HW125187   0.736   3.628   6.483  0.1102 -0.5435  1.0197
 4517SOL    HW225188   0.787   3.503   6.536 -0.3228 -2.6032 -0.9285
 4518SOL     OW25189   3.115   0.847   7.926  0.2852 -0.6260  0.3387
 4518SOL    HW125190   3.098   0.938   7.902 -1.3588 -0.9572  0.2160
 4518SOL    HW225191   3.025   0.820   7.946  0.1084 -0.9283 -0.8590
 4519SOL     OW25192   0.970   2.533   4.912 -0.0092 -0.4138  0.1021
 4519SOL    HW125193   0.996   2.621   4.938 -0.1764 -0.8307  1.6930
 4519SOL    HW225194   0.923   2.551   4.830 -0.0009 -0.3679  0.1074
 4520SOL     OW25195   2.134   2.880   9.487  0.0523  0.3295  0.2700
 4520SOL    HW125196   2.039   2.876   9.480  0.1379 -1.0322 -0.1008
 4520SOL    HW225197   2.147   2.943   9.416 -0.6738 -0.4919 -0.5883
 4521SOL     OW25198   0.687   4.182   2.591 -0.1549  0.3846 -0.0576
 4521SOL    HW125199   0.707   4.124   2.665  0.3578  0.2791 -0.2769
 4521SOL    HW225200   0.636   4.254   2.628 -1.0164 -0.6514  0.7803
 4522SOL     OW25201   2.568   0.883   9.158 -0.2990 -0.3451  0.4370
 4522SOL    HW125202   2.658   0.911   9.176  0.8691 -2.0297 -2.6946
 4522SOL    HW225203   2.545   0.947   9.090  1.7584  2.6463  2.5293
 4523SOL     OW25204   1.678   0.123   6.088  0.6736 -0.1629 -0.1996
 4523SOL    HW125205   1.720   0.164   6.012 -0.9765  0.7471 -0.6086
 4523SOL    HW225206   1.595   0.170   6.088 -1.5952 -4.1026 -0.8764
 4524SOL     OW25207   4.257   4.096   9.150 -0.0793  0.0959  0.1726
 4524SOL    HW125208   4.328   4.145   9.191  0.6480  1.2703 -2.4929
 4524SOL    HW225209   4.297   4.009   9.145 -0.4775  0.0734 -2.5772
 4525SOL     OW25210   0.999   3.615  12.755  0.1126  0.1145 -0.3675
 4525SOL    HW125211   1.062   3.678  12.722  0.5643 -0.4184 -0.5228
 4525SOL    HW225212   0.977   3.641  12.844  1.0480 -1.3615  0.3018
 4526SOL     OW25213   0.703   3.642   5.083 -0.1024 -0.0213  0.2728
 4526SOL    HW125214   0.735   3.660   5.171  2.0335 -2.0362 -0.0875
 4526SOL    HW225215   0.782   3.613   5.038  0.7189  0.0610  1.6536
 4527SOL     OW25216   3.873   1.647   6.232  0.4550  0.0246  0.1051
 4527SOL    HW125217   3.817   1.582   6.190  1.1396 -0.2780 -0.3403
 4527SOL    HW225218   3.933   1.592   6.283  1.1454  0.6578 -0.0255
 4528SOL     OW25219   2.741   1.143  10.693  0.2117  0.0872 -0.7778
 4528SOL    HW125220   2.782   1.063  10.659 -0.4517 -0.4029 -0.4267
 4528SOL    HW225221   2.756   1.125  10.786  3.0975 -3.0023 -1.8331
 4529SOL     OW25222   4.662   2.421  14.052  0.1545  0.1244 -0.0776
 4529SOL    HW125223   0.011   2.457  14.036  0.2051 -0.6376 -1.5119
 4529SOL    HW225224   4.621   2.432  13.966 -0.6243  0.1896  0.3000
 4530SOL     OW25225   2.019   4.708  17.310  0.6140  0.6065  0.0927
 4530SOL    HW125226   1.931   4.681  17.285  0.7298 -0.2158  0.5659
 4530SOL    HW225227   2.004   0.064  17.306 -3.9524 -0.1374  0.1992
 4531SOL     OW25228   3.555   1.323   7.366  0.0204  0.5165  0.0304
 4531SOL    HW125229   3.601   1.239   7.359  1.3306  1.3979 -1.6061
 4531SOL    HW225230   3.541   1.332   7.461 -2.1418 -1.1063 -0.1253
 4532SOL     OW25231   4.286   4.329   6.820  0.4859  0.6365 -0.6041
 4532SOL    HW125232   4.268   4.304   6.730  1.6476  0.4782 -0.7931
 4532SOL    HW225233   4.262   4.421   6.810  2.3764  1.2562  0.3888
 4533SOL     OW25234   3.030   0.833   2.848 -0.3457 -0.3287 -0.2208
 4533SOL    HW125235   3.050   0.742   2.830 -0.4331 -0.6762  1.4666
 4533SOL    HW225236   2.950   0.833   2.900 -0.2692  1.8423 -0.0636
 4534SOL     OW25237   1.775   2.345  17.342 -0.0942  0.0962  0.3396
 4534SOL    HW125238   1.845   2.393  17.384 -0.7859 -0.0979  1.7098
 4534SOL    HW225239   1.702   2.407  17.337  1.3595  1.4191 -5.1841
 4535SOL     OW25240   1.998   0.996   5.911 -0.2152 -0.2344 -0.1367
 4535SOL    HW125241   2.017   1.088   5.927  0.2014 -0.1686 -1.0213
 4535SOL    HW225242   2.075   0.950   5.943  1.0778  1.2682 -1.1003
 4536SOL     OW25243   1.737   2.604  12.933 -0.2108  0.6116 -0.1338
 4536SOL    HW125244   1.798   2.633  13.001  0.0244 -0.3536  0.0659
 4536SOL    HW225245   1.795   2.618  12.858  1.0308  0.3233  0.7728
 4537SOL     OW25246   0.502   4.404   6.526  0.2218  0.3814 -0.2921
 4537SOL    HW125247   0.477   4.344   6.596  0.0449  2.0947  1.1109
 4537SOL    HW225248   0.418   4.449   6.513 -0.8886 -2.1510 -1.7842
 4538SOL     OW25249   4.319   0.747  11.685 -0.3921 -0.9655  0.4984
 4538SOL    HW125250   4.410   0.725  11.705  0.1238  0.8777  0.1989
 4538SOL    HW225251   4.294   0.667  11.639  2.3003 -1.7303  0.3629
 4539SOL     OW25252   0.505   0.911   5.184 -0.2176  0.4267  0.4037
 4539SOL    HW125253   0.582   0.856   5.200 -0.1377  1.4771  3.4724
 4539SOL    HW225254   0.528   0.944   5.097 -0.1790 -1.0389 -0.1491
 4540SOL     OW25255   2.179   1.357   3.951 -0.1258  0.2663 -0.8530
 4540SOL    HW125256   2.098   1.307   3.947  0.1115 -0.1337 -0.6537
 4540SOL    HW225257   2.234   1.284   3.924  0.7080 -0.0904  1.8044
 4541SOL     OW25258   0.729   2.471   4.391  0.5847 -0.1260 -0.0704
 4541SOL    HW125259   0.666   2.450   4.321 -0.8374 -0.6756  1.3730
 4541SOL    HW225260   0.798   2.517   4.344 -0.3424  1.0724 -0.2468
 4542SOL     OW25261   3.852   1.083   0.122  0.5044 -0.1392  0.2402
 4542SOL    HW125262   3.797   1.052   0.194  0.9066 -0.7204  0.2950
 4542SOL    HW225263   3.871   1.170   0.157 -0.4287 -0.2164  0.9522
 4543SOL     OW25264   3.121   2.104   4.189 -0.5423 -0.1293  0.2238
 4543SOL    HW125265   3.162   2.017   4.187 -0.5577 -0.0983 -1.7873
 4543SOL    HW225266   3.073   2.098   4.271  0.6181  0.3908  0.9527
 4544SOL     OW25267   1.925   3.203   3.833  0.0265 -0.2588 -0.3699
 4544SOL    HW125268   1.852   3.253   3.868  1.4091  0.5471  1.3749
 4544SOL    HW225269   1.884   3.162   3.757  2.3747 -1.3621 -1.0636
 4545SOL     OW25270   1.133   3.094  13.836  0.1824  0.3514  0.6095
 4545SOL    HW125271   1.137   3.173  13.782 -0.0413  0.2493  0.4394
 4545SOL    HW225272   1.096   3.028  13.777 -0.2628 -0.8084  2.1609
 4546SOL     OW25273   4.659   4.702   4.586 -0.7408 -0.5676  0.2151
 4546SOL    HW125274   4.649   4.608   4.571 -0.6169 -0.5528  0.0384
 4546SOL    HW225275   4.702   4.709   4.672  0.8424 -0.5014 -0.5854
 4547SOL     OW25276   3.325   1.084  15.643  0.2562  0.6160 -0.0783
 4547SOL    HW125277   3.376   1.165  15.636  1.0719  0.0244 -1.0344
 4547SOL    HW225278   3.254   1.112  15.700 -0.2460 -0.0627 -0.3764
 4548SOL     OW25279   0.579   0.177   2.516  0.1485  0.2580  0.7322
 4548SOL    HW125280   0.595   0.217   2.602  0.0781  1.3034  0.2553
 4548SOL    HW225281   0.507   0.227   2.479 -0.1811 -1.4446 -0.9012
 4549SOL     OW25282   1.656   2.831   4.756 -0.1019 -0.0093  0.1763
 4549SOL    HW125283   1.600   2.847   4.832 -1.2653  0.0660 -0.6969
 4549SOL    HW225284   1.744   2.856   4.784  0.9734 -1.2582 -2.1071
 4550SOL     OW25285   4.388   1.160   5.704 -0.0264  0.6910 -0.2379
 4550SOL    HW125286   4.452   1.231   5.714  1.6308 -1.0924  1.7778
 4550SOL    HW225287   4.330   1.197   5.638 -0.4721  0.0901 -0.1764
 4551SOL     OW25288   3.246   3.643  17.303  0.7171  0.0046 -0.0104
 4551SOL    HW125289   3.220   3.666  17.213 -0.0428 -3.5614 -0.7008
 4551SOL    HW225290   3.230   3.549  17.293  1.2730  0.0736 -1.5909
 4552SOL     OW25291   1.508   4.462   7.731  0.2300  0.3943 -0.4506
 4552SOL    HW125292   1.417   4.460   7.699 -0.5490 -0.8468  1.9000
 4552SOL    HW225293   1.529   4.370   7.717  0.1354  0.0887  1.4349
 4553SOL     OW25294   1.219   3.619   9.432 -0.6152 -0.3222  0.5519
 4553SOL    HW125295   1.192   3.531   9.457 -0.8844 -0.1950  0.7057
 4553SOL    HW225296   1.205   3.612   9.338 -0.1301 -1.9746  0.6087
 4554SOL     OW25297   3.335   1.881   6.373  0.1606 -0.0203 -0.1477
 4554SOL    HW125298   3.300   1.927   6.449  1.2307 -0.9238  0.8880
 4554SOL    HW225299   3.408   1.939   6.351 -1.5175  1.7895 -0.9161
 4555SOL     OW25300   3.020   1.101   8.196 -0.1015  0.7958  0.3502
 4555SOL    HW125301   3.022   1.188   8.236 -0.4299  0.2824  1.4738
 4555SOL    HW225302   2.929   1.080   8.180 -0.5351  1.2922  2.1230
 4556SOL     OW25303   2.241   2.338   7.372 -0.0102 -0.0458 -0.0343
 4556SOL    HW125304   2.258   2.431   7.386 -0.2536 -0.0209  0.0875
 4556SOL    HW225305   2.258   2.334   7.277 -0.2012 -0.9390 -0.0307
 4557SOL     OW25306   3.203   2.685  12.791  0.4521  0.9007 -0.3559
 4557SOL    HW125307   3.189   2.597  12.824 -0.3425  1.0432 -0.3173
 4557SOL    HW225308   3.225   2.734  12.870  1.3211 -0.9993  0.5794
 4558SOL     OW25309   0.504   0.115   8.036  0.5495 -0.1830 -0.2328
 4558SOL    HW125310   0.590   0.157   8.025 -0.7514  2.0890 -2.0196
 4558SOL    HW225311   0.484   0.130   8.128  0.2711 -0.4847 -0.2443
 4559SOL     OW25312   2.714   2.582   7.240  0.2546 -0.0116 -0.6847
 4559SOL    HW125313   2.620   2.599   7.243  0.2520  0.1995 -1.7587
 4559SOL    HW225314   2.723   2.553   7.330  0.2762  0.7217 -0.4499
 4560SOL     OW25315   2.091   2.203   6.698  0.0891  0.3725  0.0315
 4560SOL    HW125316   2.181   2.185   6.672  0.3448  3.0562 -1.0297
 4560SOL    HW225317   2.041   2.197   6.616  0.3267  2.3983 -0.2660
 4561SOL     OW25318   0.673   2.375   6.608 -1.2619  0.2304 -0.2427
 4561SOL    HW125319   0.599   2.384   6.547 -0.6630  1.1133 -0.8365
 4561SOL    HW225320   0.646   2.311   6.674 -1.4567  0.3749 -0.1821
 4562SOL     OW25321   1.915   1.483  10.085  0.0122  0.3909 -0.1561
 4562SOL    HW125322   1.862   1.421  10.136  2.5279 -1.9274 -0.3924
 4562SOL    HW225323   1.846   1.516  10.027 -1.2094 -0.5804  0.7358
 4563SOL     OW25324   3.407   3.686   6.160 -0.2621 -0.1880 -0.7229
 4563SOL    HW125325   3.348   3.759   6.141  0.7826  0.8747  0.1875
 4563SOL    HW225326   3.451   3.665   6.077  2.2242  1.0426  0.2956
 4564SOL     OW25327   0.250   1.443   4.101 -0.0670 -0.0634  0.5079
 4564SOL    HW125328   0.225   1.533   4.077  0.4674  0.2306  1.0642
 4564SOL    HW225329   0.343   1.431   4.081 -0.7449 -0.7774 -2.1816
 4565SOL     OW25330   2.901   3.594   4.010  0.4004  0.1318 -0.0865
 4565SOL    HW125331   2.961   3.592   4.085 -0.0732 -1.0902  0.2677
 4565SOL    HW225332   2.871   3.684   4.016  0.5946  0.2349 -0.7262
 4566SOL     OW25333   0.669   0.117  10.859 -0.5192  0.8593 -0.6974
 4566SOL    HW125334   0.698   0.040  10.810  0.3542  1.4812 -1.1642
 4566SOL    HW225335   0.723   0.188  10.822  1.9573 -0.1483  0.9424
 4567SOL     OW25336   0.436   1.783   9.579 -0.2985  0.0698 -0.3253
 4567SOL    HW125337   0.458   1.876   9.574  1.3224 -0.4684 -3.0096
 4567SOL    HW225338   0.481   1.757   9.499  0.8231 -0.7297  0.5750
 4568SOL     OW25339   4.080   2.091   7.350 -0.0175 -0.0976 -0.1161
 4568SOL    HW125340   4.140   2.158   7.384 -1.3585 -0.2533  2.5448
 4568SOL    HW225341   4.133   2.056   7.278 -0.9211  0.5974 -1.1133
 4569SOL     OW25342   0.578   4.632   0.154 -0.2274  0.4198 -0.5106
 4569SOL    HW125343   0.504   4.650   0.097 -0.8297  1.0587  0.4674
 4569SOL    HW225344   0.641   4.694   0.118 -1.6445  1.9866 -0.2854
 4570SOL     OW25345   0.607   3.130   2.724 -0.2712  0.5444 -0.1078
 4570SOL    HW125346   0.525   3.111   2.769 -0.5956  1.1969 -0.4170
 4570SOL    HW225347   0.577   3.203   2.669 -0.1721  3.3890  3.6442
 4571SOL     OW25348   1.127   2.569  13.975  0.5924  0.3395  0.1825
 4571SOL    HW125349   1.100   2.510  13.905  0.0338 -0.0515  0.7299
 4571SOL    HW225350   1.113   2.520  14.055 -2.0233 -0.7584 -0.9531
 4572SOL     OW25351   0.484   3.098   4.506 -0.7188  0.1316 -0.2261
 4572SOL    HW125352   0.492   3.012   4.546  2.1569  0.3397 -0.3743
 4572SOL    HW225353   0.472   3.067   4.416  2.4598  1.5511 -1.1170
 4573SOL     OW25354   3.880   1.414   4.562  0.0857  0.9050  0.4437
 4573SOL    HW125355   3.820   1.349   4.599  2.1305 -0.3782  1.4944
 4573SOL    HW225356   3.873   1.480   4.631 -2.5338  1.3390 -0.2363
 4574SOL     OW25357   0.191   1.023   9.211 -0.1686  0.5191  0.4215
 4574SOL    HW125358   0.213   1.097   9.268 -0.1873  0.3777  0.6140
 4574SOL    HW225359   0.278   0.984   9.201  0.1911  1.0878  1.3616
 4575SOL     OW25360   4.046   0.484  11.572 -0.6131  0.0220 -0.2010
 4575SOL    HW125361   4.137   0.458  11.590 -1.2140 -1.7168  0.3387
 4575SOL    HW225362   4.000   0.453  11.650 -1.3998 -1.1685 -1.1426
 4576SOL     OW25363   0.214   3.505   2.104  0.3947 -0.0261  0.2756
 4576SOL    HW125364   0.224   3.586   2.054 -0.2764  0.3454  0.7454
 4576SOL    HW225365   0.299   3.476   2.071 -0.0143 -1.8143  0.7832
 4577SOL     OW25366   2.786   1.758  13.715 -0.3993  0.2924  0.0597
 4577SOL    HW125367   2.832   1.739  13.797 -2.3760 -1.5161  0.7511
 4577SOL    HW225368   2.696   1.742  13.742 -0.8283  0.1099 -1.4909
 4578SOL     OW25369   0.806   1.177  16.893 -0.1398  0.3244 -0.3116
 4578SOL    HW125370   0.732   1.236  16.907 -0.3228 -0.6008  2.7226
 4578SOL    HW225371   0.879   1.238  16.884 -0.3152  0.6158  0.2284
 4579SOL     OW25372   4.328   3.483  16.915  0.2540 -0.3908  0.3221
 4579SOL    HW125373   4.333   3.453  16.825  1.7886  2.4268 -0.5288
 4579SOL    HW225374   4.245   3.530  16.914  0.8158  0.5858  0.0795
 4580SOL     OW25375   4.514   1.107  14.266 -0.2635 -0.0791 -0.4700
 4580SOL    HW125376   4.512   1.203  14.273 -0.3639 -0.1139  0.0168
 4580SOL    HW225377   4.598   1.082  14.228  0.9952  0.6612  1.7767
 4581SOL     OW25378   3.851   1.465   2.443  0.5862 -0.4474 -0.2698
 4581SOL    HW125379   3.800   1.444   2.521  0.1629 -0.5635 -0.5768
 4581SOL    HW225380   3.927   1.513   2.477  0.4621  0.8003 -1.7417
 4582SOL     OW25381   2.632   0.162   3.194  0.3671 -0.4806  0.4285
 4582SOL    HW125382   2.563   0.191   3.253 -0.5098 -1.6065 -0.0378
 4582SOL    HW225383   2.592   0.180   3.109  5.2147  0.1521 -1.7239
 4583SOL     OW25384   2.462   1.430   7.906  0.0551  0.3737  0.0361
 4583SOL    HW125385   2.529   1.397   7.846 -1.9331 -1.3572 -1.2341
 4583SOL    HW225386   2.434   1.512   7.867  0.9002  1.2640  1.2958
 4584SOL     OW25387   3.521   2.595   2.067  0.3397  0.2175  0.2920
 4584SOL    HW125388   3.464   2.636   2.133  0.3500  2.4089 -1.0548
 4584SOL    HW225389   3.466   2.521   2.043  2.9419 -1.4071 -0.7228
 4585SOL     OW25390   2.263   0.382   3.383 -0.0012  0.2044  0.4490
 4585SOL    HW125391   2.278   0.470   3.348 -0.1227  0.9716  2.3330
 4585SOL    HW225392   2.170   0.377   3.362 -0.4186  1.1717  2.0518
 4586SOL     OW25393   3.764   4.477   1.441 -0.8501 -1.0920  0.3956
 4586SOL    HW125394   3.734   4.559   1.400 -1.7203 -0.8390  1.5542
 4586SOL    HW225395   3.726   4.491   1.527 -0.8429  0.2025  0.1942
 4587SOL     OW25396   1.546   2.986   8.523 -0.3532 -0.1868 -0.1807
 4587SOL    HW125397   1.638   3.013   8.526 -0.1001 -1.1221  0.3484
 4587SOL    HW225398   1.503   3.057   8.572 -1.4306 -0.3437 -0.9073
 4588SOL     OW25399   4.478   4.491  15.841 -0.1341  0.3328  0.3713
 4588SOL    HW125400   4.515   4.505  15.754 -2.7858 -1.5436 -1.0724
 4588SOL    HW225401   4.546   4.510  15.905 -1.1127  1.7139  1.0029
 4589SOL     OW25402   3.678   2.530  14.516  0.5100  0.7285  0.3915
 4589SOL    HW125403   3.723   2.579  14.584  0.7583 -2.0878  2.2675
 4589SOL    HW225404   3.741   2.491  14.456 -0.0355  1.3261 -0.5717
 4590SOL     OW25405   4.361   1.450   9.633  0.0946  0.0329 -0.2126
 4590SOL    HW125406   4.310   1.531   9.640  1.7160  1.3492 -3.6404
 4590SOL    HW225407   4.286   1.392   9.644  1.4254 -1.3402  1.6221
 4591SOL     OW25408   1.438   1.776   5.941 -0.3857 -0.0032  0.3197
 4591SOL    HW125409   1.401   1.789   6.028  1.3760 -0.0733  1.0910
 4591SOL    HW225410   1.475   1.690   5.962  0.3564 -0.1245 -1.5221
 4592SOL     OW25411   0.612   1.166   4.324  0.2794 -0.0563 -0.0580
 4592SOL    HW125412   0.565   1.090   4.289  0.5084 -0.3550  0.2888
 4592SOL    HW225413   0.698   1.128   4.339  0.5167  1.0509  1.4204
 4593SOL     OW25414   2.762   0.107  16.761 -0.5257  0.2766  0.0478
 4593SOL    HW125415   2.728   0.087  16.673  0.9362 -0.0104 -0.4549
 4593SOL    HW225416   2.855   0.099  16.739 -1.3574  0.6431 -3.5841
 4594SOL     OW25417   3.095   4.574   3.327  0.4690 -0.2748 -0.0798
 4594SOL    HW125418   3.045   4.560   3.406 -0.7983  0.0987 -0.8206
 4594SOL    HW225419   3.176   4.525   3.344  0.4410 -0.1725  0.3311
 4595SOL     OW25420   3.122   1.340   4.305 -0.0586  0.1837 -0.8112
 4595SOL    HW125421   3.165   1.412   4.352  4.5491 -0.7910 -3.4741
 4595SOL    HW225422   3.069   1.400   4.252 -1.0278 -1.3349 -1.5460
 4596SOL     OW25423   1.260   2.311   6.017 -0.6850  0.4419 -0.3337
 4596SOL    HW125424   1.334   2.370   6.002 -2.0857  1.9369 -1.3801
 4596SOL    HW225425   1.258   2.274   5.928 -0.3734  1.8931 -0.9465
 4597SOL     OW25426   1.161   1.417   9.628  0.1522 -0.2954  0.0167
 4597SOL    HW125427   1.137   1.351   9.563 -0.4795 -0.0753  0.0309
 4597SOL    HW225428   1.184   1.496   9.579 -2.4414  0.1125 -0.5175
 4598SOL     OW25429   2.087   3.173   7.192  0.1193 -0.2465 -0.3942
 4598SOL    HW125430   2.009   3.151   7.141 -0.4756  0.8761  0.0224
 4598SOL    HW225431   2.151   3.127   7.138  0.2514 -0.4078 -0.0991
 4599SOL     OW25432   2.412   3.067   9.122 -0.5751 -0.7649 -0.7214
 4599SOL    HW125433   2.393   3.008   9.049 -0.2635  1.4093 -2.5755
 4599SOL    HW225434   2.348   3.047   9.191  0.9706 -0.1451  0.8802
 4600SOL     OW25435   4.360   1.666   2.180  0.3006  0.3987  0.6191
 4600SOL    HW125436   4.285   1.616   2.213 -0.7980  1.0986 -0.8209
 4600SOL    HW225437   4.314   1.741   2.140  0.3037 -0.2412 -0.5913
 4601SOL     OW25438   1.586   3.717   2.403 -0.3198 -0.2841 -0.5789
 4601SOL    HW125439   1.541   3.675   2.330  0.0475 -1.1727 -0.2951
 4601SOL    HW225440   1.507   3.760   2.435  0.6119 -0.5040  2.0528
 4602SOL     OW25441   0.208   3.209   2.036  0.0495  0.0441 -0.1254
 4602SOL    HW125442   0.245   3.294   2.057 -0.8679  0.6302 -0.8596
 4602SOL    HW225443   0.237   3.207   1.944  1.9495  0.6205  0.4625
 4603SOL     OW25444   1.771   1.787   0.578  0.1658  0.4754 -0.5260
 4603SOL    HW125445   1.729   1.856   0.630  0.2018  0.7092 -0.8058
 4603SOL    HW225446   1.697   1.728   0.567 -0.9388  2.0677 -1.5084
 4604SOL     OW25447   4.261   3.935   5.876  0.4323 -0.7352 -0.2551
 4604SOL    HW125448   4.199   4.008   5.878  0.4331 -0.7588  0.5376
 4604SOL    HW225449   4.341   3.982   5.902  0.5872  0.3394 -2.6191
 4605SOL     OW25450   2.657   1.041   5.337  0.5010 -0.1334 -0.3614
 4605SOL    HW125451   2.681   1.080   5.253  3.0901 -2.2859 -0.6535
 4605SOL    HW225452   2.612   0.961   5.310 -0.7246  0.0391  1.1507
 4606SOL     OW25453   0.806   1.467  17.390 -0.0415  0.8127 -0.0451
 4606SOL    HW125454   0.781   1.535  17.327  1.5361  0.4649 -1.0490
 4606SOL    HW225455   0.754   1.505  17.461 -1.4202  0.0804 -0.6656
 4607SOL     OW25456   2.132   3.996   8.562 -0.5548  0.1860  0.2410
 4607SOL    HW125457   2.113   3.963   8.474 -0.7862 -0.0853  0.3957
 4607SOL    HW225458   2.107   3.927   8.622  1.6376  1.1929  2.3066
 4608SOL     OW25459   3.303   4.065  12.147  0.5912  0.4355 -0.1740
 4608SOL    HW125460   3.288   4.152  12.183  1.8361  0.4652  0.2992
 4608SOL    HW225461   3.266   4.064  12.059 -4.2024  0.1580  1.8527
 4609SOL     OW25462   1.074   3.800   0.470  0.1708  0.4637  0.0166
 4609SOL    HW125463   1.060   3.836   0.382  0.1588 -0.0618 -0.1937
 4609SOL    HW225464   1.055   3.878   0.522 -0.7283 -0.8086  1.5945
 4610SOL     OW25465   3.061   3.575   1.917 -0.3510 -0.7037 -0.1381
 4610SOL    HW125466   3.047   3.535   2.003  0.6042 -2.7348 -0.9139
 4610SOL    HW225467   3.088   3.663   1.943  0.1757 -0.7990 -0.3475
 4611SOL     OW25468   4.213   0.117   8.729 -0.2644  0.2886 -0.2847
 4611SOL    HW125469   4.308   0.117   8.738 -0.3893  1.7439  1.0778
 4611SOL    HW225470   4.190   0.043   8.787 -0.3489  0.4809 -0.0728
 4612SOL     OW25471   3.076   1.617   5.494 -0.5536  0.1517 -0.1432
 4612SOL    HW125472   2.985   1.648   5.492 -1.0505 -1.3338 -0.8269
 4612SOL    HW225473   3.072   1.548   5.560  0.5256 -1.1833 -1.4585
 4613SOL     OW25474   1.945   1.136   8.014  0.1690  0.4373  0.2556
 4613SOL    HW125475   1.867   1.082   8.001  0.4492  0.2338 -0.6065
 4613SOL    HW225476   1.899   1.215   7.986  0.7240  0.2477 -1.1950
 4614SOL     OW25477   3.794   3.031  10.731  0.4287  0.1548  0.7438
 4614SOL    HW125478   3.832   2.961  10.677 -1.0155  0.3620 -0.5239
 4614SOL    HW225479   3.833   3.114  10.702  2.0133 -1.4859 -1.8153
 4615SOL     OW25480   4.127   2.487   2.039 -0.0061 -0.2530  0.1980
 4615SOL    HW125481   4.164   2.408   2.077  1.8997 -0.0350 -1.2191
 4615SOL    HW225482   4.110   2.455   1.951 -0.1639  0.6789 -0.1154
 4616SOL     OW25483   3.614   1.963   4.594 -0.2933  1.0753 -0.0072
 4616SOL    HW125484   3.700   1.978   4.556 -0.5597 -0.9585 -1.3775
 4616SOL    HW225485   3.589   1.881   4.551  0.6114 -0.0720  1.6613
 4617SOL     OW25486   2.267   1.839   5.167  0.1143  0.2755  0.5135
 4617SOL    HW125487   2.211   1.889   5.107  1.9718  1.8944  0.1498
 4617SOL    HW225488   2.298   1.909   5.224 -0.5259  0.2459  0.9018
 4618SOL     OW25489   1.579   1.827  11.730  0.7581  0.0559 -0.0102
 4618SOL    HW125490   1.507   1.779  11.688  0.8343  0.5405 -0.6847
 4618SOL    HW225491   1.566   1.805  11.823 -0.2643 -0.1641 -0.2073
 4619SOL     OW25492   1.929   3.549   2.005 -0.3438  1.2456 -0.3285
 4619SOL    HW125493   2.004   3.527   1.950  0.6440 -1.5224  2.0948
 4619SOL    HW225494   1.918   3.643   1.998  0.3226  1.3326 -0.1312
 4620SOL     OW25495   3.715   1.337   0.758 -0.8974  0.1637  0.0900
 4620SOL    HW125496   3.706   1.428   0.788  3.2030  0.8346 -0.7166
 4620SOL    HW225497   3.641   1.296   0.803 -1.5254  0.0763 -1.0202
 4621SOL     OW25498   2.391   3.448  10.136  0.3961 -0.5292  0.5278
 4621SOL    HW125499   2.328   3.498  10.188  0.6148  0.2742  0.0096
 4621SOL    HW225500   2.454   3.421  10.204  0.9790  1.8156  0.9099
 4622SOL     OW25501   4.254   2.306  14.961 -0.2658 -0.0511 -0.3535
 4622SOL    HW125502   4.314   2.277  14.893 -1.4425 -1.0095 -0.9787
 4622SOL    HW225503   4.257   2.232  15.022 -0.6394 -0.8847 -1.3448
 4623SOL     OW25504   3.679   1.649   6.939  0.3589  0.0006  0.4619
 4623SOL    HW125505   3.694   1.555   6.926  0.3535  0.1335 -0.4662
 4623SOL    HW225506   3.591   1.662   6.903  0.8255  0.0241 -0.6600
 4624SOL     OW25507   1.297   4.074   1.514  0.3350 -0.1398 -0.0927
 4624SOL    HW125508   1.352   4.098   1.588 -0.4716  0.1772  0.4093
 4624SOL    HW225509   1.285   3.980   1.528 -0.6564  0.0377  0.2602
 4625SOL     OW25510   3.832   2.812   3.308 -0.4564  0.4112 -0.1527
 4625SOL    HW125511   3.789   2.894   3.333 -0.1624  0.8332 -1.0638
 4625SOL    HW225512   3.792   2.793   3.223  0.9623 -0.8885 -0.5185
 4626SOL     OW25513   2.119   3.587  13.210  0.3019 -0.2606 -0.0129
 4626SOL    HW125514   2.061   3.584  13.134 -0.5525 -0.5294  0.6615
 4626SOL    HW225515   2.120   3.492  13.223 -0.4657 -0.3722 -0.7917
 4627SOL     OW25516   2.911   4.594   4.216 -0.4076 -0.5259 -0.4174
 4627SOL    HW125517   2.933   4.648   4.140 -3.9127  0.2391 -0.8891
 4627SOL    HW225518   2.992   4.610   4.265 -1.9527  0.7976  1.6936
 4628SOL     OW25519   3.687   4.358  17.123  0.2437 -0.0453 -0.0447
 4628SOL    HW125520   3.769   4.361  17.073  0.5145 -1.0114  0.3412
 4628SOL    HW225521   3.641   4.422  17.068 -2.1103  0.3882  2.4450
 4629SOL     OW25522   2.636   1.342   7.436  0.0379 -0.2883 -0.5231
 4629SOL    HW125523   2.589   1.279   7.491 -0.0389  1.2237  1.1635
 4629SOL    HW225524   2.722   1.306   7.458  0.0333  0.2462  0.3979
 4630SOL     OW25525   0.996   3.170   6.386  0.2881 -0.1245  0.3939
 4630SOL    HW125526   1.016   3.243   6.328  0.1854 -0.2151  0.2431
 4630SOL    HW225527   1.035   3.093   6.345 -0.9610 -0.4925 -0.1197
 4631SOL     OW25528   2.462   1.584  16.529 -0.3531  0.3476  0.1694
 4631SOL    HW125529   2.453   1.560  16.621 -0.0709 -2.7073 -0.5867
 4631SOL    HW225530   2.409   1.663  16.523 -1.1542 -0.1649  0.4977
 4632SOL     OW25531   0.973   4.107   8.237  0.6065  0.4858  0.3184
 4632SOL    HW125532   1.042   4.071   8.182  0.2935 -2.2673  1.7211
 4632SOL    HW225533   0.970   4.198   8.208 -0.3547  1.3107  2.9430
 4633SOL     OW25534   4.331   3.614   6.302  0.5404 -0.4256 -0.0674
 4633SOL    HW125535   4.381   3.686   6.340  1.2752 -0.6530 -0.6034
 4633SOL    HW225536   4.300   3.654   6.221 -2.6254 -0.2035  1.2531
 4634SOL     OW25537   3.291   2.213   4.392  0.1697  0.5997 -0.1472
 4634SOL    HW125538   3.261   2.229   4.303 -1.2485 -0.8152  0.0833
 4634SOL    HW225539   3.241   2.281   4.436  0.6077  0.8834 -0.0912
 4635SOL     OW25540   3.353   3.079   2.454 -0.7309  0.6430  0.4282
 4635SOL    HW125541   3.424   3.140   2.476  0.1421  0.2882 -1.4089
 4635SOL    HW225542   3.350   3.106   2.363 -0.3797 -2.4445 -0.4705
 4636SOL     OW25543   1.934   3.996  16.537  0.7267  0.2415 -0.8297
 4636SOL    HW125544   1.917   3.946  16.458  2.4025 -2.4142  0.4803
 4636SOL    HW225545   1.852   3.992  16.586  2.0310 -0.4437  1.3100
 4637SOL     OW25546   1.134   0.249   7.250 -0.2738  0.7176 -0.0304
 4637SOL    HW125547   1.087   0.326   7.216  2.4934  1.8327 -1.3446
 4637SOL    HW225548   1.167   0.203   7.173  0.6902 -0.1707  0.9202
 4638SOL     OW25549   1.573   4.676   4.726 -0.0884 -0.0968  0.5232
 4638SOL    HW125550   1.544   0.015   4.774  2.4820  0.7162  0.7197
 4638SOL    HW225551   1.604   4.621   4.797 -0.3976 -0.6485  0.2374
 4639SOL     OW25552   4.016   2.615   5.074  0.3703 -0.4119 -0.2596
 4639SOL    HW125553   3.953   2.685   5.090 -1.0880 -1.4400 -1.4573
 4639SOL    HW225554   3.978   2.567   5.000  1.7890  1.0371 -1.9202
 4640SOL     OW25555   2.086   4.442   8.594  0.7297  0.3038 -0.5288
 4640SOL    HW125556   2.074   4.391   8.514  0.0220 -1.9475  0.9834
 4640SOL    HW225557   2.069   4.377   8.663 -1.6239 -1.3619 -2.6785
 4641SOL     OW25558   1.248   0.709   3.347 -0.3938  0.2196  0.4842
 4641SOL    HW125559   1.240   0.746   3.435 -1.9156  1.0148  0.0133
 4641SOL    HW225560   1.335   0.743   3.325 -0.8764  1.0615 -0.1394
 4642SOL     OW25561   1.861   2.620  14.738 -0.1598  0.3054  0.4027
 4642SOL    HW125562   1.937   2.612  14.681  0.6334 -0.5512  1.5712
 4642SOL    HW225563   1.818   2.702  14.712 -0.7816 -0.2105 -0.2038
 4643SOL     OW25564   4.691   2.796  13.760 -0.1725  0.7010 -0.2519
 4643SOL    HW125565   4.701   2.792  13.665  2.1346 -1.4132  0.0838
 4643SOL    HW225566   4.705   2.707  13.792 -1.5971  0.6797  0.3213
 4644SOL     OW25567   0.352   3.418   8.550  0.4272 -0.1416  0.4506
 4644SOL    HW125568   0.445   3.425   8.572  0.5529 -0.5009  0.0442
 4644SOL    HW225569   0.327   3.508   8.532 -2.8825 -1.1562  0.0358
 4645SOL     OW25570   0.526   3.187  14.691  0.1906  0.3096 -0.5506
 4645SOL    HW125571   0.616   3.161  14.712  0.8149  3.1328  0.1403
 4645SOL    HW225572   0.527   3.184  14.595 -2.5207 -0.3524 -0.5530
 4646SOL     OW25573   4.296   3.243   7.414  0.1034  0.3286  0.1984
 4646SOL    HW125574   4.240   3.165   7.412 -1.1248  1.2515 -1.4846
 4646SOL    HW225575   4.316   3.237   7.507  1.9549 -0.8710 -0.2576
 4647SOL     OW25576   3.267   2.589   5.714 -0.0193  0.4350 -0.1512
 4647SOL    HW125577   3.271   2.544   5.799  1.2982  1.8610  0.5458
 4647SOL    HW225578   3.287   2.527   5.644 -1.0671  1.9397 -1.7663
 4648SOL     OW25579   1.885   2.296  12.014 -0.1166 -0.2570 -0.1170
 4648SOL    HW125580   1.816   2.355  12.046 -0.9487 -0.4602 -1.5434
 4648SOL    HW225581   1.827   2.224  11.987  0.2845 -1.1393  1.3290
 4649SOL     OW25582   0.232   2.063   3.088 -0.1106 -0.4722 -1.0925
 4649SOL    HW125583   0.219   2.158   3.081  0.7365 -0.4489 -2.3589
 4649SOL    HW225584   0.235   2.034   2.996  1.1861 -1.5149 -0.7228
 4650SOL     OW25585   2.207   2.244   2.527  0.0324 -0.5120 -0.2769
 4650SOL    HW125586   2.138   2.305   2.550  0.0931 -1.3369  2.0325
 4650SOL    HW225587   2.239   2.223   2.614 -0.9760 -2.4524 -0.3805
 4651SOL     OW25588   4.119   3.000   6.688 -0.1658  0.1894  0.3222
 4651SOL    HW125589   4.161   2.937   6.630 -1.1698 -3.2253  3.2992
 4651SOL    HW225590   4.120   3.072   6.624  0.9435  0.6829  0.9081
 4652SOL     OW25591   4.181   4.122  15.529 -0.4752 -0.2649 -0.0284
 4652SOL    HW125592   4.176   4.215  15.507  3.0081 -0.1684 -0.4180
 4652SOL    HW225593   4.126   4.082  15.461 -0.4144 -1.0202  0.3706
 4653SOL     OW25594   3.614   1.598  15.614  0.3354  1.0102 -0.2799
 4653SOL    HW125595   3.595   1.621  15.704 -0.2670 -4.4150  0.9540
 4653SOL    HW225596   3.538   1.612  15.557 -2.4247 -1.3085  2.9082
 4654SOL     OW25597   0.043   3.764   7.237  0.2837 -0.1990  0.0030
 4654SOL    HW125598   0.006   3.826   7.299  0.9895  1.1147 -0.8735
 4654SOL    HW225599   4.738   3.784   7.153 -1.1345  2.5468  1.3938
 4655SOL     OW25600   1.050   3.041   2.147 -0.3561 -0.0156 -0.2771
 4655SOL    HW125601   1.001   3.121   2.169 -0.1891  0.2778 -0.9712
 4655SOL    HW225602   1.075   3.007   2.232  0.4725 -0.8254 -0.8605
 4656SOL     OW25603   0.809   1.416   4.641 -0.3543 -0.0529  0.0583
 4656SOL    HW125604   0.875   1.380   4.583 -0.9398 -0.3220 -0.4437
 4656SOL    HW225605   0.849   1.395   4.725 -0.1815  0.8150  0.1913
 4657SOL     OW25606   4.623   3.236   4.367  0.1937 -0.2501  0.2225
 4657SOL    HW125607   4.620   3.331   4.371 -0.0994 -0.2094 -0.9673
 4657SOL    HW225608   4.717   3.233   4.385  0.4056  3.0378 -0.3691
 4658SOL     OW25609   4.650   4.130   3.075  0.1249  0.3738 -0.0404
 4658SOL    HW125610   4.704   4.206   3.052  2.2492 -1.0914  0.0771
 4658SOL    HW225611   4.693   4.060   3.027  0.8712 -0.6034  2.0635
 4659SOL     OW25612   0.365   4.487   7.530 -0.3500  0.0913 -0.4751
 4659SOL    HW125613   0.271   4.474   7.538 -0.5954  2.1227  0.0550
 4659SOL    HW225614   0.390   4.404   7.491 -1.1511  0.1523 -1.1184
 4660SOL     OW25615   0.384   0.243   2.095  0.1170 -0.5458  0.2914
 4660SOL    HW125616   0.324   0.230   2.169 -0.1557 -1.6343 -0.1099
 4660SOL    HW225617   0.461   0.203   2.135  1.8112 -0.5868 -3.0439
 4661SOL     OW25618   1.716   1.361   0.280 -0.5927  0.4659 -0.0422
 4661SOL    HW125619   1.807   1.333   0.272 -0.0946  2.5423 -1.5560
 4661SOL    HW225620   1.722   1.456   0.275  0.0266  0.4133 -0.2462
 4662SOL     OW25621   1.328   3.672   7.191 -0.3117 -0.0241  0.0117
 4662SOL    HW125622   1.345   3.652   7.283  2.4306  0.5015 -0.3795
 4662SOL    HW225623   1.414   3.706   7.165 -1.0358  0.6616 -1.5140
 4663SOL     OW25624   3.757   4.362   4.770  0.1491 -0.0838 -0.1550
 4663SOL    HW125625   3.759   4.342   4.864 -1.2845 -1.0841 -0.3474
 4663SOL    HW225626   3.702   4.294   4.731  1.2434 -1.3609  0.5125
 4664SOL     OW25627   2.168   3.607   1.833 -0.6827 -0.0639 -0.3551
 4664SOL    HW125628   2.156   3.702   1.837 -1.1558 -0.1022 -0.9134
 4664SOL    HW225629   2.255   3.607   1.873 -2.3005  1.7133  3.2308
 4665SOL     OW25630   3.615   1.235   2.093  0.0857 -0.0026 -0.3272
 4665SOL    HW125631   3.598   1.183   2.171 -2.6093 -0.2138 -1.0366
 4665SOL    HW225632   3.710   1.241   2.087 -0.0265  0.9020 -1.2434
 4666SOL     OW25633   4.629   4.015   4.438  0.2982  0.4262  0.0109
 4666SOL    HW125634   4.549   4.036   4.487 -1.9201 -2.7312 -2.2517
 4666SOL    HW225635   4.681   4.092   4.461  1.9728 -0.8448  0.3801
 4667SOL     OW25636   2.840   3.554   5.809 -0.7865  0.0888  0.2863
 4667SOL    HW125637   2.930   3.585   5.802 -0.7447 -0.1511 -0.2286
 4667SOL    HW225638   2.821   3.571   5.717 -1.8750 -0.4149  0.4215
 4668SOL     OW25639   2.172   1.355   7.785 -0.1875  0.2612  0.3848
 4668SOL    HW125640   2.260   1.365   7.822 -0.4826  1.3679  0.7806
 4668SOL    HW225641   2.110   1.375   7.854 -0.6395 -0.0224  0.0602
 4669SOL     OW25642   3.248   1.092   6.251 -0.4619 -0.7398  1.2568
 4669SOL    HW125643   3.217   1.127   6.167  0.0799 -0.5587  1.1364
 4669SOL    HW225644   3.292   1.171   6.281  0.0891 -0.9485  0.9859
 4670SOL     OW25645   2.028   2.362   2.074 -0.3676 -0.4561 -0.2850
 4670SOL    HW125646   2.030   2.449   2.032 -2.4490  0.2554  1.1161
 4670SOL    HW225647   2.074   2.389   2.153 -2.8239  0.4679  0.8313
 4671SOL     OW25648   1.202   2.106   8.399  0.5459 -0.3023  0.1479
 4671SOL    HW125649   1.132   2.064   8.348 -0.1982 -0.3254  1.1922
 4671SOL    HW225650   1.167   2.111   8.488 -1.7852  1.5284 -0.8606
 4672SOL     OW25651   4.509   0.803   2.203 -0.1554 -0.3477 -0.7223
 4672SOL    HW125652   4.469   0.724   2.241 -0.4232 -1.1628 -2.7177
 4672SOL    HW225653   4.470   0.874   2.254 -0.5127 -1.3036  0.3437
 4673SOL     OW25654   0.298   4.698   8.788  0.1955  0.2654 -0.3447
 4673SOL    HW125655   0.258   4.613   8.772 -1.1471  0.3881  2.2989
 4673SOL    HW225656   0.283   4.714   8.882 -0.8864  0.8749 -0.6175
 4674SOL     OW25657   0.888   0.865   2.611  0.1205 -0.2361 -0.3304
 4674SOL    HW125658   0.837   0.938   2.576  0.7610 -0.0022 -0.7732
 4674SOL    HW225659   0.963   0.918   2.637  0.6196 -1.7845  1.3849
 4675SOL     OW25660   1.156   2.820   6.938  0.7439  0.5258  0.1640
 4675SOL    HW125661   1.174   2.825   6.844  0.3840 -0.8553  0.0157
 4675SOL    HW225662   1.066   2.853   6.929  0.1045 -1.1300  0.3480
 4676SOL     OW25663   1.947   1.056   1.677 -0.1350 -0.1939 -0.5770
 4676SOL    HW125664   1.928   0.965   1.699 -1.3405  0.2947  0.3509
 4676SOL    HW225665   1.861   1.095   1.692  0.4980  0.7782  0.5391
 4677SOL     OW25666   1.700   2.778   5.129  0.5410 -0.5690 -0.0992
 4677SOL    HW125667   1.626   2.721   5.151 -0.6860  1.6917  1.6105
 4677SOL    HW225668   1.655   2.859   5.106  0.0801 -1.1749 -1.3587
 4678SOL     OW25669   3.456   3.247   4.576  0.0478 -0.5050 -0.6128
 4678SOL    HW125670   3.399   3.318   4.547  0.6498  0.3791  0.3967
 4678SOL    HW225671   3.415   3.183   4.517 -0.5347 -3.2036  2.7436
 4679SOL     OW25672   4.423   0.125   5.524  0.8450 -0.0374  0.1024
 4679SOL    HW125673   4.390   0.060   5.463  2.8280 -0.7207 -0.2227
 4679SOL    HW225674   4.400   0.089   5.610  0.4996  0.4232  0.2100
 4680SOL     OW25675   1.033   1.038   5.452  0.4697  0.0034 -0.3245
 4680SOL    HW125676   1.055   0.962   5.505 -0.7489 -2.1467 -2.9037
 4680SOL    HW225677   1.093   1.107   5.481  0.7008 -0.6468  0.7534
 4681SOL     OW25678   0.422   4.220   9.133 -0.0007 -0.1671 -0.2563
 4681SOL    HW125679   0.373   4.295   9.166 -0.1573 -0.3736 -0.0155
 4681SOL    HW225680   0.403   4.209   9.040  0.1924  0.0366 -0.3197
 4682SOL     OW25681   2.554   1.924   5.729 -0.3923 -0.6533  0.4884
 4682SOL    HW125682   2.626   1.873   5.767 -0.5434 -3.4602 -2.9474
 4682SOL    HW225683   2.579   2.016   5.740  0.0353 -0.7530  0.3604
 4683SOL     OW25684   3.867   3.699   8.536 -0.0449 -0.1932 -0.2103
 4683SOL    HW125685   3.860   3.636   8.608  2.1140 -0.2925 -0.0800
 4683SOL    HW225686   3.848   3.647   8.459 -0.2974  0.9255 -0.9081
 4684SOL     OW25687   3.630   1.847   7.880  0.3121 -1.0809 -0.5041
 4684SOL    HW125688   3.613   1.764   7.924  1.4355 -0.2131  1.5260
 4684SOL    HW225689   3.583   1.841   7.797  0.8402  1.3738 -0.9770
 4685SOL     OW25690   2.531   1.510  13.949 -0.3052 -0.1961  0.2116
 4685SOL    HW125691   2.515   1.418  13.928 -0.7963  0.0055 -0.2979
 4685SOL    HW225692   2.466   1.523  14.017 -1.5557 -1.4417 -0.7521
 4686SOL     OW25693   1.941   2.506   6.594 -0.2200 -0.4511  0.2887
 4686SOL    HW125694   1.918   2.485   6.685  0.3257  0.3241  0.6052
 4686SOL    HW225695   1.962   2.422   6.554 -0.0223  0.3236 -1.2271
 4687SOL     OW25696   1.265   0.602  12.777 -0.4097 -0.0889 -0.5990
 4687SOL    HW125697   1.328   0.564  12.716  3.0022  2.7685  1.1418
 4687SOL    HW225698   1.246   0.527  12.832 -0.0934 -0.5023 -1.0518
 4688SOL     OW25699   1.905   2.747   5.529  0.0589 -0.1545  0.3699
 4688SOL    HW125700   1.849   2.809   5.481  0.4915  0.9544  1.3149
 4688SOL    HW225701   1.835   2.683   5.540 -0.8631  0.5299 -1.4259
 4689SOL     OW25702   1.218   4.083   8.070  0.5114  0.3957 -0.3330
 4689SOL    HW125703   1.278   4.053   8.139  0.7988  0.6799 -0.4598
 4689SOL    HW225704   1.286   4.114   8.009  1.0145  1.3582  0.7234
 4690SOL     OW25705   2.223   1.795   2.092  0.5252  0.1519 -0.1918
 4690SOL    HW125706   2.161   1.768   2.160 -0.8502 -2.1909 -2.3902
 4690SOL    HW225707   2.259   1.713   2.058 -0.5375 -0.4813  0.2240
 4691SOL     OW25708   3.947   2.079   3.387 -0.4070  0.2338 -0.2404
 4691SOL    HW125709   3.867   2.121   3.416  0.7024  1.0612  1.6163
 4691SOL    HW225710   3.915   2.073   3.297  0.0106 -1.2700 -0.2953
 4692SOL     OW25711   4.243   4.091   8.733  0.2484 -0.4024 -0.1529
 4692SOL    HW125712   4.185   4.140   8.792 -0.2453 -0.9292 -0.1941
 4692SOL    HW225713   4.198   4.095   8.649 -1.3801  1.7298  0.8305
 4693SOL     OW25714   2.081   3.187  16.609  0.4067  0.0451  0.1630
 4693SOL    HW125715   2.094   3.276  16.641  0.5093  0.7629 -1.8505
 4693SOL    HW225716   2.174   3.172  16.590  0.1705  1.3428 -2.0719
 4694SOL     OW25717   2.456   2.277   0.128  0.3667 -0.0894 -1.0223
 4694SOL    HW125718   2.475   2.322   0.046 -1.8219  1.1710 -0.8550
 4694SOL    HW225719   2.544   2.250   0.154 -0.3077 -2.2006 -0.9703
 4695SOL     OW25720   4.565   3.517  13.802  0.2193 -0.1381 -0.3376
 4695SOL    HW125721   4.603   3.463  13.871  1.3100 -0.4387 -1.1633
 4695SOL    HW225722   4.653   3.530  13.765 -0.2502  2.1437 -0.6278
 4696SOL     OW25723   2.777   3.859  11.840  0.3718 -0.2507 -0.0724
 4696SOL    HW125724   2.817   3.790  11.788  0.4476 -1.0132  1.0057
 4696SOL    HW225725   2.711   3.889  11.777  0.9159  1.2851  0.0767
 4697SOL     OW25726   3.389   1.375   0.169  0.4111  0.7121  0.4006
 4697SOL    HW125727   3.338   1.297   0.190  1.3471  0.5241  1.9917
 4697SOL    HW225728   3.438   1.346   0.092  0.0899 -0.8746  0.7922
 4698SOL     OW25729   2.353   1.085  10.764  0.4001 -0.0908 -0.1874
 4698SOL    HW125730   2.362   1.167  10.813  0.1474 -0.1433 -0.0535
 4698SOL    HW225731   2.382   1.099  10.674  0.0092 -2.4200 -0.6760
 4699SOL     OW25732   3.020   4.310   4.203  0.0380 -0.1808  0.2397
 4699SOL    HW125733   3.078   4.357   4.263  0.5762  1.1105 -1.3095
 4699SOL    HW225734   2.934   4.332   4.241  0.5548  0.8242  0.8265
 4700SOL     OW25735   4.376   4.377  16.363 -0.0760 -0.0953  0.1061
 4700SOL    HW125736   4.402   4.298  16.316  1.1324  1.2490 -1.4622
 4700SOL    HW225737   4.344   4.431  16.291 -2.6561 -2.5806 -0.6172
 4701SOL     OW25738   3.929   4.478  12.512  0.4935 -0.0499 -0.4611
 4701SOL    HW125739   3.846   4.492  12.558  1.7633  0.6703  1.5768
 4701SOL    HW225740   3.947   4.402  12.568  0.7881  0.9243  0.7595
 4702SOL     OW25741   2.314   2.439  17.603  0.0560  0.4250  0.6687
 4702SOL    HW125742   2.347   2.494  17.532  0.2642  0.6268  0.9184
 4702SOL    HW225743   2.400   2.414  17.638 -0.3732 -0.0665  1.3882
 4703SOL     OW25744   3.781   0.986   5.758 -0.4709  0.1660 -0.1454
 4703SOL    HW125745   3.840   1.020   5.690  0.5694 -0.2973  0.5207
 4703SOL    HW225746   3.698   1.011   5.718 -0.3847  1.4328  0.4841
 4704SOL     OW25747   4.369   3.426  10.581 -0.1872  0.4169 -0.0632
 4704SOL    HW125748   4.438   3.482  10.617 -1.0637 -0.6721  3.2557
 4704SOL    HW225749   4.386   3.439  10.487  0.9045  1.9773  0.3497
 4705SOL     OW25750   0.026   0.749   2.075  0.1651 -0.4978 -0.1914
 4705SOL    HW125751   4.679   0.744   2.119  0.2942  1.7493  0.3232
 4705SOL    HW225752   0.001   0.810   2.006 -0.4297 -1.1373 -0.5413
 4706SOL     OW25753   0.544   1.757  10.710 -0.1027 -0.4371 -0.4972
 4706SOL    HW125754   0.633   1.789  10.695  0.3184 -0.6458  1.6439
 4706SOL    HW225755   0.501   1.818  10.649  1.2532  1.2792  0.2631
 4707SOL     OW25756   0.120   3.146   7.697 -0.0505 -0.5725 -0.7463
 4707SOL    HW125757   0.194   3.095   7.731  0.8091  1.4964  0.4913
 4707SOL    HW225758   0.150   3.236   7.708 -0.4517 -0.6842  1.2123
 4708SOL     OW25759   3.718   1.512   0.329  0.2171 -0.1718  0.4047
 4708SOL    HW125760   3.731   1.584   0.266  0.1965 -0.0495  0.5405
 4708SOL    HW225761   3.673   1.550   0.404 -0.8345  0.2088 -0.4258
 4709SOL     OW25762   1.050   3.439   1.638  0.0896 -0.3191  0.2509
 4709SOL    HW125763   0.960   3.473   1.641 -0.1515 -1.1028  1.5866
 4709SOL    HW225764   1.089   3.525   1.623 -2.5146  1.0617  1.3954
 4710SOL     OW25765   4.430   4.213   5.990  0.1340  0.2094  0.2493
 4710SOL    HW125766   4.520   4.178   5.989 -0.4830 -1.3363 -1.6208
 4710SOL    HW225767   4.451   4.306   5.985 -2.8483  0.9413  1.6218
 4711SOL     OW25768   3.685   0.155   4.538 -0.4122 -0.5565  0.0682
 4711SOL    HW125769   3.652   0.233   4.492  0.4585 -0.7160 -0.8397
 4711SOL    HW225770   3.674   0.179   4.630  1.7801 -0.2763  0.2490
 4712SOL     OW25771   1.294   2.413   7.189  0.2310  0.1667  0.2612
 4712SOL    HW125772   1.338   2.496   7.208  0.6912  0.0865 -0.4640
 4712SOL    HW225773   1.232   2.434   7.119 -1.4930 -1.3882  1.3012
 4713SOL     OW25774   2.402   1.042  11.553 -0.7821 -0.4045  0.4318
 4713SOL    HW125775   2.370   0.955  11.579  2.4385 -1.7387 -0.0538
 4713SOL    HW225776   2.333   1.099  11.586  1.0804 -0.0871  3.7685
 4714SOL     OW25777   2.606   3.835  10.142 -0.3776 -0.0773  0.4301
 4714SOL    HW125778   2.556   3.816  10.062 -0.3628  0.0444  0.3920
 4714SOL    HW225779   2.562   3.909  10.184  1.1019  0.8841  0.2835
 4715SOL     OW25780   4.154   3.148  14.616  0.0692  0.3981  0.1647
 4715SOL    HW125781   4.165   3.090  14.692  3.1654  0.7535 -0.0477
 4715SOL    HW225782   4.139   3.090  14.542 -2.3089  2.4110 -0.9467
 4716SOL     OW25783   4.495   3.839  13.654 -0.6001  0.3276  0.1290
 4716SOL    HW125784   4.438   3.781  13.704 -0.8197 -0.0554 -0.5685
 4716SOL    HW225785   4.466   3.922  13.693  0.3969  0.2290  1.0636
 4717SOL     OW25786   0.634   1.345   6.179 -0.1827  0.0578 -0.1811
 4717SOL    HW125787   0.687   1.384   6.248  0.1389 -4.1954  2.0114
 4717SOL    HW225788   0.694   1.301   6.118  1.6944  1.5422  0.5905
 4718SOL     OW25789   0.758   1.218   5.550  0.6428  0.3564 -0.1438
 4718SOL    HW125790   0.841   1.191   5.512  0.6446 -0.3429  0.3502
 4718SOL    HW225791   0.722   1.274   5.481  1.1904 -0.2161 -0.8861
 4719SOL     OW25792   1.887   4.039   6.909 -0.4316  0.5714  0.5201
 4719SOL    HW125793   1.921   4.126   6.928 -0.1657 -0.0074  2.6090
 4719SOL    HW225794   1.953   3.975   6.935  0.2958  2.2178  2.6944
 4720SOL     OW25795   0.282   2.067  14.729  0.1253  0.1626  0.1188
 4720SOL    HW125796   0.206   2.110  14.767  0.6051 -0.2247  1.5028
 4720SOL    HW225797   0.277   1.977  14.760  0.3457  0.1230  0.0416
 4721SOL     OW25798   0.104   1.407   2.615  0.0170  0.1392 -0.1295
 4721SOL    HW125799   0.016   1.407   2.651 -0.6247 -1.9108 -1.6845
 4721SOL    HW225800   0.097   1.474   2.547  0.3825  1.3407  1.0222
 4722SOL     OW25801   0.333   1.282  16.356 -0.4278 -0.4582  0.2035
 4722SOL    HW125802   0.311   1.224  16.284  4.2387  1.1598 -2.5475
 4722SOL    HW225803   0.277   1.358  16.345  1.4844  1.0425  0.7552
 4723SOL     OW25804   1.427   4.143   8.432 -0.2083  0.3044  0.2289
 4723SOL    HW125805   1.451   4.171   8.520  2.1163 -0.6523 -0.1023
 4723SOL    HW225806   1.377   4.067   8.460 -0.7412  0.1600 -1.1296
 4724SOL     OW25807   0.884   0.261   7.135  0.1684  0.3667  0.0146
 4724SOL    HW125808   0.851   0.241   7.223 -1.9362  2.4136 -0.3045
 4724SOL    HW225809   0.936   0.182   7.118 -0.8317 -0.2409 -0.2161
 4725SOL     OW25810   4.370   0.533   9.090  0.5332  0.3472  0.1266
 4725SOL    HW125811   4.399   0.599   9.153  0.2477  1.3439 -0.8001
 4725SOL    HW225812   4.378   0.592   9.015 -0.2123 -1.0829 -1.0776
 4726SOL     OW25813   4.365   2.410  16.347 -0.2318 -0.2133  0.0567
 4726SOL    HW125814   4.344   2.497  16.379  0.7671  0.5460 -1.3815
 4726SOL    HW225815   4.312   2.357  16.406  0.2685 -0.4691  0.2828
 4727SOL     OW25816   1.008   4.183   6.641 -0.1900 -0.4005 -0.0595
 4727SOL    HW125817   1.101   4.167   6.625  0.2070  0.8955  0.9518
 4727SOL    HW225818   0.998   4.263   6.589 -0.6269 -0.3227  0.1380
 4728SOL     OW25819   3.541   2.581   5.984 -0.2935 -0.2072  0.1999
 4728SOL    HW125820   3.589   2.500   5.969 -0.1782  0.3152 -2.0954
 4728SOL    HW225821   3.454   2.554   6.013 -1.0207 -1.4460 -3.2088
 4729SOL     OW25822   1.802   4.366   6.324 -0.1772 -0.6278 -0.8781
 4729SOL    HW125823   1.869   4.315   6.278 -2.5089 -1.2170 -3.6008
 4729SOL    HW225824   1.823   4.454   6.292 -0.4980  0.8427  2.9654
 4730SOL     OW25825   2.058   3.500  16.948 -0.3048  0.2709  0.3134
 4730SOL    HW125826   2.045   3.569  17.013 -2.6754  0.2732 -0.1565
 4730SOL    HW225827   2.089   3.424  16.997  3.7185 -0.1733 -2.9227
 4731SOL     OW25828   3.053   2.000  14.944 -0.6102  0.1781 -0.4126
 4731SOL    HW125829   3.073   1.930  14.883 -0.4877 -0.3753  0.2559
 4731SOL    HW225830   3.092   1.961  15.023 -1.2234  2.0923  0.8586
 4732SOL     OW25831   2.872   3.916  10.061 -0.3584  0.3116  0.0708
 4732SOL    HW125832   2.902   3.843  10.117 -0.2875 -1.4333 -2.2477
 4732SOL    HW225833   2.780   3.913  10.087 -0.8364  1.4463 -1.5583
 4733SOL     OW25834   2.046   4.655   3.237  0.2923 -0.2094  0.4641
 4733SOL    HW125835   2.063   0.011   3.240  0.4966 -0.2142 -0.4283
 4733SOL    HW225836   2.135   4.620   3.232 -0.2347 -1.5828  0.8131
 4734SOL     OW25837   4.082   1.253   6.359 -0.2456 -0.0762 -0.2055
 4734SOL    HW125838   4.118   1.173   6.397 -1.1670 -0.2160  0.3730
 4734SOL    HW225839   4.024   1.199   6.305  0.9571 -1.0829 -0.4742
 4735SOL     OW25840   0.871   2.619   6.010 -0.3873  0.7975 -0.1628
 4735SOL    HW125841   0.907   2.633   6.098 -1.2366  0.0342  0.3051
 4735SOL    HW225842   0.784   2.657   6.026 -1.0597 -0.0091 -1.9048
 4736SOL     OW25843   1.165   1.186   3.146  0.3055  0.1466  0.4429
 4736SOL    HW125844   1.085   1.190   3.198 -0.4699  1.8741 -0.8773
 4736SOL    HW225845   1.161   1.095   3.117  1.5276 -0.8384  3.3053
 4737SOL     OW25846   1.631   3.555   1.950 -0.1062 -0.1363  0.5124
 4737SOL    HW125847   1.621   3.496   1.875  1.7178  0.8078 -0.4923
 4737SOL    HW225848   1.722   3.528   1.964  0.5241  1.2387 -0.9087
 4738SOL     OW25849   2.815   2.280  15.579 -0.2742  0.1433 -0.7770
 4738SOL    HW125850   2.761   2.358  15.595  1.3295  0.9564  0.6148
 4738SOL    HW225851   2.826   2.289  15.485 -0.3987  0.5924 -0.7492
 4739SOL     OW25852   3.430   1.828   9.958 -0.4878 -0.1576  0.6138
 4739SOL    HW125853   3.516   1.826   9.916 -0.2633 -1.1147  1.1134
 4739SOL    HW225854   3.382   1.763   9.906 -1.9246  1.2778  0.1375
 4740SOL     OW25855   1.617   1.909   5.769  0.4277  0.0750 -0.2288
 4740SOL    HW125856   1.679   1.868   5.829 -1.8024 -1.6924  0.8559
 4740SOL    HW225857   1.533   1.895   5.813  0.7577  2.6276  1.2540
 4741SOL     OW25858   0.555   3.726   8.851  0.0480  0.0349  0.5027
 4741SOL    HW125859   0.503   3.647   8.866 -1.6243  0.7630 -1.4604
 4741SOL    HW225860   0.508   3.796   8.895 -1.2684  1.2742 -2.9080
 4742SOL     OW25861   1.508   0.363  16.383 -0.0785 -0.2993  0.2486
 4742SOL    HW125862   1.435   0.305  16.363 -0.1992  0.6684 -2.1943
 4742SOL    HW225863   1.458   0.443  16.397 -0.1383 -0.1134 -1.0078
 4743SOL     OW25864   4.300   2.321   6.882  0.0096  0.3309  0.2944
 4743SOL    HW125865   4.312   2.310   6.787 -0.1460  0.9823  0.2043
 4743SOL    HW225866   4.301   2.415   6.898  2.9470  0.2773  0.5049
 4744SOL     OW25867   0.216   2.216   4.389  0.3714  0.5028 -0.6452
 4744SOL    HW125868   0.298   2.167   4.378 -0.3942 -0.9167 -0.0561
 4744SOL    HW225869   0.241   2.285   4.451 -1.4808 -0.6672  1.4093
 4745SOL     OW25870   0.265   0.526   8.736 -0.5113  0.5056 -0.7584
 4745SOL    HW125871   0.171   0.512   8.734 -0.1480 -1.7940 -2.8558
 4745SOL    HW225872   0.295   0.507   8.647  2.6190 -1.5636  0.7231
 4746SOL     OW25873   3.437   3.683   7.865 -0.0366  0.1862 -0.4245
 4746SOL    HW125874   3.391   3.602   7.886  0.8533 -0.0999  0.4193
 4746SOL    HW225875   3.405   3.705   7.778  2.8801 -1.0085 -1.8093
 4747SOL     OW25876   2.201   4.499   2.038  0.1485  0.2502  0.0841
 4747SOL    HW125877   2.114   4.539   2.033  1.0104  2.2729  1.0343
 4747SOL    HW225878   2.250   4.546   2.105  1.6807 -1.7057  0.3205
 4748SOL     OW25879   1.473   0.032   2.435 -0.2875  0.1382 -0.3166
 4748SOL    HW125880   1.516   4.694   2.474  1.2215  0.5693 -1.1026
 4748SOL    HW225881   1.388   0.023   2.477 -0.8530  3.6528 -0.6870
 4749SOL     OW25882   1.637   3.579   8.839  0.3977 -0.1260  0.1225
 4749SOL    HW125883   1.584   3.605   8.764  2.7552 -0.3886 -1.6046
 4749SOL    HW225884   1.689   3.659   8.854 -1.4822  0.7938  1.7024
 4750SOL     OW25885   2.451   1.904   2.434  0.0673 -0.5139 -0.2261
 4750SOL    HW125886   2.524   1.962   2.457 -1.3732  0.9773  0.6182
 4750SOL    HW225887   2.494   1.834   2.385  0.6758  0.3606 -0.9383
 4751SOL     OW25888   2.565   0.045   5.421  0.2762 -0.4651 -0.3123
 4751SOL    HW125889   2.651   0.083   5.439  1.2906 -2.8491 -0.1665
 4751SOL    HW225890   2.586   4.690   5.417 -2.1410 -1.0538  0.6160
 4752SOL     OW25891   4.431   2.866   6.954  0.2146 -0.3734  0.4450
 4752SOL    HW125892   4.366   2.931   6.925  2.2989  0.4891 -2.3191
 4752SOL    HW225893   4.411   2.848   7.045  2.9255  0.1903  1.1647
 4753SOL     OW25894   2.926   4.176  13.185  0.0134  0.1753 -0.1255
 4753SOL    HW125895   3.018   4.199  13.193 -0.9667  4.2688 -0.7487
 4753SOL    HW225896   2.904   4.222  13.104 -0.0616  0.5503  0.1086
 4754SOL     OW25897   1.824   3.532  13.812 -0.2948 -0.4546  0.5881
 4754SOL    HW125898   1.805   3.625  13.819 -1.4669 -0.8652  2.8742
 4754SOL    HW225899   1.813   3.504  13.903  1.4970  0.2188  1.0108
 4755SOL     OW25900   3.585   0.990   8.864 -0.1549  0.3503 -0.3426
 4755SOL    HW125901   3.614   1.010   8.953 -3.2268 -0.6639  0.8809
 4755SOL    HW225902   3.544   0.905   8.879  0.3139  0.7264  3.0036
 4756SOL     OW25903   0.320   2.753   8.766  0.1892  0.6088 -0.1707
 4756SOL    HW125904   0.309   2.770   8.672  3.0288 -1.6585 -0.9206
 4756SOL    HW225905   0.232   2.761   8.803  0.1574  0.4282 -0.2077
 4757SOL     OW25906   3.821   2.894   2.491 -0.0459  0.2825 -0.0060
 4757SOL    HW125907   3.754   2.865   2.429  0.4693 -1.2449  0.1519
 4757SOL    HW225908   3.862   2.967   2.447  1.3556 -0.9083 -0.6716
 4758SOL     OW25909   3.411   2.015   7.465  0.1645 -0.7177 -0.0818
 4758SOL    HW125910   3.387   2.093   7.514  0.0284 -1.6950  1.4233
 4758SOL    HW225911   3.409   2.050   7.376  0.6787  0.8600  0.5338
 4759SOL     OW25912   3.415   1.633   4.148  0.0729 -0.5025  0.4067
 4759SOL    HW125913   3.462   1.713   4.122 -1.3226  0.1338 -0.1526
 4759SOL    HW225914   3.324   1.639   4.120 -0.0167  0.0462  0.8147
 4760SOL     OW25915   0.454   2.902  14.111 -0.1150  0.0619 -0.7315
 4760SOL    HW125916   0.429   2.835  14.175  1.4890 -2.3998 -2.6995
 4760SOL    HW225917   0.513   2.961  14.157 -1.4332  2.2880 -1.9133
 4761SOL     OW25918   1.724   3.267   1.020 -0.5254  0.1568  0.1133
 4761SOL    HW125919   1.644   3.215   1.034  0.4400 -1.3727 -0.0021
 4761SOL    HW225920   1.686   3.355   1.016 -2.2962 -0.5287  1.8215
 4762SOL     OW25921   3.880   1.945  10.807 -0.1602  0.5811  0.1329
 4762SOL    HW125922   3.931   1.983  10.878  1.3108  1.2550 -1.3195
 4762SOL    HW225923   3.944   1.948  10.736  0.0685 -1.0090  0.2573
 4763SOL     OW25924   3.935   2.763   6.494 -0.4887  0.7159  0.2276
 4763SOL    HW125925   3.956   2.792   6.405 -2.1097 -0.0821 -0.4104
 4763SOL    HW225926   4.016   2.720   6.520 -1.5882 -0.7312  1.2833
 4764SOL     OW25927   2.952   4.208  11.999 -0.1374  0.2875  0.1251
 4764SOL    HW125928   2.962   4.303  11.987  0.5212  0.2624  0.4709
 4764SOL    HW225929   3.045   4.183  12.001 -0.1126  0.4800  1.4661
 4765SOL     OW25930   3.235   2.708  12.419 -0.0045  0.2196 -0.0126
 4765SOL    HW125931   3.243   2.622  12.379 -0.4498  0.1084  0.1393
 4765SOL    HW225932   3.318   2.750  12.396  0.4300 -0.6823 -0.0692
 4766SOL     OW25933   1.008   0.045  15.349 -0.6440  0.3773 -0.0571
 4766SOL    HW125934   0.971   4.728  15.418  2.0010  0.1506  1.1580
 4766SOL    HW225935   1.013   4.720  15.278  0.2942  1.0410 -0.5899
 4767SOL     OW25936   3.091   1.940   2.260  0.0398 -0.1243  0.3745
 4767SOL    HW125937   3.113   1.866   2.315 -1.8218  1.6577  3.5474
 4767SOL    HW225938   3.167   1.998   2.267 -0.0561  0.2073 -1.3037
 4768SOL     OW25939   3.787   1.292   5.375 -0.0493  0.3937 -0.0992
 4768SOL    HW125940   3.731   1.357   5.334 -0.6504  0.7528  1.2957
 4768SOL    HW225941   3.787   1.328   5.464  0.7890 -0.5649  0.2952
 4769SOL     OW25942   1.960   3.645   9.837  0.2405  0.4326  0.6826
 4769SOL    HW125943   1.949   3.580   9.906 -1.7740 -0.5448 -0.5374
 4769SOL    HW225944   1.900   3.624   9.765 -0.9651  1.0962  1.5068
 4770SOL     OW25945   3.324   1.860   3.068 -0.0927 -0.1201  0.0647
 4770SOL    HW125946   3.340   1.783   3.014 -2.9996 -0.9198  0.3057
 4770SOL    HW225947   3.295   1.825   3.152 -0.2670 -0.6144 -0.2005
 4771SOL     OW25948   4.170   3.719  16.048  0.1587  0.2132 -0.3149
 4771SOL    HW125949   4.221   3.741  15.969  1.7372  0.6295  0.8183
 4771SOL    HW225950   4.101   3.784  16.054 -1.0944 -0.9584 -2.1157
 4772SOL     OW25951   1.867   1.323  11.627  0.0103 -0.8914  0.4043
 4772SOL    HW125952   1.915   1.315  11.545  1.0613  1.8345  0.7582
 4772SOL    HW225953   1.923   1.268  11.682 -0.1993 -1.0070  0.5003
 4773SOL     OW25954   4.319   3.724   2.060 -0.1798 -0.5310 -0.0081
 4773SOL    HW125955   4.407   3.744   2.093  1.4388  0.0185 -4.6935
 4773SOL    HW225956   4.262   3.795   2.091 -2.4531 -1.9549 -0.9984
 4774SOL     OW25957   1.420   2.996   3.086  0.4335 -0.5163  0.2443
 4774SOL    HW125958   1.397   3.081   3.123  2.4052 -0.0286  0.3475
 4774SOL    HW225959   1.336   2.961   3.057 -0.9131  1.9418  1.2978
 4775SOL     OW25960   2.627   1.337   0.845 -0.5821 -0.2723 -0.8612
 4775SOL    HW125961   2.670   1.293   0.771  1.0365  1.4619 -0.9454
 4775SOL    HW225962   2.631   1.269   0.912  1.8467  0.5947 -0.1515
 4776SOL     OW25963   4.443   0.117  13.520 -0.0360 -0.7733 -0.2018
 4776SOL    HW125964   4.515   0.159  13.474  0.6842 -0.8225  0.8786
 4776SOL    HW225965   4.376   0.078  13.464 -0.9582 -0.0943  0.4209
 4777SOL     OW25966   1.387   2.427   8.903 -0.1878 -0.2517  0.3318
 4777SOL    HW125967   1.407   2.357   8.840 -0.1161 -0.8953  1.0748
 4777SOL    HW225968   1.480   2.440   8.921  0.2055 -1.5138 -0.7931
 4778SOL     OW25969   3.781   1.328   3.723 -0.7872 -0.1991 -0.1583
 4778SOL    HW125970   3.829   1.279   3.789 -1.6227  1.3216  1.6001
 4778SOL    HW225971   3.768   1.261   3.657 -1.2803  0.6242 -0.9001
 4779SOL     OW25972   0.058   1.804   7.026 -0.1466 -0.2953 -0.1262
 4779SOL    HW125973   4.719   1.826   6.975 -0.1792  0.7439  0.3771
 4779SOL    HW225974   0.036   1.856   7.103 -0.3172 -1.9702  0.9529
 4780SOL     OW25975   3.472   3.243   8.099 -0.5519 -0.7162  0.0007
 4780SOL    HW125976   3.558   3.240   8.056 -0.2439 -3.4203  0.8102
 4780SOL    HW225977   3.452   3.336   8.112  1.5446 -0.4055  1.1227
 4781SOL     OW25978   2.535   2.421   6.342 -0.2502 -0.0307 -0.0956
 4781SOL    HW125979   2.439   2.432   6.339 -0.3202 -1.1061 -1.8812
 4781SOL    HW225980   2.538   2.383   6.430 -0.0943 -0.9155 -0.4797
 4782SOL     OW25981   0.838   3.827   1.984  0.0603  0.6310 -0.0061
 4782SOL    HW125982   0.780   3.891   2.025  1.8077  1.4362  1.2149
 4782SOL    HW225983   0.785   3.802   1.908 -0.7917 -2.4097  1.5922
 4783SOL     OW25984   1.009   1.165   7.709  0.1897 -0.6543 -0.0144
 4783SOL    HW125985   0.930   1.208   7.741 -0.1849 -0.7753 -0.7689
 4783SOL    HW225986   1.063   1.243   7.696  0.7553 -1.0247  0.1553
 4784SOL     OW25987   1.131   0.971   1.676  0.3280 -0.0046  0.8068
 4784SOL    HW125988   1.165   0.881   1.672 -3.0701 -1.1797 -2.3868
 4784SOL    HW225989   1.152   0.994   1.766  0.0643  1.4251  0.5007
 4785SOL     OW25990   4.314   1.238   4.803  0.0944 -0.1521 -0.4453
 4785SOL    HW125991   4.287   1.152   4.771  0.8509  0.0830 -1.7312
 4785SOL    HW225992   4.409   1.235   4.805  0.0342 -3.2255 -1.0731
 4786SOL     OW25993   4.416   0.352   1.204  0.0450 -0.4802 -0.6615
 4786SOL    HW125994   4.489   0.297   1.177  1.4113  0.4890  1.1223
 4786SOL    HW225995   4.457   0.438   1.207 -1.3109  0.1843 -1.0803
 4787SOL     OW25996   1.005   1.648   1.288  0.1147  0.0356 -0.3743
 4787SOL    HW125997   1.007   1.636   1.193 -2.9509 -1.9334 -0.2091
 4787SOL    HW225998   0.911   1.631   1.300  0.3313 -0.1101  1.0928
 4788SOL     OW25999   3.598   4.173   4.642  0.3330  0.1164  0.0825
 4788SOL    HW126000   3.518   4.223   4.629  0.9412  1.3873  1.2117
 4788SOL    HW226001   3.597   4.115   4.566  0.9909  2.0396 -1.3838
 4789SOL     OW26002   1.839   0.598  10.108 -0.9284  0.1148  0.6439
 4789SOL    HW126003   1.883   0.529  10.059 -1.0443 -2.1248  3.6184
 4789SOL    HW226004   1.897   0.603  10.184 -0.4011  1.2621  0.1509
 4790SOL     OW26005   4.135   1.862   8.068  0.5809 -0.8603 -0.0270
 4790SOL    HW126006   4.115   1.860   8.161 -0.8914 -1.8718 -0.3656
 4790SOL    HW226007   4.201   1.931   8.056 -1.0667  0.6414 -0.4202
 4791SOL     OW26008   0.870   2.925   3.088 -0.0682  0.4621 -0.7759
 4791SOL    HW126009   0.865   2.983   3.013  2.0541  2.6025  0.7333
 4791SOL    HW226010   0.882   2.838   3.051  1.9299 -0.4095  1.8476
 4792SOL     OW26011   0.910   2.538   8.988 -0.1177  0.7327 -0.1195
 4792SOL    HW126012   0.969   2.483   8.937  0.1143  0.6119  0.2754
 4792SOL    HW226013   0.969   2.581   9.050  1.2197  1.4884 -1.9120
 4793SOL     OW26014   4.084   0.880  14.835 -0.6421 -0.2457  0.2215
 4793SOL    HW126015   4.158   0.849  14.888  0.1848  0.8081 -0.3253
 4793SOL    HW226016   4.097   0.975  14.832  1.5038 -0.5664 -0.5139
 4794SOL     OW26017   3.100   1.583   6.393  0.3822  0.4090  0.3617
 4794SOL    HW126018   3.156   1.572   6.470 -0.2253 -0.3116  0.7051
 4794SOL    HW226019   3.137   1.517   6.334  1.0882  1.4091 -0.3092
 4795SOL     OW26020   2.678   0.132   4.625  0.5372 -0.0769 -0.2741
 4795SOL    HW126021   2.765   0.092   4.623  0.7094  0.2343  0.9051
 4795SOL    HW226022   2.673   0.190   4.549 -1.9522  0.5295  0.3361
 4796SOL     OW26023   2.217   1.098   1.752  0.0416  0.7296 -0.3913
 4796SOL    HW126024   2.128   1.094   1.719 -0.6887  0.5231  1.6336
 4796SOL    HW226025   2.198   1.120   1.843  1.6984 -0.8032  0.3233
 4797SOL     OW26026   2.475   3.122   2.115 -0.1375 -0.1804  0.3186
 4797SOL    HW126027   2.552   3.104   2.061  0.5517  1.4835  0.7413
 4797SOL    HW226028   2.417   3.151   2.045 -0.3973  0.1420  0.6690
 4798SOL     OW26029   4.394   3.955   2.322  0.0373 -0.7452 -0.0181
 4798SOL    HW126030   4.488   3.961   2.311 -0.2684  1.5174 -1.3401
 4798SOL    HW226031   4.377   4.048   2.338 -0.0145 -1.2708  3.0851
 4799SOL     OW26032   0.395   1.199   7.023  0.0614  0.0361 -0.2747
 4799SOL    HW126033   0.346   1.142   7.083 -0.2041 -0.7996 -1.2976
 4799SOL    HW226034   0.373   1.278   7.073  0.0932  1.0965 -1.9330
 4800SOL     OW26035   4.339   4.101  10.658 -0.2789  0.0130  0.2188
 4800SOL    HW126036   4.417   4.104  10.713 -0.9093 -0.3053  1.1327
 4800SOL    HW226037   4.363   4.158  10.585 -2.1712  0.2233 -0.2493
 4801SOL     OW26038   1.555   3.581   5.444 -0.0783 -0.6384 -0.3909
 4801SOL    HW126039   1.474   3.559   5.489 -0.6295  0.6151 -0.7752
 4801SOL    HW226040   1.605   3.513   5.489  1.1566  0.4310 -0.1377
 4802SOL     OW26041   3.147   3.390   5.969 -0.1134 -0.3481 -0.1381
 4802SOL    HW126042   3.115   3.447   5.900 -1.5802  0.4607  1.2064
 4802SOL    HW226043   3.150   3.455   6.039  1.6376  0.9809 -1.4415
 4803SOL     OW26044   2.131   2.522   9.594 -0.1683  0.2644  0.0805
 4803SOL    HW126045   2.125   2.429   9.571  0.0140  0.4919 -0.8844
 4803SOL    HW226046   2.211   2.551   9.549  0.4915 -0.3783  0.8451
 4804SOL     OW26047   0.858   1.566   8.061  0.1838  0.7786  0.1883
 4804SOL    HW126048   0.796   1.493   8.053  2.7136 -1.1292 -2.0928
 4804SOL    HW226049   0.912   1.561   7.982  1.1581 -1.5137  0.9888
 4805SOL     OW26050   1.609   1.110   1.898 -0.1740  0.1347 -0.2511
 4805SOL    HW126051   1.536   1.048   1.905 -0.3080  0.2968 -0.2241
 4805SOL    HW226052   1.646   1.097   1.811  2.2173  0.3794  0.7409
 4806SOL     OW26053   3.358   0.072   9.883 -0.4053 -0.8797 -0.1442
 4806SOL    HW126054   3.381   4.721   9.911 -2.8061 -1.2236  0.7014
 4806SOL    HW226055   3.349   0.064   9.788 -0.9206  0.3753 -0.1992
 4807SOL     OW26056   2.810   3.387  11.203 -0.1259 -0.4665  0.0380
 4807SOL    HW126057   2.852   3.303  11.221  2.3340  1.2407  2.2682
 4807SOL    HW226058   2.726   3.348  11.180  0.0741 -0.1265 -1.2649
 4808SOL     OW26059   4.516   1.843   1.106  0.1225 -0.0746 -0.5091
 4808SOL    HW126060   4.595   1.789   1.100 -0.2749 -0.9117  1.8689
 4808SOL    HW226061   4.481   1.820   1.021  0.4383 -1.6885 -0.2030
 4809SOL     OW26062   4.062   1.121  14.912  0.2140 -0.2047 -0.1781
 4809SOL    HW126063   4.121   1.184  14.953  0.1767  0.1684 -0.6962
 4809SOL    HW226064   3.973   1.140  14.942 -0.8943 -1.5364 -2.5929
 4810SOL     OW26065   1.202   1.321   6.619 -0.6322 -0.0619 -0.0843
 4810SOL    HW126066   1.173   1.391   6.677  1.2306  1.3432 -0.8563
 4810SOL    HW226067   1.115   1.289   6.594 -0.5753  0.8633 -1.5191
 4811SOL     OW26068   2.484   0.620   8.820  0.1740 -0.6459 -0.2958
 4811SOL    HW126069   2.407   0.577   8.857 -0.5693  1.0134  0.0919
 4811SOL    HW226070   2.547   0.619   8.891  0.0110 -0.5345 -0.1502
 4812SOL     OW26071   2.180   3.841   8.307  1.0435  0.3672 -0.2368
 4812SOL    HW126072   2.197   3.749   8.327 -1.3286  0.0339  0.2278
 4812SOL    HW226073   2.268   3.863   8.275  0.7357 -1.4832 -2.3583
 4813SOL     OW26074   2.793   3.613  11.696  0.4397 -0.0106 -0.4493
 4813SOL    HW126075   2.816   3.521  11.702  0.3781 -0.1335 -2.0582
 4813SOL    HW226076   2.714   3.605  11.749 -0.8804  1.1552 -2.2151
 4814SOL     OW26077   3.972   0.609   7.738  0.0475 -0.1373 -0.3890
 4814SOL    HW126078   3.886   0.607   7.697  0.7137  1.4437 -1.8423
 4814SOL    HW226079   3.960   0.602   7.833 -2.1306  2.1034 -0.5050
 4815SOL     OW26080   1.732   4.003   7.650  0.1703 -0.0662 -0.1388
 4815SOL    HW126081   1.806   3.995   7.710 -0.5490  0.1202  0.7775
 4815SOL    HW226082   1.756   3.963   7.567 -1.7362  1.7049 -1.5583
 4816SOL     OW26083   4.643   1.962  15.348 -0.1783 -0.1569  0.1316
 4816SOL    HW126084   4.577   2.028  15.368  2.1003  1.5726  1.9695
 4816SOL    HW226085   4.659   1.916  15.431  2.0759 -0.2945 -0.3781
 4817SOL     OW26086   1.720   2.419   1.866 -0.0332 -0.7076  0.0185
 4817SOL    HW126087   1.676   2.335   1.877 -0.5996 -0.1977  1.6321
 4817SOL    HW226088   1.754   2.434   1.954  0.6845 -1.4539 -0.1396
 4818SOL     OW26089   0.618   4.078   6.146  0.5348 -0.5538 -0.2773
 4818SOL    HW126090   0.699   4.093   6.097  0.9773  1.0881  0.9670
 4818SOL    HW226091   0.644   4.104   6.235 -4.2923  0.1747  0.9483
 4819SOL     OW26092   2.071   3.157   6.154 -0.0551 -0.3938 -0.6766
 4819SOL    HW126093   2.108   3.110   6.229 -1.6536 -1.0030 -0.2714
 4819SOL    HW226094   2.089   3.090   6.089 -0.1574 -2.4846  1.4711
 4820SOL     OW26095   4.483   0.840  14.262  0.2559 -0.1267  0.4991
 4820SOL    HW126096   4.469   0.934  14.271 -2.3549 -0.3546 -0.9749
 4820SOL    HW226097   4.468   0.812  14.352  1.6041  0.8594  1.0349
 4821SOL     OW26098   2.657   2.058   3.223  0.1529 -0.2727  0.2220
 4821SOL    HW126099   2.705   2.125   3.174 -0.4110 -0.3692 -0.4565
 4821SOL    HW226100   2.678   1.975   3.182  0.4774 -2.4410  4.8075
 4822SOL     OW26101   0.434   4.211   6.694 -0.1668  0.2354  0.8170
 4822SOL    HW126102   0.509   4.184   6.746  2.4689  0.7463 -2.7789
 4822SOL    HW226103   0.397   4.127   6.665  0.3736  0.1606  0.3661
 4823SOL     OW26104   4.337   2.609   6.901  0.1441 -0.3789  0.1493
 4823SOL    HW126105   4.384   2.692   6.906 -0.2403 -0.1317 -0.3572
 4823SOL    HW226106   4.248   2.633   6.879  0.7716  1.5901 -0.1987
 4824SOL     OW26107   0.523   3.487   3.328  0.2937  0.1258  0.4024
 4824SOL    HW126108   0.614   3.468   3.305  0.7347  1.9783  0.6140
 4824SOL    HW226109   0.537   3.560   3.389 -3.4079 -0.5615  2.1056
 4825SOL     OW26110   3.668   0.817  15.363 -0.2297 -0.2865 -0.1197
 4825SOL    HW126111   3.579   0.803  15.395 -0.3441  1.3498  0.2867
 4825SOL    HW226112   3.644   0.890  15.306  0.1445  0.6859  0.9864
 4826SOL     OW26113   2.177   4.730   4.946 -0.4366 -0.1663 -0.3552
 4826SOL    HW126114   2.085   0.017   4.950 -0.3581  0.2057 -0.8802
 4826SOL    HW226115   2.218   0.064   4.898 -1.3251  0.7018  0.2137
 4827SOL     OW26116   4.235   0.990   6.373 -0.6340 -0.0212  0.2501
 4827SOL    HW126117   4.328   1.007   6.360 -0.3626 -1.2822  0.4872
 4827SOL    HW226118   4.224   0.940   6.292 -0.7843  0.2906  0.0797
 4828SOL     OW26119   3.266   3.475   9.155 -0.2859 -0.1141 -0.2025
 4828SOL    HW126120   3.243   3.565   9.177 -1.5226 -0.9526  2.0105
 4828SOL    HW226121   3.309   3.440   9.233 -1.2877 -2.1763 -0.5623
 4829SOL     OW26122   1.213   2.027   7.635 -0.5726  0.1901 -0.2124
 4829SOL    HW126123   1.180   2.010   7.724 -0.5833  0.9836 -0.0712
 4829SOL    HW226124   1.138   2.070   7.594 -0.3494  0.7538 -0.0313
 4830SOL     OW26125   0.847   3.695   8.098 -0.4321  0.2214  0.2089
 4830SOL    HW126126   0.911   3.762   8.076  2.5747 -1.8253  2.7646
 4830SOL    HW226127   0.900   3.652   8.165 -0.7385  0.5518  0.6603
 4831SOL     OW26128   1.208   0.927   7.031 -0.2581 -0.2995  0.1952
 4831SOL    HW126129   1.198   0.852   7.091  0.7916 -0.8947 -0.3790
 4831SOL    HW226130   1.231   1.001   7.087 -1.1674  0.5602 -0.5702
 4832SOL     OW26131   3.361   2.536  14.712  0.0460 -0.3718 -0.4757
 4832SOL    HW126132   3.420   2.603  14.748 -3.0247  1.6247  0.8745
 4832SOL    HW226133   3.311   2.503  14.786  1.3172 -3.1320 -0.8760
 4833SOL     OW26134   4.024   0.990  11.800 -0.0597  0.0240  0.3710
 4833SOL    HW126135   4.078   1.065  11.775 -0.4411  0.2567  0.2492
 4833SOL    HW226136   4.090   0.920  11.800  0.3716  0.4190 -1.4536
 4834SOL     OW26137   0.931   4.061   0.788  0.1502 -0.1675  0.6156
 4834SOL    HW126138   0.902   4.019   0.869  0.4196 -2.3493 -0.4325
 4834SOL    HW226139   0.909   4.152   0.809 -0.7332 -0.2418 -0.0047
 4835SOL     OW26140   0.671   1.357   0.549 -0.1988  0.1321 -0.0637
 4835SOL    HW126141   0.719   1.317   0.477  0.6232 -2.2432  1.7924
 4835SOL    HW226142   0.727   1.316   0.616  1.1271  2.2788  0.1268
 4836SOL     OW26143   3.881   3.225   7.472 -0.0482 -0.0652 -0.5038
 4836SOL    HW126144   3.903   3.249   7.562 -0.2585  2.5887 -1.1542
 4836SOL    HW226145   3.787   3.235   7.487 -0.0641 -0.5673 -0.2799
 4837SOL     OW26146   2.001   2.360   1.118 -0.4233  0.2491 -0.1853
 4837SOL    HW126147   1.970   2.324   1.201 -1.2972  0.4136 -0.4443
 4837SOL    HW226148   2.086   2.316   1.116  0.5265  2.0061  0.9470
 4838SOL     OW26149   4.531   1.253  11.537 -0.1882  0.6638 -0.4162
 4838SOL    HW126150   4.472   1.247  11.462 -1.4492  1.0692  0.5440
 4838SOL    HW226151   4.537   1.166  11.577 -0.9687 -0.6770 -3.2287
 4839SOL     OW26152   4.073   0.356   8.707  0.1462 -0.3066 -0.4594
 4839SOL    HW126153   4.025   0.393   8.781  3.1198  0.3369  1.1595
 4839SOL    HW226154   4.125   0.287   8.748  0.5048 -0.8979 -1.9038
 4840SOL     OW26155   3.342   2.609   3.691  0.1997 -0.0481  0.0323
 4840SOL    HW126156   3.329   2.567   3.606 -0.6478 -2.0989  1.1826
 4840SOL    HW226157   3.367   2.532   3.743  0.5209 -0.6267 -0.9828
 4841SOL     OW26158   0.926   0.823   8.281  0.3705 -0.0461  0.3609
 4841SOL    HW126159   0.944   0.916   8.297  2.9549  0.0719 -3.1319
 4841SOL    HW226160   0.901   0.799   8.369  2.3983 -0.0920  0.9369
 4842SOL     OW26161   0.843   1.470   4.003 -0.0973 -0.0600  0.7066
 4842SOL    HW126162   0.828   1.478   4.097 -0.8816  0.2674  0.5520
 4842SOL    HW226163   0.902   1.545   3.993 -1.4309  0.7527 -1.2375
 4843SOL     OW26164   4.674   1.648  13.126 -0.3240  0.1222  0.7001
 4843SOL    HW126165   0.027   1.628  13.148 -0.3145 -1.8260 -1.1830
 4843SOL    HW226166   4.662   1.599  13.045  1.9362 -0.7779  0.8999
 4844SOL     OW26167   1.272   0.512   1.089 -0.3527  0.5646 -0.2367
 4844SOL    HW126168   1.294   0.603   1.111 -0.1083  0.9164 -1.9581
 4844SOL    HW226169   1.231   0.484   1.171  2.4020 -0.3258  0.8441
 4845SOL     OW26170   2.380   1.167   1.537 -0.2061 -0.0859  0.0593
 4845SOL    HW126171   2.322   1.135   1.605 -1.4759  2.9423  0.3932
 4845SOL    HW226172   2.306   1.201   1.486  1.2878 -0.7746 -2.5468
 4846SOL     OW26173   2.319   0.397   2.961 -0.0434 -0.1678  0.4661
 4846SOL    HW126174   2.261   0.322   2.968  0.4602 -0.4161  1.8454
 4846SOL    HW226175   2.263   0.462   2.917 -0.8652 -0.7962  0.5967
 4847SOL     OW26176   3.691   0.799   1.105 -0.3422  0.4835  0.4035
 4847SOL    HW126177   3.787   0.803   1.108 -0.3961  2.9800 -0.9071
 4847SOL    HW226178   3.667   0.870   1.044 -0.1084  0.4155  0.2332
 4848SOL     OW26179   0.975   2.617   4.013  0.2124 -0.2319 -0.0891
 4848SOL    HW126180   1.030   2.694   4.003  0.4051 -0.5975 -1.8470
 4848SOL    HW226181   0.915   2.614   3.938  0.9844 -1.4054 -0.6566
 4849SOL     OW26182   2.539   1.829   1.588 -0.4287 -0.6341  0.6276
 4849SOL    HW126183   2.621   1.783   1.570 -1.0165 -1.3082 -0.3653
 4849SOL    HW226184   2.488   1.748   1.597 -1.7225  0.2443  1.1555
 4850SOL     OW26185   3.393   3.093   3.307  0.0584  0.3228  0.0591
 4850SOL    HW126186   3.318   3.151   3.322  1.0204  1.5113  0.3508
 4850SOL    HW226187   3.447   3.134   3.376 -0.5390 -0.0586  0.7499
 4851SOL     OW26188   2.820   1.081   7.241 -0.2481  0.5736  0.3138
 4851SOL    HW126189   2.804   0.988   7.225  0.2546  0.1916  2.0673
 4851SOL    HW226190   2.883   1.082   7.313  1.9909 -0.7636 -1.6567
 4852SOL     OW26191   2.111   1.261   0.585 -0.2898 -0.6017 -0.0611
 4852SOL    HW126192   2.068   1.304   0.659  0.2292 -1.5777  0.8036
 4852SOL    HW226193   2.198   1.297   0.600 -0.4725  0.6611 -2.0162
 4853SOL     OW26194   4.533   2.481   7.156  0.2782 -0.3140  0.0347
 4853SOL    HW126195   4.465   2.426   7.116 -0.5707 -0.1365  1.2449
 4853SOL    HW226196   4.559   2.532   7.079  0.8199  0.4900  0.7553
 4854SOL     OW26197   3.927   0.535   6.957  0.2772 -0.2908 -0.9160
 4854SOL    HW126198   3.972   0.592   6.895  0.2736  1.9322  1.1361
 4854SOL    HW226199   3.974   0.452   6.947  1.1212 -0.1196  1.5292
 4855SOL     OW26200   4.389   1.627  11.177  0.1562 -0.1512 -0.0435
 4855SOL    HW126201   4.314   1.676  11.144  0.8806  0.2120 -1.1273
 4855SOL    HW226202   4.440   1.690  11.228 -0.2578 -0.2864  0.5472
 4856SOL     OW26203   0.232   0.532  12.083  0.0615  0.1757 -0.3900
 4856SOL    HW126204   0.186   0.450  12.099 -0.6684  0.7868  0.5972
 4856SOL    HW226205   0.318   0.495  12.105 -0.4071  0.2503  1.5444
 4857SOL     OW26206   3.963   1.082   8.262 -0.0550 -0.3393  0.4335
 4857SOL    HW126207   4.027   1.094   8.332  0.5241  2.7211 -0.6239
 4857SOL    HW226208   4.009   1.018   8.207 -0.2592 -0.1394  0.0292
 4858SOL     OW26209   2.417   4.683   8.680  0.2990  0.3420 -0.1412
 4858SOL    HW126210   2.388   4.594   8.698  1.0294 -0.0749 -1.0466
 4858SOL    HW226211   2.346   0.002   8.707  0.8561  0.6491  0.6667
 4859SOL     OW26212   1.650   1.096   7.230 -0.8544 -0.0275  0.0177
 4859SOL    HW126213   1.700   1.038   7.172  1.5385 -0.8296  2.8412
 4859SOL    HW226214   1.708   1.172   7.232  0.2229 -0.8464 -0.1487
 4860SOL     OW26215   3.146   4.175   6.262 -0.2281  0.1325  0.2923
 4860SOL    HW126216   3.057   4.174   6.298 -0.0261 -0.9411  0.7526
 4860SOL    HW226217   3.142   4.106   6.196 -1.2332  1.3290 -0.8966
 4861SOL     OW26218   1.459   0.644  13.877  0.2505 -0.6176 -0.2450
 4861SOL    HW126219   1.490   0.563  13.919  0.1068 -1.2537 -1.3619
 4861SOL    HW226220   1.523   0.711  13.902 -0.1927 -0.4431  0.3979
 4862SOL     OW26221   3.509   0.133   8.043 -0.6345 -0.2044  0.1150
 4862SOL    HW126222   3.597   0.171   8.045 -2.1233  3.0270  2.7248
 4862SOL    HW226223   3.506   0.083   7.962 -1.3052 -0.9563  0.6054
 4863SOL     OW26224   3.689   0.755   2.202 -0.1855 -0.1401 -0.0494
 4863SOL    HW126225   3.672   0.849   2.196 -1.7348 -0.5400 -1.7569
 4863SOL    HW226226   3.678   0.746   2.297 -0.2388  2.7691  0.2245
 4864SOL     OW26227   2.173   2.063   3.410  0.2471 -0.3358 -0.6150
 4864SOL    HW126228   2.259   2.067   3.368  0.3975 -0.8901 -0.3554
 4864SOL    HW226229   2.182   1.980   3.457  1.4830 -0.0313 -0.3179
 4865SOL     OW26230   0.860   0.304   3.523  0.0188 -0.2772 -0.0026
 4865SOL    HW126231   0.888   0.385   3.481 -0.1806 -0.1668  0.0776
 4865SOL    HW226232   0.799   0.271   3.457  0.5592 -0.7121 -0.2838
 4866SOL     OW26233   2.286   0.977   2.249 -0.0525  0.0596  0.2561
 4866SOL    HW126234   2.259   1.061   2.286  0.4358  0.6843 -0.8297
 4866SOL    HW226235   2.358   1.008   2.194 -0.5152 -0.2171 -0.5082
 4867SOL     OW26236   0.749   4.146   3.323  0.1873  0.3942 -0.1218
 4867SOL    HW126237   0.656   4.142   3.300 -0.3698  0.4925  2.1361
 4867SOL    HW226238   0.735   4.171   3.414  1.4700  0.9500 -0.0887
 4868SOL     OW26239   3.388   4.333   6.208 -0.0170  0.2542 -0.2159
 4868SOL    HW126240   3.442   4.331   6.287  0.9413  0.1671 -0.8613
 4868SOL    HW226241   3.321   4.268   6.226  0.9476 -1.6541 -3.4892
 4869SOL     OW26242   1.010   0.135   2.494  0.4591 -0.4530  0.7720
 4869SOL    HW126243   0.974   0.224   2.492 -0.6290 -0.9377 -0.9767
 4869SOL    HW226244   0.976   0.090   2.417  0.4862 -0.5086  0.7926
 4870SOL     OW26245   1.512   1.356  11.804  0.2939 -0.0061 -0.2160
 4870SOL    HW126246   1.586   1.331  11.859 -0.1450  1.1737  0.9349
 4870SOL    HW226247   1.552   1.429  11.757 -0.0604  0.8368  0.7746
 4871SOL     OW26248   3.677   2.668   4.763 -0.0256  0.5001  0.5206
 4871SOL    HW126249   3.738   2.709   4.824  0.2847  0.0359  0.5203
 4871SOL    HW226250   3.612   2.738   4.756 -0.8611 -0.5618 -2.1467
 4872SOL     OW26251   4.480   2.063   7.298 -0.2754 -0.3792 -0.2127
 4872SOL    HW126252   4.456   2.019   7.217  0.7701 -1.3038 -0.0242
 4872SOL    HW226253   4.410   2.041   7.359 -1.9010  0.6624 -1.6966
 4873SOL     OW26254   1.804   3.056   1.722  0.1567  0.1464  0.3816
 4873SOL    HW126255   1.748   2.979   1.712 -1.5045  1.4628 -0.4473
 4873SOL    HW226256   1.757   3.089   1.799 -1.2317  0.4271 -0.5777
 4874SOL     OW26257   1.767   1.637   4.058  0.1153 -0.2634 -0.1398
 4874SOL    HW126258   1.675   1.657   4.077 -0.2956 -2.9425  0.7092
 4874SOL    HW226259   1.788   1.549   4.089 -0.1955  0.4237  2.0237
 4875SOL     OW26260   0.799   1.452  14.480 -0.0890  0.3601 -0.6073
 4875SOL    HW126261   0.789   1.373  14.426  0.0809 -1.2087  1.6694
 4875SOL    HW226262   0.705   1.457  14.500 -0.1104  2.2090 -1.1852
 4876SOL     OW26263   3.804   3.376   5.803  0.6540  0.1699  0.6301
 4876SOL    HW126264   3.885   3.366   5.753 -0.0422 -1.0671 -0.2502
 4876SOL    HW226265   3.793   3.307   5.869 -0.4319 -1.9008 -1.7233
 4877SOL     OW26266   0.688   0.007  13.363  0.3145 -0.0421 -0.0109
 4877SOL    HW126267   0.708   4.704  13.447 -2.5516 -0.8283  0.2615
 4877SOL    HW226268   0.608   4.699  13.342 -0.6277  2.0159 -0.9566
 4878SOL     OW26269   4.713   3.824  14.594 -0.1229  0.5244 -0.0197
 4878SOL    HW126270   0.031   3.798  14.521 -0.3225  0.5056 -0.1690
 4878SOL    HW226271   0.025   3.856  14.668 -1.3704  1.9326  0.2335
 4879SOL     OW26272   3.539   3.678   4.906 -0.1374  0.7257  0.2303
 4879SOL    HW126273   3.508   3.764   4.937 -0.8263  1.2079 -1.8450
 4879SOL    HW226274   3.482   3.623   4.960  1.8849  1.2641  2.8957
 4880SOL     OW26275   1.750   4.434  14.449  0.0849  0.2359  0.3143
 4880SOL    HW126276   1.698   4.513  14.439 -1.0863 -0.8773 -2.3286
 4880SOL    HW226277   1.798   4.427  14.367  1.3323 -2.0530  1.2190
 4881SOL     OW26278   0.268   0.675   2.407 -0.1426  0.3164 -0.7687
 4881SOL    HW126279   0.224   0.637   2.331  0.8029  1.4158 -1.8434
 4881SOL    HW226280   0.193   0.673   2.467 -0.1428  1.8444 -0.7194
 4882SOL     OW26281   0.138   2.284  14.829 -0.3277  0.4052 -0.1494
 4882SOL    HW126282   0.049   2.317  14.816 -0.6897  0.0603  1.5155
 4882SOL    HW226283   0.180   2.342  14.893 -0.6383  0.7282 -0.2360
 4883SOL     OW26284   4.377   1.119  15.564  0.0427  0.0530 -0.2000
 4883SOL    HW126285   4.343   1.151  15.481 -0.6634  0.4839  0.2492
 4883SOL    HW226286   4.292   1.120  15.608 -0.3201  1.8007 -0.9481
 4884SOL     OW26287   1.470   1.569   0.751  0.1957 -0.2852 -0.1195
 4884SOL    HW126288   1.534   1.573   0.680 -0.6028  1.0692 -0.7784
 4884SOL    HW226289   1.519   1.589   0.830  2.0901  0.8716 -1.5955
 4885SOL     OW26290   0.259   2.407   0.019  0.3413  0.6114 -0.0272
 4885SOL    HW126291   0.290   2.495   0.039  1.2395  0.1175  0.7373
 4885SOL    HW226292   0.194   2.398   0.089  1.0425  0.0324  0.5472
 4886SOL     OW26293   1.748   4.027  16.734 -0.2934  0.2868  0.4053
 4886SOL    HW126294   1.696   4.034  16.814 -0.5724  1.2601  0.1369
 4886SOL    HW226295   1.690   4.056  16.664 -0.8774  0.0312  0.7926
 4887SOL     OW26296   0.951   2.946   8.345 -0.2810 -0.2206  0.0662
 4887SOL    HW126297   0.880   2.918   8.287 -1.1933 -1.0676  1.6059
 4887SOL    HW226298   0.907   2.950   8.430  0.0714 -1.1018  0.2886
 4888SOL     OW26299   3.321   1.526  17.015  0.0878 -0.0841  0.5983
 4888SOL    HW126300   3.335   1.610  16.972  0.1809 -0.0427  0.7079
 4888SOL    HW226301   3.250   1.536  17.079  0.1472 -0.2927  0.6967
 4889SOL     OW26302   1.935   3.791   0.942 -0.5969 -0.3449  0.5528
 4889SOL    HW126303   2.017   3.764   0.982 -0.4058 -0.5503  0.0176
 4889SOL    HW226304   1.960   3.817   0.854  1.5642  1.2054  1.6463
 4890SOL     OW26305   0.519   1.653  12.809  0.3592  0.2036  0.0469
 4890SOL    HW126306   0.478   1.735  12.835  0.8697  0.9113 -1.3747
 4890SOL    HW226307   0.471   1.578  12.844  1.8837 -1.2675 -0.9872
 4891SOL     OW26308   3.157   1.721   2.420  0.7582  0.4056 -0.5032
 4891SOL    HW126309   3.084   1.708   2.481  1.4123  0.6508  0.3389
 4891SOL    HW226310   3.229   1.732   2.483  0.0469  0.3262  0.3235
 4892SOL     OW26311   0.146   1.441  15.156 -0.4219  0.0160  0.0452
 4892SOL    HW126312   0.085   1.447  15.229  0.0248 -1.8600  0.5568
 4892SOL    HW226313   0.223   1.473  15.203  0.5847 -1.1112 -0.8495
 4893SOL     OW26314   4.012   1.493  14.955 -0.2222 -0.3447  0.7716
 4893SOL    HW126315   4.011   1.579  14.998  0.4562  0.4528 -0.7885
 4893SOL    HW226316   4.096   1.456  14.981  0.6341  1.3594  0.4560
 4894SOL     OW26317   0.334   4.049   4.498 -0.3584  0.0028 -0.3511
 4894SOL    HW126318   0.329   4.103   4.577  3.4856 -0.0574 -0.0742
 4894SOL    HW226319   0.422   4.012   4.506  0.2228  1.2817 -0.7716
 4895SOL     OW26320   1.014   3.013   7.178 -0.1575  0.1414 -0.3511
 4895SOL    HW126321   1.109   3.013   7.190 -0.2080  1.5188  0.0930
 4895SOL    HW226322   1.012   3.018   7.083 -1.2634  0.5949 -0.3069
 4896SOL     OW26323   2.793   0.108   1.532 -0.2527 -0.7969  0.1399
 4896SOL    HW126324   2.869   0.053   1.550  0.3093  0.4692  1.6655
 4896SOL    HW226325   2.808   0.172   1.602 -0.8657 -1.2224  0.6664
 4897SOL     OW26326   0.727   0.064  15.536  0.0981 -0.1603  0.7069
 4897SOL    HW126327   0.820   0.041  15.530  0.2794  0.8465 -0.3230
 4897SOL    HW226328   0.730   0.138  15.597  1.4467  1.4688 -1.3147
 4898SOL     OW26329   0.127   2.982  13.904 -0.2505 -0.2347  0.2113
 4898SOL    HW126330   0.057   2.923  13.878  2.0131 -2.4771 -0.7946
 4898SOL    HW226331   0.138   3.030  13.822 -3.0505  1.8976  1.0747
 4899SOL     OW26332   2.416   3.502   7.282 -0.0133 -0.1099 -0.1067
 4899SOL    HW126333   2.374   3.568   7.338 -3.8746 -2.6222  0.0100
 4899SOL    HW226334   2.351   3.491   7.213 -0.2238  0.1189  0.0549
 4900SOL     OW26335   2.870   4.296   6.055  0.3273 -0.2811  0.6330
 4900SOL    HW126336   2.798   4.325   5.999  0.3683 -1.1992  0.0993
 4900SOL    HW226337   2.819   4.247   6.120  2.1919 -0.3029  2.0655
 4901SOL     OW26338   1.386   4.039   3.946 -0.3003 -0.4349 -0.2779
 4901SOL    HW126339   1.443   4.044   4.022 -0.9856 -0.2740  0.2182
 4901SOL    HW226340   1.390   4.127   3.909 -0.3194 -0.5756 -0.6154
 4902SOL     OW26341   3.474   0.018   2.684  0.2260 -0.8337  0.1104
 4902SOL    HW126342   3.413   0.073   2.635  1.4174 -1.1785 -1.7648
 4902SOL    HW226343   3.521   0.080   2.740  0.8121 -2.3533  1.2925
 4903SOL     OW26344   0.426   4.011   1.338  0.3275 -0.4185  0.3272
 4903SOL    HW126345   0.494   3.993   1.403  1.8953  2.9538 -0.3896
 4903SOL    HW226346   0.407   3.927   1.297  0.8824  0.2879 -1.3582
 4904SOL     OW26347   4.064   2.813   4.153 -0.3769 -0.3661  0.1144
 4904SOL    HW126348   4.054   2.798   4.059 -0.6104 -1.0320  0.2469
 4904SOL    HW226349   4.159   2.830   4.156 -0.1960 -1.1813 -0.9313
 4905SOL     OW26350   0.402   4.529   4.730  0.4334 -0.0020  0.1719
 4905SOL    HW126351   0.442   4.564   4.650 -0.5850  1.1316  0.1521
 4905SOL    HW226352   0.445   4.587   4.793 -1.0426  2.3605 -0.9769
 4906SOL     OW26353   4.678   1.110  16.208  0.0674 -0.2387  0.4887
 4906SOL    HW126354   4.650   1.020  16.226 -2.2929  0.3088 -0.3767
 4906SOL    HW226355   4.662   1.124  16.114  0.1351  0.8403  0.6457
 4907SOL     OW26356   2.484   2.002   1.359  0.2836  0.0632 -0.1502
 4907SOL    HW126357   2.524   1.975   1.441 -0.9254 -1.1429  0.0379
 4907SOL    HW226358   2.508   2.094   1.348 -1.4471  0.8140  2.3650
 4908SOL     OW26359   2.905   0.035   6.007  1.0148  0.5916 -0.4220
 4908SOL    HW126360   2.914   0.001   6.096  0.8444  0.4700 -0.4508
 4908SOL    HW226361   2.815   0.016   5.980  0.4332 -0.9095  2.6153
 4909SOL     OW26362   4.495   4.650  14.955 -0.6784  0.0532 -0.2961
 4909SOL    HW126363   4.523   4.698  15.033 -1.0158 -0.3414  0.0629
 4909SOL    HW226364   4.499   4.566  15.000  0.2466  1.3918  2.0701
 4910SOL     OW26365   0.914   1.383  10.632 -0.9123  0.2403 -0.6001
 4910SOL    HW126366   0.963   1.453  10.676 -0.3896  1.3929 -3.0490
 4910SOL    HW226367   0.980   1.314  10.621  0.2094  1.0281  1.1002
 4911SOL     OW26368   0.670   4.584   1.650  0.1932  0.2113  0.0609
 4911SOL    HW126369   0.643   4.496   1.623  0.9654 -0.0026 -0.0425
 4911SOL    HW226370   0.581   4.611   1.670 -0.0269  0.5540 -1.3690
 4912SOL     OW26371   1.705   4.045   9.312  0.0991  0.1734 -0.4397
 4912SOL    HW126372   1.731   4.114   9.251  0.5566 -0.1065 -0.5615
 4912SOL    HW226373   1.611   4.056   9.327 -0.1861 -0.2345 -1.9409
 4913SOL     OW26374   2.348   4.079  16.395 -0.7068 -0.0918  0.3820
 4913SOL    HW126375   2.315   4.061  16.484 -1.2399  0.0858  0.2232
 4913SOL    HW226376   2.366   4.173  16.388  0.8508 -0.4325 -0.0375
 4914SOL     OW26377   0.331   1.681   1.197 -0.0705  0.3508 -0.2828
 4914SOL    HW126378   0.400   1.663   1.261  0.6734  0.6198 -1.0106
 4914SOL    HW226379   0.296   1.593   1.180 -0.5019  0.4142  0.2800
 4915SOL     OW26380   2.516   2.276  11.268 -0.0278 -0.7435  0.2202
 4915SOL    HW126381   2.554   2.319  11.345 -2.1693  3.2115 -0.9222
 4915SOL    HW226382   2.475   2.197  11.302 -0.0497 -2.0290 -2.7649
 4916SOL     OW26383   0.424   0.403   3.110  0.3023  0.2389 -0.2907
 4916SOL    HW126384   0.453   0.401   3.202 -1.1505  0.4588  0.1666
 4916SOL    HW226385   0.387   0.316   3.104  0.4091  0.1116  0.8983
 4917SOL     OW26386   1.056   1.922  11.160  0.3439 -0.1181 -0.0540
 4917SOL    HW126387   1.040   1.981  11.233 -0.2392  2.4614 -2.2597
 4917SOL    HW226388   1.056   1.834  11.198 -1.5768  0.1281  0.4951
 4918SOL     OW26389   0.574   2.326   5.589  0.0520 -0.0233  0.3316
 4918SOL    HW126390   0.500   2.350   5.645 -0.9638 -0.0899 -0.9642
 4918SOL    HW226391   0.624   2.407   5.597 -1.9056  1.0655  1.4589
 4919SOL     OW26392   4.732   0.470   4.400 -0.1785  0.0372 -0.1797
 4919SOL    HW126393   4.668   0.411   4.359  1.7661 -0.6706 -2.1766
 4919SOL    HW226394   0.062   0.404   4.407  0.1718  0.0941 -2.9687
 4920SOL     OW26395   4.453   1.939   0.402 -0.1004  0.3708  0.5073
 4920SOL    HW126396   4.401   1.898   0.333  1.6156 -1.3200  0.2257
 4920SOL    HW226397   4.525   1.973   0.349 -0.5974  0.1215 -0.3289
 4921SOL     OW26398   3.493   4.196   5.149  0.8144 -0.5258 -0.2638
 4921SOL    HW126399   3.435   4.230   5.218  1.3986 -1.6145  0.7765
 4921SOL    HW226400   3.469   4.103   5.155  0.2158 -0.4013 -0.8122
 4922SOL     OW26401   1.654   1.401   4.391  0.6391  0.5899  0.3403
 4922SOL    HW126402   1.645   1.391   4.486  0.5719 -2.3468  0.0151
 4922SOL    HW226403   1.565   1.426   4.364  0.2411  0.5140  1.5780
 4923SOL     OW26404   0.735   0.144  13.077  0.4653  0.1421  0.2445
 4923SOL    HW126405   0.724   0.235  13.048  0.8917 -0.1372 -0.8157
 4923SOL    HW226406   0.689   0.162  13.159  0.5534 -0.3986  0.4099
 4924SOL     OW26407   1.174   4.456  15.494 -0.3030 -0.4709 -1.0042
 4924SOL    HW126408   1.221   4.538  15.475 -0.9841  0.3295  0.7873
 4924SOL    HW226409   1.242   4.421  15.551  1.8721  1.5394 -2.3485
 4925SOL     OW26410   3.292   3.877   1.310 -0.6810 -0.7265  0.2983
 4925SOL    HW126411   3.232   3.850   1.380 -1.3834 -0.2280 -0.1105
 4925SOL    HW226412   3.363   3.815   1.326  0.4229 -0.0767 -2.0772
 4926SOL     OW26413   1.673   1.231   9.141  0.4481  0.4900  0.4767
 4926SOL    HW126414   1.631   1.317   9.149  1.7392  1.2246 -0.6464
 4926SOL    HW226415   1.674   1.196   9.230 -0.9558  1.0107  0.7004
 4927SOL     OW26416   0.274   2.225   8.766  0.0026 -0.1572 -0.3144
 4927SOL    HW126417   0.220   2.150   8.745 -0.1668  0.2825 -1.4587
 4927SOL    HW226418   0.327   2.236   8.687 -1.0429 -1.0518 -1.1215
 4928SOL     OW26419   0.535   4.599   0.423 -0.1879  0.4478 -0.0372
 4928SOL    HW126420   0.584   4.672   0.384 -0.1982 -0.4208 -1.6828
 4928SOL    HW226421   0.584   4.520   0.399 -1.4544  0.0009 -1.1588
 4929SOL     OW26422   4.610   3.079  16.397 -0.0854  0.9334 -0.1230
 4929SOL    HW126423   4.649   2.998  16.432 -2.6006  0.1024  0.7370
 4929SOL    HW226424   4.520   3.068  16.428 -0.2754  0.7483 -0.7473
 4930SOL     OW26425   4.022   3.359  11.691 -0.1267 -0.3362 -0.7228
 4930SOL    HW126426   4.109   3.381  11.658 -0.0857  0.5800  0.0075
 4930SOL    HW226427   4.013   3.392  11.781 -0.3782  0.9829 -1.2313
 4931SOL     OW26428   0.802   2.334   5.175 -0.1791 -0.9197 -0.0711
 4931SOL    HW126429   0.835   2.293   5.095  1.6856 -1.5725  1.0462
 4931SOL    HW226430   0.748   2.258   5.199  1.0744 -1.1876  1.8478
 4932SOL     OW26431   3.217   1.413  13.741  0.0712 -0.3058 -0.8819
 4932SOL    HW126432   3.289   1.355  13.766 -1.8138 -2.5412 -0.5740
 4932SOL    HW226433   3.257   1.454  13.665  1.9199 -0.3156  0.0765
 4933SOL     OW26434   2.704   0.502   3.847  0.2945 -0.1880  0.0104
 4933SOL    HW126435   2.704   0.414   3.811  0.4989  0.5967 -1.9114
 4933SOL    HW226436   2.761   0.548   3.786 -0.3265 -0.9003 -1.1007
 4934SOL     OW26437   3.332   0.245   6.385  0.0596 -0.3768  0.1544
 4934SOL    HW126438   3.336   0.235   6.290  0.0212 -0.4448  0.1598
 4934SOL    HW226439   3.238   0.238   6.401  0.0077  0.7389  0.3181
 4935SOL     OW26440   4.373   4.193   7.051 -0.0149 -0.2730  0.0808
 4935SOL    HW126441   4.345   4.218   6.963  0.9212  0.6793  0.0555
 4935SOL    HW226442   4.404   4.275   7.088 -2.9633  0.8115  0.1282
 4936SOL     OW26443   0.712   2.909   9.596 -0.5302 -0.3721  0.1111
 4936SOL    HW126444   0.679   2.968   9.663  1.3610 -0.0926  0.7887
 4936SOL    HW226445   0.692   2.824   9.637 -0.6614 -1.3226 -1.9296
 4937SOL     OW26446   2.725   3.927   6.038  0.2327 -0.3486 -0.1363
 4937SOL    HW126447   2.743   3.940   6.131  1.3869 -0.5644 -0.3271
 4937SOL    HW226448   2.700   3.835   6.033  4.1408 -1.4522  0.4908
 4938SOL     OW26449   4.049   1.456   5.430  0.6234  0.1261  0.6887
 4938SOL    HW126450   4.004   1.508   5.497 -0.0275  0.2598  0.1478
 4938SOL    HW226451   3.976   1.408   5.391  1.9138 -0.2223 -1.2633
 4939SOL     OW26452   0.397   1.517   2.168 -0.3710 -0.3132 -0.0243
 4939SOL    HW126453   0.365   1.607   2.158  0.1009  0.0672  2.0746
 4939SOL    HW226454   0.484   1.514   2.207 -0.5017 -0.4870  0.2547
 4940SOL     OW26455   1.780   1.814   2.570 -0.1059  0.4075  0.2406
 4940SOL    HW126456   1.849   1.764   2.527 -0.6845 -0.4410  0.3148
 4940SOL    HW226457   1.830   1.879   2.619 -0.1968  0.4601  0.2645
 4941SOL     OW26458   2.900   3.143   7.501  0.0310  0.0852 -0.0165
 4941SOL    HW126459   2.867   3.156   7.590  1.6817  0.0365  0.6151
 4941SOL    HW226460   2.986   3.103   7.512 -0.0313 -0.1625 -0.4565
 4942SOL     OW26461   2.180   3.765   2.376 -0.5818 -0.3959  0.4354
 4942SOL    HW126462   2.144   3.837   2.324 -0.4561 -1.5399 -1.2318
 4942SOL    HW226463   2.207   3.807   2.457  0.3662 -1.0173  0.4408
 4943SOL     OW26464   1.518   2.257  17.209  0.1338 -0.5263 -0.0096
 4943SOL    HW126465   1.610   2.258  17.181 -0.8617  3.1272 -3.1811
 4943SOL    HW226466   1.502   2.165  17.227  0.2326 -0.4462  0.5063
 4944SOL     OW26467   1.975   2.292  12.332  0.1447  0.2754  0.7820
 4944SOL    HW126468   2.068   2.301  12.308 -0.2016  0.4106 -0.5415
 4944SOL    HW226469   1.942   2.255  12.250  2.9371  2.6477 -1.4320
 4945SOL     OW26470   3.152   1.933   2.798 -1.0699  0.2140 -0.1146
 4945SOL    HW126471   3.109   1.968   2.876 -1.0833 -1.0876  0.4675
 4945SOL    HW226472   3.148   1.842   2.830 -0.7141  0.1530 -0.2397
 4946SOL     OW26473   0.230   3.970   7.236  0.2784  0.3835 -0.1237
 4946SOL    HW126474   0.316   3.975   7.193  0.9041  1.0632  1.2052
 4946SOL    HW226475   0.215   3.875   7.232  0.3518  0.4217 -1.3419
 4947SOL     OW26476   2.650   0.106  16.497 -0.2313 -0.1383  0.0756
 4947SOL    HW126477   2.633   0.073  16.408 -2.3609 -0.3048  0.5340
 4947SOL    HW226478   2.574   0.163  16.506  0.7574  1.0249  0.9995
 4948SOL     OW26479   3.461   4.234  11.139 -0.0119 -0.0554 -0.0801
 4948SOL    HW126480   3.467   4.320  11.099  0.6235  1.0711  2.4474
 4948SOL    HW226481   3.396   4.190  11.083  0.0766 -2.5406  1.7441
 4949SOL     OW26482   1.300   2.337   1.695  0.4985  0.0580  0.5080
 4949SOL    HW126483   1.369   2.401   1.705  0.7417 -0.2266  0.6419
 4949SOL    HW226484   1.341   2.261   1.653 -1.8372 -1.4824  0.9845
 4950SOL     OW26485   3.871   3.529   6.969  0.1027 -0.6917  0.0384
 4950SOL    HW126486   3.902   3.438   6.974  0.3505 -0.6431 -0.5883
 4950SOL    HW226487   3.848   3.539   7.061 -0.3115  0.3621 -0.1786
 4951SOL     OW26488   1.927   2.558  13.152  0.4357 -0.3186  0.5281
 4951SOL    HW126489   1.994   2.593  13.093  1.3030 -3.1710 -0.2089
 4951SOL    HW226490   1.977   2.545  13.233  0.6815 -0.9156  0.2831
 4952SOL     OW26491   4.553   0.489   2.582 -0.5683  0.7140  0.3982
 4952SOL    HW126492   4.600   0.461   2.661 -0.9112 -1.3378 -0.1334
 4952SOL    HW226493   4.468   0.445   2.592  0.6465 -1.7438 -0.0464
 4953SOL     OW26494   3.337   3.807   8.929 -0.0997  0.0314  0.1445
 4953SOL    HW126495   3.279   3.795   9.005 -1.3865 -0.3089 -0.8770
 4953SOL    HW226496   3.294   3.771   8.852  0.8840 -0.2499 -0.2677
 4954SOL     OW26497   1.254   2.515   9.122  0.3387 -0.0014  0.3211
 4954SOL    HW126498   1.179   2.566   9.093  0.9258 -0.4069 -1.9577
 4954SOL    HW226499   1.287   2.477   9.040  1.9480 -1.5342  1.6818
 4955SOL     OW26500   3.308   0.574  15.047 -0.4396 -0.0336 -0.0369
 4955SOL    HW126501   3.314   0.669  15.048 -0.5445 -0.0353  1.7660
 4955SOL    HW226502   3.321   0.544  15.137 -1.5155 -1.3952 -0.3410
 4956SOL     OW26503   4.165   2.145   5.501 -0.3463 -0.0750  0.3848
 4956SOL    HW126504   4.123   2.230   5.490 -2.1459 -1.0632 -0.4134
 4956SOL    HW226505   4.252   2.174   5.527  0.0736  0.2499 -1.3965
 4957SOL     OW26506   0.545   2.439   6.967 -0.1591  0.0891  0.7361
 4957SOL    HW126507   0.502   2.462   7.049  0.6862 -2.0022  1.7626
 4957SOL    HW226508   0.597   2.519   6.959 -0.7120  0.3531 -0.3043
 4958SOL     OW26509   0.520   2.017   2.112 -0.0374  0.5736 -0.2432
 4958SOL    HW126510   0.557   1.962   2.044  0.1652  0.4223 -0.0090
 4958SOL    HW226511   0.502   2.101   2.070  0.5818  1.0710  0.4849
 4959SOL     OW26512   2.325   2.838   5.230 -0.2894 -0.8177  0.0233
 4959SOL    HW126513   2.328   2.929   5.200 -1.0791 -0.6283  0.5079
 4959SOL    HW226514   2.278   2.796   5.157 -0.6726  1.8849 -1.2791
 4960SOL     OW26515   3.135   1.992  11.828  0.0055  0.0787  0.2782
 4960SOL    HW126516   3.061   2.030  11.875  0.3686  2.7704 -1.3054
 4960SOL    HW226517   3.123   1.898  11.840 -1.6769  0.3909  1.0894
 4961SOL     OW26518   1.839   3.834  14.481  0.0080  0.0536  0.1652
 4961SOL    HW126519   1.878   3.748  14.470 -1.5360 -0.7925  1.2241
 4961SOL    HW226520   1.915   3.873  14.523 -1.0266  2.2148  0.0228
 4962SOL     OW26521   0.920   0.669  15.335 -0.6269  0.6482  0.2296
 4962SOL    HW126522   0.862   0.610  15.287  1.8232 -2.7761  1.5098
 4962SOL    HW226523   1.003   0.671  15.286  0.4258 -0.1557  2.0147
 4963SOL     OW26524   3.656   3.657   3.188 -0.4060 -0.3719  0.4195
 4963SOL    HW126525   3.717   3.727   3.164  0.4571 -0.2804  2.8969
 4963SOL    HW226526   3.695   3.621   3.268  0.9255 -0.3419 -0.2036
 4964SOL     OW26527   3.996   1.988  13.246  0.3503  0.5312  0.6705
 4964SOL    HW126528   3.952   1.992  13.161 -0.1670  0.6130  0.9384
 4964SOL    HW226529   4.038   1.903  13.235  1.3913  1.0131  0.9609
 4965SOL     OW26530   2.146   2.232   9.602  0.3651  0.0520  0.1038
 4965SOL    HW126531   2.158   2.215   9.508 -1.7319 -0.0565 -0.1309
 4965SOL    HW226532   2.210   2.165   9.627  1.0084  0.3744 -0.6550
 4966SOL     OW26533   3.103   0.213  15.679 -1.0634 -0.0046 -0.2879
 4966SOL    HW126534   3.129   0.133  15.633 -1.1399 -0.8561  1.1477
 4966SOL    HW226535   3.051   0.175  15.750 -1.5273  2.0628  0.4756
 4967SOL     OW26536   4.520   0.884   9.115  0.6226  1.0780 -0.0909
 4967SOL    HW126537   4.592   0.866   9.177 -1.4365  1.0648  2.2913
 4967SOL    HW226538   4.456   0.827   9.159  1.8034  0.4164  0.7826
 4968SOL     OW26539   1.979   3.515   2.539  0.1973 -1.0196 -0.7529
 4968SOL    HW126540   1.987   3.532   2.445 -0.8779 -0.9604 -0.8289
 4968SOL    HW226541   1.885   3.520   2.554  0.5426  2.6713  0.2481
 4969SOL     OW26542   1.344   0.581   5.847 -0.5466 -0.2126 -0.2691
 4969SOL    HW126543   1.322   0.616   5.933 -1.1092 -2.3412  0.4544
 4969SOL    HW226544   1.261   0.537   5.829 -0.2692 -0.7285 -0.2845
 4970SOL     OW26545   0.017   0.570   5.145  0.1642 -0.2627 -0.3002
 4970SOL    HW126546   4.707   0.651   5.160 -0.5974 -0.8994  0.6574
 4970SOL    HW226547   0.014   0.566   5.050  0.4690 -2.2634 -0.2366
 4971SOL     OW26548   1.710   4.013   3.016 -0.2116 -0.4427  0.0621
 4971SOL    HW126549   1.747   4.045   3.098  0.5243  0.8017 -0.7502
 4971SOL    HW226550   1.628   4.062   3.016  0.1918  0.2296 -1.4081
 4972SOL     OW26551   4.410   2.596   6.233  0.5272  0.1801  0.4407
 4972SOL    HW126552   4.322   2.602   6.195  0.8758 -0.6950 -0.4987
 4972SOL    HW226553   4.428   2.502   6.233  2.7847  0.6265 -0.4094
 4973SOL     OW26554   2.088   1.076   9.608  0.1311 -0.4794 -0.0682
 4973SOL    HW126555   2.167   1.127   9.626  0.0206 -0.2623 -0.1943
 4973SOL    HW226556   2.051   1.145   9.553  0.6754  0.9220  1.3191
 4974SOL     OW26557   4.517   1.547   6.813  0.2800 -0.6001  1.0548
 4974SOL    HW126558   4.443   1.530   6.872 -1.2625  0.4448 -0.5601
 4974SOL    HW226559   4.508   1.642   6.820 -0.1406 -0.4962 -0.8233
 4975SOL     OW26560   4.665   2.865   1.908 -0.2347  0.0485 -0.1297
 4975SOL    HW126561   4.614   2.929   1.858  0.2511 -0.6057 -1.4531
 4975SOL    HW226562   4.592   2.838   1.965  0.4286 -0.8950  0.2854
 4976SOL     OW26563   1.608   4.396   6.632  0.1471  0.1886  0.0887
 4976SOL    HW126564   1.531   4.347   6.661  0.6445 -0.0401  1.0261
 4976SOL    HW226565   1.678   4.332   6.646  0.3771  0.3720 -0.2317
 4977SOL     OW26566   0.250   1.853  17.041 -0.0780  0.4209 -0.3184
 4977SOL    HW126567   0.183   1.891  17.097  0.4470 -1.5609  1.6139
 4977SOL    HW226568   0.303   1.810  17.108  1.7472 -0.5061 -2.3306
 4978SOL     OW26569   4.350   3.987   3.416 -0.1474 -0.3020 -0.4268
 4978SOL    HW126570   4.429   3.959   3.461 -0.9230 -1.0586  0.4741
 4978SOL    HW226571   4.384   4.071   3.387 -0.5350 -0.3678 -1.0895
 4979SOL     OW26572   1.477   3.125   6.082  0.4003  0.7003 -0.3170
 4979SOL    HW126573   1.468   3.199   6.143 -0.0021  1.5235 -1.3753
 4979SOL    HW226574   1.425   3.065   6.136 -1.9800  3.2999  0.3267
 4980SOL     OW26575   0.097   0.630   9.187  0.5155 -0.1437  0.2470
 4980SOL    HW126576   0.062   0.708   9.231 -1.0248 -1.5154  1.4354
 4980SOL    HW226577   0.174   0.666   9.144  0.2300  1.8028  1.3239
 4981SOL     OW26578   4.421   4.475  11.172  0.1085  0.1169 -0.0073
 4981SOL    HW126579   4.414   4.498  11.265  0.9236 -0.5371  0.2175
 4981SOL    HW226580   4.336   4.432  11.176  1.2797 -2.3773 -2.0021
 4982SOL     OW26581   1.209   4.044  10.222  0.1604 -0.3906 -0.3972
 4982SOL    HW126582   1.283   4.016  10.276  0.8431  1.4560 -0.4087
 4982SOL    HW226583   1.147   3.978  10.252  0.2891 -0.4154 -0.1883
 4983SOL     OW26584   2.575   1.346   2.429 -0.5076  0.4649 -0.0359
 4983SOL    HW126585   2.552   1.254   2.441  0.5831  0.0391 -1.1508
 4983SOL    HW226586   2.669   1.356   2.444 -0.3641 -0.2578 -0.4585
 4984SOL     OW26587   2.520   3.405   8.778  0.5045 -0.1318  0.0268
 4984SOL    HW126588   2.567   3.341   8.725 -0.9794 -0.8932 -0.3769
 4984SOL    HW226589   2.455   3.350   8.823  1.6923 -1.4061  0.2006
 4985SOL     OW26590   1.970   2.853  10.921 -0.2833 -0.0551  0.3770
 4985SOL    HW126591   2.063   2.874  10.929 -0.6394  1.8598 -0.4883
 4985SOL    HW226592   1.957   2.764  10.889  2.9985 -1.1233  2.0901
 4986SOL     OW26593   1.718   4.187  16.260  0.4543  0.0120 -0.3892
 4986SOL    HW126594   1.807   4.222  16.264  0.4756  0.0357 -1.0238
 4986SOL    HW226595   1.704   4.152  16.348 -0.6116 -0.3858 -0.7161
 4987SOL     OW26596   0.467   0.835   6.642  0.1332 -0.1391 -0.0612
 4987SOL    HW126597   0.501   0.916   6.606 -1.3241  0.9403  1.0212
 4987SOL    HW226598   0.422   0.874   6.717 -0.1944  2.8819 -1.8606
 4988SOL     OW26599   2.089   3.678   7.092  0.3488 -0.0670 -0.5913
 4988SOL    HW126600   2.015   3.712   7.141 -0.0320 -1.3187 -0.2832
 4988SOL    HW226601   2.125   3.752   7.043  1.5780 -0.7792 -0.7835
 4989SOL     OW26602   1.286   0.275   1.944 -0.0940 -0.5568 -0.6048
 4989SOL    HW126603   1.195   0.244   1.939  0.2238 -1.6366  0.1386
 4989SOL    HW226604   1.329   0.203   1.991  0.7177 -0.3582 -1.0438
 4990SOL     OW26605   3.745   1.648   1.739  0.0678  0.4266 -0.0764
 4990SOL    HW126606   3.649   1.645   1.744  0.0548  0.4625 -0.2734
 4990SOL    HW226607   3.776   1.631   1.828  0.7994  1.4469 -0.1316
 4991SOL     OW26608   4.191   1.554   2.948 -0.4264 -0.2588 -0.3249
 4991SOL    HW126609   4.254   1.621   2.973  0.9687 -1.4329 -0.7125
 4991SOL    HW226610   4.230   1.476   2.985 -1.7228 -1.3179 -1.1766
 4992SOL     OW26611   3.095   4.470   6.038  0.0323 -0.2082  0.6887
 4992SOL    HW126612   3.016   4.417   6.045 -1.2801  1.9046  1.8618
 4992SOL    HW226613   3.169   4.412   6.055  1.2133  0.7684 -1.1265
 4993SOL     OW26614   4.205   2.387   1.454 -0.2176 -0.4409  0.0965
 4993SOL    HW126615   4.111   2.387   1.438  0.1892 -1.2993 -2.2735
 4993SOL    HW226616   4.215   2.422   1.543 -0.0827  2.2088 -0.9680
 4994SOL     OW26617   0.191   2.948   2.333 -0.1591 -0.1980 -0.0930
 4994SOL    HW126618   0.245   3.013   2.287  1.8816 -2.9560 -1.5902
 4994SOL    HW226619   0.157   3.002   2.405  0.7430  3.5731 -2.4496
 4995SOL     OW26620   3.638   1.710   8.319 -0.1198 -0.2514 -0.0487
 4995SOL    HW126621   3.554   1.736   8.282  0.1160 -1.8203 -1.6870
 4995SOL    HW226622   3.642   1.616   8.299  1.8858  0.2111 -1.9030
 4996SOL     OW26623   3.022   1.801  14.102 -0.5392 -0.2364 -0.3639
 4996SOL    HW126624   3.103   1.851  14.097 -0.2983 -0.5530  0.4460
 4996SOL    HW226625   3.029   1.718  14.054 -3.3622 -0.2227 -0.7892
 4997SOL     OW26626   3.954   1.481   1.346  0.0123  0.3756 -0.6667
 4997SOL    HW126627   3.927   1.501   1.256 -0.2265  0.4647 -0.5723
 4997SOL    HW226628   4.018   1.410   1.333 -0.3029  0.2773 -1.7076
 4998SOL     OW26629   0.708   4.606   6.099 -0.6924 -0.2430 -0.0877
 4998SOL    HW126630   0.694   4.572   6.187 -1.7340 -0.8003 -0.4717
 4998SOL    HW226631   0.616   4.626   6.079 -0.6169 -1.6179 -1.7946
 4999SOL     OW26632   2.860   3.193  12.163  0.1228 -0.3021 -0.1215
 4999SOL    HW126633   2.938   3.211  12.216 -0.0252 -1.7727  0.5933
 4999SOL    HW226634   2.832   3.284  12.157 -1.5787 -0.7647  0.7712
 5000SOL     OW26635   4.326   2.591   4.535  0.2654  0.2318  0.0378
 5000SOL    HW126636   4.329   2.515   4.478 -0.3583 -0.0967  0.4453
 5000SOL    HW226637   4.416   2.625   4.536 -0.1566  1.3679  0.2565
 5001SOL     OW26638   3.611   4.668   7.822 -0.9259 -0.3507 -0.1508
 5001SOL    HW126639   3.556   4.612   7.876 -0.8203 -0.0956  0.2201
 5001SOL    HW226640   3.684   4.608   7.807  0.6830  1.1615  1.6864
 5002SOL     OW26641   3.397   1.608   2.937  0.5920 -0.0869  0.1628
 5002SOL    HW126642   3.412   1.540   3.003  0.8822  0.1061  0.2960
 5002SOL    HW226643   3.472   1.667   2.932  0.4552 -0.0400 -1.2889
 5003SOL     OW26644   0.063   1.578   8.432 -0.3256  0.2017  0.4488
 5003SOL    HW126645   0.034   1.663   8.400 -0.3201  0.2825  0.6595
 5003SOL    HW226646   4.721   1.528   8.418  1.6410 -2.7165 -0.5885
 5004SOL     OW26647   1.979   0.390   7.216 -0.8876  0.0620  0.1017
 5004SOL    HW126648   1.937   0.354   7.294  0.8648 -1.6458  0.2339
 5004SOL    HW226649   1.910   0.450   7.186 -1.5069  0.2840  1.9503
 5005SOL     OW26650   1.298   3.270   9.185  0.4994  0.4010 -0.3845
 5005SOL    HW126651   1.350   3.334   9.137  1.0064  0.7319  0.6117
 5005SOL    HW226652   1.250   3.230   9.112  1.1783 -0.6823 -0.2418
 5006SOL     OW26653   0.416   3.624   6.124  0.3360  0.0290  0.1845
 5006SOL    HW126654   0.491   3.569   6.145  0.6448  0.7020  0.8701
 5006SOL    HW226655   0.363   3.579   6.058 -0.7890  0.2444  0.9441
 5007SOL     OW26656   0.101   1.490   9.372  0.0571  0.2555  0.2206
 5007SOL    HW126657   0.163   1.563   9.379  1.2599 -0.6447 -1.0848
 5007SOL    HW226658   0.018   1.538   9.366  0.6766  1.4323  0.9778
 5008SOL     OW26659   0.749   4.182   4.068  0.3961 -0.1401 -0.1374
 5008SOL    HW126660   0.735   4.157   4.159 -1.2284  0.2108 -0.2909
 5008SOL    HW226661   0.707   4.267   4.081  1.7608  0.7821 -1.5978
 5009SOL     OW26662   1.766   4.607   2.344  0.6152 -0.0679 -0.3664
 5009SOL    HW126663   1.736   4.532   2.397  2.1932 -0.3480  0.1271
 5009SOL    HW226664   1.754   4.574   2.255  1.6802 -0.1592 -0.4718
 5010SOL     OW26665   1.412   2.727   2.239 -0.7438  0.2303  0.1452
 5010SOL    HW126666   1.335   2.671   2.225 -0.7764 -0.0089  1.2782
 5010SOL    HW226667   1.382   2.776   2.316 -3.1871  1.0827 -1.3468
 5011SOL     OW26668   0.027   2.243   3.648  0.5885 -0.6172 -0.1195
 5011SOL    HW126669   0.023   2.156   3.687  0.5824 -1.0408 -1.0654
 5011SOL    HW226670   4.675   2.242   3.619  0.6432  1.3389 -0.3689
 5012SOL     OW26671   2.162   2.461  10.772  0.7224  0.6173  0.4653
 5012SOL    HW126672   2.236   2.438  10.715  1.0104  0.4148  0.9191
 5012SOL    HW226673   2.095   2.420  10.718  1.2404  3.9563 -2.7418
 5013SOL     OW26674   1.386   4.309  15.642 -0.1310  0.2143 -0.5412
 5013SOL    HW126675   1.467   4.342  15.604  1.0767 -0.2423  1.6416
 5013SOL    HW226676   1.401   4.339  15.731  0.9909  0.1199 -0.6948
 5014SOL     OW26677   2.392   3.383  13.222  0.2179 -0.2918  0.0666
 5014SOL    HW126678   2.428   3.296  13.241  0.2036  0.0530  1.7295
 5014SOL    HW226679   2.304   3.361  13.192  0.7066  0.2895 -1.7853
 5015SOL     OW26680   1.223   1.371   4.016  0.0644 -0.3246  0.0349
 5015SOL    HW126681   1.170   1.403   4.088 -0.6352  0.7442 -0.9546
 5015SOL    HW226682   1.162   1.326   3.958 -0.4116  0.5781 -0.1507
 5016SOL     OW26683   4.037   4.111   5.953  0.3315  0.4781  0.2126
 5016SOL    HW126684   3.969   4.177   5.964  0.7704  0.6703  1.6562
 5016SOL    HW226685   4.072   4.110   6.042  2.2423  0.6571 -0.5394
 5017SOL     OW26686   2.616   3.919   3.986  0.2615 -0.0161  0.1009
 5017SOL    HW126687   2.570   3.978   4.046 -0.0572 -0.2120  0.0481
 5017SOL    HW226688   2.554   3.854   3.954 -1.0716  1.2303  0.1927
 5018SOL     OW26689   1.215   3.347   6.612 -0.1752  0.0170  0.3655
 5018SOL    HW126690   1.285   3.358   6.548  0.8486  2.1213  1.8645
 5018SOL    HW226691   1.235   3.416   6.675  1.5527 -1.8630  1.9025
 5019SOL     OW26692   1.849   1.993   1.667 -0.0662  0.4174 -0.1584
 5019SOL    HW126693   1.940   2.002   1.694 -0.0981 -1.3466  0.5055
 5019SOL    HW226694   1.819   1.927   1.730 -0.7045  1.4284  0.6073
 5020SOL     OW26695   4.469   2.495   7.922  0.1689 -0.1559  0.3105
 5020SOL    HW126696   4.384   2.522   7.957 -1.7359 -2.2541 -2.6639
 5020SOL    HW226697   4.494   2.560   7.856  1.1888  0.5349  1.3991
 5021SOL     OW26698   3.782   1.126   4.811 -0.6228 -0.0649  0.1864
 5021SOL    HW126699   3.846   1.133   4.882  1.2710  0.9481 -1.6117
 5021SOL    HW226700   3.758   1.216   4.790  1.2473  0.9221  2.2724
 5022SOL     OW26701   4.513   1.901   3.848 -0.2915  0.0224 -0.1355
 5022SOL    HW126702   4.481   1.950   3.924  1.0837  0.5552  0.1009
 5022SOL    HW226703   4.531   1.815   3.885  0.5089  0.1242 -0.3045
 5023SOL     OW26704   0.691   0.783  16.631 -0.4540 -0.4400  0.4177
 5023SOL    HW126705   0.769   0.808  16.583 -0.7998 -0.1379  0.0103
 5023SOL    HW226706   0.688   0.693  16.599  0.0659 -0.3035 -0.0144
 5024SOL     OW26707   1.533   1.585  14.830 -0.2634 -0.2436 -0.0733
 5024SOL    HW126708   1.566   1.552  14.914  1.0603  0.5666 -0.2663
 5024SOL    HW226709   1.580   1.532  14.765  1.0631  0.1694  0.5370
 5025SOL     OW26710   0.513   4.580   8.108  0.1901 -0.0861  0.3415
 5025SOL    HW126711   0.603   4.581   8.142  1.2362  1.6900 -2.5222
 5025SOL    HW226712   0.506   4.659   8.055  1.9462 -0.1413  0.0140
 5026SOL     OW26713   4.686   3.912  11.378  0.7462  0.8091  0.3964
 5026SOL    HW126714   4.598   3.873  11.371  1.6264 -1.1198  0.1267
 5026SOL    HW226715   4.662   3.990  11.427 -1.2072 -0.0848  0.9127
 5027SOL     OW26716   0.824   3.609   2.935  0.2141 -0.2988  0.0284
 5027SOL    HW126717   0.856   3.624   3.024 -0.1446  0.9298 -0.0522
 5027SOL    HW226718   0.729   3.623   2.939 -0.2912 -3.6403 -0.4454
 5028SOL     OW26719   1.059   4.321   7.207 -0.9602 -0.1052  0.4622
 5028SOL    HW126720   1.077   4.240   7.160  0.0511 -0.5628  1.6434
 5028SOL    HW226721   0.964   4.313   7.213 -1.0659  0.5468 -0.2065
 5029SOL     OW26722   4.546   4.393  15.026 -0.3116  0.2562 -0.3860
 5029SOL    HW126723   4.641   4.404  15.022 -0.1042 -1.3791  0.2123
 5029SOL    HW226724   4.545   4.299  15.043 -0.1727  0.1293 -1.0969
 5030SOL     OW26725   4.263   0.405   3.820  0.2241  0.2422  0.6411
 5030SOL    HW126726   4.217   0.488   3.836  1.4466  1.3258 -1.4679
 5030SOL    HW226727   4.351   0.439   3.833  0.0539  0.1239  2.1310
 5031SOL     OW26728   2.336   2.400   3.810 -0.0580 -0.3107  0.8117
 5031SOL    HW126729   2.387   2.478   3.832  0.2743 -0.4316  0.4742
 5031SOL    HW226730   2.286   2.427   3.733  1.2577  1.7130  0.6498
 5032SOL     OW26731   1.919   3.326   2.907 -0.0071 -0.3359  0.1064
 5032SOL    HW126732   1.888   3.343   2.818 -1.0747  0.6316  0.6629
 5032SOL    HW226733   1.983   3.256   2.897 -2.3477 -2.4038 -0.4952
 5033SOL     OW26734   2.586   3.177   9.414 -0.0152  0.0706  0.1096
 5033SOL    HW126735   2.572   3.128   9.333 -0.0894 -1.2167  0.9024
 5033SOL    HW226736   2.599   3.103   9.474 -0.6080  1.6564  2.2032
 5034SOL     OW26737   1.196   2.122   2.785 -0.3324  0.3285 -0.6393
 5034SOL    HW126738   1.126   2.142   2.722  0.9291  1.5664 -1.6352
 5034SOL    HW226739   1.256   2.196   2.780  1.7172 -1.2091  1.3090
 5035SOL     OW26740   1.460   1.793   2.296  0.5509  0.3568  0.5886
 5035SOL    HW126741   1.392   1.798   2.230  2.0877  0.1225 -1.0061
 5035SOL    HW226742   1.413   1.823   2.374  1.6967 -0.3636  1.5670
 5036SOL     OW26743   0.120   2.480   9.000 -0.1314 -0.8959  0.4170
 5036SOL    HW126744   0.153   2.395   8.971 -0.0111 -1.2260  1.4988
 5036SOL    HW226745   0.187   2.515   9.060 -1.2181  1.9518 -0.0399
 5037SOL     OW26746   2.982   4.122   2.826 -0.5510  0.0334  0.1444
 5037SOL    HW126747   2.932   4.088   2.751  2.6011 -1.1849 -1.4110
 5037SOL    HW226748   3.060   4.067   2.819  0.3950  1.2565  1.1117
 5038SOL     OW26749   1.144   0.442   9.840  0.1463 -0.1124 -0.2750
 5038SOL    HW126750   1.147   0.463   9.934 -3.2000  0.5707 -0.3004
 5038SOL    HW226751   1.190   0.511   9.794  1.2633 -0.0033  0.9993
 5039SOL     OW26752   0.817   1.946   9.380  0.1753 -0.0014 -0.2550
 5039SOL    HW126753   0.809   1.864   9.428  0.3698 -0.3378 -0.7904
 5039SOL    HW226754   0.912   1.958   9.371  0.2052  1.2614  1.7975
 5040SOL     OW26755   0.043   3.637   7.676 -0.0368  0.7461 -0.3624
 5040SOL    HW126756   0.074   3.695   7.607  0.9946 -0.3650 -0.8199
 5040SOL    HW226757   4.729   3.581   7.619 -0.5951 -0.3851  1.2694
 5041SOL     OW26758   4.544   3.222   3.884 -0.2924 -0.3964 -0.0402
 5041SOL    HW126759   4.557   3.312   3.857  3.2842 -0.6595  0.7648
 5041SOL    HW226760   4.565   3.166   3.809  0.1705  0.3604 -0.4716
 5042SOL     OW26761   0.512   3.670   3.739  0.4246  0.3053 -0.5171
 5042SOL    HW126762   0.493   3.580   3.766 -1.2420  0.4953 -1.0931
 5042SOL    HW226763   0.587   3.707   3.785  0.4740  1.0617 -1.2043
 5043SOL     OW26764   2.299   0.952  12.118  0.5465  0.4169  0.1271
 5043SOL    HW126765   2.374   1.004  12.090  0.1682  0.4973 -0.7135
 5043SOL    HW226766   2.335   0.864  12.130 -0.9316  0.1793  2.8610
 5044SOL     OW26767   1.593   0.454   3.573 -0.4066 -0.4550 -0.0500
 5044SOL    HW126768   1.660   0.468   3.640  0.9945  1.9999 -1.9641
 5044SOL    HW226769   1.610   0.529   3.516  0.8386 -0.4940  0.2583
 5045SOL     OW26770   4.186   1.922  11.746 -0.0878  0.1151  0.4139
 5045SOL    HW126771   4.199   1.980  11.821  1.5673  3.9905 -2.8716
 5045SOL    HW226772   4.272   1.882  11.752 -0.6844 -1.0112  1.5202
 5046SOL     OW26773   3.935   4.725   4.741 -0.2779  0.3379  0.5796
 5046SOL    HW126774   3.988   4.662   4.692 -0.4676 -1.5660  2.8163
 5046SOL    HW226775   3.900   0.039   4.669 -1.1398 -1.5448 -0.3662
 5047SOL     OW26776   0.163   0.684  12.648  0.3139  0.2367  0.0298
 5047SOL    HW126777   0.070   0.668  12.665 -0.4692  2.4261 -2.1913
 5047SOL    HW226778   0.192   0.668  12.738  0.1090 -0.8850 -0.1084
 5048SOL     OW26779   1.969   1.165   5.505  0.2039  0.3398 -0.1471
 5048SOL    HW126780   1.927   1.179   5.590  1.2604 -0.7610  0.5561
 5048SOL    HW226781   2.042   1.227   5.508  0.0180  0.5550 -0.0694
 5049SOL     OW26782   2.631   1.882   6.883 -0.0899 -0.3098 -0.4175
 5049SOL    HW126783   2.592   1.951   6.828  0.5342  1.4806  1.3990
 5049SOL    HW226784   2.568   1.813   6.860 -0.6132 -0.3804  1.2121
 5050SOL     OW26785   2.061   2.609  11.919  0.0047 -0.0771  0.0301
 5050SOL    HW126786   2.092   2.603  11.829  1.3305  0.2521  0.4561
 5050SOL    HW226787   2.071   2.516  11.941 -1.0417  0.2542  1.9452
 5051SOL     OW26788   1.275   2.971   7.134  0.3437 -0.2942 -0.6556
 5051SOL    HW126789   1.367   2.999   7.128  1.1169 -2.6009  0.4001
 5051SOL    HW226790   1.257   2.915   7.059  3.7176 -0.3069 -1.4855
 5052SOL     OW26791   3.006   3.900  14.713 -0.0452 -0.0164  0.0192
 5052SOL    HW126792   2.985   3.900  14.619  3.7448  0.8859 -0.8043
 5052SOL    HW226793   3.059   3.820  14.719 -1.8074 -1.0683  1.6184
 5053SOL     OW26794   3.084   3.167   4.772  0.1626  0.3326  0.5076
 5053SOL    HW126795   3.092   3.168   4.677 -0.4461 -1.3400  0.4311
 5053SOL    HW226796   2.990   3.148   4.771 -0.6658  4.5213  0.1696
 5054SOL     OW26797   0.830   3.740   2.326  0.4305  0.3477 -0.4783
 5054SOL    HW126798   0.880   3.681   2.383 -0.8509 -0.8557 -0.5669
 5054SOL    HW226799   0.837   3.709   2.236 -0.5146 -2.1238  0.2927
 5055SOL     OW26800   2.202   1.692   7.442 -0.0343  0.4782  0.0002
 5055SOL    HW126801   2.222   1.781   7.410 -0.3062 -1.0727 -4.5265
 5055SOL    HW226802   2.172   1.712   7.530 -1.4220 -0.7019 -0.2081
 5056SOL     OW26803   0.994   4.599   9.204 -0.3021  0.0026  0.2666
 5056SOL    HW126804   0.953   4.680   9.236 -0.1952  0.1234  0.1015
 5056SOL    HW226805   0.918   4.545   9.183  0.1649 -0.5168 -0.0914
 5057SOL     OW26806   4.679   0.641   3.606 -0.3141  0.5594  0.0588
 5057SOL    HW126807   0.030   0.659   3.635 -0.6397 -1.9992  2.5243
 5057SOL    HW226808   4.686   0.644   3.510  1.7049 -2.0402  0.1130
 5058SOL     OW26809   1.644   0.545   9.157 -0.2817 -0.0980 -0.1564
 5058SOL    HW126810   1.691   0.494   9.091 -1.9174 -2.3247  0.4003
 5058SOL    HW226811   1.710   0.557   9.226 -1.7784  0.3440  1.1979
 5059SOL     OW26812   1.366   1.642   9.595  0.4987 -0.1722  0.1252
 5059SOL    HW126813   1.428   1.577   9.563  0.4538 -0.3736  0.4494
 5059SOL    HW226814   1.365   1.705   9.523  1.1985 -1.3816 -0.9443
 5060SOL     OW26815   4.501   3.088   1.838 -0.5752 -0.6590  0.0724
 5060SOL    HW126816   4.497   3.167   1.893  1.6343 -0.5069  0.0457
 5060SOL    HW226817   4.470   3.124   1.756 -0.6261  0.2550  0.4888
 5061SOL     OW26818   3.423   1.894   8.202  0.3452  0.1967 -0.1216
 5061SOL    HW126819   3.442   1.938   8.285 -0.4522  0.1911  0.0654
 5061SOL    HW226820   3.450   1.955   8.133 -1.0302 -1.0169 -1.7130
 5062SOL     OW26821   3.736   4.457  16.050 -0.3084  0.2019  0.7869
 5062SOL    HW126822   3.793   4.533  16.061 -0.5264  0.2558  1.5484
 5062SOL    HW226823   3.758   4.424  15.963  0.7019  4.7051 -0.6611
 5063SOL     OW26824   0.872   3.356   7.440  0.1047 -0.0179  0.2352
 5063SOL    HW126825   0.825   3.368   7.522  0.9678 -1.1674  0.9050
 5063SOL    HW226826   0.878   3.261   7.431 -0.3917  0.0127 -0.3929
 5064SOL     OW26827   2.098   3.914   5.020  0.1464 -0.1945  0.1841
 5064SOL    HW126828   2.140   3.873   5.096  1.1773 -1.2480 -0.9672
 5064SOL    HW226829   2.011   3.877   5.011  0.1884 -0.1280 -0.4747
 5065SOL     OW26830   3.447   1.356   4.217  0.0636 -0.6511  0.2806
 5065SOL    HW126831   3.423   1.449   4.217 -1.3066 -1.0064  1.3779
 5065SOL    HW226832   3.527   1.343   4.268 -0.5843  1.6144  1.8760
 5066SOL     OW26833   3.277   2.203  10.365 -0.1606 -0.0490 -0.5180
 5066SOL    HW126834   3.355   2.167  10.321  1.3457  1.2161  1.1463
 5066SOL    HW226835   3.317   2.223  10.449 -0.1749  3.2373 -1.3066
 5067SOL     OW26836   2.773   0.718   4.711  0.2059  0.1153  0.3139
 5067SOL    HW126837   2.825   0.691   4.636 -0.1986  1.1911 -0.3489
 5067SOL    HW226838   2.831   0.700   4.785  2.9989  1.1157 -1.6297
 5068SOL     OW26839   0.537   3.610   6.858  0.0919 -0.2872 -0.4321
 5068SOL    HW126840   0.533   3.705   6.844  1.2214 -0.2401 -0.4339
 5068SOL    HW226841   0.502   3.606   6.769 -0.1898 -2.9997 -0.1896
 5069SOL     OW26842   3.923   0.490   3.791  0.3272  0.0492 -0.4909
 5069SOL    HW126843   3.961   0.508   3.877  0.9090 -1.0788 -0.5078
 5069SOL    HW226844   3.962   0.554   3.731  0.3524 -0.6851 -1.2532
 5070SOL     OW26845   3.969   0.521   4.089  0.0334 -0.0208 -0.6243
 5070SOL    HW126846   3.892   0.481   4.129 -0.7977  0.3046 -1.9010
 5070SOL    HW226847   4.032   0.452   4.110  0.8958  1.0310  0.2444
 5071SOL     OW26848   3.167   3.237   3.329  0.4338 -0.1142 -0.0996
 5071SOL    HW126849   3.187   3.247   3.422 -2.5451  0.3926  0.4596
 5071SOL    HW226850   3.072   3.239   3.328  0.4228 -1.1789 -0.9344
 5072SOL     OW26851   0.852   3.191   5.005  0.6251 -0.0201  0.0232
 5072SOL    HW126852   0.816   3.138   4.935 -0.0436  0.7481 -0.2154
 5072SOL    HW226853   0.912   3.239   4.949  1.0736 -0.8703 -0.2190
 5073SOL     OW26854   1.704   0.972   8.508 -0.1551 -0.1578 -0.1151
 5073SOL    HW126855   1.729   1.065   8.512 -0.8742 -0.0039  0.9116
 5073SOL    HW226856   1.738   0.947   8.594 -0.5280 -1.9999 -0.5198
 5074SOL     OW26857   3.621   0.223   3.864  0.1763  0.2068  0.4657
 5074SOL    HW126858   3.675   0.148   3.839  2.3288  1.9959 -0.3973
 5074SOL    HW226859   3.543   0.226   3.808  0.5023 -0.4853 -0.0243
 5075SOL     OW26860   2.784   1.784  11.902 -0.4920  0.5046 -0.7013
 5075SOL    HW126861   2.776   1.862  11.847 -0.3029 -0.0739 -1.5536
 5075SOL    HW226862   2.858   1.738  11.862  0.7816  2.3584 -0.4368
 5076SOL     OW26863   0.785   3.252   4.092 -0.6183 -0.4626  0.3966
 5076SOL    HW126864   0.785   3.270   3.998 -2.0420  2.1241  0.8892
 5076SOL    HW226865   0.839   3.174   4.103 -0.4317 -0.5447 -1.2028
 5077SOL     OW26866   1.909   4.069   8.292  0.2873  0.2448  0.3914
 5077SOL    HW126867   1.917   3.974   8.292 -2.2612  0.0182  1.0541
 5077SOL    HW226868   1.833   4.087   8.349  0.3024 -1.2703  0.8843
 5078SOL     OW26869   2.877   3.374  16.928  0.2941 -0.0094 -0.4467
 5078SOL    HW126870   2.930   3.445  16.892 -1.1777  1.2460 -0.1378
 5078SOL    HW226871   2.817   3.427  16.980 -1.3793 -2.6200  0.2989
 5079SOL     OW26872   1.149   1.453  16.029 -0.0144 -0.1306  0.2753
 5079SOL    HW126873   1.128   1.381  16.088  0.7463 -0.1324  0.5467
 5079SOL    HW226874   1.181   1.411  15.949 -0.7446  2.5019 -1.4027
 5080SOL     OW26875   1.964   1.046   4.154 -0.4360  0.1307  0.0131
 5080SOL    HW126876   1.930   1.102   4.085 -1.6508  1.3307  1.5674
 5080SOL    HW226877   1.969   0.961   4.110 -0.3162  0.0610  0.1595
 5081SOL     OW26878   3.470   2.068   4.219  0.2441  0.5227  0.2484
 5081SOL    HW126879   3.443   1.979   4.196 -1.4738  1.4819 -1.3449
 5081SOL    HW226880   3.409   2.090   4.290 -2.4991 -2.7393 -1.0772
 5082SOL     OW26881   3.764   3.545   6.724  0.0491 -0.4541  0.1028
 5082SOL    HW126882   3.807   3.499   6.652 -2.5107 -0.2488 -1.5758
 5082SOL    HW226883   3.831   3.534   6.791  1.3478  4.3702 -0.4229
 5083SOL     OW26884   3.763   0.086  12.676 -0.2203  0.2907 -0.5084
 5083SOL    HW126885   3.712   0.004  12.677 -0.0818  0.2182  2.1308
 5083SOL    HW226886   3.839   0.060  12.624  1.7847  0.9808  2.0908
 5084SOL     OW26887   4.572   2.013  12.523 -0.6310  0.2581 -0.2026
 5084SOL    HW126888   4.592   2.061  12.443  1.4919  0.2121  0.2911
 5084SOL    HW226889   4.554   1.928  12.483  0.8969 -0.4479  0.6069
 5085SOL     OW26890   1.060   1.514   4.221 -0.4916  0.0715 -0.2038
 5085SOL    HW126891   1.070   1.608   4.235  1.6804  0.1981 -2.5078
 5085SOL    HW226892   1.007   1.488   4.296  0.7085  1.4943  1.1144
 5086SOL     OW26893   3.775   0.338   2.935 -0.6615  0.1241 -0.1250
 5086SOL    HW126894   3.731   0.254   2.922 -0.6924  0.5133 -2.5063
 5086SOL    HW226895   3.853   0.306   2.980 -1.4599 -0.3149  0.9570
 5087SOL     OW26896   1.336   4.265  12.237 -0.4052 -0.1762  0.5359
 5087SOL    HW126897   1.421   4.233  12.206 -1.3392  0.6117 -2.8095
 5087SOL    HW226898   1.331   4.345  12.185  0.1964 -0.8171 -0.5058
 5088SOL     OW26899   4.165   4.145   0.450  0.3446  0.0652  0.1363
 5088SOL    HW126900   4.245   4.190   0.426  2.0357 -2.0441  1.8223
 5088SOL    HW226901   4.160   4.088   0.374  0.1925  1.7137 -1.0934
 5089SOL     OW26902   2.126   0.966  15.582 -0.0236 -0.3991  0.8627
 5089SOL    HW126903   2.057   0.904  15.558  2.0955 -1.4969 -2.2962
 5089SOL    HW226904   2.083   1.052  15.592  1.3371  0.3264  0.4954
 5090SOL     OW26905   0.021   0.692  10.972  0.2861  0.7286  0.4733
 5090SOL    HW126906   0.058   0.675  11.059  0.1102  2.7447  0.9418
 5090SOL    HW226907   4.728   0.780  10.994 -2.5063 -0.2135  0.1409
 5091SOL     OW26908   0.708   3.781   3.929  0.0065  0.0056  0.3243
 5091SOL    HW126909   0.739   3.698   3.967  2.4363 -0.1548 -1.9891
 5091SOL    HW226910   0.790   3.805   3.886  0.1774  0.1938  0.7559
 5092SOL     OW26911   2.288   4.464   5.454  0.2625 -0.1822 -0.2967
 5092SOL    HW126912   2.372   4.509   5.457 -0.7267  1.6803 -0.5074
 5092SOL    HW226913   2.318   4.384   5.497  0.3983  1.9374  3.5537
 5093SOL     OW26914   1.102   4.258   8.461  0.0389 -0.1396 -0.7021
 5093SOL    HW126915   1.044   4.202   8.410  0.3484 -1.1366  0.0465
 5093SOL    HW226916   1.157   4.288   8.389  1.8988  0.3653  0.9353
 5094SOL     OW26917   3.560   4.340   7.405  0.2002 -0.1193  1.0575
 5094SOL    HW126918   3.595   4.255   7.432  0.0583 -1.2527 -2.3217
 5094SOL    HW226919   3.481   4.352   7.459 -0.7837 -0.5588 -0.2729
 5095SOL     OW26920   3.432   3.344   5.872 -0.2420  0.5809 -0.5120
 5095SOL    HW126921   3.346   3.323   5.837 -0.2017  0.8042 -0.7467
 5095SOL    HW226922   3.493   3.276   5.843  2.2572  2.3379  0.5538
 5096SOL     OW26923   0.275   2.214   9.021 -0.4138 -0.6297 -0.1622
 5096SOL    HW126924   0.269   2.122   9.045 -0.1944 -0.4345  0.6123
 5096SOL    HW226925   0.271   2.220   8.925  1.2633  0.0234 -0.1927
 5097SOL     OW26926   2.103   1.807   6.450 -0.4767 -0.5530  0.4169
 5097SOL    HW126927   2.042   1.864   6.496  2.3291  0.6019  2.7492
 5097SOL    HW226928   2.109   1.738   6.516 -0.3486 -0.6585  0.2953
 5098SOL     OW26929   0.292   0.193   3.361  0.0823 -0.2000 -0.4528
 5098SOL    HW126930   0.199   0.213   3.353  0.2235  0.7575  0.2668
 5098SOL    HW226931   0.300   0.098   3.364 -1.6252 -0.2572  2.9554
 5099SOL     OW26932   2.926   3.910  17.518 -0.4954 -0.2503  0.2467
 5099SOL    HW126933   2.956   3.922  17.608 -0.1925 -0.4002  0.1622
 5099SOL    HW226934   2.892   3.820  17.517  0.0680 -0.4771  1.4483
 5100SOL     OW26935   2.991   3.112   5.704  0.1163 -0.0140 -0.1406
 5100SOL    HW126936   3.081   3.129   5.676  0.1252 -1.2203 -0.8389
 5100SOL    HW226937   3.006   3.087   5.795  0.5608 -2.0302 -0.7845
 5101SOL     OW26938   2.100   0.847   8.237  0.4409 -0.1834  0.4571
 5101SOL    HW126939   2.107   0.942   8.241  0.7669 -0.2490  1.5649
 5101SOL    HW226940   2.006   0.838   8.252  0.2218 -0.6528 -1.1608
 5102SOL     OW26941   2.454   0.410   8.062 -0.0734 -0.1178 -0.5190
 5102SOL    HW126942   2.454   0.498   8.026  0.6523 -0.2055 -0.7309
 5102SOL    HW226943   2.424   0.428   8.151 -0.5230  2.7531 -1.2457
 5103SOL     OW26944   3.487   3.758   2.540 -0.0553  0.7052 -0.5692
 5103SOL    HW126945   3.474   3.675   2.493  0.3269  1.1887 -1.5311
 5103SOL    HW226946   3.443   3.815   2.477  2.0504  1.0773 -1.7078
 5104SOL     OW26947   1.574   2.278   7.269 -0.4222  0.2527  0.9461
 5104SOL    HW126948   1.496   2.304   7.220 -2.4890 -1.0504  3.5375
 5104SOL    HW226949   1.604   2.353   7.320  2.6164  0.0197 -0.5341
 5105SOL     OW26950   4.263   0.610   1.918  0.0817  0.3267 -0.0776
 5105SOL    HW126951   4.273   0.629   2.011  2.4886 -1.2370  0.0006
 5105SOL    HW226952   4.188   0.552   1.926  1.8240 -1.6677  1.9725
 5106SOL     OW26953   1.196   4.350  13.995 -0.1034 -0.0601  0.4869
 5106SOL    HW126954   1.205   4.284  14.063  0.5041 -0.2056  0.2690
 5106SOL    HW226955   1.262   4.411  14.029  0.9802 -0.5550 -0.7328
 5107SOL     OW26956   1.768   0.070   4.289 -0.0266 -0.6429 -0.0175
 5107SOL    HW126957   1.852   0.116   4.297 -0.4945  0.1087  0.4982
 5107SOL    HW226958   1.777   0.018   4.209 -0.9749  2.3443 -2.0452
 5108SOL     OW26959   4.074   2.153   8.793 -0.0079 -0.0938 -0.4144
 5108SOL    HW126960   4.098   2.246   8.784  1.9474 -0.5609 -0.1040
 5108SOL    HW226961   4.091   2.130   8.702 -1.1306 -0.7077 -0.4694
 5109SOL     OW26962   1.952   4.605   2.716  0.2455  0.4073  0.2850
 5109SOL    HW126963   1.934   4.599   2.809 -2.7185 -0.0586 -0.3348
 5109SOL    HW226964   2.009   4.682   2.714  0.2735  0.4048  1.0382
 5110SOL     OW26965   2.163   3.364   8.438 -0.2630 -0.1102 -0.3841
 5110SOL    HW126966   2.177   3.314   8.519  0.4922  1.1907  0.2789
 5110SOL    HW226967   2.098   3.303   8.403  1.2385 -1.3703 -0.9867
 5111SOL     OW26968   4.625   3.996   1.987 -0.3855  0.0274  0.1565
 5111SOL    HW126969   4.625   3.997   2.082 -1.3374 -0.1320  0.1580
 5111SOL    HW226970   4.683   4.070   1.972 -0.0502 -0.2087  0.2792
 5112SOL     OW26971   3.801   2.413  11.883 -0.5664  0.0023  0.2301
 5112SOL    HW126972   3.750   2.491  11.861 -0.5209 -0.9049 -3.1009
 5112SOL    HW226973   3.871   2.423  11.819  0.0029  0.2984  0.8978
 5113SOL     OW26974   0.931   4.347  15.638  0.2880 -0.2065  0.6069
 5113SOL    HW126975   0.923   4.401  15.717 -0.2266 -0.3377  0.6450
 5113SOL    HW226976   1.026   4.331  15.636  0.4572  0.9198 -0.2648
 5114SOL     OW26977   3.232   3.333  16.838 -0.4739  0.3037 -0.3234
 5114SOL    HW126978   3.264   3.396  16.773  0.4111  2.0259  1.8004
 5114SOL    HW226979   3.191   3.390  16.903  0.7173 -0.1148  0.7789
 5115SOL     OW26980   2.034   0.428  10.657  0.4091  0.0502 -0.3846
 5115SOL    HW126981   2.058   0.520  10.639  0.1668 -0.0229 -1.1041
 5115SOL    HW226982   1.975   0.434  10.732  1.0258 -2.4777  0.2844
 5116SOL     OW26983   0.585   3.504   4.710 -0.1302 -0.3413 -0.0570
 5116SOL    HW126984   0.660   3.535   4.658 -0.9386 -0.8736 -1.5133
 5116SOL    HW226985   0.588   3.411   4.689  0.3019 -0.2210 -0.5113
 5117SOL     OW26986   3.164   0.504  13.478  0.1322 -0.0651  0.6660
 5117SOL    HW126987   3.071   0.483  13.488  0.3374 -0.5073  1.6375
 5117SOL    HW226988   3.169   0.578  13.418 -1.1779  0.1193  0.7707
 5118SOL     OW26989   0.126   2.268  13.807  0.5731 -0.1257 -0.0511
 5118SOL    HW126990   0.125   2.174  13.793 -1.7351  0.3318 -3.0777
 5118SOL    HW226991   0.126   2.265  13.902  0.6387  1.8489  0.0180
 5119SOL     OW26992   0.554   2.203   2.921  0.2874 -0.8643  0.2107
 5119SOL    HW126993   0.580   2.124   2.968  1.1849 -0.8784 -0.3165
 5119SOL    HW226994   0.534   2.252   3.001 -0.9456 -2.1127  0.6846
 5120SOL     OW26995   2.109   0.088   8.760  0.4670  0.0938 -0.9931
 5120SOL    HW126996   2.108   0.142   8.839 -0.2860 -0.4190 -0.6532
 5120SOL    HW226997   2.109   0.159   8.695 -1.4371  2.0894  1.1966
 5121SOL     OW26998   2.314   1.862   3.957  0.6779 -0.1595 -0.0482
 5121SOL    HW126999   2.264   1.921   3.899  1.4076  0.5250  0.0167
 5121SOL    HW227000   2.302   1.778   3.913 -0.3990  0.1880 -0.4304
 5122SOL     OW27001   4.523   4.218   3.312  0.2981 -0.1647  0.3380
 5122SOL    HW127002   4.566   4.182   3.235  0.5334  2.6505 -0.8441
 5122SOL    HW227003   4.596   4.228   3.373  0.7411  0.2142 -0.2440
 5123SOL     OW27004   1.721   0.156   5.752  0.6022  0.0149 -0.3982
 5123SOL    HW127005   1.706   0.200   5.668  0.7690 -2.4423 -1.6991
 5123SOL    HW227006   1.650   0.092   5.757  0.5664  0.0317 -0.6730
 5124SOL     OW27007   0.485   3.565   1.372  0.0254 -0.5313 -0.4018
 5124SOL    HW127008   0.536   3.541   1.449  1.3709 -0.6024 -1.3281
 5124SOL    HW227009   0.397   3.532   1.393  0.7687 -0.4298  2.9568
 5125SOL     OW27010   2.669   1.394   9.467  0.1017  0.9417  0.0797
 5125SOL    HW127011   2.619   1.414   9.545  1.2069 -1.8112  1.4915
 5125SOL    HW227012   2.729   1.328   9.503  0.0203  1.2240  0.7315
 5126SOL     OW27013   2.230   1.375   4.509 -0.2024 -0.9052  0.0654
 5126SOL    HW127014   2.309   1.399   4.557  0.0115 -1.6203  0.0714
 5126SOL    HW227015   2.258   1.291   4.473  0.0261 -1.0339  0.5389
 5127SOL     OW27016   3.867   2.408   8.060  0.1240  0.2878  0.1163
 5127SOL    HW127017   3.922   2.440   8.132 -2.5325  1.8087  1.4732
 5127SOL    HW227018   3.926   2.346   8.016  0.4729  1.3866 -0.9515
 5128SOL     OW27019   0.025   3.288  16.526  0.2458  0.2094  0.2404
 5128SOL    HW127020   0.038   3.250  16.613 -0.6801 -1.7672 -0.4784
 5128SOL    HW227021   4.707   3.220  16.489  0.8530  0.4344 -1.0831
 5129SOL     OW27022   3.846   4.053   2.913 -0.3893 -0.5481 -0.5814
 5129SOL    HW127023   3.909   4.043   2.842  0.0223  2.2970 -0.6546
 5129SOL    HW227024   3.786   3.985   2.884  0.6865 -2.5494  1.9299
 5130SOL     OW27025   2.524   1.051  13.113  0.7578  0.7812 -0.0827
 5130SOL    HW127026   2.451   1.010  13.160  0.9013  0.3270 -0.2650
 5130SOL    HW227027   2.569   0.972  13.085 -0.7888 -0.0114 -0.3005
 5131SOL     OW27028   2.723   0.053   2.229  0.6529  0.1006  0.0718
 5131SOL    HW127029   2.779   0.073   2.154 -0.3178 -1.0061 -0.9371
 5131SOL    HW227030   2.632   0.050   2.198  0.7072 -1.5242  0.0904
 5132SOL     OW27031   1.711   0.800   3.834  0.2048 -0.3805  0.2017
 5132SOL    HW127032   1.653   0.770   3.904 -0.3832  1.7656  0.6416
 5132SOL    HW227033   1.652   0.818   3.760  0.8466  0.0305 -0.2065
 5133SOL     OW27034   2.224   1.903  11.943  0.3595 -0.1486  0.4676
 5133SOL    HW127035   2.319   1.887  11.941  0.4886  1.0522 -2.4005
 5133SOL    HW227036   2.193   1.841  12.009  2.9640 -1.1669  0.7652
 5134SOL     OW27037   3.093   0.892   8.759  0.4202 -0.5013  0.1259
 5134SOL    HW127038   3.110   0.940   8.678  2.4891  0.3031  1.0449
 5134SOL    HW227039   3.043   0.954   8.812 -0.7065 -1.2931 -0.0187
 5135SOL     OW27040   1.420   4.120   9.232 -1.1463 -0.0817  0.4541
 5135SOL    HW127041   1.404   4.104   9.139  1.2698 -0.4535  0.1104
 5135SOL    HW227042   1.345   4.083   9.280 -2.0933 -0.0072 -0.9773
 5136SOL     OW27043   2.171   4.243   3.589  0.2775 -0.1151 -0.0268
 5136SOL    HW127044   2.170   4.320   3.646  1.2213 -1.8886  2.3275
 5136SOL    HW227045   2.260   4.248   3.553  0.0580 -1.3439 -0.7464
 5137SOL     OW27046   3.619   0.631  16.064  0.1427 -0.6105 -0.0275
 5137SOL    HW127047   3.657   0.546  16.086  1.8909  0.8191  2.4235
 5137SOL    HW227048   3.687   0.693  16.089  1.1424 -1.4595 -0.5882
 5138SOL     OW27049   0.029   4.248   5.816  0.3336 -0.2350  0.2708
 5138SOL    HW127050   0.012   4.228   5.724  0.4227  1.0832 -0.0271
 5138SOL    HW227051   0.047   4.341   5.824  0.6239 -0.5046  2.9318
 5139SOL     OW27052   2.443   2.271  12.801 -0.1125  0.1830  0.0074
 5139SOL    HW127053   2.513   2.229  12.752  0.4165 -0.7779  1.6083
 5139SOL    HW227054   2.483   2.295  12.885  1.6905  0.5406 -0.9600
 5140SOL     OW27055   0.542   3.879  12.476  0.3018 -0.5454  0.2177
 5140SOL    HW127056   0.477   3.828  12.428 -1.8703  0.8759  1.6337
 5140SOL    HW227057   0.612   3.816  12.466  1.2155  0.1989  2.0575
 5141SOL     OW27058   1.496   2.663   6.764 -0.1376  0.0551 -1.1460
 5141SOL    HW127059   1.554   2.604   6.716  0.7760 -1.1741  1.5233
 5141SOL    HW227060   1.411   2.633   6.730 -0.8084 -0.1146  0.6709
 5142SOL     OW27061   4.515   0.224   6.402 -0.1972 -0.0283  0.1634
 5142SOL    HW127062   4.530   0.315   6.376 -0.2488 -0.3838 -1.1422
 5142SOL    HW227063   4.574   0.215   6.477  0.3873 -4.2603 -0.7635
 5143SOL     OW27064   1.965   2.680   3.305 -0.0677 -0.0456  0.0683
 5143SOL    HW127065   1.976   2.767   3.266  0.5701 -1.5293 -3.0335
 5143SOL    HW227066   2.034   2.625   3.269  1.6521  1.2474  1.3986
 5144SOL     OW27067   4.150   4.568   4.046 -0.5621  0.7448  0.4116
 5144SOL    HW127068   4.092   4.492   4.050  0.8960 -0.3644  0.7168
 5144SOL    HW227069   4.089   4.642   4.051 -1.4989  0.2860 -4.6137
 5145SOL     OW27070   1.368   2.315   8.335  0.2984  0.8219  0.9300
 5145SOL    HW127071   1.315   2.239   8.360  0.4326 -0.4572 -2.6455
 5145SOL    HW227072   1.301   2.378   8.309 -0.3584  0.7465  2.4625
 5146SOL     OW27073   2.697   3.705   3.549  0.2508 -0.4665 -0.9279
 5146SOL    HW127074   2.661   3.669   3.630  2.7557 -0.7416  0.0643
 5146SOL    HW227075   2.728   3.792   3.574 -0.4100 -0.7608  0.8447
 5147SOL     OW27076   2.876   4.458  16.705 -0.1196  0.7927  0.2988
 5147SOL    HW127077   2.901   4.524  16.770 -2.6537  0.0440  2.0321
 5147SOL    HW227078   2.948   4.461  16.642 -0.6041  1.5912 -0.2200
 5148SOL     OW27079   1.963   4.420   5.608 -0.2585  0.6715  0.0029
 5148SOL    HW127080   1.939   4.513   5.606  0.0165  0.7236 -0.8663
 5148SOL    HW227081   1.875   4.381   5.602  0.0552  0.2216 -1.6692
 5149SOL     OW27082   4.085   4.400   8.716  0.1676 -0.4668 -0.3287
 5149SOL    HW127083   4.143   4.323   8.717  1.7530  0.7178 -0.0163
 5149SOL    HW227084   4.052   4.395   8.627 -1.0692  1.8680 -0.0079
 5150SOL     OW27085   1.688   1.530  11.397  0.2714  0.0005  0.1994
 5150SOL    HW127086   1.737   1.449  11.378 -0.3372 -0.6811  1.5057
 5150SOL    HW227087   1.746   1.597  11.360  0.3074  0.5551  1.2471
 5151SOL     OW27088   2.731   2.226   8.002 -0.3501  0.1984 -0.3014
 5151SOL    HW127089   2.798   2.291   8.023 -0.5219  0.3552 -0.2433
 5151SOL    HW227090   2.659   2.254   8.058  2.1551 -0.5366  3.2515
 5152SOL     OW27091   4.469   3.201   3.373  0.1654  0.2417  0.3401
 5152SOL    HW127092   4.388   3.158   3.348 -0.6395  2.9184 -1.5974
 5152SOL    HW227093   4.439   3.254   3.447  0.3765  1.2186 -0.2719
 5153SOL     OW27094   4.481   0.368   7.082  0.0774  0.0088  0.5959
 5153SOL    HW127095   4.388   0.366   7.105 -0.8425 -1.1091 -3.2383
 5153SOL    HW227096   4.472   0.314   7.003 -1.0182  1.4748 -0.2882
 5154SOL     OW27097   2.034   0.421   5.365  0.5523  0.0876 -0.0295
 5154SOL    HW127098   2.079   0.377   5.436  1.4376  0.5121 -0.3308
 5154SOL    HW227099   2.075   0.383   5.287 -2.9034  1.3481 -2.4858
 5155SOL     OW27100   0.243   2.851   7.336  0.5251  0.3566  0.2583
 5155SOL    HW127101   0.190   2.790   7.285  1.1007 -1.5907  1.9861
 5155SOL    HW227102   0.231   2.930   7.283  0.2866  0.8987  1.1054
 5156SOL     OW27103   0.253   0.993   4.324 -0.4008  0.1994 -0.7204
 5156SOL    HW127104   0.226   0.996   4.416  0.6942  0.8488 -0.4094
 5156SOL    HW227105   0.188   0.936   4.283 -2.8879  2.8228 -0.4790
 5157SOL     OW27106   1.162   2.316   3.376  0.5664  0.1965  0.2322
 5157SOL    HW127107   1.197   2.384   3.319 -1.8828  3.1860  2.2754
 5157SOL    HW227108   1.070   2.314   3.348  1.1863 -0.0204 -1.8366
 5158SOL     OW27109   0.650   2.612   8.523 -0.2664  0.3634  0.2030
 5158SOL    HW127110   0.675   2.544   8.461 -0.0146 -0.0783  0.7796
 5158SOL    HW227111   0.735   2.628   8.564  1.1424  0.5305 -2.8500
 5159SOL     OW27112   1.426   1.314   2.516 -0.2501 -0.3824  0.2912
 5159SOL    HW127113   1.456   1.381   2.454 -1.0296 -0.4425 -0.1556
 5159SOL    HW227114   1.334   1.337   2.525 -0.4136  0.0182 -2.2089
 5160SOL     OW27115   3.153   2.805   3.064 -0.5099  0.0023 -0.2754
 5160SOL    HW127116   3.105   2.785   3.145  2.6350 -2.1261  1.0860
 5160SOL    HW227117   3.079   2.805   3.003  0.0575  0.0630 -0.9610
 5161SOL     OW27118   4.459   3.856   8.950  0.5770  0.0719 -0.1911
 5161SOL    HW127119   4.525   3.893   9.008  0.5949 -0.8621  0.3962
 5161SOL    HW227120   4.494   3.871   8.862  1.5495  0.6641  0.2988
 5162SOL     OW27121   2.216   0.336   5.154 -0.3946  0.2926  0.6701
 5162SOL    HW127122   2.207   0.293   5.069  0.9688 -0.9678  1.1469
 5162SOL    HW227123   2.262   0.273   5.210 -2.2641 -1.3664  0.3426
 5163SOL     OW27124   4.197   3.130   6.943  0.0797 -0.0968  0.2387
 5163SOL    HW127125   4.225   3.104   6.855  1.5078  0.1475  0.6170
 5163SOL    HW227126   4.285   3.149   6.977  0.4938 -4.0845  1.3886
 5164SOL     OW27127   1.368   4.327   3.283  0.0504  0.3270  0.9766
 5164SOL    HW127128   1.420   4.375   3.347  1.5427  3.6767 -2.7268
 5164SOL    HW227129   1.399   4.367   3.202 -0.1419 -1.1162  0.1893
 5165SOL     OW27130   2.798   2.619   8.019  0.9053  0.3793  0.2692
 5165SOL    HW127131   2.711   2.589   7.992  0.5898  0.4923  1.1628
 5165SOL    HW227132   2.769   2.690   8.077  1.1236  0.0403  0.7887
 5166SOL     OW27133   1.590   4.522   4.943 -0.4169  0.1472 -0.0541
 5166SOL    HW127134   1.520   4.518   5.008  2.5703  0.4525  3.1850
 5166SOL    HW227135   1.670   4.541   4.991  0.2188 -0.5278 -0.8385
 5167SOL     OW27136   0.813   3.647  16.687 -0.6121 -0.1008  0.4376
 5167SOL    HW127137   0.768   3.568  16.660 -1.4028  1.2127 -2.0784
 5167SOL    HW227138   0.821   3.684  16.599  0.8098  1.0001  1.0187
 5168SOL     OW27139   0.858   4.609  13.191  0.2914  0.0254 -0.5301
 5168SOL    HW127140   0.800   4.671  13.234 -1.1568 -2.2481  0.8087
 5168SOL    HW227141   0.813   4.600  13.107  0.0667 -1.4841 -0.2482
 5169SOL     OW27142   0.409   3.870   2.689 -0.6698 -0.2780 -0.4069
 5169SOL    HW127143   0.495   3.845   2.655  0.5337  0.4503  2.0514
 5169SOL    HW227144   0.430   3.918   2.769 -0.2478 -0.4763 -0.3971
 5170SOL     OW27145   4.224   2.278   7.488 -0.4431 -0.4262  0.7477
 5170SOL    HW127146   4.309   2.278   7.532 -0.9734 -1.0591  1.7624
 5170SOL    HW227147   4.174   2.325   7.554 -1.6759 -3.1064  1.7228
 5171SOL     OW27148   0.449   1.024   9.909  0.4283  0.3134 -0.6566
 5171SOL    HW127149   0.522   0.967   9.931  0.0847  0.3923  0.6906
 5171SOL    HW227150   0.432   1.056   9.998  2.4537  1.9979 -0.8736
 5172SOL     OW27151   1.786   0.392   2.270 -0.3281  0.3811 -0.1613
 5172SOL    HW127152   1.747   0.476   2.294 -3.1021 -0.1832 -2.7021
 5172SOL    HW227153   1.747   0.343   2.342 -0.2991  2.4393  1.2534
 5173SOL     OW27154   0.034   0.319   9.541 -0.6576 -0.2199  0.4614
 5173SOL    HW127155   0.005   0.295   9.629 -3.3956 -0.9151 -0.6391
 5173SOL    HW227156   0.064   0.410   9.544  3.1832 -1.4192 -1.3229
 5174SOL     OW27157   4.161   1.966   4.398  0.0571  0.0390  0.9540
 5174SOL    HW127158   4.106   2.018   4.339  1.4658  0.9755  0.4468
 5174SOL    HW227159   4.103   1.971   4.473  3.4273  2.2581  3.4155
 5175SOL     OW27160   3.994   0.214  12.858 -0.0826  0.3431  0.6927
 5175SOL    HW127161   3.922   0.152  12.873  2.5658 -2.7781  0.5373
 5175SOL    HW227162   3.940   0.277  12.810  1.8408  1.6202  0.2050
 5176SOL     OW27163   3.931   2.651   5.628  0.2201  0.2171 -0.0208
 5176SOL    HW127164   4.003   2.692   5.675 -0.3665  1.2046  0.0294
 5176SOL    HW227165   3.927   2.563   5.667  0.5671 -0.8286 -2.3615
 5177SOL     OW27166   3.368   0.422   2.514  0.1228 -0.0965  0.1796
 5177SOL    HW127167   3.343   0.499   2.462 -1.3934  0.8995  2.3932
 5177SOL    HW227168   3.330   0.351   2.464 -1.2982  0.2879  0.7308
 5178SOL     OW27169   0.886   1.890   8.062 -0.2916  0.2212  0.2544
 5178SOL    HW127170   0.830   1.824   8.103  2.5253 -2.5622 -0.3679
 5178SOL    HW227171   0.845   1.970   8.094 -1.2831  0.7186 -2.2147
 5179SOL     OW27172   2.522   1.335  10.816  0.5247 -0.2685 -0.0795
 5179SOL    HW127173   2.565   1.419  10.831 -0.8981  0.5306 -0.5538
 5179SOL    HW227174   2.597   1.282  10.790  2.7313  2.2991  1.0972
 5180SOL     OW27175   4.334   1.910   6.088  0.1344  0.3683  0.3551
 5180SOL    HW127176   4.371   1.987   6.044  0.8427  0.6125  1.3434
 5180SOL    HW227177   4.292   1.951   6.164 -1.0799 -1.1821  0.5093
 5181SOL     OW27178   2.989   3.896   7.290  0.4715  0.4103  0.2666
 5181SOL    HW127179   3.012   3.879   7.199 -0.1579  1.6148 -0.1156
 5181SOL    HW227180   2.958   3.807   7.307  0.1901  0.6022  0.7588
 5182SOL     OW27181   2.492   1.245  14.291  0.2396  0.2492 -0.3494
 5182SOL    HW127182   2.586   1.263  14.292  0.4341 -0.7591 -2.2165
 5182SOL    HW227183   2.502   1.150  14.289 -0.6470  0.1697 -0.8807
 5183SOL     OW27184   1.671   1.632  10.050  0.1357  0.7608  0.2672
 5183SOL    HW127185   1.623   1.658  10.129 -2.0821  2.4955 -1.6768
 5183SOL    HW227186   1.608   1.563  10.029  1.7350 -0.9421  0.9935
 5184SOL     OW27187   3.624   0.576  12.318 -0.1595 -0.1874  0.2201
 5184SOL    HW127188   3.669   0.649  12.361  0.5952 -1.1501  1.0623
 5184SOL    HW227189   3.542   0.600  12.361  0.2473  0.0481  0.8573
 5185SOL     OW27190   0.364   1.004   5.404 -0.3730 -0.2920  0.4893
 5185SOL    HW127191   0.409   0.974   5.325 -1.1446 -0.3364  0.0608
 5185SOL    HW227192   0.399   1.093   5.401  0.2079 -0.5122  0.7121
 5186SOL     OW27193   3.075   0.956   7.330 -0.0226 -0.6320 -0.5544
 5186SOL    HW127194   3.170   0.948   7.333 -0.1627 -2.0407 -0.2027
 5186SOL    HW227195   3.065   0.921   7.241  1.1438  0.2353 -1.0341
 5187SOL     OW27196   2.330   0.292   5.752 -0.2548  0.1761 -0.0949
 5187SOL    HW127197   2.358   0.289   5.843  1.5267 -2.2297 -0.7266
 5187SOL    HW227198   2.418   0.296   5.714 -0.7910  2.5003 -1.1391
 5188SOL     OW27199   2.456   2.431   1.837  0.6577  0.0967  0.3895
 5188SOL    HW127200   2.401   2.362   1.873 -0.6612  0.5578 -0.7018
 5188SOL    HW227201   2.506   2.384   1.771  1.8937  1.6062  0.2683
 5189SOL     OW27202   0.346   3.577  12.997 -0.1238  0.0792  0.0379
 5189SOL    HW127203   0.368   3.537  13.081  1.5051 -1.1613 -0.9830
 5189SOL    HW227204   0.381   3.664  13.012 -2.3480  1.1300 -0.8267
 5190SOL     OW27205   1.706   4.150   8.461 -0.4495  0.6721 -0.2354
 5190SOL    HW127206   1.725   4.228   8.514  0.0791  1.0312 -0.9432
 5190SOL    HW227207   1.616   4.173   8.437 -1.6316 -1.5949  2.1010
 5191SOL     OW27208   0.760   1.109   3.427  0.4024  0.3121 -0.1032
 5191SOL    HW127209   0.829   1.047   3.402 -0.4119  0.1224 -1.8972
 5191SOL    HW227210   0.799   1.194   3.408  2.3677 -0.8853 -1.3541
 5192SOL     OW27211   2.761   0.734   2.926 -0.0510 -0.4253  0.1173
 5192SOL    HW127212   2.732   0.752   2.837  0.9696  0.2416 -0.0867
 5192SOL    HW227213   2.683   0.717   2.978 -0.4485 -0.0843 -0.3664
 5193SOL     OW27214   0.326   0.933  12.938 -0.6026  0.1004 -0.0185
 5193SOL    HW127215   0.354   1.015  12.898  1.1302 -0.9472 -0.9163
 5193SOL    HW227216   0.243   0.947  12.985 -0.2882 -1.8506  1.1124
 5194SOL     OW27217   2.618   0.578  11.959 -0.3489  0.1175  0.2306
 5194SOL    HW127218   2.681   0.505  11.960 -0.4621  0.0175 -0.1120
 5194SOL    HW227219   2.602   0.588  12.053  1.1512 -3.0340  0.8338
 5195SOL     OW27220   0.333   0.084   5.859 -0.2612 -0.1143  0.2195
 5195SOL    HW127221   0.358   0.087   5.951  1.0694  1.6040 -0.1967
 5195SOL    HW227222   0.396   0.152   5.833  1.0270 -1.3060  0.2356
 5196SOL     OW27223   3.098   3.501   2.918  0.0793 -0.2858 -0.6861
 5196SOL    HW127224   3.175   3.444   2.922  1.0837  1.1699  0.7032
 5196SOL    HW227225   3.054   3.465   2.841 -2.2897  0.3180  0.3798
 5197SOL     OW27226   0.504   3.305   2.391  0.6108  0.4663  0.4594
 5197SOL    HW127227   0.515   3.239   2.322  1.8762  1.7041 -0.5248
 5197SOL    HW227228   0.409   3.310   2.398  0.4428  0.0227 -1.3259
 5198SOL     OW27229   2.628   3.312   5.393 -0.6796  0.3087 -0.1064
 5198SOL    HW127230   2.713   3.355   5.395 -1.0373  1.0271 -0.2745
 5198SOL    HW227231   2.638   3.227   5.436 -0.0016 -0.2138 -1.2746
 5199SOL     OW27232   1.145   0.522   8.846  0.0769 -0.0433  0.1820
 5199SOL    HW127233   1.182   0.474   8.772 -0.9196  0.8523 -0.8761
 5199SOL    HW227234   1.109   0.600   8.805  0.2921  0.8708  1.7526
 5200SOL     OW27235   2.544   3.285  16.053  0.4759  0.3557  0.5763
 5200SOL    HW127236   2.456   3.323  16.056  1.2680  2.3350 -1.2281
 5200SOL    HW227237   2.578   3.306  16.140  1.6635 -4.3468  1.2062
 5201SOL     OW27238   1.782   2.087   8.817  0.2412  0.0907  0.1165
 5201SOL    HW127239   1.696   2.086   8.774  0.4171  0.1560 -0.2425
 5201SOL    HW227240   1.813   2.168   8.776  1.1458 -0.5188 -0.3954
 5202SOL     OW27241   2.406   1.603   0.419 -0.5805  0.2815  0.1571
 5202SOL    HW127242   2.454   1.563   0.346 -1.3157  0.6566 -0.5334
 5202SOL    HW227243   2.462   1.677   0.440  0.9277 -1.1542  1.1801
 5203SOL     OW27244   1.017   1.164   8.579 -0.4960  0.2254 -0.7544
 5203SOL    HW127245   1.084   1.229   8.560 -1.6228  1.6324  0.0744
 5203SOL    HW227246   1.005   1.175   8.673  3.9594  0.5131 -0.2607
 5204SOL     OW27247   3.983   1.844  10.134  0.2614 -0.1499 -0.8291
 5204SOL    HW127248   3.908   1.791  10.158 -0.2272  1.7320  1.8141
 5204SOL    HW227249   4.003   1.813  10.045 -0.7068 -0.9104 -0.7745
 5205SOL     OW27250   0.905   3.287   2.152  0.2333 -0.7367 -0.3174
 5205SOL    HW127251   0.988   3.330   2.170 -1.1201  1.0617  1.6223
 5205SOL    HW227252   0.860   3.322   2.228 -1.3383  0.9018 -1.9840
 5206SOL     OW27253   3.639   1.468   6.381 -0.2768  0.1977  0.0952
 5206SOL    HW127254   3.644   1.550   6.332 -0.1102  1.5463  2.3682
 5206SOL    HW227255   3.602   1.501   6.463 -3.1164  0.1379 -1.1725
 5207SOL     OW27256   3.986   0.551   4.934 -0.1744  0.5252 -0.3859
 5207SOL    HW127257   4.049   0.565   5.005  1.5664 -1.2548 -1.5930
 5207SOL    HW227258   3.954   0.639   4.916 -2.6118  0.0102  1.3359
 5208SOL     OW27259   0.356   0.094   5.561  0.1957 -0.2127 -0.0689
 5208SOL    HW127260   0.263   0.115   5.559  0.1340 -0.3352  1.3081
 5208SOL    HW227261   0.373   0.095   5.467 -0.5193  0.1570 -0.1982
 5209SOL     OW27262   2.625   0.754   3.341 -0.0983 -0.4385  0.1559
 5209SOL    HW127263   2.611   0.818   3.271  1.1543 -0.0768  0.2375
 5209SOL    HW227264   2.563   0.785   3.407  1.4674  0.0674  1.3992
 5210SOL     OW27265   2.787   1.225   6.316  0.6801  0.2171 -0.4995
 5210SOL    HW127266   2.705   1.186   6.286 -0.7125  2.9807 -0.2475
 5210SOL    HW227267   2.828   1.269   6.241 -0.5123 -2.4035 -2.6719
 5211SOL     OW27268   0.597   1.366  15.295 -0.3420  0.3928  0.1368
 5211SOL    HW127269   0.608   1.420  15.218  0.7229  0.3231  0.2314
 5211SOL    HW227270   0.690   1.342  15.301 -0.2983  0.6798  0.6272
 5212SOL     OW27271   0.897   1.347   3.475  0.2530  0.8515  0.6450
 5212SOL    HW127272   0.987   1.332   3.502  0.2570  0.2294  0.2929
 5212SOL    HW227273   0.863   1.401   3.546 -0.0454  2.8032 -0.9954
 5213SOL     OW27274   2.408   1.876   6.622 -0.6468  0.5220 -0.2853
 5213SOL    HW127275   2.416   1.967   6.595  2.0737 -0.4613 -2.7983
 5213SOL    HW227276   2.492   1.840   6.593 -1.0153 -0.5259 -0.0681
 5214SOL     OW27277   1.272   4.024   4.443  0.1360 -0.2156 -0.1421
 5214SOL    HW127278   1.213   4.093   4.414 -1.9785 -1.2059  1.8447
 5214SOL    HW227279   1.349   4.077   4.465  0.1058 -0.6627  1.0278
 5215SOL     OW27280   4.191   4.046   7.892  0.1320  0.1497 -0.5815
 5215SOL    HW127281   4.196   3.957   7.929 -0.6907  0.6217  0.6599
 5215SOL    HW227282   4.282   4.066   7.873  0.9456 -1.0330  1.9529
 5216SOL     OW27283   4.141   1.879   0.905 -0.4394  0.5542  0.2683
 5216SOL    HW127284   4.233   1.876   0.930 -0.4268  1.2458  0.3022
 5216SOL    HW227285   4.139   1.973   0.883 -1.6569  0.3368 -0.5567
 5217SOL     OW27286   0.104   2.663   7.617 -0.3917 -0.0384  0.3678
 5217SOL    HW127287   0.103   2.579   7.571 -3.0213  0.9460 -1.3855
 5217SOL    HW227288   0.160   2.723   7.569  1.5478 -1.1535  1.2723
 5218SOL     OW27289   2.367   0.659  10.053 -0.1845  0.2370  0.1864
 5218SOL    HW127290   2.353   0.714  10.130  0.5224 -0.5255  0.8560
 5218SOL    HW227291   2.339   0.572  10.082  1.0537 -0.2796 -0.1869
 5219SOL     OW27292   0.959   1.621  10.404 -0.2922 -0.1185  0.8840
 5219SOL    HW127293   0.962   1.530  10.373 -0.0045  0.0704  0.3614
 5219SOL    HW227294   0.935   1.660  10.320 -0.5441  1.7072  1.8204
 5220SOL     OW27295   4.258   3.599   4.308 -0.0270 -0.1474  0.1336
 5220SOL    HW127296   4.252   3.544   4.386 -0.0186 -1.2101 -0.6180
 5220SOL    HW227297   4.278   3.540   4.235 -2.7320  1.1008 -1.5966
 5221SOL     OW27298   4.466   0.732   5.066  0.3071  0.5362 -0.1162
 5221SOL    HW127299   4.433   0.777   4.988  1.5235 -0.0595 -0.9638
 5221SOL    HW227300   4.545   0.772   5.100  0.4012 -2.2855  2.9321
 5222SOL     OW27301   1.134   3.060  13.441  0.3863  0.3959  1.3097
 5222SOL    HW127302   1.101   3.130  13.385  0.6649  0.3178  1.0451
 5222SOL    HW227303   1.082   2.991  13.400  0.0816  1.8418 -0.6988
 5223SOL     OW27304   0.345   1.863  14.257  0.5567 -0.2187 -0.0126
 5223SOL    HW127305   0.437   1.839  14.258  0.5072 -0.4174 -0.3031
 5223SOL    HW227306   0.340   1.954  14.287 -2.6283 -0.8682  1.4477
 5224SOL     OW27307   4.497   2.597   3.836  0.4159  0.3526  0.0912
 5224SOL    HW127308   4.521   2.672   3.890  1.4187 -1.8090  2.6137
 5224SOL    HW227309   4.429   2.637   3.781 -2.1678 -0.2965  2.8112
 5225SOL     OW27310   3.914   1.331   0.556  0.1512 -0.1025 -0.5090
 5225SOL    HW127311   3.838   1.317   0.613  0.5760 -1.5457 -0.2998
 5225SOL    HW227312   3.976   1.290   0.616 -0.2415 -0.3992 -0.2995
 5226SOL     OW27313   2.420   2.478  12.373 -0.3258  0.4877 -0.1293
 5226SOL    HW127314   2.373   2.532  12.437 -1.7281 -1.7723  0.7586
 5226SOL    HW227315   2.449   2.413  12.438 -0.9651 -1.0542 -1.3691
 5227SOL     OW27316   0.232   2.492   9.304  0.5491  0.1249  0.1308
 5227SOL    HW127317   0.252   2.409   9.347  2.0595 -0.1501 -1.1000
 5227SOL    HW227318   0.137   2.501   9.310  0.2077 -1.6588 -2.4091
 5228SOL     OW27319   3.731   0.708   8.285  0.5771 -0.0244 -0.7495
 5228SOL    HW127320   3.644   0.740   8.305  0.4996 -0.2333 -0.7480
 5228SOL    HW227321   3.763   0.681   8.372  0.0226 -2.7117 -1.3837
 5229SOL     OW27322   0.491   3.265   6.301 -0.4718  0.1776  0.4474
 5229SOL    HW127323   0.575   3.228   6.328 -1.1145 -1.5640  0.0276
 5229SOL    HW227324   0.523   3.344   6.257 -0.5692 -1.1230 -1.9364
 5230SOL     OW27325   4.202   0.734   8.584  0.9226 -0.4596  0.3501
 5230SOL    HW127326   4.275   0.761   8.528 -0.8453  0.3295 -1.5486
 5230SOL    HW227327   4.186   0.645   8.551 -0.6969  0.0693 -0.2675
 5231SOL     OW27328   1.020   3.820   1.767 -0.2680  0.3992  0.2241
 5231SOL    HW127329   1.040   3.913   1.776 -0.0525  0.3366  0.3967
 5231SOL    HW227330   0.957   3.807   1.838  0.6307 -1.1405  0.7118
 5232SOL     OW27331   2.084   0.448   6.050  0.2961  0.1529  0.4484
 5232SOL    HW127332   2.143   0.522   6.040 -1.1059  1.2141  0.0705
 5232SOL    HW227333   2.101   0.397   5.970  0.9422  0.9780  0.0544
 5233SOL     OW27334   4.247   3.747   2.438  0.2366  0.8800  0.4260
 5233SOL    HW127335   4.194   3.697   2.376 -0.0867  1.2299  0.4188
 5233SOL    HW227336   4.282   3.822   2.389 -2.4515  1.0230 -1.2360
 5234SOL     OW27337   0.520   1.828   3.519 -0.2972  0.1739 -0.1432
 5234SOL    HW127338   0.435   1.784   3.516  0.6634 -1.7011  0.1640
 5234SOL    HW227339   0.531   1.861   3.430  0.2630 -1.0544 -0.5215
 5235SOL     OW27340   3.409   0.759   5.051 -0.2189  0.3084  0.0626
 5235SOL    HW127341   3.493   0.779   5.010 -0.7192  1.7728 -0.2287
 5235SOL    HW227342   3.426   0.780   5.143  0.1512 -4.1821  1.0514
 5236SOL     OW27343   1.020   4.160   2.979  0.2610  0.3090 -0.0922
 5236SOL    HW127344   1.111   4.188   2.977  0.4693 -0.3393  0.2518
 5236SOL    HW227345   0.980   4.201   3.056 -2.9881 -1.7884 -0.6493
 5237SOL     OW27346   4.279   4.107   7.299 -0.2538 -0.0870  0.1017
 5237SOL    HW127347   4.339   4.154   7.241 -1.8742 -0.6433 -2.0265
 5237SOL    HW227348   4.202   4.089   7.246  0.1667  2.0032 -1.2172
 5238SOL     OW27349   4.166   0.564   2.455 -0.0190 -0.3084  0.0315
 5238SOL    HW127350   4.086   0.554   2.403  0.3865 -0.4371 -0.5646
 5238SOL    HW227351   4.154   0.636   2.516 -2.0961 -1.9483  1.5796
 5239SOL     OW27352   0.855   0.409   7.596  0.1738 -0.1545 -0.3768
 5239SOL    HW127353   0.788   0.439   7.657 -0.4879 -1.3463 -0.5048
 5239SOL    HW227354   0.907   0.487   7.577 -1.2291  0.9452  0.3073
 5240SOL     OW27355   1.998   4.596   7.682 -0.2517  0.0939 -0.1032
 5240SOL    HW127356   1.911   4.565   7.656  0.1112 -0.9695 -0.0478
 5240SOL    HW227357   1.998   4.565   7.772 -0.1284 -2.3156 -0.9388
 5241SOL     OW27358   2.873   2.437  15.317  0.3428 -0.1242  0.4611
 5241SOL    HW127359   2.806   2.505  15.318  1.5331  1.0816 -0.3921
 5241SOL    HW227360   2.933   2.468  15.248  1.0079  0.7089  1.4151
 5242SOL     OW27361   1.414   4.283   7.978 -0.0674  0.5145  0.1820
 5242SOL    HW127362   1.504   4.257   7.999 -0.7130 -1.4813  0.5157
 5242SOL    HW227363   1.407   4.360   8.033  0.5679  2.9329 -3.0963
 5243SOL     OW27364   0.437   0.350   7.501 -0.4028  0.5802  0.4318
 5243SOL    HW127365   0.464   0.268   7.542  1.2524 -0.5410 -2.8835
 5243SOL    HW227366   0.343   0.333   7.490 -0.0284 -0.0620 -1.7175
 5244SOL     OW27367   0.159   2.432   3.229 -0.2201 -0.1365 -0.4622
 5244SOL    HW127368   0.195   2.383   3.155 -0.5355  0.8512 -1.2698
 5244SOL    HW227369   0.064   2.424   3.218 -0.7209  2.4832  2.0680
 5245SOL     OW27370   0.275   3.899   4.043  0.3941 -0.3685  0.5780
 5245SOL    HW127371   0.367   3.925   4.032  0.0440  0.7541  0.2498
 5245SOL    HW227372   0.246   3.973   4.097  1.4701  0.0917  0.5283
 5246SOL     OW27373   4.083   3.459   3.906 -0.1717 -0.6774 -0.0338
 5246SOL    HW127374   4.146   3.489   3.972 -0.7686  0.4755  0.0144
 5246SOL    HW227375   4.142   3.472   3.832 -0.0308 -0.9063  0.0389
 5247SOL     OW27376   1.737   3.434   5.042  0.5135  0.2953 -0.3877
 5247SOL    HW127377   1.673   3.498   5.074  0.4840 -0.0245  0.1878
 5247SOL    HW227378   1.739   3.452   4.948  2.1220 -1.3984 -0.6811
 5248SOL     OW27379   2.189   0.762   7.978 -0.3229 -0.4817  0.4215
 5248SOL    HW127380   2.275   0.722   7.989 -0.8646 -1.7642 -0.0263
 5248SOL    HW227381   2.170   0.794   8.067 -0.8711  0.9029 -0.1929
 5249SOL     OW27382   3.709   2.342   8.917 -0.5486  0.0143 -0.0236
 5249SOL    HW127383   3.659   2.285   8.974  1.7176 -2.3736 -0.4233
 5249SOL    HW227384   3.645   2.406   8.886 -0.1383  0.3212 -0.2520
 5250SOL     OW27385   3.834   2.015   3.127 -0.4286 -0.1026  0.4375
 5250SOL    HW127386   3.883   2.077   3.072  0.5911 -0.3781  1.0338
 5250SOL    HW227387   3.864   1.939   3.078 -2.5898 -1.7455  1.6771
 5251SOL     OW27388   1.324   2.440  17.232 -0.1045  0.5067  0.0482
 5251SOL    HW127389   1.394   2.377  17.214  0.7817  0.9937  1.7594
 5251SOL    HW227390   1.258   2.388  17.278  1.1251 -0.6464  0.5218
 5252SOL     OW27391   4.503   2.644   9.142  0.5374 -0.2441  0.3077
 5252SOL    HW127392   4.514   2.551   9.120 -0.1223  0.0413 -1.2466
 5252SOL    HW227393   4.504   2.686   9.056 -1.9023  0.6348  0.7194
 5253SOL     OW27394   4.020   4.059   5.339  0.3361 -0.0574  0.3336
 5253SOL    HW127395   4.046   4.128   5.400  0.6912 -0.8343  1.0697
 5253SOL    HW227396   4.076   3.984   5.360 -0.2489 -0.8182 -0.8460
 5254SOL     OW27397   1.547   2.186   1.824  0.5322  0.5113  0.3305
 5254SOL    HW127398   1.585   2.128   1.890 -0.3629 -0.4711 -0.0078
 5254SOL    HW227399   1.460   2.156   1.852  0.5890  0.1086  0.0761
 5255SOL     OW27400   3.079   1.065  17.024 -0.5004 -0.5037  0.4819
 5255SOL    HW127401   3.052   1.142  17.075  2.0964 -0.2034  1.4056
 5255SOL    HW227402   3.017   0.998  17.052 -0.6041 -1.1571 -1.3201
 5256SOL     OW27403   0.660   3.439  12.793  0.2501 -0.1064  0.3295
 5256SOL    HW127404   0.583   3.398  12.832 -0.8386  1.9882  0.3862
 5256SOL    HW227405   0.610   3.494  12.733  3.4159  2.1531 -0.2308
 5257SOL     OW27406   4.558   4.600   2.591  0.5192 -0.5196 -0.4220
 5257SOL    HW127407   4.545   4.506   2.602 -1.5353 -0.1778  0.2178
 5257SOL    HW227408   4.566   4.629   2.682  0.1402 -0.0003 -0.5561
 5258SOL     OW27409   4.509   0.274  11.594  0.0526  0.3327  0.0861
 5258SOL    HW127410   4.596   0.270  11.554  1.0213  0.2928  2.1514
 5258SOL    HW227411   4.504   0.183  11.623 -0.4254  0.9658  1.9675
 5259SOL     OW27412   1.970   3.581  11.157  0.1984  0.2236  0.6895
 5259SOL    HW127413   1.999   3.492  11.140 -0.9588  0.0219 -0.2050
 5259SOL    HW227414   1.874   3.571  11.157  0.1028  1.0919 -2.4955
 5260SOL     OW27415   4.600   0.168   0.615  0.1794  0.0351  0.3140
 5260SOL    HW127416   4.653   0.223   0.671 -1.7011  2.5741 -0.4070
 5260SOL    HW227417   4.524   0.168   0.672 -0.7794 -0.7917 -0.9528
 5261SOL     OW27418   3.091   3.301   7.905  0.1499 -0.1245  0.6631
 5261SOL    HW127419   3.007   3.324   7.865  0.2239 -1.3328 -0.1591
 5261SOL    HW227420   3.145   3.379   7.897  1.3575 -0.9248  1.0673
 5262SOL     OW27421   4.599   4.146   8.465 -0.3040 -0.3090 -0.5168
 5262SOL    HW127422   4.606   4.093   8.386 -1.5877 -1.0698 -0.1257
 5262SOL    HW227423   4.667   4.212   8.452 -1.5996  0.8239 -1.5889
 5263SOL     OW27424   1.982   3.507   3.711  0.7674  0.6921 -0.3562
 5263SOL    HW127425   2.054   3.569   3.723  1.3932 -0.5405  2.2604
 5263SOL    HW227426   1.999   3.446   3.783 -1.0574 -1.2933 -1.6024
 5264SOL     OW27427   3.822   2.575  14.772 -0.5125  0.1300  0.7515
 5264SOL    HW127428   3.841   2.497  14.824 -1.8710 -1.0978 -0.5646
 5264SOL    HW227429   3.903   2.624  14.781 -1.1767  1.2411  0.7543
 5265SOL     OW27430   0.828   4.137   0.420  0.0106 -1.0145 -0.3548
 5265SOL    HW127431   0.830   4.130   0.325 -1.6012  1.1698 -0.5580
 5265SOL    HW227432   0.915   4.164   0.449 -0.2863  0.2824 -0.6597
 5266SOL     OW27433   3.915   3.482   4.850 -0.3839 -0.4283 -0.3728
 5266SOL    HW127434   3.974   3.556   4.867  0.6225 -1.2380 -0.2927
 5266SOL    HW227435   3.844   3.535   4.815 -1.1685 -0.2151  1.5682
 5267SOL     OW27436   4.483   1.580  11.550 -0.0495 -0.1574  0.8781
 5267SOL    HW127437   4.518   1.626  11.474  1.9418  1.1974  2.6312
 5267SOL    HW227438   4.560   1.532  11.580 -0.7458 -2.5089 -1.0049
 5268SOL     OW27439   1.106   4.431   8.820  0.0417  0.7139  0.0255
 5268SOL    HW127440   1.066   4.382   8.892  0.7847 -1.4804 -1.0605
 5268SOL    HW227441   1.198   4.415   8.839 -0.2826 -3.2578 -1.8111
 5269SOL     OW27442   4.108   4.323   0.694  0.2441 -0.6846  0.6311
 5269SOL    HW127443   4.017   4.314   0.666  0.0665  0.6845  0.8089
 5269SOL    HW227444   4.151   4.265   0.630  0.9125  1.6952 -1.0708
 5270SOL     OW27445   2.599   1.884  13.523  0.0259 -0.0655 -0.0939
 5270SOL    HW127446   2.558   1.797  13.524 -3.5664  1.6380  0.9810
 5270SOL    HW227447   2.611   1.909  13.614 -1.1830  1.4338 -0.3388
 5271SOL     OW27448   1.432   3.891  10.283  0.2993  0.1520 -0.2006
 5271SOL    HW127449   1.451   3.826  10.351 -0.3128 -1.4524 -1.5855
 5271SOL    HW227450   1.394   3.832  10.219 -1.3361 -0.6742  1.5020
 5272SOL     OW27451   2.838   3.974  12.054  0.0340  0.2886 -0.3525
 5272SOL    HW127452   2.864   4.066  12.043 -1.9868  0.8765 -0.1345
 5272SOL    HW227453   2.824   3.944  11.965 -3.3852  1.1534 -0.0931
 5273SOL     OW27454   1.393   1.636  12.256 -0.0391  0.5407 -0.0689
 5273SOL    HW127455   1.428   1.663  12.340  2.4793 -3.0924  0.0553
 5273SOL    HW227456   1.297   1.630  12.261 -0.0709  1.6789  0.6218
 5274SOL     OW27457   4.300   2.332   4.998 -0.1092  0.0961  0.0588
 5274SOL    HW127458   4.342   2.407   5.040 -0.6603  0.6281 -0.3310
 5274SOL    HW227459   4.320   2.358   4.908  1.8996  1.5919  0.9319
 5275SOL     OW27460   3.833   4.626   9.113 -0.2458 -0.1838  0.1351
 5275SOL    HW127461   3.763   4.570   9.147  1.0479 -1.3984  0.7644
 5275SOL    HW227462   3.904   4.615   9.176  0.1576 -0.4818 -0.3724
 5276SOL     OW27463   1.708   1.066   5.469 -0.3931  0.1797 -0.2320
 5276SOL    HW127464   1.802   1.084   5.476 -0.5866  1.0363  0.2855
 5276SOL    HW227465   1.679   1.155   5.448 -1.9888 -0.3626 -0.3296
 5277SOL     OW27466   1.477   2.937   5.260  0.4946 -0.5086  0.7335
 5277SOL    HW127467   1.385   2.920   5.279 -0.2980  0.8698 -1.8457
 5277SOL    HW227468   1.527   2.892   5.329 -0.6620  2.1935  3.3478
 5278SOL     OW27469   1.675   1.027   4.337 -0.7934  0.0393  0.0421
 5278SOL    HW127470   1.674   1.066   4.249 -0.9921  2.6086  1.1808
 5278SOL    HW227471   1.611   0.956   4.330  0.0941 -0.6231 -1.2989
 5279SOL     OW27472   1.616   1.573   3.123  0.3006  0.7445  0.4291
 5279SOL    HW127473   1.668   1.507   3.168  0.6499  0.5175 -0.3195
 5279SOL    HW227474   1.524   1.549   3.137 -0.1364  1.1829 -1.7629
 5280SOL     OW27475   1.912   4.712  15.391 -0.2312 -0.3862  0.3578
 5280SOL    HW127476   1.974   4.670  15.451 -1.1440 -1.7633  0.3321
 5280SOL    HW227477   1.839   0.002  15.445 -0.1766 -0.4897  0.4846
 5281SOL     OW27478   1.634   3.456   5.803  0.7291 -0.1982 -0.2920
 5281SOL    HW127479   1.647   3.364   5.777  0.1556 -0.1739 -0.6720
 5281SOL    HW227480   1.697   3.506   5.751  0.4425 -0.3192 -0.7605
 5282SOL     OW27481   2.653   0.604   0.443 -0.0392  0.0038 -0.1717
 5282SOL    HW127482   2.616   0.556   0.369  2.6240  1.5040 -2.4680
 5282SOL    HW227483   2.674   0.688   0.402  2.2396 -0.1432  0.7312
 5283SOL     OW27484   0.962   1.546   5.022 -0.5331  0.6891 -0.0147
 5283SOL    HW127485   0.978   1.623   4.967  0.1712 -0.4753 -1.4337
 5283SOL    HW227486   0.942   1.486   4.951  1.4925  0.7899 -0.6867
 5284SOL     OW27487   3.327   1.490  16.180  0.3039 -0.1252 -0.3963
 5284SOL    HW127488   3.287   1.514  16.264  0.4920 -1.2000 -0.0095
 5284SOL    HW227489   3.253   1.434  16.155  0.4785 -0.6900  0.3921
 5285SOL     OW27490   3.468   2.498   7.826 -0.3007 -0.2723 -0.0752
 5285SOL    HW127491   3.421   2.475   7.746  1.2089  0.6439 -1.2286
 5285SOL    HW227492   3.538   2.549   7.787  0.1146  1.2231  2.6110
 5286SOL     OW27493   2.874   4.500  10.619  0.2286 -0.2073  0.2933
 5286SOL    HW127494   2.856   4.592  10.600  1.1717 -0.0945 -0.0492
 5286SOL    HW227495   2.787   4.467  10.598  1.0493 -1.4765 -1.1762
 5287SOL     OW27496   3.609   1.127  14.956 -0.2128 -0.3200  0.4028
 5287SOL    HW127497   3.659   1.086  14.885 -0.4791  1.4753 -0.8146
 5287SOL    HW227498   3.673   1.195  14.976 -0.8586  0.0737  1.1283
 5288SOL     OW27499   4.328   1.318   8.654  0.0097  0.2011 -0.0666
 5288SOL    HW127500   4.289   1.405   8.655  1.5435  0.9193 -2.1039
 5288SOL    HW227501   4.285   1.278   8.579 -2.2879 -0.5251  1.6478
 5289SOL     OW27502   3.458   3.509   8.184 -0.3483 -0.3048 -0.2552
 5289SOL    HW127503   3.478   3.514   8.277 -2.5081 -1.7217  0.2864
 5289SOL    HW227504   3.385   3.570   8.181  1.9209  2.4596  1.4248
 5290SOL     OW27505   3.314   3.109   4.900  0.4329  0.4750 -0.3004
 5290SOL    HW127506   3.294   3.094   4.993  1.2629  0.5511 -0.1109
 5290SOL    HW227507   3.233   3.133   4.855  0.5303  2.2786  0.5151
 5291SOL     OW27508   4.333   1.902   7.451  0.3302  0.0447  0.0368
 5291SOL    HW127509   4.296   1.924   7.537  1.1931 -1.4476  0.7991
 5291SOL    HW227510   4.254   1.884   7.400 -1.7614  2.2301  2.4894
 5292SOL     OW27511   1.631   1.376   4.659  0.3784  0.2395  0.3837
 5292SOL    HW127512   1.632   1.318   4.735  1.7153 -0.1869  0.0331
 5292SOL    HW227513   1.702   1.432   4.690 -0.2194  0.0944  2.0211
 5293SOL     OW27514   4.343   0.689   7.853  0.6319  0.0578  0.2716
 5293SOL    HW127515   4.391   0.612   7.886  0.1693 -0.7457 -0.9563
 5293SOL    HW227516   4.291   0.709   7.931 -2.5885  0.1547 -1.8916
 5294SOL     OW27517   1.652   0.073   6.891 -0.0457  0.0898  0.6509
 5294SOL    HW127518   1.624   4.724   6.865 -0.0567  0.6297 -1.1358
 5294SOL    HW227519   1.658   0.058   6.986 -1.2601 -1.3928  0.4795
 5295SOL     OW27520   0.282   1.713   3.564  0.1995  0.0111 -0.2451
 5295SOL    HW127521   0.256   1.643   3.625 -0.9180  2.6215  2.2877
 5295SOL    HW227522   0.200   1.758   3.546 -0.8497 -1.4560  0.8543
 5296SOL     OW27523   3.804   2.604   5.305  0.0473 -0.1929  0.5074
 5296SOL    HW127524   3.896   2.627   5.312  0.7752 -3.2784  1.3332
 5296SOL    HW227525   3.757   2.682   5.334  1.0752  0.7114 -0.2671
 5297SOL     OW27526   1.310   4.096   2.266 -0.2742 -0.3063 -0.1934
 5297SOL    HW127527   1.335   4.188   2.257  0.4549 -0.5631 -0.8626
 5297SOL    HW227528   1.215   4.104   2.257 -0.4258 -1.8992 -0.0164
 5298SOL     OW27529   3.672   2.643   7.677 -0.3819  0.2188 -0.0115
 5298SOL    HW127530   3.712   2.714   7.728  0.8164  0.2739 -1.0176
 5298SOL    HW227531   3.740   2.615   7.616 -1.0164  1.9559 -1.5130
 5299SOL     OW27532   3.345   0.627   2.333 -0.1215  1.1898  0.5086
 5299SOL    HW127533   3.354   0.681   2.255  4.5609 -0.1608  0.1493
 5299SOL    HW227534   3.381   0.679   2.405  2.0592 -1.4899  1.3525
 5300SOL     OW27535   1.981   3.194   9.047  0.4177 -0.6334  0.1605
 5300SOL    HW127536   1.940   3.279   9.034 -1.3062 -1.4237  0.4913
 5300SOL    HW227537   1.908   3.143   9.011  0.0672 -1.1700  1.6179
 5301SOL     OW27538   0.821   4.231   5.938  0.1948  0.0003 -0.4823
 5301SOL    HW127539   0.733   4.244   5.904 -0.7224 -1.9111  1.1810
 5301SOL    HW227540   0.811   4.309   5.993 -0.0241 -1.1151  1.0437
 5302SOL     OW27541   1.161   1.700   8.888 -0.8697  0.2223  0.3070
 5302SOL    HW127542   1.245   1.677   8.849 -0.8237  1.1800 -0.1576
 5302SOL    HW227543   1.171   1.795   8.897  0.2859 -0.0190  1.7146
 5303SOL     OW27544   3.117   3.775   4.800  0.2214 -0.1767  0.8011
 5303SOL    HW127545   3.133   3.684   4.777 -0.6594 -0.3391  0.8637
 5303SOL    HW227546   3.072   3.817   4.727  0.0824 -0.9812  0.4314
 5304SOL     OW27547   4.226   0.541   3.388  0.1636 -1.5284  0.1474
 5304SOL    HW127548   4.281   0.614   3.415 -0.4659 -2.0294  2.7672
 5304SOL    HW227549   4.256   0.524   3.298  1.1261  1.0510 -0.0141
 5305SOL     OW27550   0.454   0.617   5.018 -0.1613  0.6228  0.0634
 5305SOL    HW127551   0.377   0.593   4.966 -0.7111 -2.4199  2.2680
 5305SOL    HW227552   0.412   0.654   5.096 -0.1164 -0.3946  0.5796
 5306SOL     OW27553   1.338   4.631   1.448  0.7094  0.4418 -0.2850
 5306SOL    HW127554   1.367   4.540   1.446  0.3583  0.3777 -2.5324
 5306SOL    HW227555   1.337   4.657   1.356 -2.0304 -0.3919 -0.4868
 5307SOL     OW27556   2.205   3.914   4.647 -0.2010  0.0537  0.8115
 5307SOL    HW127557   2.123   3.956   4.672 -1.0225 -1.1588  0.1411
 5307SOL    HW227558   2.255   3.978   4.596  0.1779 -1.0946 -0.2292
 5308SOL     OW27559   4.268   4.424  15.146  0.2595 -0.4592  0.4569
 5308SOL    HW127560   4.348   4.404  15.097  1.4543  0.1191  2.1934
 5308SOL    HW227561   4.291   4.403  15.236 -0.3209 -1.5514  0.3471
 5309SOL     OW27562   0.671   2.527   7.950 -0.1915 -0.5872 -0.0227
 5309SOL    HW127563   0.746   2.548   7.895  1.5433 -4.5509  0.8221
 5309SOL    HW227564   0.630   2.471   7.884 -2.0950 -0.2085  0.8140
 5310SOL     OW27565   4.646   3.534   3.497  0.1171 -0.3800 -0.2356
 5310SOL    HW127566   4.685   3.458   3.540 -2.1599 -0.1328  2.2936
 5310SOL    HW227567   4.728   3.580   3.482  0.0444 -0.5882 -1.2835
 5311SOL     OW27568   0.107   0.419   3.207  0.0218 -0.1015 -0.0529
 5311SOL    HW127569   0.066   0.388   3.126 -0.6411 -0.2940  0.3571
 5311SOL    HW227570   0.064   0.360   3.268 -1.1254  3.3479  2.4670
 5312SOL     OW27571   2.334   1.807   5.846 -0.0658  0.3614  0.2727
 5312SOL    HW127572   2.411   1.858   5.818 -0.0766 -0.4765 -1.2883
 5312SOL    HW227573   2.386   1.739   5.888 -2.4320 -2.2702 -1.1068
 5313SOL     OW27574   1.125   0.613   3.854  0.1329  0.4890  1.0943
 5313SOL    HW127575   1.082   0.634   3.771  1.2221 -0.4460  0.2936
 5313SOL    HW227576   1.049   0.590   3.908 -0.1579  0.3487  0.6277
 5314SOL     OW27577   1.276   4.329   4.661 -0.1359  0.2716 -0.3048
 5314SOL    HW127578   1.302   4.270   4.731  0.0902  1.1680  0.3535
 5314SOL    HW227579   1.239   4.402   4.709 -2.4277  0.3880 -2.2021
 5315SOL     OW27580   1.592   4.682   5.514  0.2335 -0.2171  0.2661
 5315SOL    HW127581   1.563   4.681   5.606 -1.8441 -0.7269 -0.3877
 5315SOL    HW227582   1.686   4.696   5.517  0.2819 -0.4002 -0.6413
 5316SOL     OW27583   1.422   0.189   7.149  0.1873 -0.0110 -0.8732
 5316SOL    HW127584   1.507   0.226   7.175  0.8347 -1.9458 -0.2560
 5316SOL    HW227585   1.414   0.229   7.062  1.2597 -0.2236 -1.0647
 5317SOL     OW27586   2.130   0.323   9.764 -0.2425  0.0541 -0.4263
 5317SOL    HW127587   2.196   0.294   9.700  1.2830  0.4181  1.0034
 5317SOL    HW227588   2.107   0.240   9.806  0.1042  0.0433 -0.2583
 5318SOL     OW27589   3.791   3.079   4.898  0.6003  0.1998 -0.2728
 5318SOL    HW127590   3.833   3.135   4.964  1.1622 -1.4452  0.7417
 5318SOL    HW227591   3.729   3.142   4.862  0.7727  2.9758  4.3474
 5319SOL     OW27592   0.041   0.261   1.004  0.0302 -0.0133 -0.1808
 5319SOL    HW127593   0.033   0.346   0.960 -0.7863 -0.8489 -1.6581
 5319SOL    HW227594   0.095   0.291   1.077  0.8673 -0.1605 -0.7326
 5320SOL     OW27595   4.329   4.200   5.303  0.0709  0.4548  0.3996
 5320SOL    HW127596   4.418   4.237   5.298  0.0069  0.3031 -1.7273
 5320SOL    HW227597   4.327   4.115   5.260 -0.5539 -0.0575  1.4466
 5321SOL     OW27598   2.764   1.357  14.057 -0.3635 -0.5591 -0.5083
 5321SOL    HW127599   2.677   1.389  14.032  0.3020  0.7753 -1.1278
 5321SOL    HW227600   2.758   1.361  14.152  0.2776 -0.4976 -0.4714
 5322SOL     OW27601   1.204   4.497   9.361  0.6072  0.3288 -0.3122
 5322SOL    HW127602   1.196   4.573   9.418 -0.5864  0.0558 -0.1206
 5322SOL    HW227603   1.127   4.507   9.305  0.3973 -0.6283 -0.1891
 5323SOL     OW27604   1.008   1.547   0.745 -0.2491 -0.3829  0.0308
 5323SOL    HW127605   1.096   1.510   0.746 -0.3991 -0.6522  2.5687
 5323SOL    HW227606   1.037   1.635   0.723 -0.6984 -0.0421  0.7963
 5324SOL     OW27607   2.302   1.984   0.369  0.3629 -0.3411  0.6540
 5324SOL    HW127608   2.232   2.038   0.333  2.1398  1.3299 -0.2814
 5324SOL    HW227609   2.254   1.910   0.406 -1.1664  0.9120  1.1419
 5325SOL     OW27610   4.031   1.974  15.046  0.1655  0.0983  0.2515
 5325SOL    HW127611   4.112   2.017  15.072  0.2585 -1.4323  2.5135
 5325SOL    HW227612   4.040   1.902  14.983  0.2871  1.8968 -1.7871
 5326SOL     OW27613   2.165   1.991   4.671  0.0275 -0.5445 -0.8252
 5326SOL    HW127614   2.135   2.080   4.691  0.9425 -0.0382 -1.7130
 5326SOL    HW227615   2.112   1.957   4.598  0.0792  1.1118 -1.6442
 5327SOL     OW27616   3.436   1.605   0.336 -0.2045 -0.8365  0.3254
 5327SOL    HW127617   3.418   1.538   0.402 -1.1527 -1.7227 -0.8145
 5327SOL    HW227618   3.426   1.558   0.253 -0.6951 -0.5438  0.2208
 5328SOL     OW27619   4.738   0.058   2.990  0.0841  0.1333 -0.2137
 5328SOL    HW127620   0.093   0.046   3.002  0.1895  0.5192 -0.6606
 5328SOL    HW227621   0.005   0.151   2.966 -2.1708 -0.2266 -2.1795
 5329SOL     OW27622   4.098   3.846   8.462 -0.3874  0.0259 -0.7382
 5329SOL    HW127623   4.051   3.926   8.439  0.7303  1.1918  1.0740
 5329SOL    HW227624   4.033   3.779   8.484  0.8128 -0.3890  1.5783
 5330SOL     OW27625   4.729   4.676   6.079  0.0299 -0.4161 -0.1325
 5330SOL    HW127626   4.657   4.734   6.103 -1.7654 -2.1911 -1.2785
 5330SOL    HW227627   0.028   4.711   5.998 -0.5561  1.1576  0.2743
 5331SOL     OW27628   3.952   2.973   9.522 -0.2688 -0.2703  0.0366
 5331SOL    HW127629   3.928   3.065   9.516  1.1866  0.1724  0.8746
 5331SOL    HW227630   3.989   2.951   9.607 -0.4912 -0.5986  0.0501
 5332SOL     OW27631   1.400   1.163  15.556  0.6974  0.2553  0.2458
 5332SOL    HW127632   1.426   1.220  15.483  0.2323 -2.6100 -2.1685
 5332SOL    HW227633   1.427   1.076  15.529 -2.2652 -0.6248  0.0639
 5333SOL     OW27634   1.710   2.254   4.913  0.3329  0.2455 -0.1146
 5333SOL    HW127635   1.677   2.170   4.945  0.8103  0.1964  0.2498
 5333SOL    HW227636   1.719   2.221   4.824  3.0589 -0.9002  0.6154
 5334SOL     OW27637   1.909   0.367  12.666  0.2389  0.5970  0.8569
 5334SOL    HW127638   1.894   0.438  12.728 -0.2317  2.2259 -1.1511
 5334SOL    HW227639   1.865   0.292  12.705  0.1334  0.9978  1.5097
 5335SOL     OW27640   3.778   0.894  13.898  0.3451  0.1487 -0.1307
 5335SOL    HW127641   3.720   0.851  13.836 -0.6691  1.8376 -0.3511
 5335SOL    HW227642   3.799   0.832  13.968  0.0591  0.3191  0.1082
 5336SOL     OW27643   0.622   4.097   7.554 -0.0993  0.2256  0.1311
 5336SOL    HW127644   0.700   4.151   7.569 -0.8239  1.0239  1.0241
 5336SOL    HW227645   0.631   4.042   7.631  0.1393  0.2705  0.1349
 5337SOL     OW27646   3.521   2.044   3.056 -0.0451 -0.6204 -0.2814
 5337SOL    HW127647   3.599   2.029   3.110  0.1270  2.1541  0.2665
 5337SOL    HW227648   3.460   1.976   3.083 -1.9344  1.3260  0.3028
 5338SOL     OW27649   1.574   4.449   8.318 -0.0882 -0.3599 -0.0265
 5338SOL    HW127650   1.656   4.427   8.276 -0.7811  0.0383 -1.5766
 5338SOL    HW227651   1.612   4.505   8.386  0.3389 -0.1255 -0.4601
 5339SOL     OW27652   1.065   0.221   0.846 -0.0737  0.2136 -0.4899
 5339SOL    HW127653   1.084   0.240   0.754  2.1059 -1.4781 -0.4140
 5339SOL    HW227654   0.986   0.275   0.847 -1.2083 -1.5292  1.6194
 5340SOL     OW27655   1.935   0.856  11.540 -0.6019  0.0376 -0.3897
 5340SOL    HW127656   1.970   0.945  11.536  1.5733 -0.7142  1.8660
 5340SOL    HW227657   1.842   0.880  11.540  0.1632  3.0492  4.1430
 5341SOL     OW27658   4.248   0.331   6.390  0.1714 -0.3180 -0.8586
 5341SOL    HW127659   4.196   0.294   6.319 -0.7097  0.6188 -0.6997
 5341SOL    HW227660   4.334   0.290   6.382  0.4026 -0.2846  1.4741
 5342SOL     OW27661   2.729   1.552   5.646 -0.6197 -0.1169  0.3013
 5342SOL    HW127662   2.707   1.461   5.626 -1.0534 -0.2943  1.5994
 5342SOL    HW227663   2.745   1.583   5.557  0.1614  0.7237  0.7317
 5343SOL     OW27664   2.227   0.428  10.118 -0.0480  0.4064 -0.0374
 5343SOL    HW127665   2.151   0.404  10.171 -0.5703 -0.2234 -1.0532
 5343SOL    HW227666   2.182   0.440  10.035  1.9594 -0.8246 -1.3130
 5344SOL     OW27667   1.450   4.090   1.741 -0.2152  0.3629  0.8442
 5344SOL    HW127668   1.522   4.153   1.736  0.8553 -0.6408  3.3688
 5344SOL    HW227669   1.432   4.083   1.835 -0.3253  0.3491  0.8214
 5345SOL     OW27670   2.653   4.280   3.110 -0.2661 -0.1697 -0.5615
 5345SOL    HW127671   2.672   4.192   3.140 -1.6869 -0.4468 -0.4782
 5345SOL    HW227672   2.734   4.319   3.143  1.2397 -2.4366 -1.5710
 5346SOL     OW27673   0.101   0.348  10.518 -0.3151 -0.4651  0.2875
 5346SOL    HW127674   0.031   0.403  10.484 -1.2602 -0.8909  1.5661
 5346SOL    HW227675   0.049   0.300  10.583 -1.2742 -1.0796 -0.9257
 5347SOL     OW27676   1.267   1.441   0.702  0.7659 -0.1140 -0.1783
 5347SOL    HW127677   1.341   1.495   0.730  0.2379  0.0218  0.9313
 5347SOL    HW227678   1.290   1.427   0.610  0.5352  1.5944 -0.4899
 5348SOL     OW27679   3.372   1.694  10.209  0.2420 -1.1984  0.8039
 5348SOL    HW127680   3.402   1.764  10.151 -1.5860 -0.2701  0.9743
 5348SOL    HW227681   3.292   1.733  10.246  0.9953  2.0116 -0.8851
 5349SOL     OW27682   0.408   0.112   1.394  0.3186  0.0941  0.3640
 5349SOL    HW127683   0.429   0.045   1.329 -0.1603  0.1767  0.1273
 5349SOL    HW227684   0.495   0.125   1.431  0.1129  1.2408  0.4301
 5350SOL     OW27685   3.928   4.346  16.982  0.1357 -0.1817  0.4922
 5350SOL    HW127686   3.942   4.423  16.926  1.0850  0.5090  1.7038
 5350SOL    HW227687   4.001   4.344  17.043  0.3908  0.6120  0.2141
 5351SOL     OW27688   3.086   1.064   7.001 -0.3930  0.3937 -0.3623
 5351SOL    HW127689   3.026   0.998   7.036  1.3007 -1.0491 -0.1171
 5351SOL    HW227690   3.148   1.002   6.962  0.4166  0.8560  0.1866
 5352SOL     OW27691   3.720   0.680   6.141  0.4946  0.0367 -0.2656
 5352SOL    HW127692   3.627   0.701   6.150  0.8448  1.4537 -0.0254
 5352SOL    HW227693   3.747   0.710   6.227  1.7545 -3.7627  0.6605
 5353SOL     OW27694   0.993   2.155  11.663 -0.6064  0.0660 -0.1030
 5353SOL    HW127695   1.011   2.100  11.587 -1.7797 -1.7692  0.9688
 5353SOL    HW227696   1.082   2.179  11.691  0.0603 -1.0013 -1.3070
 5354SOL     OW27697   1.024   0.877   6.570  0.3712 -0.4881 -0.1021
 5354SOL    HW127698   1.103   0.858   6.621 -0.0818  0.4118  0.9373
 5354SOL    HW227699   0.979   0.934   6.632 -0.9639 -1.2015 -0.4132
 5355SOL     OW27700   1.597   0.881  13.951 -0.4745  0.2935 -0.0599
 5355SOL    HW127701   1.541   0.946  13.910  1.5807  2.1804  0.1215
 5355SOL    HW227702   1.566   0.874  14.041 -1.2391 -1.1891 -0.4375
 5356SOL     OW27703   0.141   0.265   6.256  0.2545 -0.3104  0.2784
 5356SOL    HW127704   0.076   0.336   6.257  0.7144  0.1259 -2.0046
 5356SOL    HW227705   0.195   0.285   6.180  0.4143 -0.7278  0.2792
 5357SOL     OW27706   1.829   3.170   4.850 -0.6700 -0.2581 -0.6309
 5357SOL    HW127707   1.748   3.164   4.900 -0.5971  0.8033 -0.3982
 5357SOL    HW227708   1.796   3.160   4.761 -1.3577  3.3323 -0.7553
 5358SOL     OW27709   4.440   4.455   4.338  0.0820  0.0569 -0.2753
 5358SOL    HW127710   4.505   4.384   4.332  0.7502  0.7940 -1.7578
 5358SOL    HW227711   4.438   4.463   4.433 -3.7081 -2.2296 -0.1817
 5359SOL     OW27712   0.647   3.214   2.015 -0.5731 -0.7318 -0.3928
 5359SOL    HW127713   0.710   3.280   2.045 -1.5921  1.1313 -2.3062
 5359SOL    HW227714   0.673   3.191   1.926  1.1026  1.1726 -0.3977
 5360SOL     OW27715   2.685   3.002   2.855  0.1247  0.2392  0.7398
 5360SOL    HW127716   2.773   3.016   2.819 -0.4694  2.6204  0.2262
 5360SOL    HW227717   2.641   2.971   2.776 -0.1714 -0.5393  1.2113
 5361SOL     OW27718   3.996   4.031   9.247 -0.3415  0.8521 -0.0510
 5361SOL    HW127719   3.997   3.937   9.269 -0.9141  0.6532 -0.8711
 5361SOL    HW227720   4.086   4.051   9.222 -0.0837 -0.8816 -0.5277
 5362SOL     OW27721   0.113   1.197   8.705  0.0228 -0.2869  0.2288
 5362SOL    HW127722   0.132   1.288   8.726 -4.2601  0.0570  2.5559
 5362SOL    HW227723   0.085   1.168   8.791  0.8345 -0.1455  0.5416
 5363SOL     OW27724   4.662   0.354   3.684 -0.1679  0.0307  0.4323
 5363SOL    HW127725   4.659   0.446   3.659 -3.1666 -0.2090 -0.0966
 5363SOL    HW227726   4.731   0.350   3.750 -0.6337  1.1535  0.9764
 5364SOL     OW27727   0.467   2.805   8.500  0.0394  0.0677  0.1453
 5364SOL    HW127728   0.544   2.751   8.514 -0.5905 -1.9690 -4.2362
 5364SOL    HW227729   0.436   2.748   8.430 -0.7996 -0.5777  1.0375
 5365SOL     OW27730   0.668   0.483   7.764 -0.0620 -0.2689 -0.9409
 5365SOL    HW127731   0.619   0.469   7.845  1.3633 -0.2267 -0.0697
 5365SOL    HW227732   0.629   0.566   7.738  0.2889 -0.0978 -0.9243
 5366SOL     OW27733   4.382   1.040   4.417 -0.1606 -0.0546 -0.2109
 5366SOL    HW127734   4.305   1.074   4.462  0.8554  0.3700  1.1894
 5366SOL    HW227735   4.381   1.079   4.330 -1.6958 -2.4260 -1.2751
 5367SOL     OW27736   4.335   2.976   3.218 -0.0037 -0.0101 -0.3672
 5367SOL    HW127737   4.287   2.942   3.142  1.4952  0.4146 -1.5230
 5367SOL    HW227738   4.267   3.012   3.274  0.6476 -2.0354  1.7047
 5368SOL     OW27739   3.185   2.019   7.147  0.4484  0.6673  0.0989
 5368SOL    HW127740   3.269   2.051   7.178  1.3061 -0.6626 -0.8583
 5368SOL    HW227741   3.183   2.056   7.059  0.1133 -0.7790 -0.5102
 5369SOL     OW27742   0.370   2.679   2.964 -0.0932 -0.6371 -0.3058
 5369SOL    HW127743   0.443   2.740   2.961  0.8660 -1.8198 -0.8615
 5369SOL    HW227744   0.313   2.727   3.024  0.4735 -1.4361  0.8730
 5370SOL     OW27745   1.801   2.350  16.974  0.3458 -0.0725 -0.2350
 5370SOL    HW127746   1.794   2.444  16.990  0.3291  0.0459 -0.9443
 5370SOL    HW227747   1.749   2.348  16.894  0.6779  0.3799 -0.4609
 5371SOL     OW27748   2.113   4.428  10.223  0.1775 -0.6274 -0.5350
 5371SOL    HW127749   2.163   4.379  10.157  2.0774  1.2809 -0.5333
 5371SOL    HW227750   2.103   4.366  10.295 -1.0119  0.0815 -0.0843
 5372SOL     OW27751   1.960   4.192   7.565  0.4233 -0.1153 -0.2066
 5372SOL    HW127752   1.868   4.191   7.539 -0.3777 -1.2554  2.7244
 5372SOL    HW227753   1.976   4.275   7.610 -0.3731 -0.3327  0.4768
 5373SOL     OW27754   0.470   4.703   1.158 -0.2519 -0.1182  0.4970
 5373SOL    HW127755   0.561   4.729   1.148 -0.9183  2.6152  1.6244
 5373SOL    HW227756   0.463   4.637   1.089  0.0687 -0.5424  0.8638
 5374SOL     OW27757   1.853   0.567  15.459  0.7246  0.3349 -0.4249
 5374SOL    HW127758   1.829   0.494  15.516  0.7342 -0.4437 -1.4154
 5374SOL    HW227759   1.783   0.581  15.395  0.1813 -2.7089 -0.5074
 5375SOL     OW27760   3.789   1.904   1.656  0.3814 -0.1331  0.3641
 5375SOL    HW127761   3.742   1.824   1.677  3.1513 -2.0073 -0.4801
 5375SOL    HW227762   3.819   1.887   1.567 -1.4519 -1.9886  0.1079
 5376SOL     OW27763   2.584   3.427  13.053 -0.2924 -0.2526 -0.3397
 5376SOL    HW127764   2.524   3.415  13.127  2.9113 -0.4887  2.2283
 5376SOL    HW227765   2.523   3.407  12.983 -2.7191 -0.4278  1.8063
 5377SOL     OW27766   2.379   2.989   7.440 -0.3567  0.1341 -0.2229
 5377SOL    HW127767   2.341   3.076   7.425  0.6094  0.3643 -1.3238
 5377SOL    HW227768   2.316   2.938   7.491  1.0563 -0.7249  0.6696
 5378SOL     OW27769   2.586   4.251   5.018 -0.6272 -0.2392 -0.3875
 5378SOL    HW127770   2.515   4.308   4.988 -1.3553 -1.6185 -1.2809
 5378SOL    HW227771   2.646   4.246   4.944 -1.2343 -2.0714 -0.7407
 5379SOL     OW27772   1.405   0.741   6.348  1.0201 -0.6932 -0.2885
 5379SOL    HW127773   1.419   0.701   6.433  0.5502  2.4195  1.2786
 5379SOL    HW227774   1.374   0.822   6.390 -0.4880 -1.4577  0.0838
 5380SOL     OW27775   4.165   0.308   1.546  0.6934 -0.1698 -0.2365
 5380SOL    HW127776   4.118   0.353   1.616  1.3490  0.4605 -0.2003
 5380SOL    HW227777   4.241   0.282   1.598  0.1212 -0.3205  0.5171
 5381SOL     OW27778   2.946   2.005   0.007  0.2366 -0.1777 -0.5636
 5381SOL    HW127779   2.992   1.936   0.054  1.8845 -0.0546 -1.9974
 5381SOL    HW227780   2.864   2.007   0.057  0.5185  0.3956 -0.1259
 5382SOL     OW27781   0.594   4.488  11.989  0.4773 -0.3815  0.3587
 5382SOL    HW127782   0.515   4.510  12.039  0.8801  0.5440  0.5803
 5382SOL    HW227783   0.590   4.394  12.003 -0.8373 -0.2116  1.1807
 5383SOL     OW27784   0.800   0.604   4.235  0.0434  0.1369  0.3419
 5383SOL    HW127785   0.807   0.630   4.327 -1.2480 -2.1191  1.0899
 5383SOL    HW227786   0.830   0.513   4.234  4.3117  1.5802 -0.0689
 5384SOL     OW27787   1.898   0.518   4.218 -0.5632 -0.0439  0.6389
 5384SOL    HW127788   1.949   0.582   4.267 -1.6466 -0.4941  2.3453
 5384SOL    HW227789   1.829   0.501   4.282  1.0684  0.2179  2.4901
 5385SOL     OW27790   4.222   1.043   8.034 -0.1966  0.3498  0.3230
 5385SOL    HW127791   4.240   1.137   8.042 -2.9776  0.9347 -0.2498
 5385SOL    HW227792   4.299   1.008   8.078 -1.6285 -3.3376 -0.1113
 5386SOL     OW27793   2.013   1.224   8.704  0.3478  0.0424  0.2525
 5386SOL    HW127794   1.928   1.189   8.678  0.5257  0.5971 -1.0769
 5386SOL    HW227795   2.016   1.294   8.639  0.1387  0.6351  0.8820
 5387SOL     OW27796   1.807   3.434   6.693  0.2423  0.4254 -0.2196
 5387SOL    HW127797   1.810   3.514   6.640 -0.7662 -0.7772 -2.0550
 5387SOL    HW227798   1.712   3.423   6.698  0.4703 -0.9230  0.9802
 5388SOL     OW27799   2.533   1.167   7.626 -0.3777  0.3109 -0.3911
 5388SOL    HW127800   2.527   1.138   7.717  0.3369 -0.4964 -0.6025
 5388SOL    HW227801   2.451   1.122   7.603  0.5360 -0.9485 -1.1579
 5389SOL     OW27802   0.282   3.256   9.368 -0.3952 -0.0087 -0.2486
 5389SOL    HW127803   0.273   3.164   9.395 -0.0281  0.0830  0.1777
 5389SOL    HW227804   0.372   3.248   9.334 -0.1206 -0.0245  0.4799
 5390SOL     OW27805   0.562   1.669  16.378 -0.6646 -0.1414 -0.0591
 5390SOL    HW127806   0.590   1.724  16.451  0.7011  0.5387 -1.0816
 5390SOL    HW227807   0.614   1.715  16.313  1.2114 -0.3268  1.3204
 5391SOL     OW27808   2.881   0.770   8.047  0.2585  0.0474  0.0979
 5391SOL    HW127809   2.931   0.751   8.127 -0.4160  0.3335  0.5879
 5391SOL    HW227810   2.844   0.683   8.030  1.9521  0.0884 -3.7729
 5392SOL     OW27811   4.620   2.739   3.061  0.1752  0.1642 -0.3773
 5392SOL    HW127812   4.602   2.755   3.153  1.6641  0.4469 -0.1351
 5392SOL    HW227813   4.616   2.831   3.036 -0.3396  0.8974  2.3722
 5393SOL     OW27814   0.454   3.433   1.986 -0.0633 -0.1119 -0.1591
 5393SOL    HW127815   0.494   3.464   1.905  1.0137 -1.9712 -0.3313
 5393SOL    HW227816   0.504   3.354   2.006 -0.4499 -0.2875  0.1102
 5394SOL     OW27817   4.488   4.604   6.279  0.5795 -0.0449  0.3044
 5394SOL    HW127818   4.417   4.658   6.244 -0.1231  0.1044  2.0055
 5394SOL    HW227819   4.563   4.662   6.267  2.3669 -2.4501 -0.1017
 5395SOL     OW27820   2.020   1.793   4.158 -0.1395 -0.3426  0.3809
 5395SOL    HW127821   2.048   1.705   4.135 -0.7529 -0.3497 -0.3415
 5395SOL    HW227822   1.929   1.764   4.142  0.0973 -0.6931 -0.3535
 5396SOL     OW27823   2.519   0.917   4.150  0.4300 -0.3886  0.2213
 5396SOL    HW127824   2.475   0.832   4.160  0.5451 -0.5428 -0.5300
 5396SOL    HW227825   2.553   0.926   4.239  1.5590 -0.5218 -0.1967
 5397SOL     OW27826   1.357   2.979  13.591 -0.1089  0.3479  0.1328
 5397SOL    HW127827   1.287   3.008  13.533  0.0369  0.5597  0.0637
 5397SOL    HW227828   1.408   3.059  13.600  0.1555  0.0809  0.9902
 5398SOL     OW27829   2.469   1.326   4.596  0.0791 -0.4196  0.1803
 5398SOL    HW127830   2.551   1.375   4.602 -0.0602 -0.2127  0.3394
 5398SOL    HW227831   2.485   1.256   4.660  2.4069 -1.7376 -1.8091
 5399SOL     OW27832   0.166   1.126   4.078 -0.4581 -0.0471  0.0673
 5399SOL    HW127833   0.200   1.097   4.163 -1.5553  1.4515  1.0369
 5399SOL    HW227834   0.157   1.217   4.107  1.1160  0.0330  0.2964
 5400SOL     OW27835   2.844   1.554   7.127  0.5242  0.5334  0.2815
 5400SOL    HW127836   2.839   1.606   7.046  2.7827 -2.0094 -1.5093
 5400SOL    HW227837   2.790   1.479   7.101  1.5063 -0.0457 -0.0837
 5401SOL     OW27838   4.620   0.466   2.005  0.2575  0.1070  0.5069
 5401SOL    HW127839   4.613   0.530   2.075 -1.0588  0.0464  0.4354
 5401SOL    HW227840   4.582   0.521   1.936 -0.7469  0.3922  1.2942
 5402SOL     OW27841   3.175   1.946  12.701  0.9793  0.1023 -0.5787
 5402SOL    HW127842   3.185   1.958  12.607  0.0309 -0.2212 -0.7159
 5402SOL    HW227843   3.129   1.863  12.707 -1.6097  1.5320 -0.8153
 5403SOL     OW27844   2.568   0.454   2.999 -0.2047 -0.1679  0.1581
 5403SOL    HW127845   2.480   0.420   2.986  1.4583 -4.1564 -0.8544
 5403SOL    HW227846   2.552   0.542   2.965  0.9624 -0.0774 -0.1479
 5404SOL     OW27847   1.270   3.957   7.831 -0.1860  0.1667  0.0632
 5404SOL    HW127848   1.306   3.948   7.919 -2.6169  0.8448  1.1396
 5404SOL    HW227849   1.330   4.021   7.793  0.4987  1.1635  2.8317
 5405SOL     OW27850   2.069   4.317   5.838 -0.4021 -0.0916 -0.0068
 5405SOL    HW127851   1.985   4.362   5.841 -0.9917 -1.1869  0.0202
 5405SOL    HW227852   2.085   4.307   5.744 -0.3119 -2.7527  0.2716
 5406SOL     OW27853   1.358   4.612   7.995  0.3952 -1.2031 -0.2229
 5406SOL    HW127854   1.321   4.596   7.908 -1.0567  1.3654 -0.0576
 5406SOL    HW227855   1.343   4.706   7.992  4.6174 -0.4714  1.4077
 5407SOL     OW27856   3.846   0.829   0.463  0.4737 -0.2561 -0.0774
 5407SOL    HW127857   3.790   0.752   0.455  0.1649 -0.1945  1.5306
 5407SOL    HW227858   3.814   0.867   0.381 -0.7032 -0.6480  0.1908
 5408SOL     OW27859   2.520   2.269   1.355 -0.6434  0.2938  0.6780
 5408SOL    HW127860   2.583   2.339   1.373  0.1716  0.0055 -1.0580
 5408SOL    HW227861   2.440   2.319   1.335 -0.5651  1.0058  2.1552
 5409SOL     OW27862   1.929   3.663   6.219  0.1578 -0.6142  0.1117
 5409SOL    HW127863   1.917   3.634   6.129  0.1864  0.8414 -0.3623
 5409SOL    HW227864   1.988   3.593   6.247  0.1281 -1.5910 -2.3243
 5410SOL     OW27865   0.138   4.675   1.280 -0.0386  0.1531  0.2618
 5410SOL    HW127866   0.168   4.623   1.354 -0.3987 -1.2393 -0.5828
 5410SOL    HW227867   0.130   0.016   1.333 -1.2519  0.9384 -1.0984
 5411SOL     OW27868   3.246   2.896   5.316  0.0453 -0.2343  0.4239
 5411SOL    HW127869   3.289   2.883   5.401 -1.4099  1.9275  1.4842
 5411SOL    HW227870   3.294   2.973   5.286 -0.5241 -0.9092 -2.1612
 5412SOL     OW27871   2.462   3.381  16.840  0.4202  0.0969 -0.3197
 5412SOL    HW127872   2.493   3.390  16.930  0.9121  1.8665 -0.6699
 5412SOL    HW227873   2.488   3.290  16.828 -1.7079 -0.6656  0.8846
 5413SOL     OW27874   4.309   0.405   3.145  0.1984 -0.4007 -0.6502
 5413SOL    HW127875   4.336   0.331   3.091 -0.2246  0.6147 -2.2927
 5413SOL    HW227876   4.342   0.481   3.097 -0.1767  0.1559 -0.0279
 5414SOL     OW27877   1.980   0.241  10.492  0.2999 -0.0839 -0.0312
 5414SOL    HW127878   1.999   0.294  10.569  1.1382 -0.3313 -0.0664
 5414SOL    HW227879   2.037   0.164  10.499 -0.9757 -1.0235 -0.0733
 5415SOL     OW27880   2.087   0.126   7.080  0.2716 -1.0328  0.1714
 5415SOL    HW127881   2.053   0.207   7.118 -0.3912 -0.8435 -0.8516
 5415SOL    HW227882   2.013   0.100   7.025  0.7161 -1.5401 -0.1853
 5416SOL     OW27883   3.492   3.993  10.357 -0.2086 -0.0825  0.6813
 5416SOL    HW127884   3.529   4.054  10.421 -2.0624  0.6655  1.0207
 5416SOL    HW227885   3.402   3.984  10.388 -0.2405  0.9105  0.8765
 5417SOL     OW27886   0.829   1.874   5.841  0.4954  0.2402  0.2262
 5417SOL    HW127887   0.766   1.922   5.895 -2.9103 -2.2494 -1.5636
 5417SOL    HW227888   0.858   1.959   5.807  0.9601 -0.3724 -0.9297
 5418SOL     OW27889   1.462   4.017   7.639  0.0569  0.5017 -0.4506
 5418SOL    HW127890   1.557   4.031   7.638  0.4474 -2.1277  0.2586
 5418SOL    HW227891   1.433   4.107   7.623  1.7569  1.2005  0.3889
 5419SOL     OW27892   2.464   3.314   5.157 -0.1268  0.2713  0.1397
 5419SOL    HW127893   2.533   3.315   5.224  0.3309  0.0798 -0.3225
 5419SOL    HW227894   2.403   3.254   5.200  0.6413 -1.4823 -1.1918
 5420SOL     OW27895   1.210   0.084   3.214 -0.4309 -0.0681 -0.4892
 5420SOL    HW127896   1.255   0.002   3.236  0.4484  0.1416 -1.5060
 5420SOL    HW227897   1.213   0.146   3.287 -0.4479 -0.0132 -0.5359
 5421SOL     OW27898   4.093   3.506   7.676 -0.5655  0.3367 -0.2139
 5421SOL    HW127899   4.070   3.572   7.741 -2.5882  1.1348 -1.7273
 5421SOL    HW227900   4.006   3.495   7.637  0.2239  1.9660 -2.4503
 5422SOL     OW27901   1.752   0.831   1.960  0.4941 -0.1192  0.1821
 5422SOL    HW127902   1.735   0.923   1.942 -1.5526 -0.8883 -1.7745
 5422SOL    HW227903   1.795   0.807   1.878 -0.5803 -0.0971 -0.3857
 5423SOL     OW27904   2.097   1.756   1.676  1.2277  0.3772 -0.0881
 5423SOL    HW127905   2.139   1.831   1.634 -0.8566  0.4019 -2.0760
 5423SOL    HW227906   2.160   1.687   1.656  0.2150 -0.0934 -1.6528
 5424SOL     OW27907   3.511   1.724   6.248  0.1926  0.1255 -0.2730
 5424SOL    HW127908   3.579   1.790   6.262  0.5828 -0.4032  0.3250
 5424SOL    HW227909   3.438   1.769   6.289  1.3086  3.3748 -1.8902
 5425SOL     OW27910   2.507   1.205  10.554  0.2165 -0.3469 -0.2587
 5425SOL    HW127911   2.578   1.185  10.616  0.1690 -0.1000 -0.1263
 5425SOL    HW227912   2.519   1.298  10.533 -1.6322 -0.0589 -0.0297
 5426SOL     OW27913   4.410   4.492   8.731  0.2364  0.1550 -0.1745
 5426SOL    HW127914   4.437   4.429   8.798  1.8841  0.2895 -0.7073
 5426SOL    HW227915   4.383   4.431   8.663 -2.3386  1.2427 -0.0948
 5427SOL     OW27916   0.338   1.877   4.553  0.0655  0.3307 -0.2381
 5427SOL    HW127917   0.376   1.936   4.488  0.2827 -2.2908 -2.4971
 5427SOL    HW227918   0.414   1.836   4.593  0.8150  2.8117  0.8928
 5428SOL     OW27919   3.787   0.388   5.839 -0.1424  0.4199 -0.3617
 5428SOL    HW127920   3.863   0.404   5.784 -0.0162 -0.5700 -0.4797
 5428SOL    HW227921   3.752   0.303   5.811  0.7024 -0.4598  1.2398
 5429SOL     OW27922   3.598   3.462   9.161  0.0008  0.7800  0.1964
 5429SOL    HW127923   3.683   3.432   9.192  0.2322  2.3106  1.0642
 5429SOL    HW227924   3.629   3.551   9.146  2.0388  0.2782  1.4986
 5430SOL     OW27925   1.850   4.641   6.180 -0.0436 -0.2985  0.4393
 5430SOL    HW127926   1.848   4.624   6.086  0.1634 -0.1635  0.4108
 5430SOL    HW227927   1.779   4.705   6.190  1.4029  1.0152  2.2120
 5431SOL     OW27928   0.268   2.475   9.721 -0.2914 -0.7391  0.0989
 5431SOL    HW127929   0.264   2.570   9.710  0.0204 -0.7595 -0.1743
 5431SOL    HW227930   0.259   2.454   9.815 -1.7829 -3.3638 -0.6198
 5432SOL     OW27931   3.517   0.497  15.237 -0.0478 -0.2083 -0.2936
 5432SOL    HW127932   3.499   0.580  15.280 -2.1953 -1.0155  0.3985
 5432SOL    HW227933   3.612   0.496  15.242  0.1156  0.8809 -3.2577
 5433SOL     OW27934   1.772   2.311   0.980  0.0492 -0.6172  0.1572
 5433SOL    HW127935   1.728   2.386   0.939 -1.3641 -0.5380  1.8374
 5433SOL    HW227936   1.857   2.343   1.011  0.2050 -1.7303  0.8496
 5434SOL     OW27937   4.730   3.558   4.068  0.6348  0.0467 -0.1321
 5434SOL    HW127938   0.058   3.549   4.136  0.5584 -0.5995 -0.1382
 5434SOL    HW227939   4.658   3.595   4.118  0.6907 -0.6120  0.4244
 5435SOL     OW27940   1.042   0.525   7.125 -0.0267  0.0335  0.1638
 5435SOL    HW127941   1.009   0.568   7.204  0.2482 -0.9040  0.7865
 5435SOL    HW227942   0.963   0.474   7.109  0.8264 -1.3868  0.4640
 5436SOL     OW27943   1.655   1.216   2.754 -0.2562 -0.0216 -0.3077
 5436SOL    HW127944   1.646   1.296   2.702 -1.0025 -0.0939 -0.2932
 5436SOL    HW227945   1.629   1.151   2.688 -0.4272  0.7286 -0.9806
 5437SOL     OW27946   2.625   2.624  12.593  0.1929  0.3172 -0.2806
 5437SOL    HW127947   2.664   2.679  12.525 -2.8264  0.2346 -2.1076
 5437SOL    HW227948   2.643   2.534  12.565 -1.4400 -0.6281  1.7222
 5438SOL     OW27949   2.869   4.396  17.381  0.4604  0.3573  0.3314
 5438SOL    HW127950   2.915   4.335  17.323  1.1848  0.1971  1.0750
 5438SOL    HW227951   2.845   4.330  17.446 -1.4616  1.6434  0.9148
 5439SOL     OW27952   0.717   1.746   8.234 -0.4094 -0.5675 -0.0595
 5439SOL    HW127953   0.778   1.679   8.203 -1.1865 -1.1672 -0.2970
 5439SOL    HW227954   0.631   1.705   8.230 -1.1190  0.8010  1.2501
 5440SOL     OW27955   3.930   3.549  17.373 -0.4286 -0.1733  0.2695
 5440SOL    HW127956   3.842   3.582  17.357 -0.8286 -0.6436  1.5418
 5440SOL    HW227957   3.973   3.631  17.400 -0.0907 -0.5830  0.9691
 5441SOL     OW27958   4.409   3.399   1.013 -0.1916 -0.1928 -0.4540
 5441SOL    HW127959   4.383   3.310   1.036 -1.0509 -0.2180 -1.5210
 5441SOL    HW227960   4.473   3.379   0.944 -0.4290 -2.3029 -0.0512
 5442SOL     OW27961   0.154   3.593   3.419 -0.1971 -0.4264 -0.7333
 5442SOL    HW127962   0.195   3.673   3.386 -1.4270  0.4100 -0.2554
 5442SOL    HW227963   0.183   3.525   3.358 -1.8440  0.3576 -2.4101
 5443SOL     OW27964   3.617   2.833  12.880 -0.1855 -0.1608  0.2023
 5443SOL    HW127965   3.690   2.884  12.914 -1.7223  0.9906  1.7543
 5443SOL    HW227966   3.552   2.902  12.894 -0.9311 -0.8980  0.3588
 5444SOL     OW27967   1.795   4.713   9.198  0.1144 -1.0116  0.4046
 5444SOL    HW127968   1.762   4.689   9.111 -2.4072  1.6968  0.6233
 5444SOL    HW227969   1.792   0.070   9.196 -0.0886 -1.0004  1.7219
 5445SOL     OW27970   1.685   4.384   2.471 -0.0866 -0.0752  0.0243
 5445SOL    HW127971   1.622   4.335   2.419  0.2116 -0.7334  0.2737
 5445SOL    HW227972   1.760   4.330   2.445 -0.4281  0.7115 -2.5806
 5446SOL     OW27973   0.277   4.629  14.529 -0.8978  0.2853 -0.1782
 5446SOL    HW127974   0.319   4.714  14.542 -0.9446 -0.0266  1.9852
 5446SOL    HW227975   0.325   4.602  14.450 -1.6130  0.7081 -0.7560
 5447SOL     OW27976   0.293   0.433   5.207 -0.6752  0.0962 -0.1919
 5447SOL    HW127977   0.376   0.407   5.246 -0.1989  1.3956 -0.3580
 5447SOL    HW227978   0.279   0.520   5.245 -0.0157 -0.3920  1.1523
 5448SOL     OW27979   3.289   4.563  11.233  0.4908  0.4126  0.4213
 5448SOL    HW127980   3.373   4.539  11.194  1.1137  1.2046  1.2933
 5448SOL    HW227981   3.238   4.487  11.203 -1.4362  1.0169  2.1806
 5449SOL     OW27982   0.772   3.171  14.824  0.0496 -0.1955  0.2018
 5449SOL    HW127983   0.849   3.127  14.860 -0.5837 -1.5453 -0.1056
 5449SOL    HW227984   0.723   3.191  14.904  1.2810  2.7082  0.2401
 5450SOL     OW27985   3.342   0.852  15.054  0.3472  0.3111 -0.1936
 5450SOL    HW127986   3.390   0.913  15.109  0.8906 -1.0371  0.8542
 5450SOL    HW227987   3.332   0.900  14.972 -0.6791 -0.8032 -0.7301
 5451SOL     OW27988   3.884   0.128   8.284 -0.1700 -0.1348 -0.3402
 5451SOL    HW127989   3.803   0.078   8.271  0.3289 -0.7488 -1.1282
 5451SOL    HW227990   3.912   0.106   8.373 -1.7126  1.3208  0.4980
 5452SOL     OW27991   3.763   1.029   8.461 -0.0985 -0.2265  0.3836
 5452SOL    HW127992   3.822   0.964   8.499 -0.0247  0.4043  1.3481
 5452SOL    HW227993   3.788   1.022   8.369 -0.7906  2.3486  0.0068
 5453SOL     OW27994   3.365   2.515  17.395 -0.5666 -0.8726 -1.0837
 5453SOL    HW127995   3.306   2.578  17.435 -0.9756 -0.7109 -1.9366
 5453SOL    HW227996   3.387   2.570  17.319 -0.6072 -0.4442 -0.7817
 5454SOL     OW27997   0.035   4.028  15.338  0.1986 -0.3053 -0.8089
 5454SOL    HW127998   0.012   4.052  15.428 -0.7701  2.9158 -1.9117
 5454SOL    HW227999   0.020   4.104  15.282 -1.5717  0.8682  1.2247
 5455SOL     OW28000   1.095   3.832  10.382  0.3949  0.0262 -0.3573
 5455SOL    HW128001   1.131   3.753  10.341  1.3645 -0.0019  0.5453
 5455SOL    HW228002   1.141   3.831  10.466  0.0263  2.0944 -0.1308
 5456SOL     OW28003   1.507   2.408   6.945 -0.2008 -0.3736  0.4868
 5456SOL    HW128004   1.543   2.439   7.028  0.2625  2.2100 -0.7116
 5456SOL    HW228005   1.490   2.488   6.895 -1.2235  0.2659  1.8699
 5457SOL     OW28006   1.197   4.386  15.123  0.1403 -0.1728 -0.0980
 5457SOL    HW128007   1.227   4.303  15.086 -0.6137  0.7615 -2.8037
 5457SOL    HW228008   1.282   4.429  15.108  0.3956 -0.1144  1.5786
 5458SOL     OW28009   3.472   1.374   3.745  0.3974  0.2422  0.3081
 5458SOL    HW128010   3.552   1.414   3.710  2.1546 -0.9476  2.9190
 5458SOL    HW228011   3.502   1.332   3.826  0.3057  0.3164  0.3815
 5459SOL     OW28012   1.961   0.286  15.324 -0.1138 -0.3096 -0.4018
 5459SOL    HW128013   1.873   0.256  15.302 -0.6316 -0.6471  2.1353
 5459SOL    HW228014   1.942   0.370  15.367  2.6521 -1.1756  2.4944
 5460SOL     OW28015   1.195   1.468   2.442  0.2482 -0.0315 -0.4039
 5460SOL    HW128016   1.109   1.508   2.441  0.2762  0.0491  0.1208
 5460SOL    HW228017   1.246   1.508   2.372 -0.8065  1.2545 -0.4122
 5461SOL     OW28018   0.080   2.687   8.358  0.3022 -0.3368 -0.1728
 5461SOL    HW128019   0.127   2.739   8.423  0.5619 -1.6368  0.6978
 5461SOL    HW228020   0.045   2.751   8.296  0.8824  0.8106  0.7104
 5462SOL     OW28021   4.172   0.513   7.556  0.6904 -0.4102 -0.5761
 5462SOL    HW128022   4.179   0.555   7.470 -0.0827  1.8472  0.4856
 5462SOL    HW228023   4.113   0.568   7.607  1.4858  1.4904 -1.7199
 5463SOL     OW28024   3.878   2.077   8.234  0.2489 -0.6043 -0.4754
 5463SOL    HW128025   3.951   2.020   8.259  0.4522  0.2183  0.8677
 5463SOL    HW228026   3.830   2.059   8.315 -0.4382 -0.9582 -0.9736
 5464SOL     OW28027   4.420   0.106  16.800  0.1158  0.2985 -0.4832
 5464SOL    HW128028   4.440   0.162  16.875  0.0687 -1.3449  0.7508
 5464SOL    HW228029   4.478   0.156  16.742  1.3840 -0.6119  0.0081
 5465SOL     OW28030   1.206   0.600   4.800 -0.1725  0.0272  0.6792
 5465SOL    HW128031   1.146   0.671   4.776 -1.1463 -0.7968  0.6320
 5465SOL    HW228032   1.234   0.639   4.882 -2.2148  0.3788  1.2108
 5466SOL     OW28033   3.243   4.070  15.773  0.5037  0.2460 -0.3283
 5466SOL    HW128034   3.195   4.130  15.716 -1.4310 -1.0479 -0.0480
 5466SOL    HW228035   3.189   3.991  15.777  1.2741 -0.2852 -0.4392
 5467SOL     OW28036   1.373   1.702  11.625  0.3864 -0.4177  0.5608
 5467SOL    HW128037   1.368   1.617  11.581 -0.5668  0.4833 -1.0914
 5467SOL    HW228038   1.287   1.693  11.666  0.1940 -0.8749  0.0607
 5468SOL     OW28039   2.292   1.108   5.719  0.4751  0.1938  0.3080
 5468SOL    HW128040   2.313   1.130   5.628  2.0710  0.1436  0.6510
 5468SOL    HW228041   2.282   1.014   5.707  0.5370  0.5114 -2.1376
 5469SOL     OW28042   3.540   4.459   2.113 -0.0341  0.4667 -0.1081
 5469SOL    HW128043   3.616   4.405   2.134 -1.2751 -0.5121  1.8740
 5469SOL    HW228044   3.468   4.410   2.154 -2.6134  4.6916  0.4411
 5470SOL     OW28045   1.957   4.448   0.287 -0.3650  0.1766 -0.1268
 5470SOL    HW128046   2.046   4.460   0.254 -1.0145 -1.0228 -2.3675
 5470SOL    HW228047   1.930   4.367   0.243  0.3207 -0.3882  0.4772
 5471SOL     OW28048   2.465   1.515   3.760 -0.1457 -0.3772  0.6664
 5471SOL    HW128049   2.487   1.423   3.745 -0.1310 -0.4794  1.3427
 5471SOL    HW228050   2.543   1.570   3.750  0.1747 -1.1648 -1.1439
 5472SOL     OW28051   4.271   3.060   4.540 -0.8325 -0.3539 -0.0903
 5472SOL    HW128052   4.205   2.998   4.510 -0.3188 -0.9567  0.0168
 5472SOL    HW228053   4.218   3.122   4.590 -2.5403 -0.2660 -2.0260
 5473SOL     OW28054   4.241   1.115  12.770 -0.2516  0.1111  0.1273
 5473SOL    HW128055   4.233   1.029  12.809 -0.4678 -0.5407 -1.3592
 5473SOL    HW228056   4.153   1.148  12.789 -0.1930  0.4223 -0.1355
 5474SOL     OW28057   3.644   0.100   5.048 -0.0840 -0.3922  0.4266
 5474SOL    HW128058   3.656   0.189   5.080 -0.6514 -0.2962  0.3676
 5474SOL    HW228059   3.553   0.079   5.072  0.0597 -1.1913  0.2907
 5475SOL     OW28060   1.249   0.447   6.784 -0.0584 -0.7389  0.0327
 5475SOL    HW128061   1.305   0.374   6.811  0.0323 -1.0235 -0.9470
 5475SOL    HW228062   1.309   0.495   6.727 -0.2835  0.9076  1.1908
 5476SOL     OW28063   3.814   4.120   7.420  0.1186 -0.6069  0.4513
 5476SOL    HW128064   3.857   4.159   7.496  0.6809  0.1850 -0.2682
 5476SOL    HW228065   3.818   4.031   7.454  2.4399 -1.3136 -1.6985
 5477SOL     OW28066   2.535   2.656   3.408 -0.3747  0.1719 -0.3743
 5477SOL    HW128067   2.483   2.693   3.336 -0.2878  0.2929 -0.3757
 5477SOL    HW228068   2.621   2.669   3.369 -0.6584 -0.2513 -1.1577
 5478SOL     OW28069   1.867   4.203   0.178 -0.0599 -0.3699 -0.2191
 5478SOL    HW128070   1.880   4.178   0.086 -0.6430 -0.9252 -0.1459
 5478SOL    HW228071   1.855   4.116   0.215 -2.8020 -0.4136 -1.1972
 5479SOL     OW28072   4.617   0.686   3.296  0.2309  0.8771  0.4175
 5479SOL    HW128073   4.532   0.714   3.332  1.0443  2.5452  1.0537
 5479SOL    HW228074   4.589   0.657   3.209  2.7748 -0.0133 -0.0794
 5480SOL     OW28075   4.722   2.002   3.717  0.1280 -0.0067 -0.0420
 5480SOL    HW128076   0.044   1.928   3.719 -0.6085 -0.6977 -3.9778
 5480SOL    HW228077   4.647   1.969   3.766 -1.3930 -1.6075 -3.4217
 5481SOL     OW28078   1.374   0.655   6.624  0.4699  0.2830  0.4703
 5481SOL    HW128079   1.313   0.720   6.661  2.4036  2.2730  0.1803
 5481SOL    HW228080   1.456   0.703   6.614  0.0621  1.1197  1.1194
 5482SOL     OW28081   2.680   4.474  12.414  0.2573 -0.5294  0.0310
 5482SOL    HW128082   2.719   4.535  12.352 -1.6490 -0.1919 -0.8541
 5482SOL    HW228083   2.623   4.422  12.356 -0.3163  0.1643 -0.0249
 5483SOL     OW28084   4.178   3.320  16.057 -0.3465  0.0317  0.0553
 5483SOL    HW128085   4.245   3.378  16.022 -0.5543  1.1544  1.5422
 5483SOL    HW228086   4.116   3.305  15.985 -1.4491  2.9327  0.4200
 5484SOL     OW28087   3.163   4.507  17.256  0.2470  0.1754 -0.1414
 5484SOL    HW128088   3.074   4.490  17.225  0.8253 -3.3643  0.1543
 5484SOL    HW228089   3.202   4.545  17.177  0.6606  0.0472  0.0030
 5485SOL     OW28090   3.562   1.303   6.702 -0.6413  0.5883  0.4248
 5485SOL    HW128091   3.560   1.397   6.686  0.2292  0.2851 -1.5201
 5485SOL    HW228092   3.612   1.273   6.625 -1.3333  0.9180 -0.1571
 5486SOL     OW28093   2.604   3.603   0.688 -0.4539  0.1618 -0.2783
 5486SOL    HW128094   2.540   3.576   0.754  3.0458 -0.6114  2.7417
 5486SOL    HW228095   2.588   3.697   0.680  1.5451  0.5914  0.9382
 5487SOL     OW28096   4.363   2.792   9.572 -0.3098  0.1163  0.3393
 5487SOL    HW128097   4.349   2.707   9.613 -2.0217  1.1138  1.8205
 5487SOL    HW228098   4.321   2.768   9.489 -0.5260 -2.2984  1.1568
 5488SOL     OW28099   3.680   3.186   6.659  0.4901  0.5927 -0.2647
 5488SOL    HW128100   3.629   3.255   6.617 -0.4694 -0.3166 -0.5813
 5488SOL    HW228101   3.761   3.227   6.689  0.3102 -0.1333  1.2084
 5489SOL     OW28102   2.322   2.361   8.359 -0.0095 -0.8507  0.1644
 5489SOL    HW128103   2.272   2.423   8.413  0.6247  0.3252 -0.6044
 5489SOL    HW228104   2.280   2.284   8.398 -0.5583 -0.3028  0.6502
 5490SOL     OW28105   3.206   3.162   8.107  0.5107  0.7396  0.1323
 5490SOL    HW128106   3.285   3.212   8.123  0.7567  0.5322 -0.4142
 5490SOL    HW228107   3.163   3.225   8.050 -1.3295 -0.0245  0.6730
 5491SOL     OW28108   0.031   3.867   8.876  0.0998 -0.0596  0.2444
 5491SOL    HW128109   0.098   3.886   8.811 -0.7673  0.6296 -0.4477
 5491SOL    HW228110   0.064   3.793   8.928 -2.3128 -1.1066  0.3235
 5492SOL     OW28111   0.276   4.581   7.121  0.4223  0.0879 -0.2640
 5492SOL    HW128112   0.195   4.633   7.117  0.6109  0.5205  1.5332
 5492SOL    HW228113   0.335   4.631   7.176  2.0335 -0.8539 -1.1492
 5493SOL     OW28114   2.750   1.904   9.159  0.1613 -0.1870  0.3321
 5493SOL    HW128115   2.814   1.940   9.220 -0.1117 -0.9497  1.0765
 5493SOL    HW228116   2.674   1.957   9.181  0.0931  0.5748 -1.7190
 5494SOL     OW28117   3.919   0.277  12.382 -0.0346  0.3457  0.1883
 5494SOL    HW128118   3.908   0.182  12.387 -1.2587  0.4024 -1.5200
 5494SOL    HW228119   3.981   0.283  12.455 -1.0984  1.4735  0.9777
 5495SOL     OW28120   0.868   2.092  11.910 -0.5223  0.0115  0.6079
 5495SOL    HW128121   0.808   2.053  11.846 -0.4714  1.5301 -0.3526
 5495SOL    HW228122   0.933   2.138  11.857  1.4022 -0.4090  2.5633
 5496SOL     OW28123   1.972   1.760   8.583  0.2871  0.4457 -0.0868
 5496SOL    HW128124   2.044   1.761   8.647  0.0917  1.1747  0.1211
 5496SOL    HW228125   1.942   1.850   8.570  3.3255  1.5545  0.5472
 5497SOL     OW28126   2.357   1.144  11.173  0.1891  0.4269 -0.4069
 5497SOL    HW128127   2.291   1.209  11.149 -0.5432 -0.8938 -1.9853
 5497SOL    HW228128   2.438   1.186  11.145  1.6859 -1.1138  1.5621
 5498SOL     OW28129   1.662   2.216   4.114  0.2300  0.4961  0.7753
 5498SOL    HW128130   1.747   2.217   4.070 -0.0559 -1.0060  0.1917
 5498SOL    HW228131   1.666   2.144   4.177 -1.0860  0.5167  0.8992
 5499SOL     OW28132   4.685   3.552   1.908  0.1615 -0.2738 -0.4025
 5499SOL    HW128133   4.645   3.582   1.826  1.3598 -1.0366 -1.2728
 5499SOL    HW228134   0.011   3.622   1.916  0.4238 -0.5630  0.0274
 5500SOL     OW28135   3.074   4.628   6.530  0.4181  0.3744 -0.3568
 5500SOL    HW128136   3.055   4.718   6.558 -0.3048  0.0168  0.2994
 5500SOL    HW228137   3.058   4.642   6.437  2.6940  2.3474 -0.4611
 5501SOL     OW28138   3.689   4.668   5.641 -0.3184  0.1196 -0.2596
 5501SOL    HW128139   3.661   0.001   5.584 -1.3415  0.2339  0.3716
 5501SOL    HW228140   3.652   4.699   5.724  0.8210  1.1052 -0.1157
 5502SOL     OW28141   4.280   0.457  13.850 -0.7544 -0.0668 -0.4665
 5502SOL    HW128142   4.290   0.473  13.756  0.6564  0.0967 -0.2949
 5502SOL    HW228143   4.329   0.375  13.854 -2.1602 -0.8804  0.0980
 5503SOL     OW28144   4.604   1.893  13.901 -0.6735  0.1943  0.5966
 5503SOL    HW128145   4.699   1.886  13.909 -0.8279 -1.6772  0.9609
 5503SOL    HW228146   4.595   1.958  13.832  3.3985  0.1576  0.0770
 5504SOL     OW28147   0.814   0.285   6.361  0.2053  0.0105  0.2844
 5504SOL    HW128148   0.732   0.238   6.345  0.4470 -0.7057  1.1505
 5504SOL    HW228149   0.782   0.375   6.353 -1.2981 -0.4204  1.4606
 5505SOL     OW28150   1.841   2.395   7.080  0.4506 -0.1586  0.0156
 5505SOL    HW128151   1.845   2.387   6.984 -2.4135  0.1675 -0.1144
 5505SOL    HW228152   1.861   2.310   7.119  1.4722  0.4226  0.7404
 5506SOL     OW28153   3.638   1.841   5.938  0.0841 -0.1815  0.2414
 5506SOL    HW128154   3.683   1.851   5.854 -0.6333  1.2054  0.0119
 5506SOL    HW228155   3.669   1.751   5.944  0.9373  0.1587  0.7952
 5507SOL     OW28156   4.611   2.762   4.045 -0.7725  0.1808 -0.1738
 5507SOL    HW128157   4.698   2.802   4.038 -1.0605  0.8987  0.3143
 5507SOL    HW228158   4.558   2.823   4.097  0.5474  1.8539 -0.8157
 5508SOL     OW28159   0.105   1.952   2.650  0.0095  0.5699 -0.3503
 5508SOL    HW128160   0.141   1.968   2.737  0.0189 -1.2123 -0.0322
 5508SOL    HW228161   0.168   1.992   2.591  1.5775 -0.6366  0.5195
 5509SOL     OW28162   1.818   3.661   6.468  0.0142 -0.2688  0.4318
 5509SOL    HW128163   1.884   3.718   6.509 -0.0161  0.2746 -0.2708
 5509SOL    HW228164   1.840   3.681   6.377  0.4660  0.2834  0.6587
 5510SOL     OW28165   2.569   2.443  15.006 -0.2493  0.4482 -0.2024
 5510SOL    HW128166   2.523   2.491  14.936 -3.6566 -0.2157  1.5933
 5510SOL    HW228167   2.582   2.360  14.961  0.0414 -0.3134  1.3182
 5511SOL     OW28168   1.681   3.438   6.316 -0.1278 -0.3100  0.0613
 5511SOL    HW128169   1.706   3.472   6.230 -2.1934 -0.3277 -0.5474
 5511SOL    HW228170   1.698   3.516   6.369  0.4699  0.2960 -1.0181
 5512SOL     OW28171   1.006   4.084   1.444 -0.3040 -0.0245 -0.1908
 5512SOL    HW128172   1.025   4.037   1.363 -0.3461  1.9237 -1.3402
 5512SOL    HW228173   1.091   4.080   1.489 -1.2742  0.2569  1.6721
 5513SOL     OW28174   1.563   2.462   4.974  0.1937  0.1764 -0.4315
 5513SOL    HW128175   1.620   2.388   4.958 -0.8568 -0.5838 -0.6657
 5513SOL    HW228176   1.486   2.411   4.999  1.0343 -1.0261 -0.3132
 5514SOL     OW28177   1.869   2.877  14.615 -0.1046 -0.0758 -0.3316
 5514SOL    HW128178   1.947   2.914  14.657 -0.5507 -0.7048  1.0332
 5514SOL    HW228179   1.797   2.897  14.675  1.6861  4.1279  0.4204
 5515SOL     OW28180   1.373   4.629  12.857  0.8081 -0.4951  0.6014
 5515SOL    HW128181   1.300   4.654  12.913  0.0728  0.0455 -0.5858
 5515SOL    HW228182   1.351   4.539  12.832  1.6329  0.1098 -2.3807
 5516SOL     OW28183   0.393   0.086   6.129  0.2814 -0.1611 -0.3635
 5516SOL    HW128184   0.303   0.082   6.162 -0.6407 -1.3184 -3.0168
 5516SOL    HW228185   0.407   4.732   6.109 -0.2634 -0.3255  0.0249
 5517SOL     OW28186   1.607   2.642   2.084  0.1665 -0.3213  1.0222
 5517SOL    HW128187   1.635   2.550   2.087 -0.1323 -0.3727  2.0710
 5517SOL    HW228188   1.552   2.655   2.160 -0.0658  2.7666  0.3227
 5518SOL     OW28189   2.094   2.367   2.993 -0.8194 -0.6702  0.7374
 5518SOL    HW128190   2.148   2.424   3.047 -0.1631  0.4795 -1.1241
 5518SOL    HW228191   2.007   2.356   3.031 -0.9444 -2.4781 -0.0762
 5519SOL     OW28192   1.726   3.425  16.128 -0.4155  0.2326 -0.0624
 5519SOL    HW128193   1.819   3.403  16.121 -0.1525  1.3621 -0.1869
 5519SOL    HW228194   1.719   3.440  16.222 -0.0921  0.1065 -0.0197
 5520SOL     OW28195   4.706   0.693   8.015 -0.2872  0.0123 -0.6208
 5520SOL    HW128196   4.677   0.625   7.955  0.8369 -0.7495 -0.3131
 5520SOL    HW228197   0.062   0.692   7.997 -0.4204  0.4208 -1.3310
 5521SOL     OW28198   3.780   3.756  10.088  0.3129  0.1122  0.2992
 5521SOL    HW128199   3.753   3.679  10.137  1.0890 -0.6666 -0.4946
 5521SOL    HW228200   3.708   3.761  10.025  1.3449  2.4428 -0.7378
 5522SOL     OW28201   1.905   1.442   6.235  0.0124 -0.5527  0.2798
 5522SOL    HW128202   1.995   1.471   6.218 -0.1715  0.1370  0.4879
 5522SOL    HW228203   1.916   1.347   6.232  0.0145 -0.5191 -0.8273
 5523SOL     OW28204   1.851   0.929   4.910  0.4152  0.3523 -0.2154
 5523SOL    HW128205   1.880   1.003   4.857 -2.9353  1.2596 -0.7525
 5523SOL    HW228206   1.784   0.879   4.864 -0.4261  0.5283  0.7985
 5524SOL     OW28207   2.616   3.688  13.397  0.3061 -0.0930 -0.5170
 5524SOL    HW128208   2.530   3.686  13.356 -0.4415  0.1866  1.0324
 5524SOL    HW228209   2.608   3.732  13.482  0.0699 -0.3307 -0.4132
 5525SOL     OW28210   2.065   2.571   5.338 -0.0809 -0.0645  0.1132
 5525SOL    HW128211   2.054   2.654   5.384  2.0964 -1.1448  2.5538
 5525SOL    HW228212   2.109   2.512   5.398  1.7001  0.7886 -0.3552
 5526SOL     OW28213   1.617   1.951  11.133  0.5755 -0.3407  0.0794
 5526SOL    HW128214   1.550   1.883  11.136  0.2765 -0.1149 -1.3204
 5526SOL    HW228215   1.625   1.970  11.226  0.3530 -2.2505  0.4822
 5527SOL     OW28216   1.161   1.957   4.112  0.0163 -0.3492 -0.5375
 5527SOL    HW128217   1.229   2.018   4.139 -0.9062 -0.2262  1.5186
 5527SOL    HW228218   1.108   2.013   4.056 -1.2352 -2.1966 -1.1991
 5528SOL     OW28219   3.255   2.404   2.292  0.2483  0.9646 -0.4993
 5528SOL    HW128220   3.232   2.484   2.340  1.4113  1.1429 -0.2367
 5528SOL    HW228221   3.221   2.429   2.206 -1.0564  0.8350 -0.0141
 5529SOL     OW28222   0.875   1.965   8.981 -0.5716 -0.5360  0.2105
 5529SOL    HW128223   0.786   1.932   8.972 -1.1853  1.3334 -0.6833
 5529SOL    HW228224   0.866   2.017   8.900  1.3536  1.4984  1.2915
 5530SOL     OW28225   4.070   1.609   7.124  0.4493 -0.1778 -0.1847
 5530SOL    HW128226   3.986   1.643   7.155  0.4846 -0.6071  0.3823
 5530SOL    HW228227   4.069   1.515   7.145 -2.5871 -0.5374 -1.8642
 5531SOL     OW28228   4.200   2.499   8.942 -0.1164 -0.0740 -0.7832
 5531SOL    HW128229   4.112   2.486   8.907 -0.1362 -2.8635  0.3115
 5531SOL    HW228230   4.198   2.476   9.035  0.6334 -1.9828 -1.2511
 5532SOL     OW28231   2.056   4.575   1.669 -0.0353  0.7224  0.7807
 5532SOL    HW128232   2.095   4.657   1.638  2.2359 -0.6295  0.0671
 5532SOL    HW228233   2.119   4.509   1.640  1.0863  1.1698  2.2162
 5533SOL     OW28234   2.265   2.192   1.128  0.3366 -0.2513 -0.3078
 5533SOL    HW128235   2.311   2.262   1.173 -1.6715  0.9495 -0.1406
 5533SOL    HW228236   2.334   2.141   1.085 -0.2190 -2.0525  0.9592
 5534SOL     OW28237   0.316   3.184   5.913  0.2727  0.2152  0.4006
 5534SOL    HW128238   0.319   3.089   5.898 -0.1063  0.6603 -2.5354
 5534SOL    HW228239   0.282   3.184   6.002  0.6230  1.2135  0.5327
 5535SOL     OW28240   3.721   1.803   5.405 -0.7406  0.1791 -0.1162
 5535SOL    HW128241   3.772   1.852   5.341  1.1748 -2.0228 -0.2422
 5535SOL    HW228242   3.640   1.852   5.423 -1.0432 -0.4048  0.1116
 5536SOL     OW28243   4.584   3.327   8.146 -0.4470  0.2715 -0.2208
 5536SOL    HW128244   4.507   3.296   8.097  0.0838  0.4068 -1.1451
 5536SOL    HW228245   4.541   3.345   8.229  1.8276 -0.8768  1.1772
 5537SOL     OW28246   2.882   3.466   3.496 -0.7377 -0.2019 -0.2010
 5537SOL    HW128247   2.923   3.493   3.578 -0.9268 -1.8377  0.4293
 5537SOL    HW228248   2.882   3.553   3.456  0.2733  0.2012  0.6664
 5538SOL     OW28249   2.675   2.169   3.535 -0.3324 -0.4339 -0.1273
 5538SOL    HW128250   2.715   2.157   3.449 -0.9397 -2.6258 -0.1284
 5538SOL    HW228251   2.618   2.245   3.524  1.7968  1.0848 -0.6163
 5539SOL     OW28252   0.997   3.642   2.052  0.1541  0.3822 -0.1506
 5539SOL    HW128253   1.052   3.631   1.974 -0.3526 -0.2648 -0.4196
 5539SOL    HW228254   0.947   3.720   2.031  2.4096  1.3062 -2.1415
 5540SOL     OW28255   2.890   1.108   5.916  0.2153  0.1928  0.2393
 5540SOL    HW128256   2.926   1.036   5.969 -0.3149 -0.7123 -0.6300
 5540SOL    HW228257   2.950   1.101   5.842 -1.4500 -1.7727 -0.9246
 5541SOL     OW28258   2.168   1.925   9.118  0.5735  0.3237  0.4006
 5541SOL    HW128259   2.136   1.873   9.044  0.6963 -0.9110  1.2106
 5541SOL    HW228260   2.166   2.016   9.090 -1.4741  0.3882  0.7855
 5542SOL     OW28261   1.862   2.937   9.487  0.3735  0.5868  0.4980
 5542SOL    HW128262   1.797   2.887   9.535  0.2932  0.0131 -0.2021
 5542SOL    HW228263   1.805   2.969   9.417 -0.2232  1.5941  1.4529
 5543SOL     OW28264   3.643   2.264   3.980 -0.5656 -0.3275 -0.2269
 5543SOL    HW128265   3.610   2.329   4.041  0.4819 -0.4247  0.4466
 5543SOL    HW228266   3.702   2.217   4.040 -1.9956 -2.1815 -0.2695
 5544SOL     OW28267   2.596   3.966  14.993  0.2655 -0.3196  0.3769
 5544SOL    HW128268   2.673   3.927  14.951  0.6522 -0.1263  0.9068
 5544SOL    HW228269   2.531   3.896  14.981  0.4893 -0.6049  0.8318
 5545SOL     OW28270   3.315   1.760   2.635  0.3717 -0.1383 -0.1165
 5545SOL    HW128271   3.409   1.776   2.646 -0.1665  0.6828  3.1851
 5545SOL    HW228272   3.284   1.826   2.696 -0.5306 -0.9538  0.2917
 5546SOL     OW28273   2.899   2.653  11.213 -0.1092 -0.1651 -0.1965
 5546SOL    HW128274   2.850   2.726  11.173 -1.8904 -1.0537  0.3418
 5546SOL    HW228275   2.982   2.696  11.232 -0.7299  2.1166 -2.5706
 5547SOL     OW28276   1.025   4.000   9.092 -0.0393  0.7663  0.0768
 5547SOL    HW128277   0.940   3.957   9.087 -0.8527  2.5933 -1.7995
 5547SOL    HW228278   1.094   3.944   9.058 -0.0901  0.5243  0.3717
 5548SOL     OW28279   2.424   0.822   9.363  0.5140  0.7906 -0.6121
 5548SOL    HW128280   2.466   0.840   9.279  1.1994 -0.9926 -0.6480
 5548SOL    HW228281   2.436   0.727   9.369  0.4865  1.0087  3.0003
 5549SOL     OW28282   2.628   1.014   5.772 -0.3499 -0.3363 -0.4353
 5549SOL    HW128283   2.706   1.070   5.765  0.1042 -0.7417  1.2620
 5549SOL    HW228284   2.589   1.047   5.852  0.9971  1.3411 -0.4558
 5550SOL     OW28285   0.202   2.305   7.085  0.1323  0.0663 -0.2698
 5550SOL    HW128286   0.248   2.223   7.102 -2.0961 -0.2753  4.0198
 5550SOL    HW228287   0.125   2.295   7.140  0.4181 -1.0015 -0.0674
 5551SOL     OW28288   3.712   1.441   9.385  0.7902  0.2521 -0.0348
 5551SOL    HW128289   3.730   1.456   9.292  0.1066  0.7144 -0.0935
 5551SOL    HW228290   3.629   1.394   9.376  1.2767 -0.5129 -0.5339
 5552SOL     OW28291   3.105   0.637  10.901  0.7823  0.1616 -0.3193
 5552SOL    HW128292   3.101   0.544  10.881  2.0075  0.1184 -0.3372
 5552SOL    HW228293   3.084   0.672  10.814  0.0080 -2.8182 -1.3171
 5553SOL     OW28294   3.078   0.918   9.179  0.4384 -0.3142  0.3048
 5553SOL    HW128295   3.050   0.960   9.261  0.8964  0.1450  0.2326
 5553SOL    HW228296   3.102   0.991   9.121  2.6522 -0.8588  0.5403
 5554SOL     OW28297   0.443   1.570   4.323 -0.0951  0.2897  0.0500
 5554SOL    HW128298   0.483   1.507   4.263 -1.3200 -0.8417  0.4116
 5554SOL    HW228299   0.455   1.520   4.404 -0.5919 -0.7074 -0.4903
 5555SOL     OW28300   0.181   3.938   6.865  0.0401 -0.2516  0.0450
 5555SOL    HW128301   0.098   3.974   6.898 -1.3135 -0.5227 -3.0475
 5555SOL    HW228302   0.163   3.845   6.878  2.4102 -0.8909 -1.3673
 5556SOL     OW28303   0.549   1.965  12.727 -0.3109 -0.5066 -0.3968
 5556SOL    HW128304   0.523   2.049  12.765  0.3881 -0.8133  0.7429
 5556SOL    HW228305   0.631   1.946  12.772 -0.6129  3.8072  1.9983
 5557SOL     OW28306   0.864   4.559   1.839  0.2960 -0.1217  0.4013
 5557SOL    HW128307   0.856   4.469   1.870  1.1833 -0.2835  0.1679
 5557SOL    HW228308   0.807   4.562   1.762 -0.2839  1.5308  0.8908
 5558SOL     OW28309   0.721   2.774   5.252  0.2241  0.0186  0.0918
 5558SOL    HW128310   0.680   2.852   5.215 -2.9788 -1.7063  0.0522
 5558SOL    HW228311   0.811   2.786   5.221 -0.4841  1.8422 -1.2390
 5559SOL     OW28312   3.455   1.725   9.283  0.2803 -0.0492 -0.2086
 5559SOL    HW128313   3.496   1.670   9.216 -0.1238 -1.5113  0.7430
 5559SOL    HW228314   3.378   1.674   9.307  0.2193 -0.2715 -0.8914
 5560SOL     OW28315   3.245   3.997  13.223  0.8665  0.0905  0.0950
 5560SOL    HW128316   3.335   4.028  13.211  1.6489 -3.1207 -2.2093
 5560SOL    HW228317   3.251   3.918  13.169  2.8337 -1.0615  2.0026
 5561SOL     OW28318   1.916   0.124   7.800  0.1339  0.4547  0.1129
 5561SOL    HW128319   1.830   0.166   7.807  0.2361  0.9523 -1.5202
 5561SOL    HW228320   1.955   0.192   7.855  3.0030 -0.1253 -1.2348
 5562SOL     OW28321   4.024   1.754   0.694  0.2561  0.1869 -0.1082
 5562SOL    HW128322   4.073   1.807   0.632  2.9980 -0.2803  1.6261
 5562SOL    HW228323   4.041   1.798   0.778  2.4218 -0.4150 -0.2207
 5563SOL     OW28324   1.906   1.699  10.285 -0.0277 -0.1886  0.1656
 5563SOL    HW128325   1.904   1.661  10.372  1.7955 -1.4779 -0.3626
 5563SOL    HW228326   1.916   1.625  10.226 -0.7368  0.5711 -0.9310
 5564SOL     OW28327   0.675   0.515  16.601 -0.4619 -0.0042 -0.6882
 5564SOL    HW128328   0.707   0.431  16.567 -1.8570 -0.3553 -1.1327
 5564SOL    HW228329   0.693   0.501  16.694  1.6023  2.2420 -0.7305
 5565SOL     OW28330   2.795   4.289   5.394  0.4691  0.5896  0.2992
 5565SOL    HW128331   2.838   4.248   5.318 -0.5399 -0.9282  0.5507
 5565SOL    HW228332   2.853   4.364   5.408 -1.6593  2.0562  1.1200
 5566SOL     OW28333   0.046   1.382   6.353 -0.1863 -0.0161  0.5402
 5566SOL    HW128334   4.710   1.345   6.306  0.5442 -0.7870 -0.0145
 5566SOL    HW228335   0.004   1.384   6.439 -0.2495  1.3891  0.4748
 5567SOL     OW28336   1.481   1.200   3.444 -0.8070  0.5358  0.1451
 5567SOL    HW128337   1.502   1.293   3.437  1.4075  0.2233  2.5409
 5567SOL    HW228338   1.541   1.163   3.379  0.7025 -0.7194  2.2511
 5568SOL     OW28339   2.848   2.407   6.461 -0.4864 -0.5221 -0.4323
 5568SOL    HW128340   2.778   2.392   6.524 -0.7156 -0.4999 -0.6805
 5568SOL    HW228341   2.899   2.326   6.459 -0.1641 -0.3242 -0.3378
 5569SOL     OW28342   4.100   0.016   4.957 -0.3718  0.4207 -0.3736
 5569SOL    HW128343   4.048   4.732   4.880 -0.1324 -1.4883  0.0376
 5569SOL    HW228344   4.102   0.112   4.957 -1.0230  0.4427  1.0807
 5570SOL     OW28345   4.433   1.649  14.595  0.2875  0.2507  0.1411
 5570SOL    HW128346   4.387   1.686  14.519  0.5872 -1.3485 -0.8220
 5570SOL    HW228347   4.458   1.560  14.574 -0.9194  0.2563 -1.3571
 5571SOL     OW28348   4.420   4.721   7.745  0.0783 -0.2174 -0.3899
 5571SOL    HW128349   4.471   0.029   7.678 -1.2152  1.2940 -0.3315
 5571SOL    HW228350   4.345   4.695   7.693 -0.3151 -2.3483  1.2728
 5572SOL     OW28351   4.441   4.202  10.435  0.1731  0.3851  0.0501
 5572SOL    HW128352   4.400   4.223  10.351 -1.2161 -1.6992  0.2311
 5572SOL    HW228353   4.521   4.255  10.433  0.1587  0.3884 -0.4832
 5573SOL     OW28354   1.505   2.938   2.093 -0.2889 -0.1079 -0.1818
 5573SOL    HW128355   1.417   2.970   2.070 -0.6880 -0.8708  0.2767
 5573SOL    HW228356   1.480   2.848   2.114 -0.5037 -0.0217 -0.0623
 5574SOL     OW28357   2.701   4.602   3.835 -0.0700 -0.4744 -0.4557
 5574SOL    HW128358   2.759   4.530   3.811 -2.3419 -1.7401 -2.1584
 5574SOL    HW228359   2.626   4.559   3.875  0.6696 -0.7946  0.5914
 5575SOL     OW28360   0.644   1.291  12.957  0.1313 -0.0255  0.0187
 5575SOL    HW128361   0.603   1.249  12.882 -0.7245  0.6290  0.1191
 5575SOL    HW228362   0.689   1.210  12.983  0.7713  0.8800  1.7781
 5576SOL     OW28363   0.031   2.138   9.186 -0.9272 -0.3510  0.6632
 5576SOL    HW128364   0.061   2.061   9.234 -1.4535 -0.5766  0.6323
 5576SOL    HW228365   0.110   2.192   9.189 -0.7494 -0.5761  0.0404
 5577SOL     OW28366   3.060   0.227   6.376 -0.2552  0.2892  0.1143
 5577SOL    HW128367   2.980   0.217   6.324 -0.2360 -3.7285  0.8720
 5577SOL    HW228368   3.026   0.208   6.463  1.3468  0.4778  0.7709
 5578SOL     OW28369   1.579   1.667   7.551  0.1471  0.0518  0.2878
 5578SOL    HW128370   1.503   1.725   7.556 -0.0503 -0.4567  2.8449
 5578SOL    HW228371   1.639   1.701   7.617  0.9713 -1.8530  0.5135
 5579SOL     OW28372   3.040   2.269   7.296  0.0681 -0.3061 -0.1966
 5579SOL    HW128373   2.963   2.217   7.272 -0.2884  1.5990 -3.1910
 5579SOL    HW228374   3.110   2.207   7.315 -0.4648 -0.6810  0.5477
 5580SOL     OW28375   2.045   0.141   4.293  0.3473 -0.0276 -0.6604
 5580SOL    HW128376   2.083   0.072   4.238  0.0849 -1.1833  0.6123
 5580SOL    HW228377   2.107   0.135   4.365  0.9530  1.5367 -1.0429
 5581SOL     OW28378   1.122   1.230   6.954  0.2636  0.5261 -0.2962
 5581SOL    HW128379   1.043   1.177   6.966 -0.1048  1.0351 -0.5282
 5581SOL    HW228380   1.118   1.277   7.037  0.9049  0.4418 -0.2189
 5582SOL     OW28381   2.097   3.241   3.245  0.3189  0.4514  0.4394
 5582SOL    HW128382   2.063   3.269   3.330  0.7911  2.0490  0.0896
 5582SOL    HW228383   2.077   3.323   3.201  2.7156  0.8359  0.0684
 5583SOL     OW28384   2.941   0.188  12.384  0.1668 -0.6478  0.1571
 5583SOL    HW128385   2.986   0.233  12.456 -0.1626 -0.9507  0.5543
 5583SOL    HW228386   3.018   0.160  12.336  1.1457  0.1815  1.2539
 5584SOL     OW28387   0.699   0.339  12.306 -0.5314 -0.6251  0.0028
 5584SOL    HW128388   0.750   0.343  12.387 -2.8527 -0.1451  1.4476
 5584SOL    HW228389   0.707   0.250  12.272 -0.5956 -1.5561  2.4165
 5585SOL     OW28390   2.033   4.409  13.407  0.3242  0.1044 -0.3222
 5585SOL    HW128391   2.011   4.474  13.341 -0.8576  0.0918  0.0580
 5585SOL    HW228392   2.117   4.370  13.381 -0.2982 -1.5448  0.1282
 5586SOL     OW28393   3.148   4.283  13.371 -0.1638 -0.4274  0.0897
 5586SOL    HW128394   3.219   4.336  13.335  0.8799 -1.6565  0.3240
 5586SOL    HW228395   3.083   4.347  13.401  1.9882  2.1632 -0.7573
 5587SOL     OW28396   2.872   2.292  16.118 -0.1641 -0.0244 -0.2144
 5587SOL    HW128397   2.818   2.272  16.195 -1.1797  2.5083 -0.2749
 5587SOL    HW228398   2.962   2.300  16.151  0.4261  0.3022 -1.9101
 5588SOL     OW28399   3.781   1.109  14.646  0.3455  0.2762 -0.3491
 5588SOL    HW128400   3.828   1.046  14.591  1.2294  0.5702  0.0699
 5588SOL    HW228401   3.729   1.044  14.693 -0.7404 -0.6717 -2.8626
 5589SOL     OW28402   0.696   3.644   3.474 -0.8747 -0.3631  0.2943
 5589SOL    HW128403   0.636   3.679   3.540  1.8117  0.7109  2.2293
 5589SOL    HW228404   0.747   3.585   3.530  0.7357 -0.5559 -1.3871
 5590SOL     OW28405   4.036   2.214   2.155  0.1352 -0.5034 -0.2871
 5590SOL    HW128406   4.019   2.227   2.061  1.1470  0.6183 -0.3087
 5590SOL    HW228407   3.958   2.251   2.195 -0.3719  1.2762 -2.9463
 5591SOL     OW28408   1.115   4.460  14.266  0.6901 -0.4036 -0.4795
 5591SOL    HW128409   1.045   4.501  14.216  0.9116 -0.6301 -0.9789
 5591SOL    HW228410   1.067   4.386  14.302  1.1577  0.3890  1.7739
 5592SOL     OW28411   0.089   0.566   6.268  0.4325 -0.2830 -0.1978
 5592SOL    HW128412   0.086   0.574   6.172  1.0462 -0.5519 -0.2384
 5592SOL    HW228413   4.735   0.563   6.291  0.3401  1.2300 -0.3825
 5593SOL     OW28414   1.995   1.224   3.574 -0.1797 -0.6641 -0.0545
 5593SOL    HW128415   1.942   1.179   3.640 -1.5784  1.2512  0.1206
 5593SOL    HW228416   1.946   1.305   3.558 -0.9594 -0.7673  1.8298
 5594SOL     OW28417   2.256   2.360   3.421  0.4810 -0.0872  0.0533
 5594SOL    HW128418   2.228   2.412   3.496 -0.8110 -0.3336 -0.2714
 5594SOL    HW228419   2.228   2.269   3.433  0.2523  0.0769  0.7730
 5595SOL     OW28420   4.440   1.577  14.003  0.1813 -0.3158  0.1275
 5595SOL    HW128421   4.387   1.655  14.019  0.6105  0.1912 -0.8587
 5595SOL    HW228422   4.425   1.566  13.909  2.3364 -0.4302 -0.2028
 5596SOL     OW28423   0.698   2.651   6.782 -0.1627  0.2670 -0.2803
 5596SOL    HW128424   0.743   2.630   6.864 -0.0720 -1.0923 -0.6915
 5596SOL    HW228425   0.670   2.565   6.752  0.8513  0.2657 -1.2041
 5597SOL     OW28426   0.788   2.565   0.107  0.1381 -0.2471 -0.4634
 5597SOL    HW128427   0.844   2.602   0.176 -3.0099  0.1630  1.8463
 5597SOL    HW228428   0.769   2.644   0.057  2.1280  1.1380  0.9570
 5598SOL     OW28429   0.538   4.486   1.379 -0.1115 -0.2247 -0.0463
 5598SOL    HW128430   0.452   4.463   1.413 -0.8406  2.1507 -0.2555
 5598SOL    HW228431   0.521   4.537   1.299  0.0779  1.5718  1.0496
 5599SOL     OW28432   4.167   1.921   5.297 -0.8084  0.2160  0.0209
 5599SOL    HW128433   4.159   1.963   5.382 -0.1297 -0.0267  0.1943
 5599SOL    HW228434   4.110   1.978   5.244 -1.2303  1.2566  1.6054
 5600SOL     OW28435   4.339   3.044   1.244 -0.6640  0.3133  0.0457
 5600SOL    HW128436   4.253   3.025   1.206 -0.4092  1.1337 -0.9398
 5600SOL    HW228437   4.382   2.972   1.198 -1.2461  1.5878 -2.5295
 5601SOL     OW28438   3.964   0.765   1.141 -0.3326  0.7985 -0.0067
 5601SOL    HW128439   3.998   0.677   1.152 -0.2575  0.8337  0.0385
 5601SOL    HW228440   3.958   0.784   1.235  0.7096 -1.2574  0.4701
 5602SOL     OW28441   1.716   0.448   4.621 -0.4498 -0.4166  0.1667
 5602SOL    HW128442   1.656   0.513   4.657  0.3862 -0.2764  1.3047
 5602SOL    HW228443   1.751   0.501   4.550 -2.2129  1.1673  0.4912
 5603SOL     OW28444   3.727   2.779   4.445 -0.0743 -0.1790  0.7508
 5603SOL    HW128445   3.644   2.749   4.482 -0.5390  0.2524  0.0253
 5603SOL    HW228446   3.761   2.837   4.513 -0.8509  0.0300  0.9585
 5604SOL     OW28447   1.039   0.888  11.262  0.4790 -0.4220  0.3528
 5604SOL    HW128448   1.121   0.886  11.311  1.2987 -1.5721 -1.0508
 5604SOL    HW228449   1.068   0.890  11.170  0.1781 -2.2568  0.2177
 5605SOL     OW28450   2.029   3.886   0.010 -0.1758  0.2161  0.3808
 5605SOL    HW128451   2.101   3.948   0.020 -0.2866  0.6765 -1.6285
 5605SOL    HW228452   1.968   3.949  17.723  0.3716  2.0575  2.5008
 5606SOL     OW28453   0.388   0.353   1.688  0.0248  0.1793  0.2770
 5606SOL    HW128454   0.338   0.292   1.742 -2.2866  0.3167 -1.7095
 5606SOL    HW228455   0.339   0.360   1.606 -0.4961 -0.6173  0.5254
 5607SOL     OW28456   1.863   0.214   3.468  0.1770  0.1649  0.0619
 5607SOL    HW128457   1.793   0.257   3.518 -0.6390 -0.7870 -0.2568
 5607SOL    HW228458   1.922   0.287   3.452  1.7796 -1.3029 -0.7798
 5608SOL     OW28459   1.126   1.815  16.470 -0.4789  0.1915 -0.4982
 5608SOL    HW128460   1.130   1.864  16.388 -2.2124  1.3326  0.1008
 5608SOL    HW228461   1.082   1.880  16.526  0.5274  0.4580  0.0014
 5609SOL     OW28462   0.065   0.061   5.839  0.0879 -0.1003  0.5467
 5609SOL    HW128463   0.159   0.060   5.818  0.0027 -0.9228  0.1918
 5609SOL    HW228464   0.033   0.147   5.813 -1.4164 -0.4094  1.3651
 5610SOL     OW28465   4.664   0.742   8.299  0.3555 -0.2341  0.1100
 5610SOL    HW128466   0.014   0.771   8.322 -0.1077  0.9833  0.3516
 5610SOL    HW228467   4.678   0.728   8.206  0.8492 -2.3652  0.5182
 5611SOL     OW28468   1.523   0.455  17.259  0.1007  0.0903 -0.5714
 5611SOL    HW128469   1.526   0.537  17.210  0.1912  0.3308 -0.1672
 5611SOL    HW228470   1.612   0.457  17.293 -0.1033  0.5597 -0.0651
 5612SOL     OW28471   4.258   0.246   6.687 -0.0539 -0.8319  0.0278
 5612SOL    HW128472   4.258   0.155   6.716  0.5370 -1.0963 -0.7953
 5612SOL    HW228473   4.254   0.243   6.591  0.2574 -0.3055  0.0001
 5613SOL     OW28474   3.131   3.265   8.590  0.1945 -0.0332 -0.3177
 5613SOL    HW128475   3.109   3.358   8.589  0.6142  0.0462 -2.3991
 5613SOL    HW228476   3.067   3.221   8.646  1.2197 -2.3920 -0.9974
 5614SOL     OW28477   4.419   3.019   9.176 -0.1616 -0.8350  0.3233
 5614SOL    HW128478   4.369   3.023   9.094 -0.1926 -0.2874  0.3665
 5614SOL    HW228479   4.353   3.015   9.245  0.5790 -1.5893  0.9843
 5615SOL     OW28480   2.029   2.973   3.253 -0.8217  0.0479  0.2242
 5615SOL    HW128481   2.055   3.065   3.254  1.0480 -0.4864 -1.0640
 5615SOL    HW228482   1.968   2.976   3.179  0.6994 -1.1591 -1.0645
 5616SOL     OW28483   4.101   3.446   2.313 -0.3134 -0.5887 -0.1024
 5616SOL    HW128484   4.029   3.435   2.374 -1.4864 -1.9401 -1.7133
 5616SOL    HW228485   4.056   3.478   2.235  1.1934 -0.7211 -1.0366
 5617SOL     OW28486   3.360   0.297   4.825  0.6235 -1.0349 -0.7279
 5617SOL    HW128487   3.403   0.326   4.905 -2.1218  0.2775  0.2966
 5617SOL    HW228488   3.433   0.300   4.763  1.2530 -2.1492 -0.0302
 5618SOL     OW28489   4.291   4.616   3.521  0.0616  0.7260  0.8433
 5618SOL    HW128490   4.295   4.601   3.615  0.2207  0.1768  0.7494
 5618SOL    HW228491   4.305   4.711   3.516 -3.0152  1.1546  0.7653
 5619SOL     OW28492   0.747   0.167   7.935  0.1747  0.5533 -1.0243
 5619SOL    HW128493   0.719   0.100   7.872  0.7969 -0.5622 -0.1248
 5619SOL    HW228494   0.812   0.213   7.883  1.7778  0.3241  0.7704
 5620SOL     OW28495   4.571   3.070   7.923 -0.2462 -0.8147  0.4494
 5620SOL    HW128496   4.647   3.118   7.956  1.0864 -2.3810 -0.2894
 5620SOL    HW228497   4.510   3.142   7.908 -0.3014 -1.3879 -2.1149
 5621SOL     OW28498   3.367   2.316   3.418  0.0374  0.5705  0.0187
 5621SOL    HW128499   3.350   2.406   3.445 -0.7643  1.1545 -2.3651
 5621SOL    HW228500   3.347   2.273   3.501 -0.1366 -1.1794 -0.9263
 5622SOL     OW28501   1.306   3.973   7.350 -0.2332 -0.4560 -0.3448
 5622SOL    HW128502   1.326   3.894   7.401  0.2105  0.1174  0.3741
 5622SOL    HW228503   1.377   4.028   7.383  0.4624 -1.4058 -0.2478
 5623SOL     OW28504   3.984   1.879   7.540  0.2966 -0.4911  0.2644
 5623SOL    HW128505   4.042   1.891   7.464  0.9320  1.2367  1.0272
 5623SOL    HW228506   3.904   1.894   7.490  1.0702 -0.0947 -0.8594
 5624SOL     OW28507   0.691   1.752   8.655 -0.5307  0.8680 -0.0442
 5624SOL    HW128508   0.703   1.828   8.597  2.1019  1.9868  2.0072
 5624SOL    HW228509   0.761   1.694   8.626 -1.9482 -0.7833 -0.1963
 5625SOL     OW28510   4.684   1.448   6.099  0.3423  0.1834 -0.2597
 5625SOL    HW128511   0.009   1.487   6.037  1.1388 -0.9661 -0.1585
 5625SOL    HW228512   0.005   1.438   6.173 -1.5610 -0.2338  1.2110
 5626SOL     OW28513   3.179   2.724   4.450 -0.3012  0.0118 -0.0172
 5626SOL    HW128514   3.150   2.744   4.539  2.1197  3.5335 -0.0067
 5626SOL    HW228515   3.097   2.720   4.402 -0.7405  1.4433  0.6069
 5627SOL     OW28516   4.684   1.300   6.954  0.2255  0.1373  0.4495
 5627SOL    HW128517   4.734   1.230   6.912 -1.7027 -0.5101 -0.7187
 5627SOL    HW228518   0.001   1.378   6.950  0.4054  0.0182  0.6344
 5628SOL     OW28519   2.107   2.578  14.949 -0.1287  0.5357  0.1092
 5628SOL    HW128520   2.179   2.549  14.893 -2.6259  1.7165 -3.6883
 5628SOL    HW228521   2.065   2.492  14.954  1.6676 -0.4628 -1.5497
 5629SOL     OW28522   2.893   2.791  10.658 -0.0787  0.7528  0.1795
 5629SOL    HW128523   2.834   2.717  10.668  0.7495  0.1010  0.2737
 5629SOL    HW228524   2.935   2.795  10.744  0.9277 -4.9326 -0.0667
 5630SOL     OW28525   3.041   2.127   9.011 -0.2446 -0.0983  0.4590
 5630SOL    HW128526   3.106   2.092   8.950  0.1815  0.5940  0.5154
 5630SOL    HW228527   3.026   2.050   9.066 -1.7488 -1.3146 -1.6830
 5631SOL     OW28528   4.430   0.141  10.493 -0.3166  0.0925  0.1913
 5631SOL    HW128529   4.458   0.174  10.407  0.0564 -1.2139 -0.1804
 5631SOL    HW228530   4.453   0.049  10.485 -1.6389 -0.2755  0.6616
 5632SOL     OW28531   0.313   0.431   8.232  0.9208  0.4706  0.4250
 5632SOL    HW128532   0.238   0.431   8.171 -0.2901  1.4130  1.9083
 5632SOL    HW228533   0.299   0.360   8.294 -1.7682 -1.1222 -1.9513
 5633SOL     OW28534   3.679   1.530  16.230  0.0075 -0.5444 -0.1065
 5633SOL    HW128535   3.595   1.516  16.185  0.2022  0.0864 -0.6751
 5633SOL    HW228536   3.743   1.504  16.164 -0.5063 -1.0510 -0.4046
 5634SOL     OW28537   0.952   2.984   0.641 -0.1255  0.0062 -0.6168
 5634SOL    HW128538   1.034   2.988   0.690 -1.4856  3.4501  1.3178
 5634SOL    HW228539   0.887   3.018   0.702  1.6165 -2.9586  2.8982
 5635SOL     OW28540   0.182   0.938   7.632 -0.0004 -0.5657  0.4946
 5635SOL    HW128541   0.157   1.023   7.595 -1.0658 -2.1616 -2.5171
 5635SOL    HW228542   0.152   0.953   7.721 -0.9774  1.7252 -0.2172
 5636SOL     OW28543   4.173   4.697   6.399 -0.2265 -0.0665 -0.5247
 5636SOL    HW128544   4.191   4.694   6.305  0.7975  0.6583 -0.3547
 5636SOL    HW228545   4.106   0.026   6.386 -0.8789 -0.3962  1.1420
 5637SOL     OW28546   4.371   1.863  14.062 -0.3998  0.2778  0.4321
 5637SOL    HW128547   4.420   1.913  13.997  0.9976 -2.2893 -0.5155
 5637SOL    HW228548   4.434   1.864  14.134 -0.9231 -0.3014  0.8998
 5638SOL     OW28549   3.573   0.958   1.683 -0.2184 -1.0597  0.1235
 5638SOL    HW128550   3.502   0.896   1.673 -0.1239 -1.0161 -0.8232
 5638SOL    HW228551   3.560   0.986   1.773  1.9822 -3.1629  1.0992
 5639SOL     OW28552   2.615   0.234   4.872 -0.2982  0.1244 -0.6663
 5639SOL    HW128553   2.607   0.321   4.833  3.3388  0.1121 -1.3665
 5639SOL    HW228554   2.626   0.182   4.792  0.2192 -3.7431  1.9416
 5640SOL     OW28555   1.045   1.196   7.290  0.4171 -0.5228  0.5516
 5640SOL    HW128556   1.035   1.146   7.371  0.6628 -0.9640  0.3073
 5640SOL    HW228557   1.132   1.234   7.303  0.4247 -0.7742  1.2712
 5641SOL     OW28558   0.783   2.269   4.077 -0.0881  0.1940  0.2060
 5641SOL    HW128559   0.834   2.207   4.129 -0.5235  0.4950  0.9898
 5641SOL    HW228560   0.841   2.338   4.047 -0.2362  1.0190  1.8540
 5642SOL     OW28561   0.332   3.095   6.578 -0.0233  0.2361 -1.0678
 5642SOL    HW128562   0.331   3.180   6.533 -0.2657  1.3483  1.0593
 5642SOL    HW228563   0.381   3.105   6.660 -0.2203 -0.8724 -0.8201
 5643SOL     OW28564   2.626   2.946   4.520 -0.1579 -0.1975 -0.4449
 5643SOL    HW128565   2.569   2.881   4.559 -0.3391 -0.3156 -0.9073
 5643SOL    HW228566   2.595   2.941   4.429 -0.7966 -0.5687 -0.2040
 5644SOL     OW28567   3.293   2.116   2.314 -0.2456  0.0448  0.3585
 5644SOL    HW128568   3.274   2.082   2.401  0.4802  0.9622  0.8786
 5644SOL    HW228569   3.263   2.206   2.327  1.2310  0.6586 -0.4216
 5645SOL     OW28570   1.122   3.357  15.000  0.2050 -0.1112  0.8629
 5645SOL    HW128571   1.029   3.366  15.020  0.1641  3.6533 -1.0150
 5645SOL    HW228572   1.120   3.390  14.911  1.9562 -0.5420  0.6605
 5646SOL     OW28573   2.720   4.298  13.604  0.3273  0.0478  0.0733
 5646SOL    HW128574   2.769   4.379  13.613  0.7376 -0.1695 -0.2118
 5646SOL    HW228575   2.785   4.241  13.645 -0.6401 -0.4869  0.8679
 5647SOL     OW28576   1.360   0.511   8.121 -0.3109  0.1340  0.5788
 5647SOL    HW128577   1.392   0.602   8.121  2.8965 -0.9986 -0.0469
 5647SOL    HW228578   1.320   0.530   8.206 -0.2877  0.5723  0.4928
 5648SOL     OW28579   1.542   4.594   6.357  0.3943  0.3148 -0.0154
 5648SOL    HW128580   1.581   4.508   6.377 -2.0452 -0.8813 -0.3687
 5648SOL    HW228581   1.452   4.581   6.386  1.4658 -0.8741  2.7514
 5649SOL     OW28582   3.562   4.209   3.884 -0.0310 -0.2550 -0.1839
 5649SOL    HW128583   3.608   4.279   3.838 -0.1352  1.0880  1.7295
 5649SOL    HW228584   3.568   4.248   3.972  0.3087  1.1754 -0.8356
 5650SOL     OW28585   2.898   2.016  13.681 -0.3993  0.0701  0.0990
 5650SOL    HW128586   2.941   2.001  13.597  0.9001  0.4218  0.7111
 5650SOL    HW228587   2.869   1.927  13.702 -0.0807 -0.1733 -0.5040
 5651SOL     OW28588   4.341   4.673   8.525 -0.4238 -0.4514  0.0855
 5651SOL    HW128589   4.346   4.606   8.593 -1.7608 -2.1828 -1.5424
 5651SOL    HW228590   4.294   4.737   8.579 -1.8405 -0.6046 -0.9957
 5652SOL     OW28591   4.735   2.520   3.996 -0.5752 -0.0344 -0.1299
 5652SOL    HW128592   4.715   2.599   4.047  0.4947 -0.2432  0.6112
 5652SOL    HW228593   4.681   2.544   3.921  1.2242 -0.0924 -1.4691
 5653SOL     OW28594   2.396   1.900   4.787 -0.5451  0.6782 -0.0800
 5653SOL    HW128595   2.323   1.950   4.750 -1.7904 -1.7626 -0.8737
 5653SOL    HW228596   2.391   1.907   4.883 -1.0416 -2.2641  0.0968
 5654SOL     OW28597   3.333   3.041   7.257  0.6814 -0.1458 -0.3399
 5654SOL    HW128598   3.328   2.955   7.213 -3.5257  0.2795 -0.7230
 5654SOL    HW228599   3.370   3.102   7.193  0.5899  1.9168  1.6099
 5655SOL     OW28600   3.032   1.773   0.129 -0.2087  0.2606 -0.5067
 5655SOL    HW128601   2.997   1.732   0.209 -1.3167  1.1301 -0.5507
 5655SOL    HW228602   3.117   1.787   0.171 -0.1981  2.2646 -1.2138
 5656SOL     OW28603   2.354   3.765   6.219  0.0110 -0.2418  0.0592
 5656SOL    HW128604   2.368   3.671   6.218  0.7472 -0.1259 -1.1771
 5656SOL    HW228605   2.351   3.782   6.125 -1.8569  0.9582  0.3354
 5657SOL     OW28606   1.711   1.119   3.292 -0.0075 -0.1963  0.3839
 5657SOL    HW128607   1.672   1.072   3.219  0.4486 -1.8903  1.2321
 5657SOL    HW228608   1.793   1.072   3.311 -0.8664 -1.7661  0.1533
 5658SOL     OW28609   3.838   1.474  14.721 -0.3861 -0.5217 -0.3035
 5658SOL    HW128610   3.898   1.483  14.795 -0.4319  0.5349 -0.3890
 5658SOL    HW228611   3.773   1.541  14.743  0.1318  0.0402 -0.4572
 5659SOL     OW28612   2.573   0.013  11.802  0.1965  0.1342  0.2900
 5659SOL    HW128613   2.490   4.712  11.829 -0.2710 -0.0467 -1.4321
 5659SOL    HW228614   2.578   4.699  11.722  3.6777  2.1984 -0.8529
 5660SOL     OW28615   0.283   3.782   3.272  0.5312 -0.2364 -0.1301
 5660SOL    HW128616   0.255   3.732   3.195 -0.6692 -0.3889  0.4091
 5660SOL    HW228617   0.365   3.812   3.233  1.9363 -1.5944  1.8038
 5661SOL     OW28618   4.374   1.145   2.632 -0.5153 -0.4140 -0.1542
 5661SOL    HW128619   4.296   1.167   2.582 -2.0366  1.6414  3.1409
 5661SOL    HW228620   4.440   1.144   2.563 -0.6611  0.2320 -0.2987
 5662SOL     OW28621   0.330   1.274   2.995 -0.1803 -0.0871 -0.3530
 5662SOL    HW128622   0.295   1.244   3.079 -1.8063  1.8170 -0.3672
 5662SOL    HW228623   0.422   1.288   3.016 -0.2718  0.3436 -0.2438
 5663SOL     OW28624   3.251   1.860   9.072  0.0107  0.0255 -0.1913
 5663SOL    HW128625   3.245   1.893   8.983 -1.5567  1.5814  0.5089
 5663SOL    HW228626   3.165   1.827   9.097  0.5986  0.0337  1.8582
 5664SOL     OW28627   0.766   0.687  14.993  1.0443 -0.1511  0.4478
 5664SOL    HW128628   0.773   0.774  15.032 -2.2831 -0.3882  1.6720
 5664SOL    HW228629   0.749   0.635  15.072  2.2878 -0.1956  0.6829
 5665SOL     OW28630   3.280   1.743  15.876 -0.5048  0.0147 -0.0680
 5665SOL    HW128631   3.268   1.664  15.823 -2.5594 -0.1454  0.6492
 5665SOL    HW228632   3.307   1.702  15.958  1.4054  1.1132 -0.1534
 5666SOL     OW28633   1.932   3.496   8.257 -0.0020 -0.1476  0.0224
 5666SOL    HW128634   1.901   3.455   8.338 -1.9252  3.2551  1.0190
 5666SOL    HW228635   1.958   3.579   8.298  0.3183 -0.0464 -0.3820
 5667SOL     OW28636   1.023   0.985  15.192  0.3237  0.1111 -0.3963
 5667SOL    HW128637   1.029   1.073  15.156 -2.5377 -0.4061 -2.1300
 5667SOL    HW228638   1.100   0.941  15.155  0.6120  1.0020 -0.8613
 5668SOL     OW28639   0.914   3.399   2.778 -0.6944 -0.0814 -0.1749
 5668SOL    HW128640   0.902   3.467   2.844  2.4746  2.5960 -2.4020
 5668SOL    HW228641   0.991   3.433   2.732 -1.7169  1.8431 -0.4363
 5669SOL     OW28642   2.895   1.147   2.439 -0.4602 -0.0979 -0.5122
 5669SOL    HW128643   2.945   1.210   2.387  0.7956 -0.4994  0.2238
 5669SOL    HW228644   2.968   1.112   2.489 -2.0240 -0.2419  1.6645
 5670SOL     OW28645   3.804   2.982   6.117 -0.2307  0.2893 -0.3336
 5670SOL    HW128646   3.786   2.892   6.146  1.8790 -0.1451 -0.4114
 5670SOL    HW228647   3.873   2.962   6.055 -0.7153  1.6857 -1.3099
 5671SOL     OW28648   3.710   4.323   5.037  0.1274  0.0627 -0.2092
 5671SOL    HW128649   3.661   4.405   5.034  1.1702  0.7086  0.2899
 5671SOL    HW228650   3.655   4.266   5.090  1.0150  1.4781  2.2406
 5672SOL     OW28651   4.266   1.875   1.832 -0.0255  0.7715 -0.2640
 5672SOL    HW128652   4.175   1.846   1.832  0.7459 -1.6161  0.1183
 5672SOL    HW228653   4.288   1.914   1.916  2.0319 -1.0085  0.0274
 5673SOL     OW28654   2.153   4.179   9.790 -0.3522  0.0895  0.4133
 5673SOL    HW128655   2.111   4.127   9.722 -0.7459  1.2422 -0.2274
 5673SOL    HW228656   2.236   4.131   9.783 -1.1956 -1.1988 -0.8827
 5674SOL     OW28657   0.698   0.511   8.058 -0.5231 -0.3889 -0.0899
 5674SOL    HW128658   0.783   0.545   8.030 -1.0337  4.1399  3.8069
 5674SOL    HW228659   0.652   0.594   8.067 -1.6202 -1.0132  0.0131
 5675SOL     OW28660   1.130   0.565   1.356 -0.1651 -0.3074 -0.0451
 5675SOL    HW128661   1.143   0.489   1.412  0.8980  0.6260  0.9708
 5675SOL    HW228662   1.096   0.638   1.408  0.7504 -0.1873  0.3907
 5676SOL     OW28663   1.254   0.888   7.963  0.2652 -0.3363 -0.2586
 5676SOL    HW128664   1.313   0.960   7.943 -0.4409  0.1328 -0.6488
 5676SOL    HW228665   1.190   0.880   7.892  0.2748 -0.5201 -0.2475
 5677SOL     OW28666   0.996   0.317   9.615 -0.5179  0.0522  0.4303
 5677SOL    HW128667   1.030   0.357   9.695 -0.1375  0.5196  0.0378
 5677SOL    HW228668   1.016   0.380   9.545 -1.5291  0.6550  0.6946
 5678SOL     OW28669   0.395   2.976   5.622  0.3204 -0.2791  0.1987
 5678SOL    HW128670   0.432   2.939   5.542 -4.2191 -1.1257 -1.5059
 5678SOL    HW228671   0.459   3.046   5.635 -0.8827  0.7158  0.8535
 5679SOL     OW28672   3.489   0.298   5.516 -0.3074  0.2922  0.0628
 5679SOL    HW128673   3.521   0.327   5.601  1.1035  1.1055 -0.7293
 5679SOL    HW228674   3.545   0.221   5.505  0.1215  0.7454 -0.9892
 5680SOL     OW28675   3.732   0.341   8.461  0.2168 -0.4309 -0.0221
 5680SOL    HW128676   3.726   0.317   8.553  2.8648 -0.7582  0.0776
 5680SOL    HW228677   3.786   0.266   8.435 -0.8228 -1.3970  0.6060
 5681SOL     OW28678   2.950   4.686   9.368  0.7617 -0.1925  0.0757
 5681SOL    HW128679   2.863   4.704   9.405  1.4954  0.6803  1.3623
 5681SOL    HW228680   2.936   4.595   9.342  2.3117 -0.1011 -1.0216
 5682SOL     OW28681   4.395   0.764   3.423 -0.8586  0.2095 -0.6582
 5682SOL    HW128682   4.383   0.817   3.502  0.3458  0.7257 -0.8193
 5682SOL    HW228683   4.339   0.803   3.356 -0.5059  1.1840 -0.3904
 5683SOL     OW28684   2.751   3.969   8.745 -0.0827 -0.3189  0.0339
 5683SOL    HW128685   2.704   3.899   8.699 -0.9066 -0.1717  0.6680
 5683SOL    HW228686   2.783   3.927   8.825 -0.0397 -0.1091  0.1262
 5684SOL     OW28687   1.620   4.051  10.043 -0.1124 -0.1111  0.1266
 5684SOL    HW128688   1.524   4.046  10.040 -0.0011 -2.5615  0.3023
 5684SOL    HW228689   1.638   3.957  10.038 -0.8395 -0.1945 -0.8545
 5685SOL     OW28690   4.278   4.430   6.375  0.1090 -0.2023 -0.2015
 5685SOL    HW128691   4.366   4.465   6.378 -0.2964  0.6249  1.9777
 5685SOL    HW228692   4.223   4.502   6.405  0.9490 -0.2008  1.3103
 5686SOL     OW28693   1.385   1.442   9.338 -0.7387  0.5261 -0.3636
 5686SOL    HW128694   1.307   1.484   9.303  0.7666  2.1425 -1.7855
 5686SOL    HW228695   1.374   1.356   9.300 -0.1494 -0.0952  0.8501
 5687SOL     OW28696   0.896   2.308   3.682  0.4433  0.3005 -0.2624
 5687SOL    HW128697   0.807   2.326   3.652 -0.2642 -0.9377  1.0951
 5687SOL    HW228698   0.939   2.389   3.654 -0.0246  0.4848 -0.4490
 5688SOL     OW28699   1.668   0.741   0.647  0.0872  0.3117 -0.5921
 5688SOL    HW128700   1.600   0.795   0.687  1.7748  1.5092  0.6462
 5688SOL    HW228701   1.689   0.796   0.572  0.6483  0.6165 -0.2137
 5689SOL     OW28702   3.956   2.441   8.840 -0.2734 -0.0828  0.1293
 5689SOL    HW128703   3.922   2.433   8.750  0.0625 -1.9023  0.1714
 5689SOL    HW228704   3.878   2.426   8.893 -0.4367 -1.2013 -0.4234
 5690SOL     OW28705   1.101   2.886   3.254  0.2053 -0.8658  0.0880
 5690SOL    HW128706   1.121   2.877   3.161  0.6935  3.6962 -0.2598
 5690SOL    HW228707   1.145   2.966   3.284  0.2947 -0.8157 -0.1800
 5691SOL     OW28708   1.564   3.130  12.030  0.0917  0.5738  0.3861
 5691SOL    HW128709   1.637   3.188  12.050 -0.3466  1.0644  0.5480
 5691SOL    HW228710   1.596   3.040  12.043  1.2969  0.9126 -0.2401
 5692SOL     OW28711   0.939   3.156   1.521 -0.5321  0.0894  0.1400
 5692SOL    HW128712   1.008   3.221   1.537  0.7373 -1.4772  0.9659
 5692SOL    HW228713   0.894   3.153   1.605 -0.8393  0.4423 -0.0112
 5693SOL     OW28714   0.289   3.652   8.832 -0.2730  0.1863  0.2005
 5693SOL    HW128715   0.219   3.631   8.894 -0.6996  1.6461  0.2101
 5693SOL    HW228716   0.265   3.605   8.752 -0.9471  1.2779 -0.2440
 5694SOL     OW28717   2.571   1.566   8.281 -0.5039  0.0262 -0.8405
 5694SOL    HW128718   2.488   1.554   8.235 -1.3325  0.0632  0.6617
 5694SOL    HW228719   2.549   1.630   8.349  3.0471  1.4054 -1.0151
 5695SOL     OW28720   2.418   4.291   8.823  0.2519 -0.1967  0.2276
 5695SOL    HW128721   2.408   4.234   8.747  1.7260 -0.7235  0.4404
 5695SOL    HW228722   2.505   4.268   8.855  0.7916  1.3020 -0.1834
 5696SOL     OW28723   0.074   2.380   7.919 -0.1811 -0.7112  0.2761
 5696SOL    HW128724   0.060   2.460   7.869 -1.3852 -1.4081 -0.4935
 5696SOL    HW228725   0.045   2.403   8.007 -0.5246 -1.0262  0.2442
 5697SOL     OW28726   2.289   1.104   8.445 -0.2821 -0.2122 -0.0985
 5697SOL    HW128727   2.376   1.125   8.410 -0.8846  0.2654 -1.3038
 5697SOL    HW228728   2.230   1.099   8.369  0.7275  1.7529 -1.0184
 5698SOL     OW28729   3.149   1.790   6.674 -0.1802  0.2091  0.1166
 5698SOL    HW128730   3.240   1.821   6.675  0.2743 -1.1247 -0.8831
 5698SOL    HW228731   3.152   1.707   6.722 -1.4437 -0.7132 -1.3836
 5699SOL     OW28732   0.176   0.811   4.052  0.0494 -0.0908  0.3892
 5699SOL    HW128733   0.159   0.905   4.045 -0.2871 -0.0471  1.8573
 5699SOL    HW228734   0.128   0.795   4.133 -0.5348 -2.0284 -0.3327
 5700SOL     OW28735   0.850   0.409   4.604  0.1469 -0.3609  0.3606
 5700SOL    HW128736   0.919   0.415   4.537  0.7002  0.0156  0.9597
 5700SOL    HW228737   0.770   0.395   4.553 -0.4644 -1.9578  1.8048
 5701SOL     OW28738   4.616   0.937   7.319  0.1440  0.3277 -0.1183
 5701SOL    HW128739   4.587   0.846   7.313 -1.4205  0.4778  4.4350
 5701SOL    HW228740   4.598   0.968   7.231 -0.3244 -0.2784 -0.2346
 5702SOL     OW28741   2.498   1.247  16.558  0.2945 -0.1413 -0.2975
 5702SOL    HW128742   2.458   1.331  16.535 -0.9520 -0.3870  1.0066
 5702SOL    HW228743   2.435   1.213  16.621  0.4589  0.4809  0.1926
 5703SOL     OW28744   0.422   1.024   2.425 -0.0950 -0.2181  0.0521
 5703SOL    HW128745   0.344   1.080   2.420  0.9609  1.0452 -2.5678
 5703SOL    HW228746   0.479   1.093   2.391 -1.5351 -0.2378 -2.4329
 5704SOL     OW28747   3.927   2.715   8.760 -0.3182 -0.7403 -0.1150
 5704SOL    HW128748   3.931   2.620   8.766 -1.6054 -0.7820  0.0346
 5704SOL    HW228749   3.867   2.734   8.831  1.7377  0.1253  1.3936
 5705SOL     OW28750   1.241   2.034   6.267 -0.0048  0.0824 -0.4784
 5705SOL    HW128751   1.221   2.125   6.288  1.3828  0.2788 -0.0624
 5705SOL    HW228752   1.172   2.029   6.200 -0.0011  1.6275 -0.5972
 5706SOL     OW28753   1.921   2.714  14.073 -0.6676 -0.3937  0.0544
 5706SOL    HW128754   1.960   2.646  14.017  0.0634  0.5079 -0.5248
 5706SOL    HW228755   1.952   2.694  14.161  0.8510 -0.7205 -0.5535
 5707SOL     OW28756   1.375   2.882   4.348 -0.4796  0.5905 -0.0141
 5707SOL    HW128757   1.348   2.949   4.412  2.9816  1.0022  1.0213
 5707SOL    HW228758   1.438   2.831   4.399 -1.6681 -1.1857 -0.3414
 5708SOL     OW28759   1.412   2.078   5.061  0.5854 -0.3765 -0.0318
 5708SOL    HW128760   1.401   1.986   5.037 -1.4665  0.4243 -2.1084
 5708SOL    HW228761   1.493   2.063   5.111  0.7972 -0.5490 -0.4305
 5709SOL     OW28762   3.101   2.817   5.765 -0.0251  1.0163  0.0000
 5709SOL    HW128763   3.165   2.747   5.759 -1.0748 -0.5038  6.3242
 5709SOL    HW228764   3.154   2.891   5.734 -0.2537  1.0930 -0.2020
 5710SOL     OW28765   0.808   0.313  15.671 -0.1192  0.2158  0.2261
 5710SOL    HW128766   0.897   0.277  15.673 -1.5018 -3.2103  1.9180
 5710SOL    HW228767   0.832   0.405  15.660  0.2580  0.1559  0.5490
 5711SOL     OW28768   1.914   2.962   7.682  0.5811 -0.1857  0.1544
 5711SOL    HW128769   1.890   2.888   7.738 -2.4200 -1.2194 -2.5071
 5711SOL    HW228770   1.825   2.993   7.662  1.2075 -1.1370 -3.9442
 5712SOL     OW28771   1.822   2.651  12.034  0.0843  0.2880 -0.2634
 5712SOL    HW128772   1.899   2.646  11.977 -0.1217 -0.0380 -0.5178
 5712SOL    HW228773   1.804   2.559  12.056  0.4904  0.6247  1.5228
 5713SOL     OW28774   4.736   0.012   0.874  0.8510 -0.0414 -0.1831
 5713SOL    HW128775   0.031   0.099   0.893 -0.2424  0.3781 -0.1894
 5713SOL    HW228776   0.079   4.704   0.891 -0.6032 -1.5936  2.5956
 5714SOL     OW28777   0.310   2.179  16.624  0.5676  0.1331  0.2786
 5714SOL    HW128778   0.241   2.157  16.686  1.0004  0.0879  0.7410
 5714SOL    HW228779   0.304   2.111  16.557  1.1360 -0.3593  0.7380
 5715SOL     OW28780   0.808   3.927   9.693 -0.1152 -0.0604 -0.5994
 5715SOL    HW128781   0.889   3.975   9.675 -1.0111  0.8906 -2.0398
 5715SOL    HW228782   0.807   3.870   9.617 -0.6053 -1.2644  0.3100
 5716SOL     OW28783   4.512   1.551   8.098 -0.2601  0.2316 -0.6192
 5716SOL    HW128784   4.465   1.558   8.015  0.9689 -0.4670 -1.3557
 5716SOL    HW228785   4.539   1.643   8.099  0.8956 -0.1412  1.4015
 5717SOL     OW28786   3.415   3.155   8.839 -0.5061 -0.2114 -0.1907
 5717SOL    HW128787   3.378   3.203   8.765 -2.9657 -0.0648  1.1154
 5717SOL    HW228788   3.351   3.181   8.906  0.0495 -0.4086  0.4243
 5718SOL     OW28789   2.024   1.818   4.510 -0.0314 -0.1255  0.7103
 5718SOL    HW128790   2.105   1.787   4.469  0.1178  1.0889  0.0886
 5718SOL    HW228791   1.966   1.759   4.462 -1.7238  0.6606  1.7893
 5719SOL     OW28792   3.478   3.940   7.967  0.3111  0.0119 -0.1732
 5719SOL    HW128793   3.467   3.848   7.942  1.6614 -0.5413  1.2609
 5719SOL    HW228794   3.387   3.970   7.973 -0.0665 -0.9545 -0.9597
 5720SOL     OW28795   2.714   3.956   5.440  0.4555 -0.1581 -0.1045
 5720SOL    HW128796   2.688   3.899   5.513 -0.2752 -0.4855 -0.6201
 5720SOL    HW228797   2.632   4.000   5.419  0.0705  0.4710  2.6882
 5721SOL     OW28798   0.587   0.512   2.258  0.0697 -0.3596  0.1170
 5721SOL    HW128799   0.579   0.595   2.305  0.3251  1.8062 -3.6655
 5721SOL    HW228800   0.543   0.451   2.318 -1.2297 -0.1352 -0.6209
 5722SOL     OW28801   0.527   2.669   5.829 -0.4306 -0.4485 -0.0482
 5722SOL    HW128802   0.537   2.602   5.897 -1.4027 -0.7697 -0.2327
 5722SOL    HW228803   0.434   2.651   5.816 -0.5582 -1.3786  2.1734
 5723SOL     OW28804   3.866   0.956  15.512 -0.1671  0.4416  0.2091
 5723SOL    HW128805   3.863   1.051  15.498 -0.2597  0.3240 -0.5322
 5723SOL    HW228806   3.780   0.929  15.480 -0.4934  1.8130 -0.0675
 5724SOL     OW28807   0.811   1.942  12.824  0.2126 -0.1660  0.0255
 5724SOL    HW128808   0.849   1.981  12.903 -0.3499  0.2742  0.0836
 5724SOL    HW228809   0.847   1.854  12.833 -2.4541 -1.4806 -2.0772
 5725SOL     OW28810   3.112   1.555  13.977  0.1539  0.2964  0.2289
 5725SOL    HW128811   3.186   1.561  14.038 -0.8082  1.4473  1.2834
 5725SOL    HW228812   3.167   1.532  13.903  0.7764 -0.0184  0.7843
 5726SOL     OW28813   0.961   0.188   1.867  0.1751  0.7975 -0.5699
 5726SOL    HW128814   0.959   0.224   1.956 -1.0630  2.2477 -1.1869
 5726SOL    HW228815   0.941   0.260   1.808  0.6285 -1.1691 -3.1086
 5727SOL     OW28816   2.952   3.651  10.143  0.0174 -0.3283  0.4786
 5727SOL    HW128817   2.863   3.671  10.173 -0.7493 -3.0980  0.0052
 5727SOL    HW228818   2.953   3.556  10.150 -1.1944 -0.3803  0.0112
 5728SOL     OW28819   4.303   4.024  13.747 -0.2668 -0.1445 -0.9136
 5728SOL    HW128820   4.306   4.113  13.782  1.4981 -0.3567 -0.4923
 5728SOL    HW228821   4.317   3.979  13.831 -4.3463  1.1571  0.4443
 5729SOL     OW28822   1.104   4.663   5.909 -0.0306  0.0217 -0.2630
 5729SOL    HW128823   1.040   4.720   5.951  1.2831  0.8418  0.6370
 5729SOL    HW228824   1.131   4.609   5.984 -0.3699  0.6275  0.2918
 5730SOL     OW28825   1.969   0.916   3.800 -0.0183  0.3742  0.1083
 5730SOL    HW128826   1.998   0.903   3.890  0.0361  0.1687  0.0603
 5730SOL    HW228827   1.887   0.867   3.797  0.2277 -0.1075  1.4081
 5731SOL     OW28828   2.296   3.262  14.701  0.7485 -0.0457  0.5740
 5731SOL    HW128829   2.209   3.269  14.663  1.0024 -3.8548 -0.6791
 5731SOL    HW228830   2.340   3.196  14.648 -0.0532 -0.2134  0.1146
 5732SOL     OW28831   1.827   4.020  17.446 -0.1980  0.0674 -0.1324
 5732SOL    HW128832   1.882   3.955  17.403  3.3369  2.7870  0.2484
 5732SOL    HW228833   1.741   3.983  17.424 -0.1706 -0.1167  0.0699
 5733SOL     OW28834   1.635   4.130  16.506 -0.2623 -0.1431 -0.5144
 5733SOL    HW128835   1.619   4.224  16.514 -0.0628 -0.2731  1.3204
 5733SOL    HW228836   1.558   4.118  16.451 -1.4751  0.4728  1.0518
 5734SOL     OW28837   2.572   1.028   8.911  0.1758 -0.3780  0.0586
 5734SOL    HW128838   2.667   1.035   8.897  0.6440 -1.5737  2.5341
 5734SOL    HW228839   2.534   1.002   8.828  0.0965  0.5798 -0.2021
 5735SOL     OW28840   0.975   3.269   3.678  0.3094  0.2116 -0.3303
 5735SOL    HW128841   0.986   3.184   3.722 -0.4516 -0.4883 -1.4841
 5735SOL    HW228842   0.922   3.309   3.746 -0.4867  0.3417 -1.0311
 5736SOL     OW28843   0.135   0.828   6.084 -0.4240 -0.5639 -0.3884
 5736SOL    HW128844   0.118   0.737   6.062  1.0036 -1.3393  1.7275
 5736SOL    HW228845   0.208   0.854   6.028 -0.0318 -1.6389 -0.3708
 5737SOL     OW28846   3.105   0.341  14.647  0.1857 -0.5489 -0.2137
 5737SOL    HW128847   3.136   0.413  14.702  0.8058 -1.7197  0.9663
 5737SOL    HW228848   3.191   0.311  14.618  0.3214 -0.6384  0.2764
 5738SOL     OW28849   2.353   4.475   3.924  0.1823 -0.0512 -0.5177
 5738SOL    HW128850   2.386   4.396   3.879  0.0914  0.1504 -0.9401
 5738SOL    HW228851   2.267   4.480   3.882 -0.1631 -3.4416 -0.2371
 5739SOL     OW28852   0.432   1.485   2.781  0.3530  0.0168 -0.5002
 5739SOL    HW128853   0.509   1.479   2.724  0.9206 -1.2078  0.4012
 5739SOL    HW228854   0.400   1.395   2.778  0.1753  0.0821 -0.5600
 5740SOL     OW28855   3.075   0.149   2.683  0.3498  0.5690 -0.4928
 5740SOL    HW128856   3.129   0.150   2.762 -0.3812 -0.3617  0.0244
 5740SOL    HW228857   3.003   0.207   2.708 -1.1160 -1.4248 -0.0736
 5741SOL     OW28858   1.990   1.466   8.575  0.4311  0.1219 -0.2221
 5741SOL    HW128859   2.081   1.454   8.548 -0.8847 -2.6687 -3.2810
 5741SOL    HW228860   1.980   1.562   8.579 -0.3197 -0.0236  1.7510
 5742SOL     OW28861   3.001   3.228   4.190  0.6791 -0.1669 -0.8102
 5742SOL    HW128862   3.063   3.195   4.125  2.7793  1.3459  0.4171
 5742SOL    HW228863   3.037   3.315   4.210  0.3312 -0.0825 -0.5424
 5743SOL     OW28864   3.122   1.061   3.247 -0.0317  0.0417 -0.1835
 5743SOL    HW128865   3.055   1.080   3.182 -0.8344  0.2987  0.7290
 5743SOL    HW228866   3.097   0.974   3.279 -0.7104 -0.2384 -1.4795
 5744SOL     OW28867   1.722   4.263   3.858  0.0248  0.0393 -0.1457
 5744SOL    HW128868   1.726   4.267   3.763 -2.4288 -0.5303 -0.2879
 5744SOL    HW228869   1.630   4.291   3.863  0.4251  1.5316 -1.0190
 5745SOL     OW28870   1.596   3.515   7.310 -0.9306  0.4104  0.2837
 5745SOL    HW128871   1.664   3.476   7.256 -0.1975  2.0439  0.0299
 5745SOL    HW228872   1.577   3.593   7.258  1.3691  0.3630 -0.6415
 5746SOL     OW28873   0.724   4.482   3.382  0.3790 -0.1855  0.3665
 5746SOL    HW128874   0.709   4.412   3.446  0.5628 -0.2447  0.3439
 5746SOL    HW228875   0.819   4.489   3.386  0.2740  2.2146 -1.6429
 5747SOL     OW28876   3.427   0.380   1.947 -0.7040 -0.1712 -0.3050
 5747SOL    HW128877   3.497   0.428   1.991 -0.6615  0.9532 -1.6168
 5747SOL    HW228878   3.366   0.355   2.017 -0.5837  2.6109  0.7960
 5748SOL     OW28879   4.429   3.652  11.974  0.5533 -0.1308  0.4649
 5748SOL    HW128880   4.508   3.608  11.944 -0.4868 -2.1892  0.6848
 5748SOL    HW228881   4.437   3.743  11.945  0.6680  0.3089  1.9098
 5749SOL     OW28882   2.388   0.929   9.892  0.8803 -0.2849 -0.2773
 5749SOL    HW128883   2.389   0.855   9.953  0.7078  0.3615  0.5099
 5749SOL    HW228884   2.327   0.982   9.943 -0.0981 -0.5618 -1.1823
 5750SOL     OW28885   0.479   1.133   1.882 -0.2317 -0.5245 -0.2318
 5750SOL    HW128886   0.489   1.225   1.857  0.7802 -0.4699  0.3808
 5750SOL    HW228887   0.386   1.136   1.903 -0.2963 -0.0011 -0.5833
 5751SOL     OW28888   3.270   0.729   9.128  0.1772 -0.6125 -0.0978
 5751SOL    HW128889   3.246   0.652   9.179 -0.2304 -0.3815  0.0626
 5751SOL    HW228890   3.202   0.788   9.161 -0.3004 -2.7570  2.8025
 5752SOL     OW28891   2.549   0.418   7.476 -0.0260 -0.2633 -0.2693
 5752SOL    HW128892   2.500   0.486   7.522  0.6143 -0.0146  0.0398
 5752SOL    HW228893   2.608   0.391   7.547 -0.7694  2.7830  1.5369
 5753SOL     OW28894   1.130   3.524   8.869  0.2341 -0.6317  0.6539
 5753SOL    HW128895   1.122   3.594   8.805  0.4833 -2.5203 -1.4385
 5753SOL    HW228896   1.035   3.525   8.883 -0.1061 -0.6407 -1.6821
 5754SOL     OW28897   1.518   1.401  10.002 -0.5053  0.6374 -0.5964
 5754SOL    HW128898   1.498   1.341  10.075  1.6251 -0.9582 -1.3211
 5754SOL    HW228899   1.440   1.454   9.986 -0.8638  0.1375 -0.4992
 5755SOL     OW28900   2.427   2.225  17.393 -0.8579 -0.0897  0.4456
 5755SOL    HW128901   2.506   2.192  17.350 -1.7639 -0.9908 -0.5401
 5755SOL    HW228902   2.476   2.268  17.463 -0.3942  0.6873 -0.3516
 5756SOL     OW28903   1.352   2.519   4.044  0.4587 -0.0667 -0.6370
 5756SOL    HW128904   1.355   2.423   4.037 -1.6731 -0.1095 -0.8445
 5756SOL    HW228905   1.307   2.526   4.128  2.4466  0.8176  0.3568
 5757SOL     OW28906   2.338   0.913   2.527 -0.2922  0.4849  0.1702
 5757SOL    HW128907   2.243   0.917   2.514 -0.6047  0.7878  2.4925
 5757SOL    HW228908   2.354   0.932   2.435  2.0140 -0.7473  0.2957
 5758SOL     OW28909   0.833   0.513  17.484 -0.2265  0.0554  0.2505
 5758SOL    HW128910   0.872   0.503  17.397  0.7592 -3.6233  1.1363
 5758SOL    HW228911   0.896   0.582  17.505  1.2134 -1.3798  0.6196
 5759SOL     OW28912   4.068   1.690   8.793 -0.2995 -0.2280 -0.3247
 5759SOL    HW128913   4.066   1.778   8.755 -0.7297  1.4033  3.4562
 5759SOL    HW228914   4.153   1.671   8.752  0.7542  1.4111  1.0905
 5760SOL     OW28915   1.349   2.757  13.345 -0.3544 -0.1733  0.1121
 5760SOL    HW128916   1.289   2.790  13.279 -1.4743 -0.3139  1.0700
 5760SOL    HW228917   1.425   2.816  13.349 -0.6929  0.3938 -2.0198
 5761SOL     OW28918   0.442   1.873   5.115 -0.1373 -0.1896  0.2498
 5761SOL    HW128919   0.380   1.923   5.062  1.3257  0.7760 -0.5435
 5761SOL    HW228920   0.485   1.821   5.048  2.4433  0.9678  1.0242
 5762SOL     OW28921   2.695   4.228   6.645 -0.8372  0.5735  0.0171
 5762SOL    HW128922   2.773   4.284   6.645 -0.1135 -0.4379  1.4450
 5762SOL    HW228923   2.627   4.280   6.603 -1.0906 -0.8569 -1.3435
 5763SOL     OW28924   0.260   0.708   7.954 -0.4206 -0.4919 -0.1153
 5763SOL    HW128925   0.354   0.719   7.972 -0.6835  0.6992  0.4978
 5763SOL    HW228926   0.256   0.804   7.955  0.1598 -0.4558 -0.7568
 5764SOL     OW28927   3.912   1.133   9.686  0.2360  0.3823 -0.1814
 5764SOL    HW128928   3.884   1.222   9.708  2.3918  1.2344 -0.9004
 5764SOL    HW228929   3.855   1.107   9.614 -0.4682  0.5908  0.2965
 5765SOL     OW28930   0.895   1.958   7.313 -0.2667  0.2489 -0.3100
 5765SOL    HW128931   0.867   2.029   7.256  1.5449 -0.1755 -1.7300
 5765SOL    HW228932   0.931   2.013   7.383  0.7492 -0.1699 -0.4931
 5766SOL     OW28933   2.021   4.170  16.332  0.0231 -0.2664 -0.6596
 5766SOL    HW128934   1.972   4.164  16.414  0.9570  2.9152  0.1460
 5766SOL    HW228935   2.094   4.224  16.362 -0.0473 -1.1740  1.1738
 5767SOL     OW28936   1.118   3.756   4.948 -0.0265  0.3980  0.0974
 5767SOL    HW128937   1.101   3.831   4.892  1.1234  0.6824  0.1313
 5767SOL    HW228938   1.134   3.801   5.031  2.1122  0.8791 -0.5939
 5768SOL     OW28939   0.420   0.987   0.747 -0.5806  0.5326  0.1900
 5768SOL    HW128940   0.480   0.920   0.779 -0.6098  0.3077 -0.2325
 5768SOL    HW228941   0.483   1.059   0.750 -1.5362  1.4088 -1.0286
 5769SOL     OW28942   0.370   2.731   9.289  0.8213  0.0901 -0.1795
 5769SOL    HW128943   0.316   2.663   9.330 -0.5703  0.8340 -0.7622
 5769SOL    HW228944   0.383   2.693   9.202 -2.5963  1.1890 -1.1977
 5770SOL     OW28945   3.535   2.519  15.080  0.9901  0.0959 -0.0263
 5770SOL    HW128946   3.547   2.524  14.985 -2.8923  2.1487 -0.3978
 5770SOL    HW228947   3.464   2.456  15.068 -0.2923  1.5176  0.2365
 5771SOL     OW28948   0.013   0.364   0.726  0.3525 -0.5826  0.1983
 5771SOL    HW128949   4.728   0.455   0.708  0.4493 -0.7040 -0.5250
 5771SOL    HW228950   0.091   0.365   0.671  1.4554  0.9532  1.8145
 5772SOL     OW28951   3.978   1.797   1.132 -0.1703 -0.4054  0.7822
 5772SOL    HW128952   3.981   1.702   1.127 -0.3545 -0.3761  0.2107
 5772SOL    HW228953   4.020   1.814   1.048  0.0255 -0.9169  0.7732
 5773SOL     OW28954   3.484   2.554   6.970  0.4075 -0.3551  0.1461
 5773SOL    HW128955   3.488   2.504   6.888 -0.5917  1.2221 -0.8684
 5773SOL    HW228956   3.390   2.549   6.990 -0.0290 -0.2324 -1.8395
 5774SOL     OW28957   4.731   1.321   3.455 -0.5607  0.1940 -0.5053
 5774SOL    HW128958   0.054   1.247   3.462 -0.8416  0.4968  5.2485
 5774SOL    HW228959   4.643   1.294   3.482  0.0560 -2.9248 -1.6376
 5775SOL     OW28960   1.596   4.149   6.350  0.4050  0.0435  0.6260
 5775SOL    HW128961   1.637   4.226   6.310  0.7670 -1.0549 -1.1297
 5775SOL    HW228962   1.506   4.147   6.318  0.7356 -0.8967 -0.2477
 5776SOL     OW28963   3.953   2.555   9.202  0.5478  0.4264  0.2714
 5776SOL    HW128964   3.955   2.467   9.164 -1.3575  0.5702 -0.1967
 5776SOL    HW228965   3.859   2.549   9.223  0.3731  1.4509 -0.2786
 5777SOL     OW28966   3.735   1.194   7.072  0.3976 -0.4007 -0.4236
 5777SOL    HW128967   3.654   1.178   7.023 -0.3866  0.6968  0.5142
 5777SOL    HW228968   3.710   1.162   7.159 -1.3344 -0.2148 -0.8415
 5778SOL     OW28969   0.503   2.435   9.221 -0.2001  0.0118 -0.0148
 5778SOL    HW128970   0.417   2.455   9.260 -0.8532 -0.3493 -1.2542
 5778SOL    HW228971   0.507   2.516   9.171  1.9074 -0.4695 -0.5878
 5779SOL     OW28972   2.432   2.518   5.940 -0.6121  0.2604  0.4918
 5779SOL    HW128973   2.384   2.437   5.956 -0.8096  0.4100  0.6536
 5779SOL    HW228974   2.486   2.493   5.865 -0.8203  0.4290  0.2821
 5780SOL     OW28975   2.065   0.922   2.519 -0.1808  0.1631 -0.2860
 5780SOL    HW128976   1.998   0.895   2.457 -0.2101  0.7541 -0.5102
 5780SOL    HW228977   2.024   0.875   2.592  0.2673 -0.4130 -0.4071
 5781SOL     OW28978   2.645   0.889   2.362  0.4147 -0.4787  0.0652
 5781SOL    HW128979   2.736   0.880   2.331  0.6088 -0.4302  0.6168
 5781SOL    HW228980   2.654   0.952   2.433 -1.3995  0.3805 -0.4757
 5782SOL     OW28981   1.543   0.715  17.161 -0.3016 -0.4530  0.7479
 5782SOL    HW128982   1.582   0.762  17.088 -2.2058  2.9074  1.9044
 5782SOL    HW228983   1.563   0.775  17.232  2.0989  1.7949 -1.8426
 5783SOL     OW28984   4.265   1.326   9.118 -0.0442 -0.0501 -0.3107
 5783SOL    HW128985   4.271   1.254   9.056  0.0185 -0.6472  0.3849
 5783SOL    HW228986   4.352   1.347   9.152  0.4421 -1.4761 -0.6770
 5784SOL     OW28987   0.295   0.300  17.103 -0.5383 -0.0398  0.0397
 5784SOL    HW128988   0.307   0.347  17.185 -1.3529 -1.3399  0.9169
 5784SOL    HW228989   0.203   0.313  17.079 -1.4902 -1.3278  2.9832
 5785SOL     OW28990   3.268   1.908  13.291 -0.7220 -0.5269  0.1024
 5785SOL    HW128991   3.284   1.945  13.204  0.5696 -0.3148  0.4318
 5785SOL    HW228992   3.317   1.968  13.346  1.1368 -1.2055 -0.8241
 5786SOL     OW28993   0.068   2.883  13.489 -0.3857  0.1622  0.2027
 5786SOL    HW128994   0.092   2.953  13.428 -1.1492 -0.4264 -0.7662
 5786SOL    HW228995   0.153   2.843  13.505 -0.7012  0.1341  1.8536
 5787SOL     OW28996   4.169   1.228   8.441  0.2684 -0.1502 -0.1008
 5787SOL    HW128997   4.102   1.284   8.401 -1.1504 -0.5054  1.7623
 5787SOL    HW228998   4.227   1.198   8.371  1.7208  0.2388  0.9499
 5788SOL     OW28999   3.312   2.954   6.583 -0.3261 -0.0305  0.3111
 5788SOL    HW129000   3.352   2.891   6.522  1.2714  2.3351 -1.0771
 5788SOL    HW229001   3.223   2.971   6.552  0.2423 -1.0558 -1.8984
 5789SOL     OW29002   1.054   2.366   4.026 -0.2458 -0.3501  0.1268
 5789SOL    HW129003   1.035   2.460   4.018  0.5979  0.0663  3.1767
 5789SOL    HW229004   1.093   2.361   4.113  0.3958 -0.6910 -0.1739
 5790SOL     OW29005   1.386   2.668   0.218 -0.2543 -0.1464 -0.2027
 5790SOL    HW129006   1.372   2.597   0.154  1.8372 -0.4569 -0.3254
 5790SOL    HW229007   1.431   2.612   0.282  0.0445  1.2230  0.7874
 5791SOL     OW29008   1.640   0.256  15.636  1.1088 -0.1577  0.4429
 5791SOL    HW129009   1.574   0.225  15.698  1.6019 -1.5078  0.2831
 5791SOL    HW229010   1.608   0.346  15.632  1.5634 -0.1102 -2.2224
 5792SOL     OW29011   3.941   4.109   5.056 -0.4477  0.1833 -0.6661
 5792SOL    HW129012   3.882   4.183   5.067  0.9868  1.1867  0.2634
 5792SOL    HW229013   3.981   4.097   5.142 -0.4946  1.5094 -0.4680
 5793SOL     OW29014   3.227   4.319  12.167 -0.1642  0.0841 -1.0521
 5793SOL    HW129015   3.161   4.381  12.200 -0.7210 -0.7596 -0.6037
 5793SOL    HW229016   3.313   4.358  12.182 -0.5354  0.8238 -0.8273
 5794SOL     OW29017   4.678   0.185   5.476  0.6629  0.2921  0.2755
 5794SOL    HW129018   4.724   0.104   5.455 -0.3507 -0.0823 -0.4861
 5794SOL    HW229019   4.587   0.158   5.473  0.6387  0.5072 -0.8606
 5795SOL     OW29020   3.613   0.309  12.704  0.3148 -0.0717 -0.2794
 5795SOL    HW129021   3.678   0.379  12.697 -1.0207  1.5032  2.8533
 5795SOL    HW229022   3.666   0.232  12.683  0.6800 -0.1706  1.0319
 5796SOL     OW29023   3.541   2.382   6.448 -0.1055 -0.2546  0.1911
 5796SOL    HW129024   3.611   2.443   6.425 -0.7887 -0.0449 -1.3870
 5796SOL    HW229025   3.482   2.412   6.379  1.5621 -0.8557 -1.4983
 5797SOL     OW29026   4.554   1.864   6.881  0.2431  0.1562 -0.2663
 5797SOL    HW129027   4.541   1.952   6.917 -2.2693 -0.6046  0.6538
 5797SOL    HW229028   4.580   1.887   6.792  1.1054 -2.5528 -0.7230
 5798SOL     OW29029   3.860   1.856   6.947 -0.1740 -0.1791 -0.3256
 5798SOL    HW129030   3.804   1.888   7.017  1.6670 -0.4046  1.2367
 5798SOL    HW229031   3.816   1.773   6.928 -1.4209  0.6350 -1.0008
 5799SOL     OW29032   3.558   0.987   2.263  0.5075 -0.3358 -0.0522
 5799SOL    HW129033   3.493   0.927   2.227  2.0261 -1.6027 -0.6666
 5799SOL    HW229034   3.505   1.031   2.329  0.7157 -0.8016  0.4213
 5800SOL     OW29035   2.554   3.455   6.432  0.1523 -0.1590 -0.0335
 5800SOL    HW129036   2.630   3.474   6.487  0.3631 -1.4381  0.1062
 5800SOL    HW229037   2.484   3.482   6.492  0.0636  0.9762 -0.6457
 5801SOL     OW29038   3.696   0.097   8.687  0.2810  0.7213 -0.1407
 5801SOL    HW129039   3.667   0.186   8.709  1.0461  0.9828 -0.1556
 5801SOL    HW229040   3.781   0.089   8.731 -1.4990  2.0323  3.4981
 5802SOL     OW29041   1.518   3.183   8.957 -0.1170 -0.2026  0.1147
 5802SOL    HW129042   1.464   3.142   9.025  1.1828 -1.3759  0.4527
 5802SOL    HW229043   1.486   3.273   8.961 -2.3344 -0.9335 -0.8710
 5803SOL     OW29044   2.196   0.210  12.619 -0.2195  0.0897  0.5215
 5803SOL    HW129045   2.235   0.294  12.644 -0.0901  0.6650 -1.5957
 5803SOL    HW229046   2.272   0.156  12.598 -0.6928 -0.8322  1.2070
 5804SOL     OW29047   3.720   2.103   2.094 -0.1471 -0.4519 -0.2385
 5804SOL    HW129048   3.652   2.087   2.160 -0.9222 -1.9054 -1.3994
 5804SOL    HW229049   3.729   2.197   2.107 -2.7617  0.0782 -2.4528
 5805SOL     OW29050   3.992   2.351   5.411 -0.1472  0.4803 -0.3962
 5805SOL    HW129051   3.959   2.418   5.352  1.2406  2.4944  1.1067
 5805SOL    HW229052   4.027   2.285   5.351 -0.5338  0.0120 -0.1103
 5806SOL     OW29053   3.827   1.200   8.904 -0.2407  0.7789 -0.7870
 5806SOL    HW129054   3.741   1.217   8.865 -0.5672  1.2246  0.1509
 5806SOL    HW229055   3.863   1.122   8.861 -1.0637 -1.2978  2.2614
 5807SOL     OW29056   2.852   1.616  13.931  0.1878  0.1579 -0.7113
 5807SOL    HW129057   2.945   1.595  13.941 -0.5980 -2.1884  1.8195
 5807SOL    HW229058   2.813   1.529  13.941  0.2246  0.0756 -1.2783
 5808SOL     OW29059   0.067   4.417   7.984 -0.0625  0.1467 -0.0082
 5808SOL    HW129060   4.711   4.420   8.004  0.4214 -0.4895  2.3530
 5808SOL    HW229061   0.072   4.450   7.894 -1.4841  1.6022  0.4377
 5809SOL     OW29062   3.778   3.045  13.747  0.7657 -0.5407 -0.7909
 5809SOL    HW129063   3.779   3.138  13.770  1.2508 -1.0101  1.1450
 5809SOL    HW229064   3.718   3.057  13.674  0.7090 -0.3779 -0.7180
 5810SOL     OW29065   3.767   1.692   3.888  0.6490 -0.3275  0.7537
 5810SOL    HW129066   3.688   1.719   3.842  2.4552  0.4935 -1.8326
 5810SOL    HW229067   3.744   1.617   3.943  0.8536 -0.0036  1.2791
 5811SOL     OW29068   2.695   0.516   7.238  0.3936 -0.0591  0.3876
 5811SOL    HW129069   2.771   0.459   7.255  0.8863  0.5489  0.2144
 5811SOL    HW229070   2.637   0.497   7.312  0.7888  0.1522  0.7524
 5812SOL     OW29071   1.165   3.824  10.662  0.1616 -0.3792 -0.3590
 5812SOL    HW129072   1.229   3.891  10.638 -0.1006  0.2317  0.6294
 5812SOL    HW229073   1.147   3.840  10.755 -0.6410 -0.3509 -0.5219
 5813SOL     OW29074   0.023   1.121   7.846 -0.3608  0.2607 -0.0494
 5813SOL    HW129075   4.671   1.135   7.820 -0.0124  2.7285  0.0137
 5813SOL    HW229076   0.035   1.207   7.888  1.7199 -0.1574  0.2522
 5814SOL     OW29077   2.541   2.628  10.177  0.1226 -0.1554 -0.5510
 5814SOL    HW129078   2.566   2.652  10.266 -0.2296  1.1323 -0.8114
 5814SOL    HW229079   2.611   2.572  10.142  0.9526  1.3944 -1.3414
 5815SOL     OW29080   1.411   1.224   6.477  0.0052  0.4166  0.1802
 5815SOL    HW129081   1.336   1.268   6.517 -0.6619 -0.0262 -0.5825
 5815SOL    HW229082   1.418   1.280   6.400  0.9347 -1.0125 -0.7860
 5816SOL     OW29083   2.934   0.141   6.911  0.3962  0.2825  0.3697
 5816SOL    HW129084   2.861   0.114   6.967  0.3494 -0.1950  0.0784
 5816SOL    HW229085   3.010   0.107   6.958 -0.2564 -0.1503  1.1207
 5817SOL     OW29086   3.438   2.271   4.860 -0.2720  0.3266 -0.4015
 5817SOL    HW129087   3.408   2.219   4.786  2.0752  1.9983 -2.5726
 5817SOL    HW229088   3.395   2.356   4.850 -2.2522 -0.6917 -0.3604
 5818SOL     OW29089   2.512   1.205  15.423 -0.3997 -0.0037 -0.0619
 5818SOL    HW129090   2.542   1.205  15.514 -3.2748 -0.0677  0.8932
 5818SOL    HW229091   2.468   1.120  15.419 -1.3171  0.3894  1.9576
 5819SOL     OW29092   0.172   1.527   5.962 -0.1573 -0.0420  0.4531
 5819SOL    HW129093   0.202   1.615   5.939 -0.8958 -0.6554 -2.8685
 5819SOL    HW229094   0.258   1.493   5.989 -0.0093 -0.9039 -1.1169
 5820SOL     OW29095   0.439   2.758   6.894 -0.5100 -0.1216  0.1798
 5820SOL    HW129096   0.524   2.768   6.853  0.7163 -0.1132  2.7044
 5820SOL    HW229097   0.422   2.841   6.940  1.4513 -0.2934  1.2124
 5821SOL     OW29098   0.616   0.559   3.801 -0.2761  0.7889 -0.3188
 5821SOL    HW129099   0.547   0.527   3.742  0.0047 -3.2182  1.5304
 5821SOL    HW229100   0.645   0.637   3.754 -1.6236  0.7286 -1.2401
 5822SOL     OW29101   2.447   1.772   5.525  0.0922 -0.2692 -0.0443
 5822SOL    HW129102   2.385   1.720   5.577  1.4387 -0.2249  1.6254
 5822SOL    HW229103   2.483   1.827   5.595  0.3884  1.3155 -1.4768
 5823SOL     OW29104   3.893   2.013   5.185  0.0466 -0.0793 -0.1573
 5823SOL    HW129105   3.812   2.050   5.218  0.3056 -1.3374  1.9148
 5823SOL    HW229106   3.932   2.089   5.142 -0.3518  1.1097  1.6277
 5824SOL     OW29107   4.325   1.280   3.391 -0.5219  0.0985  0.4384
 5824SOL    HW129108   4.388   1.211   3.412 -3.7612 -3.8887 -2.8963
 5824SOL    HW229109   4.322   1.328   3.474 -0.3905  0.0490  0.4712
 5825SOL     OW29110   2.819   3.320   8.921  0.0550  0.1278  0.0286
 5825SOL    HW129111   2.728   3.328   8.949 -0.0973 -1.6163 -0.0009
 5825SOL    HW229112   2.829   3.407   8.880  0.6123  0.7703  1.5248
 5826SOL     OW29113   0.694   0.669  10.169 -0.6127  0.5071 -0.5058
 5826SOL    HW129114   0.667   0.608  10.236 -0.5353  0.4053 -0.5679
 5826SOL    HW229115   0.727   0.609  10.102 -0.4308  1.0127 -0.8788
 5827SOL     OW29116   1.373   4.414   8.908  0.2182  0.3802  0.6297
 5827SOL    HW129117   1.401   4.323   8.913 -2.1958 -0.4243 -0.5035
 5827SOL    HW229118   1.404   4.439   8.821 -0.1460  0.0217  0.3937
 5828SOL     OW29119   3.717   4.372   5.382  0.3833 -0.0660 -0.1934
 5828SOL    HW129120   3.736   4.384   5.288 -2.5204  0.2146 -0.7384
 5828SOL    HW229121   3.724   4.277   5.394  1.5635  0.1743  1.0197
 5829SOL     OW29122   0.508   1.899   1.104  0.6079  0.4782  0.5558
 5829SOL    HW129123   0.580   1.865   1.157  0.4164  0.8899  1.0798
 5829SOL    HW229124   0.437   1.837   1.122 -1.2409  2.5968  0.6122
 5830SOL     OW29125   1.000   0.263   5.531  0.0063 -0.6574 -0.4212
 5830SOL    HW129126   1.052   0.342   5.516  0.9876 -0.8354  1.9371
 5830SOL    HW229127   0.985   0.258   5.626 -0.2006 -1.3171 -0.4881
 5831SOL     OW29128   4.670   0.739   6.596 -0.1530  0.0736  0.1085
 5831SOL    HW129129   0.006   0.766   6.543  1.1592  1.6184  2.7586
 5831SOL    HW229130   4.703   0.664   6.646  1.5591  1.4028  0.9432
 5832SOL     OW29131   3.191   3.268   8.952 -0.1711 -0.2921 -0.0957
 5832SOL    HW129132   3.161   3.347   8.907  2.2415  1.0929  0.7316
 5832SOL    HW229133   3.212   3.317   9.032  1.2331 -1.7462  0.4283
 5833SOL     OW29134   1.875   4.682   5.573  0.1045  0.6017  0.6569
 5833SOL    HW129135   1.880   0.001   5.650 -0.0774  0.8532  0.4773
 5833SOL    HW229136   1.932   4.728   5.512 -0.1290 -1.3950 -1.0843
 5834SOL     OW29137   0.673   3.844   1.764 -0.1827 -0.0938 -0.1482
 5834SOL    HW129138   0.723   3.925   1.747 -0.9120  0.3593 -0.1574
 5834SOL    HW229139   0.581   3.873   1.766  0.1563  1.1006 -1.2730
 5835SOL     OW29140   2.356   4.668   2.648 -0.1471 -0.1248  0.1764
 5835SOL    HW129141   2.440   4.648   2.608 -1.4351 -1.7607 -1.7281
 5835SOL    HW229142   2.300   4.613   2.593 -0.1830  1.0553 -0.9781
 5836SOL     OW29143   2.044   0.099   0.640 -0.4447  0.0279 -0.3350
 5836SOL    HW129144   1.949   0.105   0.649 -0.4551  0.8999 -0.9937
 5836SOL    HW229145   2.063   0.190   0.617  1.6546 -1.1152 -3.1137
 5837SOL     OW29146   4.016   3.751   4.859 -0.3372 -0.0145 -0.2436
 5837SOL    HW129147   4.097   3.770   4.811 -0.2050  0.0398  0.0030
 5837SOL    HW229148   3.952   3.779   4.793  1.8561 -0.4216 -2.5560
 5838SOL     OW29149   3.099   3.968   6.068  0.2166  0.1149  0.2053
 5838SOL    HW129150   3.019   3.976   6.016 -0.9882  1.1761  2.1690
 5838SOL    HW229151   3.077   3.921   6.149 -3.1083  0.7931 -0.2838
 5839SOL     OW29152   3.868   4.307   5.863  0.1333  0.4325  0.1661
 5839SOL    HW129153   3.831   4.236   5.810 -1.4232  1.4821 -0.1444
 5839SOL    HW229154   3.791   4.363   5.863  0.0712  0.3666  1.7580
 5840SOL     OW29155   3.094   3.595   8.312  0.3691  0.1658 -0.2714
 5840SOL    HW129156   3.157   3.643   8.257  0.7946  0.2907  0.3242
 5840SOL    HW229157   3.025   3.661   8.309  0.0283 -0.2385 -1.1310
 5841SOL     OW29158   1.335   1.613   3.225  0.2627 -0.2297 -0.0701
 5841SOL    HW129159   1.334   1.709   3.218  0.1755 -0.3838 -2.0109
 5841SOL    HW229160   1.273   1.587   3.157  3.2427  0.5778 -3.0464
 5842SOL     OW29161   1.043   3.545   6.349 -0.6243  0.5005  0.4557
 5842SOL    HW129162   0.952   3.541   6.380 -1.2113  0.3408 -1.2812
 5842SOL    HW229163   1.046   3.456   6.313 -0.5453  0.7558 -0.1749
 5843SOL     OW29164   4.169   1.597   5.972  0.5755  0.3353  0.0806
 5843SOL    HW129165   4.186   1.562   6.060 -1.1979  1.0530  0.7125
 5843SOL    HW229166   4.080   1.566   5.954  0.9845 -1.9021  1.8700
 5844SOL     OW29167   1.798   1.440   1.756 -0.2952 -0.1044 -0.1973
 5844SOL    HW129168   1.764   1.383   1.825  0.4938  0.3439  0.5562
 5844SOL    HW229169   1.892   1.435   1.770 -0.3302  0.6962  0.3397
 5845SOL     OW29170   1.818   0.596   7.096 -0.2931  0.5526 -0.1275
 5845SOL    HW129171   1.787   0.625   7.182 -2.2568 -3.2824  0.4609
 5845SOL    HW229172   1.742   0.569   7.044 -0.0701 -2.6131  1.1670
 5846SOL     OW29173   0.278   3.882  11.819  0.0039  0.0839 -0.9031
 5846SOL    HW129174   0.305   3.963  11.776 -1.7511  0.4435 -1.3414
 5846SOL    HW229175   0.191   3.871  11.780  0.6471 -0.1464 -2.2598
 5847SOL     OW29176   3.070   2.507  10.800  0.2746 -0.5724 -0.5126
 5847SOL    HW129177   3.146   2.450  10.803  0.7508  0.1440  1.4623
 5847SOL    HW229178   2.998   2.444  10.790  1.6731 -2.1523 -0.6173
 5848SOL     OW29179   2.904   0.257   9.366 -0.2988  0.0924 -0.3944
 5848SOL    HW129180   2.886   0.190   9.432 -0.8741  0.5259 -0.1161
 5848SOL    HW229181   2.864   0.339   9.393 -0.4612 -0.4001  0.8573
 5849SOL     OW29182   2.709   0.669   6.190  0.4440  0.1261  0.1397
 5849SOL    HW129183   2.755   0.601   6.141 -0.4763 -0.9231  0.7536
 5849SOL    HW229184   2.688   0.608   6.261  0.8366 -2.7073 -2.1837
 5850SOL     OW29185   3.296   0.423  11.171  0.4174 -0.1311 -0.3107
 5850SOL    HW129186   3.283   0.335  11.135 -0.1267  0.9069 -2.6369
 5850SOL    HW229187   3.281   0.479  11.094 -0.7410  0.9031  0.6711
 5851SOL     OW29188   1.115   1.195  16.127 -0.0167 -0.6622 -0.3013
 5851SOL    HW129189   1.032   1.149  16.139 -0.5506  0.8769  2.0390
 5851SOL    HW229190   1.167   1.136  16.072  2.7233  1.6975 -0.2671
 5852SOL     OW29191   0.987   0.907  14.227 -0.2237  0.0589  0.0087
 5852SOL    HW129192   0.929   0.978  14.200 -3.1011 -1.7915  1.3526
 5852SOL    HW229193   1.000   0.856  14.147  3.2977 -0.3632  0.8572
 5853SOL     OW29194   3.963   3.804   6.476  0.3588  0.3558  0.3235
 5853SOL    HW129195   3.953   3.861   6.400 -1.4315  0.6202  0.7606
 5853SOL    HW229196   3.890   3.838   6.528  0.3326 -0.7179  0.9857
 5854SOL     OW29197   0.673   0.759   4.600  0.2966  0.7620  0.1343
 5854SOL    HW129198   0.611   0.818   4.643 -0.8360 -1.0542  1.0007
 5854SOL    HW229199   0.715   0.718   4.676 -0.6168 -0.4429 -0.0251
 5855SOL     OW29200   3.140   2.792  11.180  0.4135  0.3260 -0.4316
 5855SOL    HW129201   3.210   2.729  11.197 -1.2217 -1.8335 -1.8725
 5855SOL    HW229202   3.192   2.872  11.175 -1.7730  1.9152  2.0329
 5856SOL     OW29203   4.261   0.317   8.300  0.7050 -0.3365  0.3286
 5856SOL    HW129204   4.298   0.233   8.273  2.6561  1.3500 -2.2429
 5856SOL    HW229205   4.230   0.353   8.217 -0.5622 -1.1714  0.4446
 5857SOL     OW29206   4.088   0.647   9.358 -0.3469 -0.1589  0.6846
 5857SOL    HW129207   4.098   0.612   9.447  1.9583 -1.4194 -0.0705
 5857SOL    HW229208   4.148   0.594   9.306 -0.9290  0.5888 -0.7397
 5858SOL     OW29209   2.674   2.459   3.952 -0.1758 -0.1335 -0.8740
 5858SOL    HW129210   2.745   2.421   3.899 -0.1297 -1.9958  0.5119
 5858SOL    HW229211   2.613   2.385   3.953  0.1284 -0.3867 -0.8101
 5859SOL     OW29212   2.624   1.142   2.941  0.9412  0.2101 -0.0552
 5859SOL    HW129213   2.628   1.237   2.943  0.4488  0.2121  0.8975
 5859SOL    HW229214   2.552   1.123   2.881  1.4156 -0.6026 -0.3659
 5860SOL     OW29215   4.296   0.806  15.028  0.0752 -0.2857  0.3546
 5860SOL    HW129216   4.315   0.801  15.121 -0.9786 -0.2900  0.5658
 5860SOL    HW229217   4.252   0.722  15.012 -0.8356 -0.1235  2.0300
 5861SOL     OW29218   2.555   0.651   2.512 -0.5703  0.3522  0.1910
 5861SOL    HW129219   2.569   0.697   2.429 -0.0851  0.8556  0.5534
 5861SOL    HW229220   2.581   0.716   2.577 -0.7682  0.1846  0.4362
 5862SOL     OW29221   0.125   0.292   7.073 -0.1782 -0.1627 -0.1136
 5862SOL    HW129222   0.219   0.311   7.074 -0.7489  2.7075 -1.2742
 5862SOL    HW229223   0.090   0.355   7.010  1.1366  2.1583  1.4870
 5863SOL     OW29224   2.829   2.235   3.867 -0.3541  0.2719 -0.1922
 5863SOL    HW129225   2.848   2.249   3.775  0.9932 -0.8693 -0.0899
 5863SOL    HW229226   2.745   2.190   3.876 -0.1987 -0.3127 -1.8412
 5864SOL     OW29227   4.613   1.025   0.568  0.3329  0.0883  0.0431
 5864SOL    HW129228   4.563   1.003   0.647  1.4412 -2.0097  0.1686
 5864SOL    HW229229   4.696   0.993   0.602 -1.2133 -1.0096  2.7637
 5865SOL     OW29230   3.884   1.309   0.271 -0.0980 -0.1770 -0.0983
 5865SOL    HW129231   3.827   1.384   0.285  1.5118  1.2290 -1.1050
 5865SOL    HW229232   3.877   1.286   0.363 -2.2788  0.5004 -0.0908
 5866SOL     OW29233   2.119   1.956   1.888 -0.4047 -0.0396  0.6213
 5866SOL    HW129234   2.161   1.922   1.967 -1.7697 -1.7672  0.5952
 5866SOL    HW229235   2.130   1.881   1.830 -3.9346 -1.1088  1.3833
 5867SOL     OW29236   4.286   3.819   6.755 -0.6740  0.5271  0.0248
 5867SOL    HW129237   4.220   3.885   6.733 -1.1366  0.5421  1.4525
 5867SOL    HW229238   4.340   3.857   6.824  0.1905 -0.9511  0.1665
 5868SOL     OW29239   2.869   1.232   7.543 -0.8617  0.6486  0.6875
 5868SOL    HW129240   2.857   1.138   7.539 -0.2953  0.5882  0.2850
 5868SOL    HW229241   2.964   1.241   7.555 -0.6946  0.4697 -0.4816
 5869SOL     OW29242   2.722   0.050  14.547 -0.2435 -0.1810  0.4080
 5869SOL    HW129243   2.800   0.103  14.565  0.4209 -0.8788 -0.3671
 5869SOL    HW229244   2.667   0.063  14.624 -1.4688  2.7013 -0.9784
 5870SOL     OW29245   2.843   0.845   9.051 -0.7010  0.4449 -0.0343
 5870SOL    HW129246   2.917   0.787   9.037 -0.6193  0.6037 -0.2535
 5870SOL    HW229247   2.856   0.877   9.140 -1.6029  1.9851 -0.4414
 5871SOL     OW29248   2.358   0.892   2.785  0.3192  0.4068 -0.0178
 5871SOL    HW129249   2.318   0.979   2.789 -1.1010 -0.3421  2.0003
 5871SOL    HW229250   2.362   0.881   2.690  1.5355 -2.1937  0.3250
 5872SOL     OW29251   0.967   4.063   4.839  0.2153 -0.0713  0.2569
 5872SOL    HW129252   0.923   4.005   4.778 -0.1339 -1.4325  1.8133
 5872SOL    HW229253   0.939   4.145   4.798  0.3218  0.3272  0.9922
 5873SOL     OW29254   1.413   1.282   8.814  0.0399  0.3666 -0.3702
 5873SOL    HW129255   1.481   1.342   8.845 -2.0180  0.5601  3.7370
 5873SOL    HW229256   1.404   1.312   8.723  4.0055  0.2315 -0.8081
 5874SOL     OW29257   3.177   3.990   8.125 -0.3948 -0.5068 -0.7874
 5874SOL    HW129258   3.112   4.009   8.057  2.0767  2.3924 -2.3113
 5874SOL    HW229259   3.112   3.997   8.195 -0.6918 -1.9203 -0.9183
 5875SOL     OW29260   3.519   0.479   6.838  0.3265 -0.0711 -0.0303
 5875SOL    HW129261   3.425   0.471   6.856  0.1960  1.2658 -0.0757
 5875SOL    HW229262   3.536   0.393   6.800  0.4861  0.5797 -1.4113
 5876SOL     OW29263   2.637   3.666   5.969 -0.3614 -0.1026  0.1437
 5876SOL    HW129264   2.616   3.575   5.987  1.4250 -0.6721 -0.6515
 5876SOL    HW229265   2.716   3.653   5.917 -0.2731  3.5730 -0.6419
 5877SOL     OW29266   2.762   2.689  13.750 -0.5326 -0.2784 -0.5785
 5877SOL    HW129267   2.852   2.682  13.783 -0.8018  1.2437  0.4934
 5877SOL    HW229268   2.750   2.621  13.684 -0.3919  1.3391 -2.2642
 5878SOL     OW29269   3.336   2.197   3.691  0.1553  0.5205  0.1669
 5878SOL    HW129270   3.313   2.200   3.783  0.8548  0.7628  0.3328
 5878SOL    HW229271   3.427   2.228   3.685  1.3872 -2.7368  1.9426
 5879SOL     OW29272   2.887   0.477   6.093  0.0907 -0.3207  0.2113
 5879SOL    HW129273   2.951   0.500   6.160 -0.3270  2.1039 -0.1970
 5879SOL    HW229274   2.867   0.392   6.133  2.8845 -0.3230  1.5512
 5880SOL     OW29275   2.500   4.609   6.988  0.6992  0.2537 -1.0992
 5880SOL    HW129276   2.427   4.642   6.934 -1.1890 -2.3896 -0.1875
 5880SOL    HW229277   2.463   4.610   7.077  2.6195  0.7911 -0.3224
 5881SOL     OW29278   4.180   4.411   2.465  0.3915  0.3649  0.0914
 5881SOL    HW129279   4.186   4.478   2.397  0.2880 -0.1579 -0.4302
 5881SOL    HW229280   4.094   4.374   2.447  0.2093  1.1976 -0.7763
 5882SOL     OW29281   0.700   2.260   9.181  0.5772 -0.1393 -0.2867
 5882SOL    HW129282   0.673   2.198   9.113 -2.4368  2.0268 -1.0913
 5882SOL    HW229283   0.627   2.320   9.200  1.3217  0.9724 -0.9842
 5883SOL     OW29284   0.852   2.408  11.744 -0.3284  0.1742 -0.1483
 5883SOL    HW129285   0.943   2.421  11.716  0.2205  0.3766  1.6983
 5883SOL    HW229286   0.851   2.313  11.734 -0.8241  0.0410  1.1945
 5884SOL     OW29287   4.202   3.074   3.419 -0.4319 -0.0184  0.4677
 5884SOL    HW129288   4.187   2.999   3.476  1.5002  0.1077  1.1359
 5884SOL    HW229289   4.186   3.140   3.487 -0.2759 -1.3137  1.7401
 5885SOL     OW29290   3.400   0.158   7.067  0.1743 -0.3825 -0.3095
 5885SOL    HW129291   3.461   0.115   7.008  1.2114 -1.6120  1.6573
 5885SOL    HW229292   3.457   0.203   7.129  1.5022  0.6631 -2.2897
 5886SOL     OW29293   3.714   3.031   6.433  0.1723 -0.0249 -0.0915
 5886SOL    HW129294   3.675   3.076   6.508  0.7859 -1.5795  1.1694
 5886SOL    HW229295   3.758   2.954   6.470 -1.1308 -0.5442  0.3515
 5887SOL     OW29296   2.029   4.152  13.145 -0.2909 -0.0113 -0.2054
 5887SOL    HW129297   2.108   4.100  13.158  0.6600  1.3529 -0.4157
 5887SOL    HW229298   1.956   4.110  13.189  0.0287  0.5033  0.8129
 5888SOL     OW29299   1.840   3.846   2.406  0.1239  0.1569  0.2436
 5888SOL    HW129300   1.863   3.927   2.450  1.8503 -0.5999  0.6903
 5888SOL    HW229301   1.748   3.842   2.434  0.7371 -2.2481  1.8821
 5889SOL     OW29302   0.401   4.243   3.002 -0.3254  0.2725 -0.5641
 5889SOL    HW129303   0.351   4.237   3.083  0.0990 -1.2848 -0.4303
 5889SOL    HW229304   0.418   4.151   2.984 -0.5968  0.3696 -1.3346
 5890SOL     OW29305   3.263   2.441   5.963 -0.0679 -0.0953  0.1045
 5890SOL    HW129306   3.303   2.357   5.988 -0.2195  0.3951  2.0141
 5890SOL    HW229307   3.172   2.412   5.959 -0.9764  2.7598  0.3712
 5891SOL     OW29308   2.076   3.055   2.118 -0.2352  0.2414 -0.4622
 5891SOL    HW129309   2.074   3.098   2.032 -2.2328 -1.4533 -1.2784
 5891SOL    HW229310   2.018   2.980   2.108 -0.1546  0.4583 -2.5594
 5892SOL     OW29311   0.115   3.191   1.567 -0.2275 -0.1857  0.3389
 5892SOL    HW129312   0.054   3.117   1.570  0.0213 -0.4706 -1.3977
 5892SOL    HW229313   0.061   3.259   1.528 -0.1008 -0.2432  0.0661
 5893SOL     OW29314   1.992   2.314   9.213  0.1645 -0.0609 -0.1016
 5893SOL    HW129315   1.964   2.328   9.304 -0.5715 -4.0644  0.3335
 5893SOL    HW229316   1.924   2.252   9.186 -0.8026  1.4928 -1.2302
 5894SOL     OW29317   2.163   0.325   2.367  0.1406  0.1761  0.0443
 5894SOL    HW129318   2.148   0.291   2.278 -1.0192  0.2518  0.2040
 5894SOL    HW229319   2.211   0.249   2.400 -1.6863  0.4992  3.4225
 5895SOL     OW29320   0.738   2.519  10.400 -0.3132  0.1043  0.2933
 5895SOL    HW129321   0.831   2.496  10.399 -0.0231  1.2790 -0.9725
 5895SOL    HW229322   0.710   2.464  10.473 -1.8095 -3.3767 -2.9514
 5896SOL     OW29323   2.451   1.159   5.952 -0.2184 -0.0891  0.0382
 5896SOL    HW129324   2.405   1.112   6.021  1.0627  0.3534  1.1823
 5896SOL    HW229325   2.392   1.145   5.877  2.2472 -0.3931 -1.8506
 5897SOL     OW29326   3.833   0.787   3.669 -0.2487 -0.1059  0.8872
 5897SOL    HW129327   3.854   0.880   3.674 -0.6536  0.0845 -0.9822
 5897SOL    HW229328   3.916   0.749   3.639 -0.5347  1.4893 -1.9802
 5898SOL     OW29329   1.621   2.623   6.346 -0.5928 -0.0834  0.8903
 5898SOL    HW129330   1.626   2.717   6.363  5.3920 -0.3471  0.5326
 5898SOL    HW229331   1.708   2.599   6.313 -1.1207 -0.5083 -0.2197
 5899SOL     OW29332   4.653   0.616   0.710  0.0952 -0.1566  0.5820
 5899SOL    HW129333   4.604   0.656   0.638 -0.7567  0.2075  1.3756
 5899SOL    HW229334   4.596   0.642   0.782 -0.2813  0.7444 -0.0426
 5900SOL     OW29335   3.981   4.452   8.461 -0.2744  0.5423  0.3842
 5900SOL    HW129336   3.902   4.506   8.465  0.5313  1.8455 -1.4565
 5900SOL    HW229337   4.045   4.496   8.406  0.2257 -0.5255  0.1145
 5901SOL     OW29338   1.301   3.933   8.508 -0.0862 -0.1892  0.5036
 5901SOL    HW129339   1.217   3.918   8.463  0.1988 -0.8243  0.1947
 5901SOL    HW229340   1.282   3.869   8.576  1.7150 -0.9082  0.3229
 5902SOL     OW29341   2.581   4.230   7.448  0.4278  0.7574  0.1548
 5902SOL    HW129342   2.501   4.178   7.462  1.1609 -0.5487 -0.4609
 5902SOL    HW229343   2.568   4.262   7.359  0.0820  0.7976  0.2196
 5903SOL     OW29344   4.174   2.779   0.928  0.6238  0.1681  0.0141
 5903SOL    HW129345   4.154   2.858   0.878  0.8590 -0.7869 -1.5907
 5903SOL    HW229346   4.143   2.804   1.015 -1.5767 -0.8028 -0.4867
 5904SOL     OW29347   0.456   1.209   7.451 -0.4710 -0.0632  0.0543
 5904SOL    HW129348   0.500   1.289   7.479 -0.2287  0.0155 -0.5621
 5904SOL    HW229349   0.398   1.235   7.379 -0.5876  1.7094  0.7960
 5905SOL     OW29350   2.891   1.359  10.420  0.1024 -0.3446 -0.4376
 5905SOL    HW129351   2.827   1.411  10.370  0.4229  1.2001  0.7513
 5905SOL    HW229352   2.942   1.435  10.447 -1.6814  0.9292 -0.6082
 5906SOL     OW29353   1.460   0.477   5.615 -0.2566  0.2814 -0.5385
 5906SOL    HW129354   1.401   0.523   5.675  1.5395  1.2160  0.5159
 5906SOL    HW229355   1.526   0.439   5.672  1.3158  1.1543 -1.7607
 5907SOL     OW29356   2.221   0.100   6.044 -0.5130 -0.1355 -0.0761
 5907SOL    HW129357   2.179   0.067   6.123  0.7521  0.6615  0.9373
 5907SOL    HW229358   2.258   0.181   6.078 -2.1198  0.3770  0.4205
 5908SOL     OW29359   2.498   0.325   9.855 -0.6435 -0.1890  0.6080
 5908SOL    HW129360   2.420   0.374   9.880 -0.1966  1.7301 -1.7980
 5908SOL    HW229361   2.523   0.371   9.775  1.4988  0.1051  1.4425
 5909SOL     OW29362   3.669   3.645   8.057 -0.1349  0.3881  0.2292
 5909SOL    HW129363   3.586   3.601   8.078  1.4201 -1.7727  1.9419
 5909SOL    HW229364   3.685   3.618   7.967  0.2968  1.8134 -0.1096
 5910SOL     OW29365   1.235   0.255   3.437  0.0031  0.3259 -0.1286
 5910SOL    HW129366   1.184   0.333   3.414 -0.1641  0.5479  1.0197
 5910SOL    HW229367   1.303   0.303   3.484 -2.6100  0.7498  3.2080
 5911SOL     OW29368   3.926   0.002   7.488  0.2559  0.0127 -0.5381
 5911SOL    HW129369   3.880   4.677   7.432  0.2418  0.9639 -1.6127
 5911SOL    HW229370   3.850   0.030   7.539  1.3228  1.9715 -0.0506
 5912SOL     OW29371   4.068   3.798   7.699 -0.3027 -0.1722  0.4865
 5912SOL    HW129372   3.976   3.789   7.676 -0.0548 -0.4311 -0.3843
 5912SOL    HW229373   4.114   3.838   7.625 -0.6662  1.1557  0.9805
 5913SOL     OW29374   2.393   3.122   3.895 -0.2753  0.4781  0.0546
 5913SOL    HW129375   2.431   3.164   3.972 -0.4063  1.5835 -0.4860
 5913SOL    HW229376   2.311   3.097   3.939 -0.8414  2.4159  0.1293
 5914SOL     OW29377   0.174   2.360   3.840  0.0289  0.0152 -0.4450
 5914SOL    HW129378   0.112   2.320   3.779 -1.7140  1.6946  0.2503
 5914SOL    HW229379   0.118   2.386   3.913  1.9694  2.1057  0.2921
 5915SOL     OW29380   3.059   0.722   3.543  0.1855  0.5397  0.4794
 5915SOL    HW129381   3.131   0.784   3.551  0.1512  0.8120 -1.4000
 5915SOL    HW229382   3.034   0.750   3.455  1.8619  2.3348  0.5750
 5916SOL     OW29383   4.495   0.567   8.637 -0.3075  0.1780  0.7344
 5916SOL    HW129384   4.495   0.627   8.562  2.1233 -1.0591 -0.2841
 5916SOL    HW229385   4.465   0.487   8.594 -0.0931  0.8389 -0.6327
 5917SOL     OW29386   1.395   0.687   8.547 -0.2285  0.1142 -0.5328
 5917SOL    HW129387   1.362   0.764   8.592 -1.3252  0.4858 -1.9642
 5917SOL    HW229388   1.488   0.701   8.563 -0.6557  0.5856  1.4346
 5918SOL     OW29389   0.869   3.583   1.180 -0.3544 -0.4223 -0.4159
 5918SOL    HW129390   0.896   3.496   1.208 -1.4580  0.0968  2.2651
 5918SOL    HW229391   0.954   3.599   1.140  0.1818  1.7834  1.6075
 5919SOL     OW29392   3.149   1.500  16.442 -1.0425  0.4887  0.3110
 5919SOL    HW129393   3.076   1.439  16.444  1.2373 -2.1772  3.7721
 5919SOL    HW229394   3.196   1.496  16.526 -3.1173 -1.3933  1.3718
 5920SOL     OW29395   3.392   3.857  14.879  0.0206  0.2000  0.7752
 5920SOL    HW129396   3.314   3.822  14.923  1.1188  0.1378  2.6695
 5920SOL    HW229397   3.454   3.784  14.886  1.4018  1.1856 -1.2172
 5921SOL     OW29398   4.685   0.271  10.850  0.5185  0.5530 -0.5338
 5921SOL    HW129399   4.601   0.277  10.805 -0.3452  1.0787  1.1431
 5921SOL    HW229400   4.675   0.181  10.882 -0.8534  0.5941 -0.8645
 5922SOL     OW29401   1.004   3.602   2.530  0.0690 -0.3981  0.1514
 5922SOL    HW129402   1.078   3.560   2.574 -0.3093 -2.1231 -0.8474
 5922SOL    HW229403   0.964   3.648   2.604  0.5582 -0.3370  0.3814
 5923SOL     OW29404   1.946   1.297   7.601 -0.1624 -0.5579  0.2124
 5923SOL    HW129405   1.994   1.278   7.520 -0.5591  2.3519 -0.7100
 5923SOL    HW229406   2.016   1.310   7.665  0.8210  2.4084 -1.4620
 5924SOL     OW29407   0.015   0.677  16.432  0.8726  0.5445 -0.4066
 5924SOL    HW129408   0.015   0.649  16.523 -0.1128 -0.5743 -0.7599
 5924SOL    HW229409   0.106   0.655  16.413  1.1332  1.5213 -0.2939
 5925SOL     OW29410   2.467   1.204  17.573 -0.0910  0.6461 -0.4654
 5925SOL    HW129411   2.473   1.271  17.505  0.3095  0.9430 -0.1415
 5925SOL    HW229412   2.373   1.189  17.573 -0.0350  0.2038  1.5159
 5926SOL     OW29413   4.718   0.995   3.231 -0.1695 -0.0517  0.0633
 5926SOL    HW129414   0.030   1.010   3.151 -1.1458  0.5018 -0.4613
 5926SOL    HW229415   0.044   0.939   3.274  0.2882  0.6086  0.2405
 5927SOL     OW29416   1.702   0.230   9.117 -0.3352 -0.0080  0.2991
 5927SOL    HW129417   1.756   0.298   9.078  0.8726 -0.6139  0.9231
 5927SOL    HW229418   1.619   0.250   9.073 -0.9711 -1.8334  0.6672
 5928SOL     OW29419   4.665   0.026   6.806  0.0443  0.2757 -0.1573
 5928SOL    HW129420   4.705   4.678   6.821 -0.9814 -0.2051 -0.1923
 5928SOL    HW229421   4.644   0.006   6.715 -0.3387 -1.1874  0.2580
 5929SOL     OW29422   2.294   0.541   2.651 -0.2953  0.2294  0.3052
 5929SOL    HW129423   2.387   0.564   2.647 -0.7090  1.8478  0.0274
 5929SOL    HW229424   2.295   0.446   2.664  2.9377  0.1924 -0.1097
 5930SOL     OW29425   2.900   3.645   7.375 -0.1980 -0.2286  0.0641
 5930SOL    HW129426   2.894   3.554   7.346 -0.1305 -0.4374  0.7260
 5930SOL    HW229427   2.809   3.667   7.357 -0.3159 -0.9669 -0.2277
 5931SOL     OW29428   2.108   2.549   0.033 -0.5252  0.2098  0.3213
 5931SOL    HW129429   2.174   2.490  17.750 -0.6266 -0.6333  1.5464
 5931SOL    HW229430   2.161   2.613   0.080 -1.5136  0.0437  1.6860
 5932SOL     OW29431   4.294   4.198   4.152  0.1571  0.1787  0.1757
 5932SOL    HW129432   4.256   4.109   4.153 -1.3243  0.8164  0.9688
 5932SOL    HW229433   4.275   4.229   4.240  0.3669  1.7524 -0.3459
 5933SOL     OW29434   1.361   1.288  11.444 -0.7709  0.3406 -0.2173
 5933SOL    HW129435   1.429   1.245  11.495 -1.3920 -0.1093  0.2290
 5933SOL    HW229436   1.295   1.290  11.513  0.0460  0.2871  0.5636
 5934SOL     OW29437   2.103   1.921  16.726 -0.3557 -0.1360 -0.4911
 5934SOL    HW129438   2.089   1.914  16.821 -0.1646 -0.4520 -0.4877
 5934SOL    HW229439   2.119   2.014  16.713  0.7428  0.0680  2.3506
 5935SOL     OW29440   3.598   4.372   5.848 -0.1097 -0.0952  0.1090
 5935SOL    HW129441   3.586   4.288   5.894 -0.2674 -1.9982 -3.4076
 5935SOL    HW229442   3.622   4.346   5.759 -0.2081  3.0818 -0.8328
 5936SOL     OW29443   3.272   1.345  17.515 -0.6903  0.1300 -0.6800
 5936SOL    HW129444   3.214   1.417  17.488 -0.8743  0.5684  0.8738
 5936SOL    HW229445   3.238   1.330  17.603  2.7923 -0.6218  0.5341
 5937SOL     OW29446   0.606   4.243  11.768  0.4557 -0.0575  0.0729
 5937SOL    HW129447   0.586   4.216  11.857 -0.1180  2.1841  0.6171
 5937SOL    HW229448   0.520   4.233  11.726  1.5854  4.7518 -3.3141
 5938SOL     OW29449   3.437   0.342   8.899  0.3149 -0.2128 -0.1461
 5938SOL    HW129450   3.440   0.270   8.961 -0.6589 -0.6435 -0.6020
 5938SOL    HW229451   3.420   0.399   8.974  0.5138  1.6852 -1.5459
 5939SOL     OW29452   1.642   1.236   4.880 -0.7819  0.0526 -0.0144
 5939SOL    HW129453   1.698   1.242   4.957 -1.0884 -1.9229  0.3596
 5939SOL    HW229454   1.584   1.165   4.908  0.5099 -1.2186 -0.4874
 5940SOL     OW29455   3.387   0.654  12.410  0.4082 -0.6685 -0.3838
 5940SOL    HW129456   3.373   0.718  12.480  1.9962 -1.2807  0.5070
 5940SOL    HW229457   3.300   0.651  12.371  0.7660 -2.0882 -1.0697
 5941SOL     OW29458   3.798   2.445   8.621 -0.5461 -0.0432  0.2082
 5941SOL    HW129459   3.747   2.525   8.619  1.7905  1.4499 -0.2978
 5941SOL    HW229460   3.726   2.383   8.634  0.4926 -0.8442  2.2335
 5942SOL     OW29461   0.604   2.854  15.958 -0.1178 -0.6454 -0.0182
 5942SOL    HW129462   0.620   2.946  15.938  0.0104 -1.0182 -1.6275
 5942SOL    HW229463   0.597   2.876  16.051 -1.9792 -2.2526  0.2297
 5943SOL     OW29464   4.593   2.482   4.730  0.4876  0.2327 -0.8580
 5943SOL    HW129465   4.520   2.453   4.784  0.6438  0.4223 -0.5433
 5943SOL    HW229466   4.613   2.397   4.692  1.0695  0.2033 -0.4972
 5944SOL     OW29467   1.803   2.027   4.308  1.0591  0.3619  0.1967
 5944SOL    HW129468   1.835   1.971   4.238 -0.4434 -0.5981  0.2789
 5944SOL    HW229469   1.883   2.070   4.338  1.5735 -0.9813  0.7488
 5945SOL     OW29470   4.698   3.352   6.194  0.1721  0.3104 -0.5165
 5945SOL    HW129471   4.612   3.350   6.235 -0.4494  0.7100 -1.7999
 5945SOL    HW229472   4.708   3.440   6.157  0.4586 -0.6734 -2.7991
 5946SOL     OW29473   2.258   1.807   7.860  0.2137  0.3608  0.5210
 5946SOL    HW129474   2.185   1.825   7.800 -0.2125 -1.0249  0.6181
 5946SOL    HW229475   2.309   1.745   7.807  3.7902  1.1607  3.0130
 5947SOL     OW29476   1.634   3.440  17.459 -0.6265  0.0451 -0.2239
 5947SOL    HW129477   1.666   3.419  17.547  1.2638  2.7289 -0.2536
 5947SOL    HW229478   1.618   3.354  17.419  0.5543 -0.1398 -0.2833
 5948SOL     OW29479   0.480   3.180   5.059  0.1852 -0.1177  0.2365
 5948SOL    HW129480   0.405   3.161   5.002 -0.8770 -0.6551  1.8307
 5948SOL    HW229481   0.501   3.268   5.027  2.1211 -0.3653  0.8511
 5949SOL     OW29482   0.403   3.103   9.039  0.0979  0.8268  0.5425
 5949SOL    HW129483   0.345   3.032   9.067  0.9405  0.4087  1.2370
 5949SOL    HW229484   0.439   3.129   9.124  1.0913  1.5951 -0.1203
 5950SOL     OW29485   2.228   3.617  16.030 -0.2769  0.0715 -0.7957
 5950SOL    HW129486   2.263   3.654  16.111 -0.7085 -1.5734  0.1308
 5950SOL    HW229487   2.230   3.699  15.980 -0.1560 -0.7121 -2.0825
 5951SOL     OW29488   3.708   3.066  11.125 -0.5745 -0.2966 -0.2802
 5951SOL    HW129489   3.652   3.134  11.088  0.3701 -0.8409 -2.7742
 5951SOL    HW229490   3.709   3.100  11.214 -2.2368  1.4830 -0.9479
 5952SOL     OW29491   4.467   3.360  17.127  0.0154  0.5820  0.4001
 5952SOL    HW129492   4.437   3.426  17.063  0.1705 -0.1504 -0.4297
 5952SOL    HW229493   4.442   3.277  17.087  0.0379  0.7289  0.0775
 5953SOL     OW29494   2.978   0.406   7.607 -0.2772  0.1625 -0.2078
 5953SOL    HW129495   2.893   0.450   7.606  0.2729  1.1737 -2.7693
 5953SOL    HW229496   2.955   0.314   7.612  0.4535 -0.1928 -3.3844
 5954SOL     OW29497   0.754   1.747   5.381 -0.1132  0.5547 -0.1754
 5954SOL    HW129498   0.741   1.694   5.302  0.3038 -0.6561  0.5819
 5954SOL    HW229499   0.796   1.826   5.346  0.6980  0.0210 -0.3847
 5955SOL     OW29500   4.595   4.270   4.248 -0.4818  0.1501 -0.0142
 5955SOL    HW129501   4.681   4.284   4.289 -0.8552 -0.2040  0.8810
 5955SOL    HW229502   4.615   4.236   4.161  2.8014  1.6575  0.1580
 5956SOL     OW29503   3.068   1.343   9.238 -0.5194 -0.1999  0.0161
 5956SOL    HW129504   3.049   1.311   9.326  2.1883  1.2530  1.1353
 5956SOL    HW229505   2.991   1.304   9.197 -1.6641 -1.7510  3.6336
 5957SOL     OW29506   0.847   4.477   6.701 -0.2397  0.2228 -0.3279
 5957SOL    HW129507   0.886   4.445   6.619  2.2583  0.1632  0.8782
 5957SOL    HW229508   0.791   4.550   6.673  1.0900 -0.0020 -3.6607
 5958SOL     OW29509   1.101   0.237   4.426  0.2072 -0.1991  0.4468
 5958SOL    HW129510   1.184   0.273   4.457 -0.6223  0.3985  1.9886
 5958SOL    HW229511   1.144   0.203   4.348 -2.2999  0.3644 -1.1911
 5959SOL     OW29512   0.552   1.393   4.517 -0.2112 -0.1955  0.0861
 5959SOL    HW129513   0.627   1.399   4.576 -0.1747 -0.2610  0.0462
 5959SOL    HW229514   0.578   1.320   4.461 -0.8677  0.1867 -0.7118
 5960SOL     OW29515   1.270   1.004   3.821  0.7227 -0.2871 -0.0057
 5960SOL    HW129516   1.258   0.950   3.899  1.6187 -0.1146  0.2512
 5960SOL    HW229517   1.354   1.050   3.829  0.2503  0.2672  1.5858
 5961SOL     OW29518   3.644   1.031  15.228  0.0052 -0.1297  0.3899
 5961SOL    HW129519   3.717   0.989  15.182  2.0186 -0.0101  3.4851
 5961SOL    HW229520   3.613   1.093  15.162  1.2863 -1.1851 -1.2062
 5962SOL     OW29521   0.570   1.715   2.334 -0.2602 -0.5128  0.2440
 5962SOL    HW129522   0.482   1.752   2.322  0.4423  1.3103  0.6306
 5962SOL    HW229523   0.578   1.741   2.426 -1.0436  1.0984 -0.1364
 5963SOL     OW29524   4.096   4.494   3.383 -0.4104 -0.5158  0.2021
 5963SOL    HW129525   4.165   4.534   3.435  1.2821  0.9933 -3.2388
 5963SOL    HW229526   4.137   4.417   3.344 -0.7763 -0.3277 -0.5505
 5964SOL     OW29527   4.252   1.943   6.746 -0.2211  0.7281 -0.5804
 5964SOL    HW129528   4.344   1.917   6.741 -0.3899  0.0505 -0.1663
 5964SOL    HW229529   4.198   1.872   6.781 -0.5600  0.4464 -1.6440
 5965SOL     OW29530   2.875   1.496  14.446 -0.1488  0.2584  0.2169
 5965SOL    HW129531   2.935   1.541  14.506  1.7557 -0.3051 -1.2638
 5965SOL    HW229532   2.849   1.565  14.385  1.1350  0.1218 -0.4838
 5966SOL     OW29533   4.577   3.411   3.229  0.1247  0.0528  0.2732
 5966SOL    HW129534   4.486   3.441   3.224 -0.5687 -1.7679  2.0670
 5966SOL    HW229535   4.602   3.448   3.313  1.4721  2.9855 -1.4134
 5967SOL     OW29536   4.644   0.421   9.263  0.1644 -0.7755  0.0431
 5967SOL    HW129537   4.675   0.511   9.271 -0.9882 -0.2627 -1.2285
 5967SOL    HW229538   4.653   0.391   9.353  1.5456 -0.9956 -0.1671
 5968SOL     OW29539   0.256   3.530   5.073 -0.7146  0.0167  0.1552
 5968SOL    HW129540   0.344   3.520   5.035 -0.9174  0.3677 -0.4046
 5968SOL    HW229541   0.253   3.625   5.085 -1.1650 -0.1029  0.9361
 5969SOL     OW29542   2.008   4.365   2.604  0.6672 -0.2966 -0.0179
 5969SOL    HW129543   1.993   4.445   2.654  0.5651  0.0497 -0.6092
 5969SOL    HW229544   1.933   4.308   2.622  0.2682  0.4951  0.8420
 5970SOL     OW29545   0.884   3.301  17.386 -0.1922  0.2556  0.3943
 5970SOL    HW129546   0.854   3.291  17.296  0.6814  1.0180  0.0175
 5970SOL    HW229547   0.966   3.348  17.372 -1.2405  1.7072 -0.8113
 5971SOL     OW29548   2.362   3.459   2.656  0.2005  0.1930  0.3726
 5971SOL    HW129549   2.343   3.502   2.572 -1.7465 -1.4377 -0.0316
 5971SOL    HW229550   2.352   3.365   2.638  0.0498  0.1364  0.7529
 5972SOL     OW29551   0.796   3.554   3.712  0.1535 -0.0771  0.6861
 5972SOL    HW129552   0.820   3.640   3.746 -0.0274  0.0124  0.5853
 5972SOL    HW229553   0.774   3.516   3.798 -2.7342  0.2514  0.0844
 5973SOL     OW29554   0.943   3.379  16.920 -0.1910 -0.4097  0.0869
 5973SOL    HW129555   0.942   3.471  16.948  3.9172 -0.3472  0.0290
 5973SOL    HW229556   0.950   3.387  16.824 -2.2170  3.0254  0.1878
 5974SOL     OW29557   3.812   0.934   4.606  0.1440  0.1074  0.4049
 5974SOL    HW129558   3.905   0.952   4.592  0.1466  1.1102  1.6840
 5974SOL    HW229559   3.783   1.009   4.658 -0.6917  0.2643 -0.3006
 5975SOL     OW29560   0.895   2.559   9.428 -0.0992  0.1905 -0.0775
 5975SOL    HW129561   0.874   2.483   9.374  1.5667 -0.3910  0.0870
 5975SOL    HW229562   0.881   2.633   9.368 -2.7388 -0.7521 -0.6123
 5976SOL     OW29563   3.278   3.981   4.672 -0.3329  0.6952 -0.6084
 5976SOL    HW129564   3.327   3.925   4.732 -1.3659 -0.7913 -1.1753
 5976SOL    HW229565   3.188   3.951   4.687  0.8727 -2.5803  0.0339
 5977SOL     OW29566   3.325   1.351   3.374 -0.0538  0.4697  0.2211
 5977SOL    HW129567   3.236   1.377   3.400 -0.1981 -1.0926  1.3346
 5977SOL    HW229568   3.321   1.259   3.403 -1.8818  0.8769  1.2933
 5978SOL     OW29569   3.916   3.239   2.456 -0.3423 -0.4823  0.1466
 5978SOL    HW129570   3.925   3.334   2.466  0.3344 -0.6040  0.6737
 5978SOL    HW229571   3.982   3.206   2.517 -0.7612 -2.7055 -0.5965
 5979SOL     OW29572   0.552   3.520   8.325 -0.6683  0.3131  0.0818
 5979SOL    HW129573   0.611   3.470   8.269  1.0334  1.2067  1.0355
 5979SOL    HW229574   0.466   3.498   8.290 -1.1419  1.4644  0.5179
 5980SOL     OW29575   3.237   3.303   5.308  0.6508  0.2072 -0.3153
 5980SOL    HW129576   3.194   3.386   5.288 -0.9275 -0.8173 -1.1847
 5980SOL    HW229577   3.165   3.242   5.291 -1.4785  2.3277  1.2549
 5981SOL     OW29578   2.242   2.283  12.228 -0.4563  0.4192 -0.0702
 5981SOL    HW129579   2.309   2.345  12.258  1.2002 -2.3247  1.8179
 5981SOL    HW229580   2.278   2.205  12.269  1.1319  0.4172 -1.4883
 5982SOL     OW29581   4.548   1.679   2.460 -0.5704  0.3279 -0.2664
 5982SOL    HW129582   4.591   1.612   2.406 -1.0174  0.1701 -0.4259
 5982SOL    HW229583   4.508   1.740   2.397  0.9785 -1.2293 -2.7554
 5983SOL     OW29584   2.079   1.781  10.923 -0.0273 -0.7290 -0.5980
 5983SOL    HW129585   2.122   1.724  10.987  1.0757  0.4584 -0.2605
 5983SOL    HW229586   2.027   1.834  10.983  0.6352 -2.4371  1.4664
 5984SOL     OW29587   2.099   1.276   7.387  0.5186 -0.6177  0.1345
 5984SOL    HW129588   2.122   1.213   7.319  0.4349  1.0263 -1.4373
 5984SOL    HW229589   2.135   1.361   7.360 -0.0190 -1.0267 -1.8733
 5985SOL     OW29590   3.832   3.239   6.038  0.0445 -0.0142  0.8916
 5985SOL    HW129591   3.800   3.149   6.047 -0.9890  0.2784  0.1142
 5985SOL    HW229592   3.836   3.261   6.131  2.3069 -2.1509  1.3133
 5986SOL     OW29593   1.688   0.813  12.835 -0.3302 -0.3335  0.7704
 5986SOL    HW129594   1.720   0.785  12.921 -0.0681 -0.2237  0.7092
 5986SOL    HW229595   1.597   0.836  12.850 -0.8540 -1.6428 -0.4610
 5987SOL     OW29596   0.937   3.266  11.014 -1.0442 -0.1275  0.0481
 5987SOL    HW129597   0.936   3.328  11.088 -1.0352  1.0313 -0.9161
 5987SOL    HW229598   0.945   3.331  10.944  0.8633 -0.9406 -0.4892
 5988SOL     OW29599   2.259   4.548   3.508 -0.4334  0.3643 -0.0833
 5988SOL    HW129600   2.234   4.546   3.416 -2.7606 -4.2366  0.6293
 5988SOL    HW229601   2.332   4.486   3.513  1.3067  2.4426  0.0046
 5989SOL     OW29602   3.052   1.334   3.527  0.1858 -0.6400 -0.1923
 5989SOL    HW129603   2.998   1.392   3.580 -1.5996 -0.4928 -2.1933
 5989SOL    HW229604   2.984   1.269   3.509  0.1841 -0.5780 -0.4115
 5990SOL     OW29605   2.450   2.636   7.222 -0.0586 -0.0516  0.4497
 5990SOL    HW129606   2.381   2.702   7.219  0.2087  0.3237  2.5357
 5990SOL    HW229607   2.404   2.573   7.166  0.8577  0.2149 -0.6041
 5991SOL     OW29608   2.150   1.374  11.133  0.3776  0.0736  0.7230
 5991SOL    HW129609   2.059   1.364  11.108  0.1680  2.6685  0.4831
 5991SOL    HW229610   2.193   1.382  11.048  0.2726 -1.4478  0.5294
 5992SOL     OW29611   1.455   1.681   8.868  0.5379  0.2946  0.9258
 5992SOL    HW129612   1.500   1.597   8.877  1.9160  1.0106  0.7479
 5992SOL    HW229613   1.530   1.734   8.840  0.8386 -0.4530  0.3140
 5993SOL     OW29614   1.601   2.827   7.754  0.6719  0.3559  0.1234
 5993SOL    HW129615   1.635   2.913   7.777  0.4930  0.0138  1.6739
 5993SOL    HW229616   1.666   2.777   7.802  1.0895  0.1442 -0.6523
 5994SOL     OW29617   3.587   2.654  11.806  0.6710  0.4363  0.5469
 5994SOL    HW129618   3.613   2.603  11.728  1.9309 -1.5552  2.2728
 5994SOL    HW229619   3.529   2.588  11.844 -1.5695  1.5607 -0.9236
 5995SOL     OW29620   4.331   3.602  16.506 -0.2173  0.1845  0.4257
 5995SOL    HW129621   4.309   3.600  16.413 -0.9037  4.2942  0.4727
 5995SOL    HW229622   4.425   3.616  16.498 -0.1715 -0.2843  0.1576
 5996SOL     OW29623   0.244   0.554  16.501  0.9716  0.6591  0.0977
 5996SOL    HW129624   0.273   0.566  16.591 -0.4952 -0.3447  0.6939
 5996SOL    HW229625   0.264   0.460  16.495 -0.1048  0.4008  0.5275
 5997SOL     OW29626   0.593   2.611  14.344  0.0055  0.1844 -0.0956
 5997SOL    HW129627   0.600   2.587  14.437  2.8237  0.5665 -0.1909
 5997SOL    HW229628   0.629   2.700  14.352  0.3354 -0.0450  1.1141
 5998SOL     OW29629   4.715   3.117   3.476 -0.7848  0.3266  0.1594
 5998SOL    HW129630   4.637   3.138   3.425  0.9683  1.4934 -1.9978
 5998SOL    HW229631   0.009   3.205   3.489  1.2538 -0.1158 -1.9389
 5999SOL     OW29632   3.754   3.277   3.559 -0.4006  0.1998 -0.2501
 5999SOL    HW129633   3.845   3.306   3.548  0.2134 -1.6527 -0.0427
 5999SOL    HW229634   3.756   3.254   3.652  1.7631 -1.3699 -0.6781
 6000SOL     OW29635   1.171   2.346   7.441  0.4374 -0.4486  0.3335
 6000SOL    HW129636   1.200   2.364   7.351  1.2660 -2.4063  0.2129
 6000SOL    HW229637   1.252   2.308   7.476  0.5743 -0.1789  0.3182
 6001SOL     OW29638   4.580   1.543   7.415 -0.3810 -0.4856  0.1322
 6001SOL    HW129639   4.659   1.512   7.371 -0.1940 -1.3895  1.1000
 6001SOL    HW229640   4.604   1.626   7.455  2.0594 -0.9364 -0.3953
 6002SOL     OW29641   1.858   1.568   7.620  0.3871 -0.1412  0.1517
 6002SOL    HW129642   1.840   1.545   7.711  0.8889 -0.5757  0.1389
 6002SOL    HW229643   1.862   1.480   7.583  4.6654 -0.3750  1.0905
 6003SOL     OW29644   4.512   1.687   1.653 -0.2200  0.4095  0.3819
 6003SOL    HW129645   4.495   1.749   1.582 -0.6578 -0.4022 -0.2204
 6003SOL    HW229646   4.521   1.745   1.729  0.9011  1.6820 -0.7184
 6004SOL     OW29647   3.974   2.355  14.949 -0.0210  0.1008 -0.3785
 6004SOL    HW129648   4.067   2.349  14.969 -0.4528  1.4057  2.0637
 6004SOL    HW229649   3.975   2.309  14.866 -0.9062 -1.6763  0.5907
 6005SOL     OW29650   4.295   2.893   3.904 -0.2554 -0.0019  0.0175
 6005SOL    HW129651   4.324   2.849   3.825 -1.6532 -1.2999  0.2224
 6005SOL    HW229652   4.206   2.858   3.906 -0.1328 -0.2697  0.6688
 6006SOL     OW29653   2.838   0.195   0.430 -0.1804  0.0838  0.1807
 6006SOL    HW129654   2.896   0.132   0.387  2.1146  1.0408  1.9135
 6006SOL    HW229655   2.895   0.268   0.453  0.9956 -0.8185  0.1195
 6007SOL     OW29656   2.705   2.169  12.736 -0.8695  0.4025  0.4703
 6007SOL    HW129657   2.735   2.242  12.683  2.0942 -0.3629  1.0837
 6007SOL    HW229658   2.767   2.097  12.723 -0.4234  0.6546  1.2372
 6008SOL     OW29659   2.217   2.901   1.204 -0.7841 -0.5812 -0.0263
 6008SOL    HW129660   2.125   2.902   1.228 -0.4053  2.4570  1.3226
 6008SOL    HW229661   2.224   2.964   1.132 -0.5268  2.2169  2.4412
 6009SOL     OW29662   2.203   3.963   7.302 -0.5522 -0.2836 -0.3684
 6009SOL    HW129663   2.237   4.041   7.347 -0.5440  1.4423 -3.4071
 6009SOL    HW229664   2.289   3.930   7.276 -1.0824 -0.7926 -1.4502
 6010SOL     OW29665   1.980   4.126   5.241 -0.1759 -0.2765 -0.2109
 6010SOL    HW129666   1.993   4.215   5.276 -1.2246 -0.1997  0.0080
 6010SOL    HW229667   2.045   4.074   5.288 -1.6110 -0.5704  1.4641
 6011SOL     OW29668   2.644   3.483  11.934  0.2442  0.3686  0.4471
 6011SOL    HW129669   2.713   3.476  11.999 -1.0141 -1.0629  1.6007
 6011SOL    HW229670   2.582   3.416  11.960 -1.3588  1.3519 -0.8282
 6012SOL     OW29671   1.289   4.137   3.087  0.3933  0.3222  0.1100
 6012SOL    HW129672   1.251   4.220   3.113  2.1876  0.1906  3.1114
 6012SOL    HW229673   1.362   4.128   3.149  0.6028 -0.1769 -0.2033
 6013SOL     OW29674   0.952   3.020   1.883  0.4635 -0.1170  0.1597
 6013SOL    HW129675   1.025   2.959   1.874  1.4526  0.8454  1.6409
 6013SOL    HW229676   0.968   3.042   1.975  0.5525 -1.4863  0.4694
 6014SOL     OW29677   3.922   0.728  15.064 -0.1658 -0.5686 -0.0880
 6014SOL    HW129678   3.915   0.823  15.066 -2.5760 -0.8053  1.7672
 6014SOL    HW229679   4.007   0.717  15.020  0.1731  1.1531  0.1484
 6015SOL     OW29680   1.423   2.239   4.001 -0.5989 -0.2237  0.0011
 6015SOL    HW129681   1.373   2.219   4.080  0.7950 -0.7081  0.7439
 6015SOL    HW229682   1.512   2.231   4.034  0.6958 -1.8156 -3.8808
 6016SOL     OW29683   1.623   0.669   3.420 -0.0368  0.3246 -0.1368
 6016SOL    HW129684   1.719   0.675   3.426 -0.0514  2.1761 -1.7553
 6016SOL    HW229685   1.607   0.683   3.327 -0.6159  0.1366 -0.0639
 6017SOL     OW29686   0.221   3.057   5.234 -0.6496  1.2763  0.4817
 6017SOL    HW129687   0.224   3.148   5.264 -2.6109  1.8354 -0.9268
 6017SOL    HW229688   0.251   3.062   5.143  1.9369 -0.5548  1.2656
 6018SOL     OW29689   0.847   2.126   4.632  0.4151 -0.6154 -0.5133
 6018SOL    HW129690   0.754   2.122   4.611  0.1309 -0.8818  0.7969
 6018SOL    HW229691   0.841   2.139   4.727  0.4246  0.4810 -0.6580
 6019SOL     OW29692   0.666   1.418   2.053 -0.5060 -0.4634 -0.1512
 6019SOL    HW129693   0.660   1.512   2.038  3.9177 -0.2916 -0.8898
 6019SOL    HW229694   0.607   1.382   1.986  0.6789 -2.1269 -0.3080
 6020SOL     OW29695   2.975   2.808   2.850 -0.7824 -0.0208 -0.1050
 6020SOL    HW129696   2.966   2.885   2.794  0.3379  0.0567 -0.1719
 6020SOL    HW229697   2.990   2.742   2.782  0.4253  0.6815 -0.5212
 6021SOL     OW29698   4.008   1.838   4.057 -0.5953  0.0066 -0.4384
 6021SOL    HW129699   3.985   1.916   4.006  1.2209 -0.2086 -1.5873
 6021SOL    HW229700   3.952   1.767   4.025 -1.2294  0.2452  0.1524
 6022SOL     OW29701   3.614   2.222   6.983 -0.3490 -0.2731  0.4618
 6022SOL    HW129702   3.563   2.303   6.982  0.1072 -0.0945 -5.5162
 6022SOL    HW229703   3.609   2.198   6.890  3.9604 -0.4055  0.2714
 6023SOL     OW29704   3.621   1.010   8.030  0.0718  0.1600 -0.0752
 6023SOL    HW129705   3.530   1.002   8.059 -0.0262  0.3857 -0.3153
 6023SOL    HW229706   3.642   0.917   8.023  1.7503  0.7020 -2.5725
 6024SOL     OW29707   3.337   2.701  13.611  0.4342  0.0097 -0.0224
 6024SOL    HW129708   3.254   2.749  13.619  0.8538  0.0010  4.4407
 6024SOL    HW229709   3.386   2.770  13.565  1.4124 -1.6537 -1.4477
 6025SOL     OW29710   3.016   0.543   3.722 -0.0205 -0.4064 -0.1275
 6025SOL    HW129711   3.034   0.613   3.659  1.7695 -1.3871 -0.7169
 6025SOL    HW229712   3.072   0.567   3.796  0.8096  1.8044 -1.4858
 6026SOL     OW29713   4.384   3.132  16.755 -0.2295 -0.5196  0.5882
 6026SOL    HW129714   4.309   3.106  16.702  0.3370 -1.1770  0.1075
 6026SOL    HW229715   4.386   3.226  16.736 -1.2727 -0.4896  0.6364
 6027SOL     OW29716   2.113   2.191   4.349  1.3575  0.2455 -0.0675
 6027SOL    HW129717   2.152   2.119   4.300  2.0470  0.7716 -0.2866
 6027SOL    HW229718   2.081   2.246   4.278  1.8214  0.2235 -0.2928
 6028SOL     OW29719   3.336   2.280  13.790  0.4825  0.2012  0.3446
 6028SOL    HW129720   3.253   2.260  13.746  0.2921  0.3061  0.6571
 6028SOL    HW229721   3.397   2.235  13.731  0.5741  0.3847  0.3004
 6029SOL     OW29722   1.602   1.740   1.937  0.1228  0.1267  0.0538
 6029SOL    HW129723   1.614   1.807   2.004  0.1812 -0.8825  1.0412
 6029SOL    HW229724   1.690   1.741   1.901  1.1168  1.6318  2.5250
 6030SOL     OW29725   1.498   3.718  15.304 -0.2221  0.6674  0.2401
 6030SOL    HW129726   1.461   3.767  15.378 -1.9206  2.1596 -1.5846
 6030SOL    HW229727   1.496   3.790  15.241 -0.2050 -0.2889 -0.8287
 6031SOL     OW29728   2.737   0.087   9.186  0.2487 -0.1743  0.6045
 6031SOL    HW129729   2.805   0.129   9.238  2.0226  1.8896 -3.4034
 6031SOL    HW229730   2.665   0.112   9.243 -0.0546  0.4258 -0.0415
 6032SOL     OW29731   2.495   2.691   9.088 -0.2068 -0.3416 -0.0798
 6032SOL    HW129732   2.427   2.729   9.144 -1.3387 -0.5529 -1.3287
 6032SOL    HW229733   2.555   2.645   9.148  0.2645 -0.0945 -0.3615
 6033SOL     OW29734   3.929   2.070   3.933  0.2851  0.0478  0.4978
 6033SOL    HW129735   3.919   2.060   3.838 -0.6906  1.6487  0.4386
 6033SOL    HW229736   3.957   2.161   3.935  1.3583 -0.3111  1.4590
 6034SOL     OW29737   0.590   4.698   6.928 -0.3787 -0.0319  0.0962
 6034SOL    HW129738   0.551   0.017   6.994 -0.5960  0.8937 -0.8478
 6034SOL    HW229739   0.539   4.730   6.854  0.1721  0.5415 -0.0358
 6035SOL     OW29740   2.578   2.949   2.598  0.2510 -0.7496 -0.5299
 6035SOL    HW129741   2.617   3.022   2.551  3.2668 -1.8989  0.1797
 6035SOL    HW229742   2.503   2.918   2.548 -0.1947 -0.1125 -0.2528
 6036SOL     OW29743   2.837   4.460   1.302  0.1802 -0.3725 -0.3935
 6036SOL    HW129744   2.798   4.449   1.389  1.9693  1.4723  0.6210
 6036SOL    HW229745   2.911   4.399   1.307  0.4142 -0.2164 -1.7292
 6037SOL     OW29746   2.365   2.350   0.826 -0.1384 -0.0184  0.3593
 6037SOL    HW129747   2.374   2.263   0.864  2.0297 -0.0849 -0.3011
 6037SOL    HW229748   2.420   2.339   0.748  1.1389  2.5350  0.8853
 6038SOL     OW29749   4.119   2.268   8.186 -0.3739  0.6874 -1.1174
 6038SOL    HW129750   4.025   2.256   8.204  0.0028 -0.4681  0.0356
 6038SOL    HW229751   4.122   2.224   8.101  1.6717 -2.0529  0.3757
 6039SOL     OW29752   3.832   2.201   7.282  0.2796  0.1686  0.1750
 6039SOL    HW129753   3.811   2.226   7.372 -0.0357  1.5727 -0.2852
 6039SOL    HW229754   3.922   2.170   7.287  0.1843 -0.3074 -1.0296
 6040SOL     OW29755   3.936   1.424   9.055  0.1939 -0.3367 -0.5081
 6040SOL    HW129756   3.899   1.346   9.013 -0.1883 -1.8666  2.6673
 6040SOL    HW229757   4.008   1.377   9.098  0.3493  1.4167  1.1067
 6041SOL     OW29758   1.935   4.614   4.133  0.0022  0.2429  0.1620
 6041SOL    HW129759   1.936   4.533   4.082 -0.4138  1.7086 -2.1675
 6041SOL    HW229760   2.025   4.604   4.167 -0.2569  2.3212  1.4635
 6042SOL     OW29761   0.461   0.479   3.574  0.3511  0.1266  0.4514
 6042SOL    HW129762   0.490   0.525   3.496 -1.9692  2.4631  0.9746
 6042SOL    HW229763   0.513   0.398   3.572 -1.6691 -1.2271  2.5835
 6043SOL     OW29764   2.220   0.840   6.031 -0.5316 -0.1864  0.6521
 6043SOL    HW129765   2.213   0.817   5.938 -1.1097 -1.9537  1.1455
 6043SOL    HW229766   2.262   0.767   6.076  0.9862 -0.1415 -0.6900
 6044SOL     OW29767   2.870   4.245   1.893  0.0932 -0.3642 -0.8292
 6044SOL    HW129768   2.893   4.333   1.922 -0.2997 -0.4993 -0.1140
 6044SOL    HW229769   2.866   4.247   1.798 -2.0094 -0.9225 -0.7545
 6045SOL     OW29770   1.071   1.306  10.385  0.3805 -0.6857 -0.6161
 6045SOL    HW129771   0.993   1.266  10.345 -1.2854 -0.6054  2.5869
 6045SOL    HW229772   1.076   1.258  10.467  0.5210  0.5306  0.0918
 6046SOL     OW29773   4.555   1.053  16.545  0.2507 -0.1622  0.0719
 6046SOL    HW129774   4.563   1.000  16.466 -3.5093 -0.5182 -0.0692
 6046SOL    HW229775   4.461   1.053  16.563  0.2294 -0.8418 -0.0329
 6047SOL     OW29776   0.847   0.388   2.539 -0.4791  0.7746  0.2990
 6047SOL    HW129777   0.774   0.449   2.553  0.4256  2.2950 -1.5731
 6047SOL    HW229778   0.900   0.423   2.611 -0.1990  1.9116 -0.4635
 6048SOL     OW29779   1.235   0.642   6.107 -0.0145  0.1942  0.0258
 6048SOL    HW129780   1.244   0.705   6.178  0.6232 -0.7863  0.8140
 6048SOL    HW229781   1.140   0.646   6.098  0.0372 -1.8667 -1.5241
 6049SOL     OW29782   0.921   4.706   8.836  0.3651 -0.1498 -0.1668
 6049SOL    HW129783   0.935   4.611   8.840 -0.2768 -0.1292  2.7734
 6049SOL    HW229784   0.843   4.715   8.781  0.9390 -0.5492 -1.0450
 6050SOL     OW29785   2.836   0.452   4.108 -0.4552  0.3324 -0.1598
 6050SOL    HW129786   2.791   0.495   4.036  0.8938  1.2594 -0.4611
 6050SOL    HW229787   2.833   0.510   4.184 -0.6769  0.9640 -0.6585
 6051SOL     OW29788   2.507   2.923   0.598  0.2721  0.3424  0.4607
 6051SOL    HW129789   2.560   2.853   0.637  0.0300 -0.3024 -0.3755
 6051SOL    HW229790   2.573   2.975   0.553  2.8949 -2.3295  1.1649
 6052SOL     OW29791   0.051   1.537   3.658  0.3012 -0.1689 -1.1711
 6052SOL    HW129792   0.030   1.472   3.591  0.2442 -0.7182 -0.6289
 6052SOL    HW229793   4.704   1.558   3.696 -0.1469 -0.7284 -1.8806
 6053SOL     OW29794   2.049   0.140   2.658 -0.2382 -0.5089 -0.5741
 6053SOL    HW129795   1.999   0.115   2.580 -0.0451 -1.6687 -0.3293
 6053SOL    HW229796   2.001   0.223   2.663  1.3459  0.4207 -0.7205
 6054SOL     OW29797   1.554   3.753   1.208 -0.3288 -0.3414 -0.6173
 6054SOL    HW129798   1.584   3.791   1.125  0.4886 -0.9840 -0.6176
 6054SOL    HW229799   1.636   3.714   1.237 -0.0604  1.6327  1.2491
 6055SOL     OW29800   2.127   0.468  16.103 -0.4761 -0.3622 -0.3377
 6055SOL    HW129801   2.078   0.490  16.024 -0.6391  0.7554  0.0749
 6055SOL    HW229802   2.191   0.539  16.097 -1.9096  0.9648  0.3266
 6056SOL     OW29803   0.209   2.409  14.050  0.2599 -0.0135 -0.3852
 6056SOL    HW129804   0.166   2.366  14.124 -1.1070  1.3268 -0.4109
 6056SOL    HW229805   0.295   2.433  14.083 -0.8384  0.8185  1.8500
 6057SOL     OW29806   3.211   1.937  12.456  0.1163 -0.1086  0.3594
 6057SOL    HW129807   3.156   1.967  12.383 -1.1450 -1.6221  0.6921
 6057SOL    HW229808   3.274   1.882  12.410 -1.4935  1.9207 -4.3084
 6058SOL     OW29809   2.260   2.945   9.720  0.1159  0.0819  0.4741
 6058SOL    HW129810   2.226   2.903   9.641 -0.9337  1.5628  0.1272
 6058SOL    HW229811   2.178   2.982   9.754  2.1043  3.9186  1.1559
 6059SOL     OW29812   1.147   3.650   7.873  0.0870 -0.0598 -0.4364
 6059SOL    HW129813   1.235   3.669   7.840  0.0168 -0.1864 -0.7019
 6059SOL    HW229814   1.116   3.583   7.812  3.6480 -1.8108 -0.3799
 6060SOL     OW29815   3.662   0.812  15.011  0.6908 -0.4577 -0.2949
 6060SOL    HW129816   3.582   0.769  15.044  0.2653  0.5617  0.0083
 6060SOL    HW229817   3.727   0.795  15.079 -0.7876  0.3523  1.3492
 6061SOL     OW29818   0.444   1.737   8.163 -0.0692 -0.8408 -0.5416
 6061SOL    HW129819   0.379   1.714   8.229 -0.4322 -1.0996 -0.9884
 6061SOL    HW229820   0.419   1.819   8.122  2.1849 -0.2366 -0.7331
 6062SOL     OW29821   4.018   0.517   7.219 -0.3225 -0.2082  0.6316
 6062SOL    HW129822   4.086   0.574   7.255 -2.0668  2.0516  0.3646
 6062SOL    HW229823   3.960   0.523   7.295  1.6697 -0.5699  2.1543
 6063SOL     OW29824   3.650   3.263   7.807  0.2837 -0.0301  0.3215
 6063SOL    HW129825   3.662   3.357   7.797 -0.5680  0.0025 -0.3325
 6063SOL    HW229826   3.688   3.234   7.724  0.8270  0.3678  0.4319
 6064SOL     OW29827   2.906   0.471  13.382 -0.0969  0.5496  0.0780
 6064SOL    HW129828   2.887   0.472  13.288  0.9426  1.3645 -0.1348
 6064SOL    HW229829   2.864   0.552  13.409 -2.7228 -0.9702  0.5496
 6065SOL     OW29830   4.330   1.677  17.353 -0.1134 -0.3781  0.1461
 6065SOL    HW129831   4.386   1.680  17.276 -0.3512 -2.3680 -0.1117
 6065SOL    HW229832   4.304   1.588  17.379 -1.1122 -0.2738 -0.5007
 6066SOL     OW29833   1.626   3.695   6.918  0.0530 -0.0558  0.6305
 6066SOL    HW129834   1.555   3.667   6.860 -1.1398  2.1959  0.9830
 6066SOL    HW229835   1.642   3.616   6.969 -0.9909  0.8960  2.4431
 6067SOL     OW29836   0.736   1.955   2.988  0.5105  0.0093 -0.1134
 6067SOL    HW129837   0.808   2.004   2.949 -0.5111  1.7320  0.1409
 6067SOL    HW229838   0.735   1.995   3.075 -0.2964 -1.5300  0.5997
 6068SOL     OW29839   3.349   4.286   4.630  0.8046  0.3536 -0.0952
 6068SOL    HW129840   3.332   4.332   4.713  0.2533  2.1494 -1.2039
 6068SOL    HW229841   3.286   4.215   4.645  0.8692  0.2259 -0.4223
 6069SOL     OW29842   3.202   0.227   5.638 -0.2888  0.0049 -0.0715
 6069SOL    HW129843   3.238   0.289   5.703  0.1922 -0.4759  0.1242
 6069SOL    HW229844   3.138   0.288   5.602 -0.3985 -0.3146 -0.4107
 6070SOL     OW29845   0.939   0.352   2.963  0.1215 -0.3194  0.6616
 6070SOL    HW129846   0.972   0.266   2.990 -1.8332 -1.3188 -0.0724
 6070SOL    HW229847   0.916   0.386   3.050 -0.2599 -0.5552  0.6557
 6071SOL     OW29848   2.920   4.635  16.347  0.3489 -0.4445  0.1873
 6071SOL    HW129849   2.861   4.702  16.312 -0.1062 -1.2158 -0.5515
 6071SOL    HW229850   2.879   4.552  16.323 -1.1028  0.8484 -1.8342
 6072SOL     OW29851   2.954   2.813  15.287 -0.8275  0.3618 -0.2263
 6072SOL    HW129852   3.000   2.882  15.334  0.8210 -0.4406 -0.6739
 6072SOL    HW229853   2.985   2.830  15.198 -1.3597  1.8083 -0.1388
 6073SOL     OW29854   1.086   3.147  16.945 -0.2239 -0.3128 -0.1844
 6073SOL    HW129855   1.009   3.204  16.947  0.1068  0.0983  0.5750
 6073SOL    HW229856   1.110   3.150  16.852  2.2990 -0.9269  0.4370
 6074SOL     OW29857   2.924   2.012  11.989 -0.0855 -0.4693  0.0134
 6074SOL    HW129858   2.871   2.029  11.911  0.8581  1.3327 -0.2440
 6074SOL    HW229859   2.872   2.064  12.050  0.2866 -1.0857  0.8531
 6075SOL     OW29860   1.554   3.594  12.206  0.3898  0.0097 -0.4855
 6075SOL    HW129861   1.512   3.671  12.243 -1.2017 -0.5221 -1.1719
 6075SOL    HW229862   1.473   3.543  12.200 -0.6065  1.2937  2.0300
 6076SOL     OW29863   3.072   2.584  16.855  0.4195  0.0431  0.0356
 6076SOL    HW129864   3.046   2.568  16.764 -2.2843 -1.3009  1.0356
 6076SOL    HW229865   3.084   2.679  16.853  2.8093 -0.2818 -1.0941
 6077SOL     OW29866   2.947   3.621  15.803  0.3667 -0.2067 -0.2059
 6077SOL    HW129867   2.891   3.562  15.753  1.3244 -1.5246  0.2739
 6077SOL    HW229868   3.032   3.593  15.769 -1.5471 -0.6522 -4.6054
 6078SOL     OW29869   0.055   1.657   5.340  0.5450  0.3658  0.0158
 6078SOL    HW129870   0.131   1.707   5.371  1.3999 -1.4109  0.7781
 6078SOL    HW229871   0.015   1.718   5.278 -1.4407 -0.3856  0.5813
 6079SOL     OW29872   2.167   2.079  10.114  0.1057 -0.2389 -0.3734
 6079SOL    HW129873   2.117   1.999  10.097  1.0633 -0.6431 -1.2484
 6079SOL    HW229874   2.095   2.124  10.158  0.2340 -0.0757 -0.3318
 6080SOL     OW29875   1.418   1.461   6.342 -0.3116 -0.5328  0.2562
 6080SOL    HW129876   1.346   1.503   6.294  0.6724  0.9237  0.0555
 6080SOL    HW229877   1.415   1.494   6.432 -2.8671 -1.6609  0.5898
 6081SOL     OW29878   3.213   1.981   0.498 -0.5531  0.2458 -0.4933
 6081SOL    HW129879   3.219   1.927   0.420 -2.3685 -0.4102 -0.1940
 6081SOL    HW229880   3.138   1.928   0.523 -1.0092  0.6661 -0.9497
 6082SOL     OW29881   2.521   1.367   8.660  0.1153 -0.4912 -0.1526
 6082SOL    HW129882   2.467   1.402   8.730  1.5595  0.7127  0.3689
 6082SOL    HW229883   2.608   1.391   8.693 -0.9297  0.0434  2.2071
 6083SOL     OW29884   2.384   0.084   1.757 -0.6388 -0.0415 -0.3293
 6083SOL    HW129885   2.375   0.177   1.777  0.4872  0.4842 -2.2501
 6083SOL    HW229886   2.293   0.054   1.755 -0.5874 -0.2118 -0.1236
 6084SOL     OW29887   4.346   3.573   4.019 -0.5742 -0.1624 -0.4727
 6084SOL    HW129888   4.316   3.655   3.982 -0.8174  0.8563  1.9792
 6084SOL    HW229889   4.440   3.578   4.002 -0.2814 -0.5789  0.9582
 6085SOL     OW29890   3.280   0.343   8.656 -0.1872  0.6024 -0.4923
 6085SOL    HW129891   3.359   0.378   8.697  0.5703  0.7036 -2.0239
 6085SOL    HW229892   3.323   0.265   8.621 -0.5708  0.7764 -1.3609
 6086SOL     OW29893   0.522   2.295   3.327 -0.4690  0.0640 -0.5139
 6086SOL    HW129894   0.514   2.389   3.342  1.4253  0.5246 -2.4126
 6086SOL    HW229895   0.453   2.250   3.376 -0.9864  3.0193  1.4985
 6087SOL     OW29896   2.243   0.834  11.701  0.3904 -0.0825 -0.0498
 6087SOL    HW129897   2.203   0.755  11.664 -1.9230  0.9860  0.1712
 6087SOL    HW229898   2.332   0.803  11.713  0.8477  0.4657 -1.9770
 6088SOL     OW29899   4.033   2.594   8.506 -0.1370 -0.1247 -0.1980
 6088SOL    HW129900   3.961   2.635   8.459 -0.7493 -1.1098 -0.1060
 6088SOL    HW229901   4.029   2.650   8.584 -0.1787 -1.0976  0.4936
 6089SOL     OW29902   0.340   1.769   5.848 -0.8979 -0.3503 -0.1424
 6089SOL    HW129903   0.339   1.807   5.936 -1.7906 -1.1818  0.2026
 6089SOL    HW229904   0.283   1.827   5.798 -1.0704  1.5693  2.3163
 6090SOL     OW29905   0.931   1.399  11.405  0.0935  0.1895  0.1703
 6090SOL    HW129906   0.936   1.344  11.483  3.1708 -0.6789 -0.6401
 6090SOL    HW229907   0.887   1.337  11.347 -1.4673  2.7910 -1.4400
 6091SOL     OW29908   3.482   4.112   2.651 -0.0761 -0.1960  0.0742
 6091SOL    HW129909   3.392   4.100   2.621 -0.4296  2.0402  0.2384
 6091SOL    HW229910   3.475   4.070   2.737 -1.3292 -0.1363  0.0079
 6092SOL     OW29911   0.894   2.609   8.681 -0.8109  0.6508  0.0849
 6092SOL    HW129912   0.916   2.537   8.621 -0.6139  1.3721 -0.7007
 6092SOL    HW229913   0.877   2.559   8.761  1.4907  1.5306  1.1167
 6093SOL     OW29914   0.929   0.065   2.238 -0.2259  0.1542  0.2166
 6093SOL    HW129915   0.880   0.048   2.157  1.4765  0.3261 -0.8595
 6093SOL    HW229916   0.962   0.153   2.220  2.3797 -0.7330  0.6980
 6094SOL     OW29917   2.130   2.264  14.756  0.6623 -0.1388 -0.5925
 6094SOL    HW129918   2.055   2.306  14.798  1.6317  2.2793 -1.2795
 6094SOL    HW229919   2.199   2.329  14.772  0.8862 -1.4856  3.8002
 6095SOL     OW29920   1.142   1.628   4.630  0.7891  0.1023  0.2067
 6095SOL    HW129921   1.120   1.721   4.631 -2.3701 -0.6732  2.9548
 6095SOL    HW229922   1.224   1.622   4.679  0.4040  1.3954  1.0077
 6096SOL     OW29923   2.964   1.844  17.347 -0.2982 -0.4921  0.1445
 6096SOL    HW129924   2.930   1.917  17.400  3.2621  0.3127  1.3239
 6096SOL    HW229925   2.994   1.782  17.414 -0.2008 -1.3431 -0.6897
 6097SOL     OW29926   2.235   3.010   6.332  0.0183  0.8512  0.3053
 6097SOL    HW129927   2.298   3.020   6.260  0.5704 -1.4728  0.4806
 6097SOL    HW229928   2.298   3.019   6.404 -0.2827  2.2037  0.4061
 6098SOL     OW29929   3.550   3.639  14.891 -0.5162  0.5929  0.4709
 6098SOL    HW129930   3.603   3.577  14.941  2.5435  0.8585 -2.4327
 6098SOL    HW229931   3.499   3.583  14.833 -1.7290  0.6068  1.5398
 6099SOL     OW29932   1.569   2.501  16.152 -0.5269 -0.3570  0.4387
 6099SOL    HW129933   1.512   2.448  16.096 -1.7230  0.2550  1.0772
 6099SOL    HW229934   1.656   2.490  16.113 -0.6498  4.2448 -1.1331
 6100SOL     OW29935   1.869   4.115   6.141 -0.2135 -0.2780  0.6315
 6100SOL    HW129936   1.812   4.038   6.141  1.1668 -1.2772  0.2789
 6100SOL    HW229937   1.943   4.093   6.085 -0.5382 -1.1279  0.5420
 6101SOL     OW29938   3.162   1.285   7.119 -0.3938  0.1518 -0.7196
 6101SOL    HW129939   3.117   1.212   7.076 -2.1659  0.5764  0.4033
 6101SOL    HW229940   3.094   1.328   7.171 -0.3723 -2.8287  1.7776
 6102SOL     OW29941   1.877   3.635   0.027  0.1538 -0.2051 -0.0268
 6102SOL    HW129942   1.918   3.722   0.023  0.2017 -0.2674 -1.0712
 6102SOL    HW229943   1.948   3.587   0.067  0.0029 -1.1141 -0.8456
 6103SOL     OW29944   3.209   3.785  17.072  0.0686  0.2630  0.3983
 6103SOL    HW129945   3.211   3.813  16.980  1.8150  0.3745  0.4678
 6103SOL    HW229946   3.199   3.867  17.119  2.1106  1.0395 -0.5013
 6104SOL     OW29947   4.729   1.780  16.563  0.2754 -0.8323  0.1968
 6104SOL    HW129948   4.689   1.766  16.649 -1.9217 -0.1722 -0.7426
 6104SOL    HW229949   0.064   1.718  16.566  0.6226 -0.4591 -0.7946
 6105SOL     OW29950   4.548   2.594  10.985  0.0818 -0.1118  0.2760
 6105SOL    HW129951   4.634   2.594  11.028  0.3834  2.0563 -0.3293
 6105SOL    HW229952   4.532   2.689  10.988  1.5749  0.2114 -1.9496
 6106SOL     OW29953   1.852   2.493   3.476  0.1988 -0.5023 -0.7378
 6106SOL    HW129954   1.887   2.578   3.449  0.3227 -0.1791  0.4227
 6106SOL    HW229955   1.810   2.461   3.396  1.8457 -1.8044 -1.0708
 6107SOL     OW29956   1.933   3.396   9.338  0.3045  0.3504 -0.5368
 6107SOL    HW129957   2.004   3.416   9.277 -0.5229 -1.6271 -2.1404
 6107SOL    HW229958   1.987   3.331   9.384 -0.9063 -0.2906 -0.0172
 6108SOL     OW29959   2.255   0.456   7.116 -0.1954  1.2259  0.2289
 6108SOL    HW129960   2.160   0.449   7.113 -0.1559  0.7584  0.0829
 6108SOL    HW229961   2.265   0.550   7.102 -0.9180  1.1852 -0.5715
 6109SOL     OW29962   1.408   1.056  13.082  0.4410  0.1572  0.1771
 6109SOL    HW129963   1.414   0.984  13.019 -1.2726 -1.6754  2.0752
 6109SOL    HW229964   1.399   1.137  13.032 -0.7364 -0.1495 -0.1136
 6110SOL     OW29965   0.765   4.063   4.998  0.1575 -0.2578  0.3883
 6110SOL    HW129966   0.833   4.076   4.932  0.3033 -0.2208  0.5464
 6110SOL    HW229967   0.816   4.073   5.078  0.5119 -1.0470  0.2598
 6111SOL     OW29968   1.823   3.000   7.317  0.0171 -0.2477  0.1747
 6111SOL    HW129969   1.861   3.028   7.234 -0.6781 -0.4158 -0.1991
 6111SOL    HW229970   1.808   3.088   7.350 -0.5534 -0.0471 -0.6314
 6112SOL     OW29971   0.656   0.331   3.963 -0.3226 -0.7595  0.1139
 6112SOL    HW129972   0.644   0.422   3.936 -0.4413 -0.8827 -0.2588
 6112SOL    HW229973   0.687   0.296   3.879  1.3472  0.7243  0.1275
 6113SOL     OW29974   0.520   1.752   7.383 -0.0111  0.4616 -0.1548
 6113SOL    HW129975   0.461   1.748   7.458  1.3846 -0.3328  0.8910
 6113SOL    HW229976   0.607   1.730   7.417 -0.1133  1.6349  0.8410
 6114SOL     OW29977   3.528   3.919   4.456 -0.2345 -0.2086  0.6412
 6114SOL    HW129978   3.574   3.835   4.452 -1.4138 -0.8402  0.6101
 6114SOL    HW229979   3.463   3.916   4.526 -1.5254  2.1983 -0.4491
 6115SOL     OW29980   3.038   2.540   7.273  0.0868 -0.0162  0.2316
 6115SOL    HW129981   2.946   2.567   7.276 -0.6115 -2.3006 -0.3143
 6115SOL    HW229982   3.025   2.446   7.263  2.4410 -0.3499  0.2921
 6116SOL     OW29983   4.287   1.828   8.981 -0.4862  0.0961 -0.5819
 6116SOL    HW129984   4.213   1.876   9.016  1.0054  1.5136  0.6035
 6116SOL    HW229985   4.249   1.740   8.984 -1.5208  0.4758 -2.1522
 6117SOL     OW29986   3.757   3.664   4.711  0.0449 -0.4850 -0.1544
 6117SOL    HW129987   3.680   3.691   4.762 -0.5766 -0.9977 -0.8204
 6117SOL    HW229988   3.735   3.672   4.618  1.3711  0.1540 -0.4138
 6118SOL     OW29989   3.747   0.042  14.208  0.0133  0.0251  0.7421
 6118SOL    HW129990   3.652   0.043  14.222  0.0725 -1.6408  1.2606
 6118SOL    HW229991   3.771   0.057  14.300  2.9046  1.7179 -0.2721
 6119SOL     OW29992   0.606   2.610   6.236  0.0279  0.6068 -0.3607
 6119SOL    HW129993   0.579   2.579   6.149 -0.1591  0.3075 -0.1976
 6119SOL    HW229994   0.547   2.563   6.294  2.0060 -1.0317  0.3320
 6120SOL     OW29995   4.551   3.169   7.304 -0.4123 -0.1746 -0.5626
 6120SOL    HW129996   4.476   3.197   7.356 -0.1373  2.4663 -1.6032
 6120SOL    HW229997   4.622   3.198   7.361 -0.9375  1.0492 -0.5187
 6121SOL     OW29998   0.321   3.866   4.798 -0.8735 -0.1116 -0.2979
 6121SOL    HW129999   0.360   3.928   4.735 -0.0253  0.4606  0.7894
 6121SOL    HW230000   0.291   3.792   4.744 -0.3341 -0.3169 -0.3128
 6122SOL     OW30001   1.648   2.609   3.770 -0.2964 -0.1245  0.3267
 6122SOL    HW130002   1.592   2.534   3.749 -0.1511 -0.0770 -0.2305
 6122SOL    HW230003   1.574   2.664   3.796  0.6294  0.4506  1.7609
 6123SOL     OW30004   1.115   0.955  10.189  0.3282  0.0883  1.0500
 6123SOL    HW130005   1.088   0.884  10.130  3.1757  0.8811 -1.1910
 6123SOL    HW230006   1.070   1.026  10.145 -0.1649 -1.6087 -1.1814
 6124SOL     OW30007   3.949   4.577  16.828 -0.0706 -0.1673  0.3730
 6124SOL    HW130008   3.997   4.660  16.826 -0.2766 -0.0200  1.4011
 6124SOL    HW230009   3.926   4.566  16.736 -2.2785 -0.6560  0.9878
 6125SOL     OW30010   0.580   4.635   4.182 -0.5090 -0.0471  0.2807
 6125SOL    HW130011   0.509   4.583   4.218 -1.2459  0.6654 -0.1591
 6125SOL    HW230012   0.548   4.625   4.092  0.9227 -0.8828 -0.1443
 6126SOL     OW30013   1.922   3.488   4.333  0.6589 -0.8014  0.0524
 6126SOL    HW130014   1.976   3.474   4.255  0.5319  1.4595 -0.4393
 6126SOL    HW230015   1.991   3.528   4.386 -0.0684  2.8751 -1.7898
 6127SOL     OW30016   2.467   1.549  17.562  0.5503  0.1162 -0.1341
 6127SOL    HW130017   2.409   1.597  17.621  0.4449 -0.8568  0.5450
 6127SOL    HW230018   2.453   1.585  17.475 -0.5353 -2.4090 -0.9716
 6128SOL     OW30019   3.361   0.831   8.873 -0.2921  0.1921  0.0046
 6128SOL    HW130020   3.340   0.810   8.964  1.9074  0.7845  0.6414
 6128SOL    HW230021   3.274   0.828   8.833 -0.2488  0.2252 -0.0927
 6129SOL     OW30022   4.251   4.655   9.225  0.4140 -0.2660  0.3368
 6129SOL    HW130023   4.210   0.003   9.224  0.7367 -0.1137  0.1037
 6129SOL    HW230024   4.343   4.670   9.204  0.8409 -2.2342  0.7666
 6130SOL     OW30025   3.010   3.191   5.242  0.3201 -0.1058 -0.4511
 6130SOL    HW130026   3.045   3.168   5.156  0.3687 -0.1045 -0.4316
 6130SOL    HW230027   2.931   3.137   5.248  0.7402 -0.4375  1.8523
 6131SOL     OW30028   0.487   4.444   1.065 -0.0013  0.1219 -0.4444
 6131SOL    HW130029   0.520   4.382   1.000 -1.9861  1.7123 -2.9384
 6131SOL    HW230030   0.427   4.388   1.113  2.5755 -2.2304  0.0115
 6132SOL     OW30031   2.257   1.934   1.548 -0.0795  0.1204 -0.1537
 6132SOL    HW130032   2.345   1.909   1.522  0.0203  1.6789 -1.3058
 6132SOL    HW230033   2.270   2.009   1.607 -1.7500  0.7701 -0.6033
 6133SOL     OW30034   2.999   2.163   6.763  0.1487 -0.6739  0.0836
 6133SOL    HW130035   2.993   2.257   6.780 -2.7414 -0.3885 -2.6302
 6133SOL    HW230036   2.983   2.139   6.854 -1.9798 -3.1652 -0.9609
 6134SOL     OW30037   1.788   3.660   8.482  0.1372 -0.0080  0.3322
 6134SOL    HW130038   1.694   3.652   8.469  0.2028 -1.8691  1.0983
 6134SOL    HW230039   1.810   3.572   8.512  2.3302  0.3903 -0.0505
 6135SOL     OW30040   0.156   1.004  13.384  0.2850 -0.1185  0.3793
 6135SOL    HW130041   0.099   1.051  13.445 -1.6993  0.1761 -1.7127
 6135SOL    HW230042   0.230   1.064  13.384  0.1854  0.0031 -0.7320
 6136SOL     OW30043   0.224   0.052   8.207 -0.2578 -0.8907  0.8945
 6136SOL    HW130044   0.244   4.700   8.183 -1.0081 -0.5269 -1.0622
 6136SOL    HW230045   0.298   0.075   8.264  0.6491 -0.5118 -0.4473
 6137SOL     OW30046   1.053   1.713   3.066  0.1980 -0.0760  0.3855
 6137SOL    HW130047   1.040   1.739   2.975  0.8159 -0.5032  0.1760
 6137SOL    HW230048   1.084   1.624   3.050 -2.5308 -0.7991 -0.9937
 6138SOL     OW30049   0.858   4.041   2.387 -0.2863 -0.2483 -0.0100
 6138SOL    HW130050   0.855   3.945   2.389  0.2480 -0.2600  0.1853
 6138SOL    HW230051   0.815   4.066   2.468  0.3134 -3.6278  1.3542
 6139SOL     OW30052   1.303   1.565   8.289 -0.2737  0.5339  0.0445
 6139SOL    HW130053   1.250   1.561   8.209 -0.4508  2.0439  0.0758
 6139SOL    HW230054   1.390   1.575   8.249  0.3978  0.0239  1.3530
 6140SOL     OW30055   1.657   3.577   9.166 -0.1440 -0.5341  0.2828
 6140SOL    HW130056   1.623   3.666   9.178  1.8195  0.2793 -0.2856
 6140SOL    HW230057   1.705   3.604   9.088 -1.8022 -1.1667 -0.9545
 6141SOL     OW30058   4.138   0.607  14.930  0.0477  0.3203 -0.3241
 6141SOL    HW130059   4.157   0.614  14.837  1.5838 -1.4397 -0.1482
 6141SOL    HW230060   4.104   0.520  14.951  0.3985  0.6492  1.6282
 6142SOL     OW30061   3.354   4.317   2.279  0.3086 -0.4365 -0.2849
 6142SOL    HW130062   3.286   4.337   2.344  1.2781  0.9461  0.2793
 6142SOL    HW230063   3.429   4.331   2.336 -0.7986  1.5316  0.7072
 6143SOL     OW30064   1.831   1.695   8.352  0.0967  0.1593  0.0774
 6143SOL    HW130065   1.848   1.781   8.312 -3.0141  1.1278  0.8699
 6143SOL    HW230066   1.848   1.715   8.444  2.3781  0.6113 -0.4222
 6144SOL     OW30067   1.151   1.626   0.407 -0.0867  0.2850  0.6814
 6144SOL    HW130068   1.177   1.692   0.471  1.4998 -1.5662  1.9306
 6144SOL    HW230069   1.147   1.679   0.327 -1.2119 -0.1054  0.4828
 6145SOL     OW30070   0.280   2.664   1.632 -0.1730 -0.1053 -0.0608
 6145SOL    HW130071   0.207   2.674   1.693  2.2261  0.3425  2.7111
 6145SOL    HW230072   0.299   2.573   1.654  0.7384 -0.2046 -1.2424
 6146SOL     OW30073   1.197   3.268   1.805 -0.1710 -0.1461 -0.8677
 6146SOL    HW130074   1.143   3.318   1.744 -1.0660 -0.1361 -0.0558
 6146SOL    HW230075   1.282   3.291   1.767  0.7553 -0.2901  1.1398
 6147SOL     OW30076   4.684   1.344  14.792 -0.0814 -0.4252 -0.3340
 6147SOL    HW130077   4.704   1.291  14.715  2.3558 -2.0550  1.4424
 6147SOL    HW230078   4.606   1.303  14.830 -0.7449  1.1084 -0.0246
 6148SOL     OW30079   0.277   4.647   9.079  0.6345 -0.3116  0.1417
 6148SOL    HW130080   0.219   4.575   9.102  1.0761 -1.0834 -1.1824
 6148SOL    HW230081   0.342   4.647   9.151  1.1753  0.8406 -0.3483
 6149SOL     OW30082   4.209   3.523   7.077 -0.1126 -0.0918 -0.1908
 6149SOL    HW130083   4.288   3.515   7.129 -0.8971 -0.8120  0.8791
 6149SOL    HW230084   4.145   3.465   7.118  1.9093 -1.5963  0.7977
 6150SOL     OW30085   4.522   4.629   0.956 -0.2057 -0.1402 -0.0730
 6150SOL    HW130086   4.464   4.656   0.885  1.6554 -1.6160 -2.1492
 6150SOL    HW230087   4.600   4.667   0.915 -0.0669  0.7369  1.0074
 6151SOL     OW30088   4.371   0.453   4.887 -0.2858  0.5837  0.4234
 6151SOL    HW130089   4.390   0.456   4.794  1.6193  0.4746  0.8110
 6151SOL    HW230090   4.346   0.543   4.910  0.3893  0.7159  0.6333
 6152SOL     OW30091   4.334   4.402   3.733 -0.6392 -0.3189 -0.1094
 6152SOL    HW130092   4.334   4.308   3.747  2.3094 -0.5082 -1.4326
 6152SOL    HW230093   4.365   4.427   3.820 -1.1805  1.8310 -0.5365
 6153SOL     OW30094   0.841   3.704   8.441 -0.0339 -0.8792 -0.6324
 6153SOL    HW130095   0.782   3.766   8.398  0.1333 -1.2105 -1.3518
 6153SOL    HW230096   0.786   3.669   8.511  0.2375  1.6531  0.8366
 6154SOL     OW30097   2.655   0.757   5.349 -0.8091  0.3019 -0.0268
 6154SOL    HW130098   2.615   0.752   5.262 -0.8140 -1.5737  0.0970
 6154SOL    HW230099   2.739   0.798   5.327  0.2640 -1.7262  0.3478
 6155SOL     OW30100   2.225   1.615   3.866 -0.2929  0.0156 -0.4339
 6155SOL    HW130101   2.217   1.522   3.887 -0.0131  0.5287  1.9570
 6155SOL    HW230102   2.298   1.594   3.808 -0.8364 -3.9206  0.2649
 6156SOL     OW30103   1.236   2.909   7.408 -0.1388  0.2294  0.4502
 6156SOL    HW130104   1.244   2.908   7.312 -1.4007 -0.2485  0.3466
 6156SOL    HW230105   1.149   2.876   7.428 -0.7635  1.3521 -0.4203
 6157SOL     OW30106   0.434   2.668   9.004 -0.6189  0.4811 -0.3475
 6157SOL    HW130107   0.455   2.584   8.963 -2.9464 -0.6853  0.8458
 6157SOL    HW230108   0.425   2.721   8.925  1.3381  0.3858 -0.6413
 6158SOL     OW30109   0.589   1.152  10.642  0.4120  0.4388  0.4070
 6158SOL    HW130110   0.607   1.092  10.570  1.8560  2.2476 -0.7234
 6158SOL    HW230111   0.514   1.202  10.608 -1.5969 -1.3936  2.1454
 6159SOL     OW30112   1.609   3.704   3.979  0.0398  0.0736  0.0776
 6159SOL    HW130113   1.701   3.698   3.952 -0.2277  0.0206 -0.8346
 6159SOL    HW230114   1.571   3.652   3.908  1.4549 -1.4221  0.4213
 6160SOL     OW30115   3.675   4.658   6.633  0.1036 -0.2120 -0.0528
 6160SOL    HW130116   3.719   4.617   6.708  0.9765  1.6565  0.4693
 6160SOL    HW230117   3.638   4.577   6.597 -0.0324 -0.4191  0.5453
 6161SOL     OW30118   3.561   0.781   6.422 -0.0557 -0.1817  0.5739
 6161SOL    HW130119   3.583   0.709   6.481 -0.7297 -1.5429 -0.8256
 6161SOL    HW230120   3.476   0.757   6.385 -0.1519 -0.4315  0.9580
 6162SOL     OW30121   3.379   2.553   6.284  0.2535 -0.0088 -0.0857
 6162SOL    HW130122   3.290   2.527   6.259 -0.0456 -0.3151  1.2913
 6162SOL    HW230123   3.379   2.648   6.293  0.6748 -0.0652  0.4991
 6163SOL     OW30124   3.804   4.504   7.406  0.7028 -0.3540 -0.2836
 6163SOL    HW130125   3.747   4.431   7.431  2.1721 -0.6100  2.3252
 6163SOL    HW230126   3.760   4.535   7.327  1.2836  0.6014 -0.2267
 6164SOL     OW30127   3.293   3.742   8.216  0.1194 -0.6190  0.1143
 6164SOL    HW130128   3.362   3.782   8.269 -0.1837  0.0044  0.0414
 6164SOL    HW230129   3.266   3.823   8.172 -1.8231 -1.0381  0.5481
 6165SOL     OW30130   3.680   3.452   4.101  0.0787  0.2477 -0.4692
 6165SOL    HW130131   3.739   3.431   4.172  1.5949  0.9864 -1.5234
 6165SOL    HW230132   3.601   3.401   4.119 -0.2867  1.2675  0.8067
 6166SOL     OW30133   3.124   1.966  10.599 -0.2982  0.3557 -0.0818
 6166SOL    HW130134   3.098   2.010  10.680 -1.8204  0.5527 -0.6808
 6166SOL    HW230135   3.218   1.964  10.619 -0.1897 -0.1239 -0.6541
 6167SOL     OW30136   3.631   1.435   8.228  0.4306  0.4004  0.1876
 6167SOL    HW130137   3.539   1.414   8.211  0.8407 -0.8056 -0.5621
 6167SOL    HW230138   3.677   1.352   8.216 -1.7290 -0.6817 -0.5605
 6168SOL     OW30139   0.556   3.954   9.146 -0.1529  0.4305 -0.1211
 6168SOL    HW130140   0.543   3.907   9.229 -0.6402  2.9409  1.2362
 6168SOL    HW230141   0.466   3.967   9.117  0.2741  2.1316 -0.6408
 6169SOL     OW30142   2.280   3.540   1.315  0.4645  0.1820 -0.0754
 6169SOL    HW130143   2.237   3.455   1.326  1.3061 -0.6395 -3.0636
 6169SOL    HW230144   2.321   3.526   1.230  3.5645  0.4963  1.3578
 6170SOL     OW30145   2.515   1.793   8.483  0.5051 -0.0969 -0.7700
 6170SOL    HW130146   2.456   1.866   8.502  0.0343 -0.3767 -1.1550
 6170SOL    HW230147   2.541   1.775   8.573 -0.1622  0.1026 -0.5386
 6171SOL     OW30148   0.584   2.544   5.323  0.4039  0.2293  0.3857
 6171SOL    HW130149   0.587   2.500   5.238 -1.4881 -0.9192  0.9159
 6171SOL    HW230150   0.634   2.623   5.302  0.1569 -0.3597 -2.3905
 6172SOL     OW30151   0.452   2.454  14.170  0.1371 -0.6510  0.2819
 6172SOL    HW130152   0.480   2.524  14.229  1.3894 -0.8114 -0.0997
 6172SOL    HW230153   0.536   2.406  14.164  0.4109 -0.0742 -0.4871
 6173SOL     OW30154   2.601   2.515  15.977  0.3268  0.1222  0.0061
 6173SOL    HW130155   2.576   2.426  15.954  0.1963 -0.0587  0.8435
 6173SOL    HW230156   2.692   2.520  15.949  0.3896  1.1653  0.3917
 6174SOL     OW30157   1.490   2.888  13.003 -0.6499 -0.4600 -0.0478
 6174SOL    HW130158   1.494   2.893  13.098  3.3222 -0.5290 -0.2143
 6174SOL    HW230159   1.443   2.805  12.989  1.0119 -1.1157 -1.7419
 6175SOL     OW30160   2.094   1.392   5.704 -0.1190 -0.3650  0.4865
 6175SOL    HW130161   2.182   1.411   5.674 -0.2421  0.9730  1.0140
 6175SOL    HW230162   2.084   1.456   5.774 -1.2132  2.2601 -2.0598
 6176SOL     OW30163   3.029   0.810  16.030  0.2886 -0.2176 -0.1911
 6176SOL    HW130164   3.045   0.717  16.048  0.8195  0.0393  0.6190
 6176SOL    HW230165   2.934   0.807  16.017  0.1077  0.5145  1.0037
 6177SOL     OW30166   0.077   3.611   4.309 -0.0805 -0.2791  0.0212
 6177SOL    HW130167   0.062   3.705   4.299  2.0744  0.4250  3.1487
 6177SOL    HW230168   0.036   3.610   4.395 -0.8049  0.2481 -0.3240
 6178SOL     OW30169   2.112   1.208   2.005 -0.4954  0.9339 -0.3574
 6178SOL    HW130170   2.082   1.211   2.096 -1.8504 -0.7446 -0.7500
 6178SOL    HW230171   2.095   1.115   1.989  0.1400  0.6915  0.3322
 6179SOL     OW30172   2.885   1.119   5.510 -0.2492  0.1916 -0.1838
 6179SOL    HW130173   2.905   1.145   5.420  1.7135 -0.8143 -0.0438
 6179SOL    HW230174   2.794   1.094   5.492 -0.0081 -1.5324  1.1154
 6180SOL     OW30175   2.028   0.310   7.959  0.1466  0.5986 -0.2898
 6180SOL    HW130176   2.070   0.300   8.044  2.2076  0.0544 -1.3714
 6180SOL    HW230177   2.052   0.399   7.935  1.1721  0.5180  0.4277
 6181SOL     OW30178   1.967   0.778   4.039  0.2548  0.5813  0.0467
 6181SOL    HW130179   2.048   0.728   4.026  0.7118  1.0438  1.0911
 6181SOL    HW230180   1.921   0.709   4.086  1.5418 -0.7990 -0.6910
 6182SOL     OW30181   0.159   0.590   9.620 -0.4061 -0.7094  0.3432
 6182SOL    HW130182   0.149   0.646   9.697  1.0241  0.7251 -0.5283
 6182SOL    HW230183   0.251   0.567   9.630  0.1847  1.5279  0.1295
 6183SOL     OW30184   3.046   2.852   8.265  0.3761  0.0994 -0.4762
 6183SOL    HW130185   3.052   2.877   8.357 -0.8774  0.6168 -0.5292
 6183SOL    HW230186   2.990   2.774   8.267  0.4638  0.0149 -1.2182
 6184SOL     OW30187   0.911   4.058  17.259  0.0477  0.1634 -0.1345
 6184SOL    HW130188   0.927   4.131  17.320  0.5267 -0.8399  0.9316
 6184SOL    HW230189   0.815   4.055  17.265  0.1204 -2.8610 -0.6298
 6185SOL     OW30190   2.644   2.214   6.210 -0.0747  0.3020 -0.2190
 6185SOL    HW130191   2.609   2.286   6.262  0.1563  0.0859  0.2349
 6185SOL    HW230192   2.567   2.158   6.199  0.4295 -0.2085 -1.1248
 6186SOL     OW30193   0.709   1.362   7.475 -0.0066 -0.3335 -0.2064
 6186SOL    HW130194   0.719   1.433   7.538 -0.0134 -1.8791  1.5571
 6186SOL    HW230195   0.797   1.336   7.450  1.0581  3.2737 -0.1975
 6187SOL     OW30196   3.108   4.315   5.581 -0.0492  0.3065 -0.3998
 6187SOL    HW130197   3.188   4.362   5.607  0.0566 -0.6024  0.9422
 6187SOL    HW230198   3.086   4.275   5.665  0.1610 -0.3793 -0.6747
 6188SOL     OW30199   1.680   4.077   8.906  0.8580 -0.0160 -0.0288
 6188SOL    HW130200   1.742   4.079   8.833  1.0352 -1.5102  0.0943
 6188SOL    HW230201   1.719   4.137   8.970  1.2675  0.3681 -0.6339
 6189SOL     OW30202   1.918   0.668   2.201 -1.2371 -0.4509 -0.3892
 6189SOL    HW130203   1.928   0.587   2.151  1.2101 -1.8192  2.2697
 6189SOL    HW230204   1.961   0.721   2.134 -0.7200  1.2507  1.2865
 6190SOL     OW30205   1.012   0.909   4.330 -0.0652  0.1374 -0.0779
 6190SOL    HW130206   0.995   0.870   4.244  1.2621 -1.6537  0.4719
 6190SOL    HW230207   0.922   0.923   4.360 -0.9037 -0.8372 -2.1339
 6191SOL     OW30208   3.626   1.998   6.368 -0.1310 -0.0117 -0.0188
 6191SOL    HW130209   3.676   2.061   6.317 -0.4394  1.7989  1.8986
 6191SOL    HW230210   3.638   2.034   6.456  1.8866  0.8301 -0.6507
 6192SOL     OW30211   2.439   2.083   6.078 -0.0174  0.5805 -0.1114
 6192SOL    HW130212   2.386   2.005   6.096 -0.7813  1.6178  2.1272
 6192SOL    HW230213   2.513   2.034   6.043 -0.0003  0.6013 -0.1046
 6193SOL     OW30214   3.003   0.691   1.708 -0.7382 -0.5214  0.3412
 6193SOL    HW130215   2.916   0.697   1.668 -0.0489  2.3636 -0.7210
 6193SOL    HW230216   3.031   0.603   1.682  0.6575  0.2558 -0.8210
 6194SOL     OW30217   2.285   0.815   7.434  0.3949 -0.4303 -0.3097
 6194SOL    HW130218   2.352   0.800   7.367 -1.0367 -2.5062 -1.2913
 6194SOL    HW230219   2.207   0.841   7.383  0.5445  0.6747  0.0114
 6195SOL     OW30220   2.901   3.641  17.013 -0.0088  0.4545  0.6326
 6195SOL    HW130221   2.923   3.722  17.059  0.7160  0.6507 -0.0582
 6195SOL    HW230222   2.823   3.669  16.966 -0.3770 -2.7584 -0.7216
 6196SOL     OW30223   4.321   2.457  12.670 -0.5653 -0.6515  0.0905
 6196SOL    HW130224   4.395   2.445  12.610 -0.7192 -0.3582 -0.1618
 6196SOL    HW230225   4.270   2.377  12.655 -0.6690 -0.7391  0.9215
 6197SOL     OW30226   3.648   0.216   4.796 -0.6501  0.2173  0.1712
 6197SOL    HW130227   3.616   0.186   4.881 -1.1074  1.2281  0.3435
 6197SOL    HW230228   3.675   0.305   4.818 -0.2788  0.5778 -1.6927
 6198SOL     OW30229   1.352   4.306   1.377 -0.2038 -0.3295 -0.2807
 6198SOL    HW130230   1.338   4.278   1.286 -1.1271 -0.1697 -0.1843
 6198SOL    HW230231   1.335   4.230   1.433 -1.4778  0.0907 -0.1019
 6199SOL     OW30232   2.133   1.225   5.941  0.0394 -0.3031 -0.3013
 6199SOL    HW130233   2.144   1.320   5.947 -0.7248 -0.1724 -0.8553
 6199SOL    HW230234   2.176   1.205   5.858  0.6171  2.8056 -0.7694
 6200SOL     OW30235   4.141   3.082   5.217  0.0270  0.1110  0.2212
 6200SOL    HW130236   4.213   3.039   5.170  1.8758  1.8493  1.4416
 6200SOL    HW230237   4.136   3.161   5.163  0.5199 -0.3655 -0.5129
 6201SOL     OW30238   1.339   1.453   5.383 -0.0920 -0.0503 -0.0657
 6201SOL    HW130239   1.398   1.528   5.378 -0.1057 -0.0264  0.1153
 6201SOL    HW230240   1.287   1.467   5.462  0.0891 -0.1117  0.0667
 6202SOL     OW30241   3.340   0.914   3.964 -0.1653  0.1333 -0.8239
 6202SOL    HW130242   3.323   0.975   4.036 -0.5752 -0.3976 -0.4712
 6202SOL    HW230243   3.391   0.962   3.899  0.8906  0.6775  0.4142
 6203SOL     OW30244   2.986   3.652   4.278 -0.1105  0.2356 -0.6964
 6203SOL    HW130245   2.922   3.723   4.265  0.6696  0.8964 -0.9782
 6203SOL    HW230246   3.027   3.693   4.354 -0.5985 -0.3019 -0.1491
 6204SOL     OW30247   0.423   3.763  15.254 -0.9938  0.0595  0.5906
 6204SOL    HW130248   0.431   3.711  15.334  1.1508 -0.6106 -0.0434
 6204SOL    HW230249   0.328   3.767  15.250 -1.0057 -0.8266  0.1222
 6205SOL     OW30250   2.607   4.380   2.853 -0.2874  0.3190 -0.0515
 6205SOL    HW130251   2.606   4.331   2.935 -1.0560 -0.0315 -0.2776
 6205SOL    HW230252   2.676   4.442   2.880 -1.4461  0.9832  1.4170
 6206SOL     OW30253   1.882   4.521   3.652  0.2318 -0.0656 -0.3110
 6206SOL    HW130254   1.882   4.569   3.570 -0.6148  1.2629  0.4594
 6206SOL    HW230255   1.809   4.460   3.642  0.7747 -0.8671  0.5973
 6207SOL     OW30256   3.173   4.360   6.797  0.6538  0.3373 -0.1746
 6207SOL    HW130257   3.234   4.374   6.725  1.1578  2.1653  0.6130
 6207SOL    HW230258   3.163   4.265   6.785  0.8085  0.3660 -0.5296
 6208SOL     OW30259   3.834   3.672   0.036 -0.1906  0.6592 -0.3332
 6208SOL    HW130260   3.791   3.665  17.703  2.6502 -0.9192 -1.6196
 6208SOL    HW230261   3.758   3.646   0.089  0.3922  0.2480  0.2980
 6209SOL     OW30262   3.281   3.341   6.382  0.2668  0.0348 -0.1149
 6209SOL    HW130263   3.322   3.313   6.301 -1.9260 -1.3924 -0.7390
 6209SOL    HW230264   3.358   3.356   6.437 -0.7599 -0.3109  1.4098
 6210SOL     OW30265   0.011   3.898   1.762  0.4599 -0.0731  0.0470
 6210SOL    HW130266   4.693   3.913   1.838  0.6854  0.2632  0.1459
 6210SOL    HW230267   4.686   3.913   1.692  0.5771 -1.6985 -0.4134
 6211SOL     OW30268   1.046   3.308   0.626  0.2335 -0.4739 -1.0269
 6211SOL    HW130269   1.009   3.372   0.565 -0.9966 -0.9018 -0.7220
 6211SOL    HW230270   1.000   3.318   0.709  0.3074 -3.8782 -0.6108
 6212SOL     OW30271   1.606   2.502  13.543  0.5169 -0.4470 -0.3395
 6212SOL    HW130272   1.659   2.439  13.593  0.2449  0.4326  1.0656
 6212SOL    HW230273   1.561   2.446  13.480 -0.7336 -1.6368  1.6263
 6213SOL     OW30274   2.260   1.735   6.839  0.6462  0.6260  0.0799
 6213SOL    HW130275   2.302   1.784   6.768 -0.2203 -1.4064 -1.8533
 6213SOL    HW230276   2.307   1.652   6.828  1.7490  1.5166 -1.9007
 6214SOL     OW30277   2.701   3.159   3.597  0.1251 -0.1776 -0.0769
 6214SOL    HW130278   2.658   3.221   3.657  3.0641 -0.3081  2.1452
 6214SOL    HW230279   2.628   3.097   3.594 -0.3414  0.5207 -3.1591
 6215SOL     OW30280   0.125   3.340   4.924  0.1121  0.1779  0.0202
 6215SOL    HW130281   0.177   3.380   4.994 -0.7528  0.7428  0.3406
 6215SOL    HW230282   0.048   3.308   4.971 -2.2265  2.1666 -2.4696
 6216SOL     OW30283   4.651   1.951   1.615  0.5674  0.5324 -0.2412
 6216SOL    HW130284   4.653   1.988   1.704 -1.3442  0.9379 -0.3626
 6216SOL    HW230285   4.716   1.881   1.625  1.2786  1.0708 -1.0397
 6217SOL     OW30286   2.819   2.755  17.433 -0.9132  0.0480  0.0822
 6217SOL    HW130287   2.888   2.806  17.474 -1.2181  0.6518 -0.1478
 6217SOL    HW230288   2.802   2.803  17.352  1.1575 -1.6839 -1.3774
 6218SOL     OW30289   0.953   2.519   7.520  0.1683 -0.1946 -0.6504
 6218SOL    HW130290   0.880   2.468   7.485 -0.8485  0.8594 -0.1050
 6218SOL    HW230291   1.021   2.464   7.482 -0.9489 -0.6656 -1.9680
 6219SOL     OW30292   2.914   0.243   7.194 -0.4904  0.1277 -0.3167
 6219SOL    HW130293   2.882   0.161   7.231  0.4140  0.1212  0.4732
 6219SOL    HW230294   2.993   0.202   7.160 -0.6649 -0.3966 -0.0881
 6220SOL     OW30295   3.205   3.060   1.374 -0.0660 -0.3765 -0.5305
 6220SOL    HW130296   3.207   2.967   1.351  1.3497 -0.4132 -0.1988
 6220SOL    HW230297   3.111   3.081   1.375 -0.0635 -0.3540 -0.7482
 6221SOL     OW30298   0.267   2.176   6.576  0.3910 -0.1131 -0.6000
 6221SOL    HW130299   0.265   2.122   6.655 -2.9188  0.3440 -0.3617
 6221SOL    HW230300   0.184   2.174   6.528 -0.4972 -1.1682  0.9759
 6222SOL     OW30301   0.790   2.201   6.176  0.3912  0.0054  0.0398
 6222SOL    HW130302   0.709   2.150   6.175 -1.1490  2.4094  1.5062
 6222SOL    HW230303   0.847   2.150   6.234  1.3881  0.4317 -0.5605
 6223SOL     OW30304   2.777   2.019   8.371 -0.7173  0.3487 -0.1650
 6223SOL    HW130305   2.710   1.989   8.310 -1.3986  0.2290  0.6348
 6223SOL    HW230306   2.812   1.938   8.408  0.9927  1.2923  0.2586
 6224SOL     OW30307   4.208   3.819   4.671  0.6828  0.1158 -0.5539
 6224SOL    HW130308   4.241   3.843   4.584  0.3674 -0.8182 -0.9337
 6224SOL    HW230309   4.292   3.845   4.710  0.5194 -1.1390  0.6268
 6225SOL     OW30310   4.450   3.973   7.813  0.0327  0.4262 -0.2334
 6225SOL    HW130311   4.412   3.887   7.798  0.5242  0.4270 -1.4629
 6225SOL    HW230312   4.499   3.967   7.895  0.7893  1.1094 -0.6392
 6226SOL     OW30313   1.524   1.513   6.065 -0.9354  0.2153 -0.0018
 6226SOL    HW130314   1.505   1.550   6.151  1.0906  0.8822  0.1532
 6226SOL    HW230315   1.517   1.418   6.075 -1.7171  0.1678 -0.9750
 6227SOL     OW30316   3.524   2.828   8.371  0.5340  0.0035  0.0760
 6227SOL    HW130317   3.462   2.789   8.309 -2.4191  2.9172  1.2529
 6227SOL    HW230318   3.492   2.917   8.380 -0.9124 -0.5396  0.2378
 6228SOL     OW30319   2.574   1.466   6.319 -0.2244  0.3345 -0.0399
 6228SOL    HW130320   2.657   1.509   6.297  0.9157 -1.3854  0.9438
 6228SOL    HW230321   2.594   1.416   6.398  3.9678  1.0012 -0.6526
 6229SOL     OW30322   3.896   0.670   2.665  0.3079 -0.3634  0.1391
 6229SOL    HW130323   3.950   0.637   2.737 -0.2500  1.2404  1.2963
 6229SOL    HW230324   3.813   0.627   2.687  0.1686 -0.2755 -0.2294
 6230SOL     OW30325   3.098   2.802  13.615  0.0494 -0.4739 -0.4734
 6230SOL    HW130326   3.028   2.766  13.561  1.0129 -3.0636 -0.0404
 6230SOL    HW230327   3.054   2.873  13.661 -1.8926 -1.8323 -0.2603
 6231SOL     OW30328   3.793   1.752   8.555  0.1743 -0.0073 -0.1391
 6231SOL    HW130329   3.730   1.757   8.483  2.0033  3.1476 -1.4830
 6231SOL    HW230330   3.835   1.669   8.531 -1.6937 -1.3195  1.1119
 6232SOL     OW30331   3.631   3.321   8.818  0.1311  0.3022 -0.3318
 6232SOL    HW130332   3.566   3.392   8.821  0.6863  0.7874  0.4519
 6232SOL    HW230333   3.577   3.243   8.821 -1.5645  1.4614 -0.9445
 6233SOL     OW30334   2.263   1.198   3.610 -0.0559  0.0965 -0.3988
 6233SOL    HW130335   2.167   1.195   3.606 -0.1776  2.2158  0.9310
 6233SOL    HW230336   2.274   1.161   3.698 -0.3500  1.4760  0.2163
 6234SOL     OW30337   4.443   2.742   5.698 -0.1165 -0.0043  0.1507
 6234SOL    HW130338   4.528   2.768   5.662  0.8362 -2.2621  0.8201
 6234SOL    HW230339   4.470   2.706   5.782  1.7756 -0.3558 -0.6156
 6235SOL     OW30340   1.427   0.281   1.286 -0.5032 -0.3708  0.1054
 6235SOL    HW130341   1.365   0.215   1.258  0.8477 -0.9603 -1.4873
 6235SOL    HW230342   1.379   0.302   1.366  1.5739 -2.3662  1.8745
 6236SOL     OW30343   0.052   0.155   8.024 -0.0425 -0.1578 -0.3021
 6236SOL    HW130344   4.702   0.125   8.044 -0.1452  1.2720  1.3184
 6236SOL    HW230345   0.112   0.114   8.087 -1.8711 -0.9972  0.8754
 6237SOL     OW30346   4.182   3.356   3.095  0.3900  0.6439 -0.1260
 6237SOL    HW130347   4.253   3.407   3.134  0.5146  2.3790 -2.5730
 6237SOL    HW230348   4.173   3.394   3.008  0.7355 -0.0051 -0.4412
 6238SOL     OW30349   1.704   1.889   3.883 -0.1403  0.0922 -0.3494
 6238SOL    HW130350   1.789   1.844   3.888 -0.1611 -0.2061 -2.6065
 6238SOL    HW230351   1.703   1.903   3.788 -1.2152  0.1591 -0.3274
 6239SOL     OW30352   0.495   0.651   6.450  0.0576  0.1519  0.4907
 6239SOL    HW130353   0.449   0.703   6.384 -1.7271 -0.6523  1.0847
 6239SOL    HW230354   0.501   0.711   6.524 -0.4038  0.6699  0.1059
 6240SOL     OW30355   4.089   0.333   2.829 -0.0935 -0.1229 -0.0288
 6240SOL    HW130356   4.146   0.268   2.787  1.2324  0.6478  0.5764
 6240SOL    HW230357   4.023   0.344   2.760  0.0895 -1.5196 -0.4444
 6241SOL     OW30358   0.969   2.276   0.934  0.1760  0.0787 -0.3039
 6241SOL    HW130359   0.913   2.199   0.935  1.7008 -1.0381 -1.8482
 6241SOL    HW230360   0.940   2.339   0.869  1.4287  1.2246  0.2270
 6242SOL     OW30361   4.616   3.227  16.145 -0.0660 -0.0075 -0.0445
 6242SOL    HW130362   4.610   3.177  16.227  0.2949  2.0359  1.2411
 6242SOL    HW230363   4.705   3.262  16.144 -0.3844  0.7421 -1.3008
 6243SOL     OW30364   3.959   2.640   3.014 -0.4243  0.0302 -0.0765
 6243SOL    HW130365   3.913   2.590   3.081  1.9237 -0.3149  1.2713
 6243SOL    HW230366   3.888   2.701   2.992 -0.4121  1.8211  4.9255
 6244SOL     OW30367   4.369   2.982  17.284 -0.4729 -0.4596 -0.4369
 6244SOL    HW130368   4.422   2.958  17.360 -2.3813  1.2553  1.4295
 6244SOL    HW230369   4.402   2.926  17.214 -2.3205  1.1210 -2.5718
 6245SOL     OW30370   1.715   3.284  10.006  0.1804  0.4632  0.3631
 6245SOL    HW130371   1.726   3.199   9.965  0.7818  0.1849  1.0986
 6245SOL    HW230372   1.698   3.251  10.094 -1.2452 -0.7908 -0.3905
 6246SOL     OW30373   0.677   0.076   1.483  0.4938 -0.0861 -0.2130
 6246SOL    HW130374   0.721   0.152   1.522  0.1401  0.1871 -0.3481
 6246SOL    HW230375   0.663   0.016   1.557  3.6466  1.2277  1.4888
 6247SOL     OW30376   2.343   2.924   9.981  0.0200  0.1058  0.0504
 6247SOL    HW130377   2.332   3.007  10.028  0.0929 -0.3115  0.8018
 6247SOL    HW230378   2.288   2.938   9.903 -1.6890 -3.5964  0.5713
 6248SOL     OW30379   3.346   0.147  13.155 -0.0102  0.0723 -0.1092
 6248SOL    HW130380   3.367   0.235  13.123  0.1849  0.9153  2.3255
 6248SOL    HW230381   3.300   0.166  13.237  1.3396 -0.2711  0.7268
 6249SOL     OW30382   3.081   3.915   2.433  0.6305 -0.4091  0.2519
 6249SOL    HW130383   3.030   3.845   2.394  0.9202 -0.7201  0.4341
 6249SOL    HW230384   3.013   3.982   2.425 -0.0030 -1.1563 -0.5618
 6250SOL     OW30385   0.910   4.474   2.636 -0.1636  0.2689  0.0645
 6250SOL    HW130386   0.936   4.394   2.591  2.3469  1.7686 -1.1600
 6250SOL    HW230387   0.943   4.543   2.578  2.5543 -0.2313  1.0122
 6251SOL     OW30388   0.316   1.240   2.682 -0.2803 -0.2929  0.0935
 6251SOL    HW130389   0.361   1.271   2.602 -0.6613 -0.2397 -0.0991
 6251SOL    HW230390   0.222   1.256   2.677  0.0584  2.0415  1.5397
 6252SOL     OW30391   4.292   0.560   5.566  0.0209 -0.3363  0.1773
 6252SOL    HW130392   4.197   0.569   5.569  0.1982  1.4307  0.5817
 6252SOL    HW230393   4.308   0.520   5.481  0.3285  1.0706 -0.4228
 6253SOL     OW30394   4.508   2.212   7.968 -0.5298 -0.0275  0.4942
 6253SOL    HW130395   4.544   2.300   7.963 -2.0131  0.5663  0.1984
 6253SOL    HW230396   4.457   2.205   7.888  2.0019 -1.1139 -1.0279
 6254SOL     OW30397   2.131   3.521  12.501 -0.3525 -0.3024  0.2651
 6254SOL    HW130398   2.101   3.595  12.554 -0.8385 -0.3781  0.0980
 6254SOL    HW230399   2.226   3.530  12.503 -0.3599 -0.2322  0.2863
 6255SOL     OW30400   3.847   4.692   5.961 -0.0428 -0.4119  0.1662
 6255SOL    HW130401   3.770   4.656   5.918  1.0104 -0.3535 -1.7675
 6255SOL    HW230402   3.811   0.037   5.991  0.0724  0.1148 -1.1762
 6256SOL     OW30403   3.307   1.999  15.945  0.7928 -0.6370 -0.0954
 6256SOL    HW130404   3.308   1.910  15.912 -2.2305  0.9140 -4.3094
 6256SOL    HW230405   3.326   1.973  16.035  1.4548 -0.0787 -0.0687
 6257SOL     OW30406   3.761   2.927   0.781 -0.2755 -0.5905  0.7964
 6257SOL    HW130407   3.802   2.842   0.763  1.7643  0.6151 -0.2292
 6257SOL    HW230408   3.676   2.917   0.740 -0.2618  0.9846  0.3749
 6258SOL     OW30409   0.828   2.817   9.265 -0.2256 -0.1383  0.4952
 6258SOL    HW130410   0.751   2.848   9.314  0.9670  0.7155  1.8507
 6258SOL    HW230411   0.777   2.778   9.195  1.0854  1.9878 -1.6696
 6259SOL     OW30412   0.498   1.884  13.462 -0.3349 -0.3330  0.0697
 6259SOL    HW130413   0.548   1.890  13.381 -0.8844 -1.1379 -0.3316
 6259SOL    HW230414   0.485   1.791  13.483  0.3165  0.1531  2.6075
 6260SOL     OW30415   0.247   3.811   5.054 -0.1063  0.3099  0.0216
 6260SOL    HW130416   0.262   3.832   4.961  1.3406 -0.0668  0.1677
 6260SOL    HW230417   0.256   3.898   5.091  0.0280  0.0427  0.6072
 6261SOL     OW30418   4.039   4.208  12.087 -0.2309  0.0196 -0.7489
 6261SOL    HW130419   3.985   4.276  12.128  0.6889  0.7272 -0.7080
 6261SOL    HW230420   4.066   4.148  12.156 -1.2314 -1.1539 -1.3733
 6262SOL     OW30421   3.800   3.750   5.068 -0.3843 -0.1208  0.0006
 6262SOL    HW130422   3.873   3.759   5.006 -0.6056 -0.1445 -0.2624
 6262SOL    HW230423   3.758   3.684   5.013  2.2119 -2.2031  0.5056
 6263SOL     OW30424   0.811   3.598   5.329  0.5451 -0.4556  0.5309
 6263SOL    HW130425   0.823   3.516   5.283  2.0459 -0.4228  0.8337
 6263SOL    HW230426   0.720   3.593   5.358  0.7274 -1.6820  0.8651
 6264SOL     OW30427   1.357   4.009   9.986  0.7954 -0.2743 -0.8182
 6264SOL    HW130428   1.290   3.955   9.942 -0.8821  1.1532 -0.0258
 6264SOL    HW230429   1.333   3.993  10.077 -1.1930 -2.6149 -1.7450
 6265SOL     OW30430   1.148   4.531   7.023  0.3360  0.1630  0.5883
 6265SOL    HW130431   1.118   4.454   6.976  1.0134 -0.0916  0.5726
 6265SOL    HW230432   1.137   4.494   7.111 -0.2625 -0.4387  0.2578
 6266SOL     OW30433   0.663   4.558  11.725 -0.2386 -0.1944 -0.2653
 6266SOL    HW130434   0.641   4.543  11.817 -0.8477 -0.6377 -0.4806
 6266SOL    HW230435   0.680   4.466  11.703 -2.2281 -0.2166 -1.7236
 6267SOL     OW30436   1.316   2.464  13.364  0.6418 -0.0248 -0.3785
 6267SOL    HW130437   1.321   2.559  13.378 -0.6477 -0.0997  0.6248
 6267SOL    HW230438   1.384   2.439  13.302  0.6335 -1.8675  0.3562
 6268SOL     OW30439   4.714   2.695  12.917  0.2148 -0.3942 -0.6993
 6268SOL    HW130440   4.704   2.729  13.006 -0.4740  0.2841 -1.0281
 6268SOL    HW230441   4.632   2.649  12.897 -0.3370  0.1124  0.4372
 6269SOL     OW30442   0.041   1.045   4.902  0.2747 -0.3520 -0.1148
 6269SOL    HW130443   0.133   1.020   4.900 -0.3913 -2.7555 -0.3005
 6269SOL    HW230444   0.056   1.113   4.968 -0.9697 -1.0465  0.8850
 6270SOL     OW30445   4.729   3.161   8.311 -0.3614 -1.0079  0.1958
 6270SOL    HW130446   4.669   3.221   8.268 -0.8960 -0.8507  1.1674
 6270SOL    HW230447   0.035   3.226   8.366 -2.0553  0.7974 -0.5653
 6271SOL     OW30448   2.691   2.595   4.704  0.3754  0.5974 -0.2026
 6271SOL    HW130449   2.638   2.665   4.742  0.7699  0.5258  0.4864
 6271SOL    HW230450   2.661   2.591   4.614  0.6463  0.7257 -0.2993
 6272SOL     OW30451   3.791   1.609   0.829  0.2637  0.1169  0.8525
 6272SOL    HW130452   3.883   1.607   0.802 -0.8389  3.6307 -3.2354
 6272SOL    HW230453   3.791   1.703   0.847  0.7022  0.2332  0.2605
 6273SOL     OW30454   3.320   2.710   2.556 -0.0284  0.2305 -0.1614
 6273SOL    HW130455   3.265   2.657   2.498  0.1187 -2.9506  2.5806
 6273SOL    HW230456   3.374   2.642   2.598  0.0410  2.3902  3.2595
 6274SOL     OW30457   3.426   1.637   6.850 -0.3506  0.3798 -0.0225
 6274SOL    HW130458   3.407   1.551   6.888 -0.8911  0.4925 -0.0379
 6274SOL    HW230459   3.391   1.704   6.908  0.0367  1.2543 -0.7874
 6275SOL     OW30460   0.211   2.527  13.042 -1.0630  0.0628 -0.7900
 6275SOL    HW130461   0.202   2.596  13.108 -1.0734  1.8597 -2.6611
 6275SOL    HW230462   0.131   2.524  12.990 -0.9932  0.9660 -0.9484
 6276SOL     OW30463   2.849   1.044   3.175 -0.1082 -0.7783  0.2066
 6276SOL    HW130464   2.858   1.056   3.270 -3.5995  2.3697  0.1643
 6276SOL    HW230465   2.757   1.019   3.166 -0.7591  0.5883  2.7968
 6277SOL     OW30466   0.293   3.554   0.323  0.3369  0.2437  0.0095
 6277SOL    HW130467   0.281   3.461   0.302 -1.5935  0.4165  0.3721
 6277SOL    HW230468   0.306   3.547   0.417  0.8875  1.1268 -0.0025
 6278SOL     OW30469   2.917   0.816   6.037  0.5791  0.3059  0.4196
 6278SOL    HW130470   2.828   0.792   6.063 -0.1767 -0.0019 -2.3954
 6278SOL    HW230471   2.958   0.853   6.115  1.4603 -0.1211  0.1639
 6279SOL     OW30472   3.516   0.563   0.670  0.0843  0.3751 -0.1461
 6279SOL    HW130473   3.574   0.636   0.691 -0.2921  0.5178  0.4029
 6279SOL    HW230474   3.461   0.544   0.746  1.7836  2.0811  1.4969
 6280SOL     OW30475   2.019   4.162   2.972  0.2273  0.1471 -0.6261
 6280SOL    HW130476   2.054   4.086   2.924 -1.6005 -1.8363  1.1547
 6280SOL    HW230477   1.927   4.154   2.949  0.1251  1.3546 -0.5934
 6281SOL     OW30478   0.305   0.899   2.206 -0.1535  0.9895  0.3530
 6281SOL    HW130479   0.220   0.874   2.242 -0.6550  1.4493 -0.4997
 6281SOL    HW230480   0.345   0.918   2.291  0.1976 -1.8762  0.8291
 6282SOL     OW30481   1.604   2.856   2.890  0.0437 -0.6322 -0.2901
 6282SOL    HW130482   1.544   2.926   2.916  0.1630 -1.2773  1.6872
 6282SOL    HW230483   1.647   2.890   2.811 -0.1380 -2.5404 -1.2193
 6283SOL     OW30484   0.341   2.859   7.784 -0.8962 -0.1510 -0.8278
 6283SOL    HW130485   0.317   2.909   7.862  0.0494 -2.5551  1.0034
 6283SOL    HW230486   0.327   2.771   7.820  0.8434  0.5731  1.6297
 6284SOL     OW30487   3.474   2.339  14.505 -0.1130 -0.1655 -0.2610
 6284SOL    HW130488   3.429   2.386  14.575 -0.8894  1.9103 -2.1675
 6284SOL    HW230489   3.558   2.383  14.506 -0.0258 -0.3197 -0.8185
 6285SOL     OW30490   3.038   1.739  15.774  0.2666 -0.5783 -0.2160
 6285SOL    HW130491   2.983   1.802  15.820 -0.3892  0.7328 -2.8186
 6285SOL    HW230492   3.121   1.771  15.811  1.2283 -1.3345 -1.7460
 6286SOL     OW30493   2.440   3.881   8.235 -0.4020 -0.7148  0.3148
 6286SOL    HW130494   2.485   3.843   8.311  1.7012  1.5051  0.1733
 6286SOL    HW230495   2.508   3.936   8.197  1.1735 -2.2000  1.0110
 6287SOL     OW30496   0.986   3.000   4.197 -0.0690 -0.5475  0.2034
 6287SOL    HW130497   0.999   3.045   4.281  0.2322  0.0831 -0.1850
 6287SOL    HW230498   1.075   2.981   4.168  0.1585  2.3379 -0.9664
 6288SOL     OW30499   0.133   2.011   8.801  0.0775 -0.0165 -0.0675
 6288SOL    HW130500   0.113   1.948   8.731 -0.6358 -0.1088  0.2165
 6288SOL    HW230501   0.179   1.964   8.870 -0.2756 -0.9864 -0.4868
 6289SOL     OW30502   1.253   2.057   1.597  0.1876 -0.0751 -0.1286
 6289SOL    HW130503   1.318   1.987   1.588  0.0316 -0.2488  0.0994
 6289SOL    HW230504   1.291   2.099   1.520 -0.9120  0.8175 -0.1880
 6290SOL     OW30505   1.772   2.674  11.182  0.0759 -0.3781  0.2382
 6290SOL    HW130506   1.702   2.645  11.240 -1.3220  1.3754 -0.5803
 6290SOL    HW230507   1.829   2.598  11.175 -0.9289 -0.9478 -1.7874
 6291SOL     OW30508   2.319   2.736  15.034 -0.5214  0.4524 -0.3034
 6291SOL    HW130509   2.361   2.682  14.966 -0.4651 -1.4113  1.1986
 6291SOL    HW230510   2.230   2.702  15.025  0.5154 -1.8390 -2.0899
 6292SOL     OW30511   0.772   4.106   2.849  0.1781 -0.3448  0.0222
 6292SOL    HW130512   0.862   4.112   2.879 -0.1672  1.1174  0.8069
 6292SOL    HW230513   0.746   4.198   2.860  1.4862  0.2454 -1.8551
 6293SOL     OW30514   3.419   3.191   3.738  0.0868  0.0575  0.6703
 6293SOL    HW130515   3.467   3.138   3.801 -1.8852 -2.7151 -0.1460
 6293SOL    HW230516   3.420   3.269   3.793 -0.8403  0.2390  0.4267
 6294SOL     OW30517   0.896   0.580   9.123  0.5554  0.1099 -0.3030
 6294SOL    HW130518   0.883   0.513   9.056 -0.3049 -1.7361  1.7123
 6294SOL    HW230519   0.981   0.544   9.149 -0.1733 -0.7700  0.8187
 6295SOL     OW30520   0.773   0.591   4.783  0.1874  0.2266 -0.1477
 6295SOL    HW130521   0.801   0.540   4.708  0.9751 -3.7208  2.8419
 6295SOL    HW230522   0.784   0.524   4.850 -1.5562 -2.4988 -2.5987
 6296SOL     OW30523   3.309   4.650   8.807  0.3098  0.0817 -0.0244
 6296SOL    HW130524   3.367   4.673   8.879 -0.5260 -0.1444  0.7221
 6296SOL    HW230525   3.236   4.712   8.813 -1.1621 -1.6771  0.2288
 6297SOL     OW30526   4.155   2.443   6.385 -0.0277 -0.0830 -0.0653
 6297SOL    HW130527   4.163   2.489   6.302 -0.9263 -0.7957 -0.5392
 6297SOL    HW230528   4.164   2.518   6.444  1.7330  0.3963 -0.9384
 6298SOL     OW30529   3.008   3.902   4.587 -0.0261  0.2980  0.4193
 6298SOL    HW130530   3.033   3.966   4.521  1.9127 -0.9707 -0.0691
 6298SOL    HW230531   2.916   3.881   4.569  0.3610  1.5523 -2.9989
 6299SOL     OW30532   0.312   0.765   1.403  0.0243 -0.2657  0.0999
 6299SOL    HW130533   0.337   0.795   1.316 -0.2745 -0.4138 -0.0364
 6299SOL    HW230534   0.224   0.800   1.417  0.1220  0.4137 -0.9846
 6300SOL     OW30535   4.497   0.500  11.383  0.0340  0.7475  0.5445
 6300SOL    HW130536   4.514   0.442  11.458  0.0765  1.7492  1.3063
 6300SOL    HW230537   4.404   0.496  11.361  0.1574 -0.2492  0.1860
 6301SOL     OW30538   4.422   1.127  10.270 -0.3153  0.1977 -0.0231
 6301SOL    HW130539   4.397   1.112  10.179  1.2325 -0.1009 -0.4015
 6301SOL    HW230540   4.441   1.039  10.303  1.8011  0.6922  0.1215
 6302SOL     OW30541   0.304   1.820   6.117  0.4689  0.9177  0.0965
 6302SOL    HW130542   0.387   1.795   6.156  0.7506 -1.0500 -1.7156
 6302SOL    HW230543   0.241   1.801   6.187 -0.1663 -1.5049 -1.1244
 6303SOL     OW30544   4.041   2.897   4.490  0.4548 -0.1892  0.3066
 6303SOL    HW130545   3.997   2.874   4.408 -1.6835  0.6442  1.2278
 6303SOL    HW230546   3.979   2.957   4.532  0.3454 -1.4376  1.9248
 6304SOL     OW30547   4.680   1.827   5.910 -0.0660 -0.3834 -0.1969
 6304SOL    HW130548   4.642   1.871   5.834 -0.1365  0.1627  0.1530
 6304SOL    HW230549   4.618   1.757   5.930 -0.4578  0.1955  0.6092
 6305SOL     OW30550   0.276   4.133   8.490 -0.1498  0.0208  0.2602
 6305SOL    HW130551   0.248   4.224   8.496 -1.2030 -0.2363 -0.8327
 6305SOL    HW230552   0.237   4.100   8.409 -0.8144  0.5057  0.3904
 6306SOL     OW30553   1.134   0.062   7.055 -0.0026  0.0954 -0.0257
 6306SOL    HW130554   1.160   4.722   7.104  1.5465  0.8949  0.4117
 6306SOL    HW230555   1.051   0.033   7.016  0.4086 -0.0260 -0.8081
 6307SOL     OW30556   0.219   4.620   3.474  0.0199  0.6083  0.2952
 6307SOL    HW130557   0.125   4.606   3.482  0.1913 -0.0771  1.1269
 6307SOL    HW230558   0.232   4.682   3.545 -1.0132  1.2305 -0.0690
 6308SOL     OW30559   3.301   4.714   5.733 -0.1800 -0.3066 -0.0544
 6308SOL    HW130560   3.248   0.053   5.714  2.3026  1.1666 -0.8475
 6308SOL    HW230561   3.362   4.738   5.802  0.5025 -1.4415 -0.2617
 6309SOL     OW30562   2.004   3.325  16.157  0.2952  0.1713  0.7827
 6309SOL    HW130563   1.961   3.241  16.139  0.5286  0.2290 -0.0175
 6309SOL    HW230564   2.041   3.315  16.245  0.7898 -0.3525  0.5131
 6310SOL     OW30565   4.062   4.441   5.759  0.4588  0.2274  0.8017
 6310SOL    HW130566   4.004   4.391   5.815  2.1366 -0.3859  1.9950
 6310SOL    HW230567   3.997   4.477   5.699  0.0254 -1.6446  0.1650
 6311SOL     OW30568   2.362   3.476   6.223 -0.1392 -0.4062  0.0839
 6311SOL    HW130569   2.430   3.462   6.289 -0.0733  0.7662  0.2772
 6311SOL    HW230570   2.390   3.429   6.145 -0.5431  1.4588 -1.1694
 6312SOL     OW30571   2.362   3.852   2.144  0.8477 -0.5542 -0.2975
 6312SOL    HW130572   2.435   3.871   2.203  0.5458  0.2246 -0.1762
 6312SOL    HW230573   2.291   3.844   2.207  0.2823  0.0293 -0.8725
 6313SOL     OW30574   0.901   4.195   1.184  0.4035  0.1829  0.0244
 6313SOL    HW130575   0.949   4.171   1.263 -0.1111  0.4887  0.4310
 6313SOL    HW230576   0.814   4.214   1.218  0.3391 -1.4408  0.7875
 6314SOL     OW30577   2.659   0.649   9.006 -0.4735 -0.4864 -0.0376
 6314SOL    HW130578   2.618   0.726   9.047 -1.7081 -0.6338 -0.9886
 6314SOL    HW230579   2.749   0.682   9.002 -0.7337  0.2708  0.3170
 6315SOL     OW30580   0.528   3.679   7.404  0.7387 -0.0986  0.2564
 6315SOL    HW130581   0.550   3.664   7.313 -3.0346  3.1051 -1.2267
 6315SOL    HW230582   0.612   3.663   7.447  0.3960  1.3552  1.5000
 6316SOL     OW30583   2.642   0.816   6.533  0.2641  0.3271 -0.3244
 6316SOL    HW130584   2.656   0.723   6.554 -1.9628 -0.3657 -2.0133
 6316SOL    HW230585   2.717   0.854   6.579 -1.9504  1.9166  1.9255
 6317SOL     OW30586   1.822   1.642  11.888  0.8547 -0.0788 -0.3855
 6317SOL    HW130587   1.780   1.618  11.805  1.6118  0.7074 -0.9918
 6317SOL    HW230588   1.753   1.697  11.925  1.2412 -1.7169  2.7648
 6318SOL     OW30589   3.651   0.217   4.138  0.1508 -0.3824  0.8537
 6318SOL    HW130590   3.704   0.294   4.157 -0.5953  0.0943  0.9681
 6318SOL    HW230591   3.644   0.214   4.042  1.5052  1.7978  0.6816
 6319SOL     OW30592   3.731   1.227   8.642  0.3570  0.1787 -0.4720
 6319SOL    HW130593   3.653   1.213   8.696 -0.0244  1.1341 -0.7743
 6319SOL    HW230594   3.724   1.162   8.572  1.2925 -0.8386  0.3845
 6320SOL     OW30595   4.435   4.565  16.752 -0.0022 -0.4782 -0.2655
 6320SOL    HW130596   4.434   4.660  16.739  1.7591 -0.6069 -1.3534
 6320SOL    HW230597   4.396   4.573  16.839  0.9392  1.4916 -0.0209
 6321SOL     OW30598   1.112   3.114   0.445  0.1898 -0.0085  0.3708
 6321SOL    HW130599   1.040   3.054   0.464  1.6444 -0.8871  3.2448
 6321SOL    HW230600   1.089   3.193   0.493  1.0245  0.0874  0.6075
 6322SOL     OW30601   1.667   2.858  12.018 -0.2926 -0.6008  0.5400
 6322SOL    HW130602   1.732   2.791  12.039 -0.3944 -0.0551  2.6145
 6322SOL    HW230603   1.604   2.810  11.963  0.3887  0.2562 -0.9876
 6323SOL     OW30604   4.514   4.434   4.643 -0.4685 -0.6623 -0.0811
 6323SOL    HW130605   4.566   4.368   4.688  1.1410 -0.4065 -1.5456
 6323SOL    HW230606   4.425   4.405   4.663 -1.2895  2.1268  0.3107
 6324SOL     OW30607   0.972   0.644  15.800 -0.3670  0.3635 -0.2229
 6324SOL    HW130608   1.001   0.734  15.811  1.4790 -0.0942 -1.2277
 6324SOL    HW230609   0.914   0.628  15.875  0.5799 -2.2095 -0.0291
 6325SOL     OW30610   1.649   0.825   4.771 -0.2069 -0.1917 -0.4895
 6325SOL    HW130611   1.664   0.900   4.713 -0.2064 -0.6778 -1.1174
 6325SOL    HW230612   1.556   0.843   4.783 -0.4420 -0.7570 -1.4362
 6326SOL     OW30613   1.880   2.439  10.339 -0.3337 -0.0235 -0.0096
 6326SOL    HW130614   1.947   2.504  10.318 -1.7455  1.2862 -0.4903
 6326SOL    HW230615   1.799   2.472  10.299  0.5362  2.1849  0.0488
 6327SOL     OW30616   4.516   0.982  11.613  0.0259 -0.3628 -0.1705
 6327SOL    HW130617   4.557   0.939  11.538 -1.5266 -1.4727 -0.3988
 6327SOL    HW230618   4.425   0.953  11.604  0.3743 -1.6283  0.3252
 6328SOL     OW30619   4.283   1.307   8.010  0.1211 -0.6904  0.2475
 6328SOL    HW130620   4.238   1.315   7.926  1.1567  0.1154 -0.2290
 6328SOL    HW230621   4.238   1.379   8.053 -1.6813 -1.9653  0.4739
 6329SOL     OW30622   3.533   0.041   8.329 -0.6846  0.3148  0.0834
 6329SOL    HW130623   3.496   4.691   8.323 -0.9162  0.3979  0.3336
 6329SOL    HW230624   3.522   0.070   8.238 -0.2909  0.5093  0.1008
 6330SOL     OW30625   0.716   1.668  12.399 -0.4390  0.3260  0.1708
 6330SOL    HW130626   0.722   1.676  12.494 -2.0575 -0.9455  0.3736
 6330SOL    HW230627   0.682   1.580  12.381  2.3559 -0.7877  0.1585
 6331SOL     OW30628   2.801   4.618   8.080  0.4050 -0.3824 -0.0264
 6331SOL    HW130629   2.890   4.584   8.097  0.7198 -0.0318 -0.9876
 6331SOL    HW230630   2.771   4.643   8.167  0.2483 -0.0375 -0.1824
 6332SOL     OW30631   2.872   1.794  12.193  0.0092 -0.0121 -0.1920
 6332SOL    HW130632   2.853   1.786  12.099 -1.6374 -1.6979  0.2745
 6332SOL    HW230633   2.965   1.773  12.191  0.2887  1.1318  1.2385
 6333SOL     OW30634   3.917   1.029   2.964  0.1396  0.0668 -0.2454
 6333SOL    HW130635   3.957   1.109   2.931 -0.0965  0.3375  0.1158
 6333SOL    HW230636   3.867   1.063   3.038  2.2201  0.6394  0.9070
 6334SOL     OW30637   4.422   0.663  11.055 -0.0088 -0.5240  0.1747
 6334SOL    HW130638   4.434   0.568  11.051 -3.3940 -0.9546  0.0558
 6334SOL    HW230639   4.332   0.673  11.022  0.0227 -0.0748  0.2324
 6335SOL     OW30640   2.964   4.637   6.269  0.3419 -0.1036  0.7580
 6335SOL    HW130641   3.019   4.573   6.224 -2.3013 -2.6340  1.0659
 6335SOL    HW230642   2.893   4.580   6.299  0.1106 -0.1703  0.0979
 6336SOL     OW30643   4.463   1.093  13.046 -0.2398  0.1182 -0.4223
 6336SOL    HW130644   4.425   1.179  13.063  0.4072 -0.0788  2.0513
 6336SOL    HW230645   4.461   1.062  13.137  1.3777  2.4990  0.4071
 6337SOL     OW30646   2.068   0.022   9.207  0.3010 -0.2631  0.1170
 6337SOL    HW130647   2.110   4.674   9.208 -0.8984 -0.8506  0.1728
 6337SOL    HW230648   1.986   4.724   9.172 -0.0118  0.8060 -0.2647
 6338SOL     OW30649   3.138   2.362   0.657  0.0177 -0.1140 -0.1827
 6338SOL    HW130650   3.110   2.306   0.730 -0.0270  1.2743  0.8550
 6338SOL    HW230651   3.189   2.423   0.710  2.3305 -0.6242 -1.8152
 6339SOL     OW30652   3.798   2.117  15.017 -0.3010 -0.8219 -0.4545
 6339SOL    HW130653   3.795   2.131  15.112 -2.1992  1.3747 -0.8527
 6339SOL    HW230654   3.886   2.079  15.009  0.9918  2.2896 -0.7971
 6340SOL     OW30655   0.451   2.395   8.591 -0.0605 -0.3697  0.5261
 6340SOL    HW130656   0.490   2.483   8.583 -1.8457  0.4477  0.8688
 6340SOL    HW230657   0.406   2.382   8.508 -0.2191 -1.6576  0.8141
 6341SOL     OW30658   3.373   2.874  17.007  0.3517  0.3529 -0.5594
 6341SOL    HW130659   3.309   2.902  17.073 -0.3025  1.3284 -1.5787
 6341SOL    HW230660   3.332   2.818  16.941 -0.6973  1.9219 -1.2483
 6342SOL     OW30661   1.878   4.089   2.529  0.7362  0.1544  0.1439
 6342SOL    HW130662   1.956   4.093   2.585  1.0817 -0.5938 -0.2808
 6342SOL    HW230663   1.816   4.108   2.600 -0.7642 -1.9711 -0.6035
 6343SOL     OW30664   2.866   2.438   5.737 -0.6999 -0.2616  0.3368
 6343SOL    HW130665   2.941   2.495   5.719 -1.1453  0.2299  0.0418
 6343SOL    HW230666   2.853   2.464   5.829  0.8490  3.1632 -0.4096
 6344SOL     OW30667   3.851   4.247   7.177  0.2746 -0.0832 -1.0652
 6344SOL    HW130668   3.822   4.220   7.264 -1.1374 -1.5630 -2.0073
 6344SOL    HW230669   3.826   4.168   7.129  1.2188 -1.4737  0.7626
 6345SOL     OW30670   0.678   4.008   4.282  0.0700  0.4879  0.5480
 6345SOL    HW130671   0.629   4.005   4.364 -0.9999 -0.7275 -0.1319
 6345SOL    HW230672   0.762   3.970   4.307 -0.3417  0.2470  1.5562
 6346SOL     OW30673   4.595   1.702   2.033 -0.3154 -0.7363 -0.2965
 6346SOL    HW130674   4.563   1.652   2.108  1.6347 -1.6384 -0.0437
 6346SOL    HW230675   4.531   1.660   1.977  0.0501  1.8940 -2.6854
 6347SOL     OW30676   4.593   1.797   4.412  0.1549 -0.2539 -0.0288
 6347SOL    HW130677   4.538   1.731   4.455  2.3709 -0.7464  2.0266
 6347SOL    HW230678   4.677   1.762   4.441  0.8463 -2.4767 -4.6822
 6348SOL     OW30679   2.542   1.267   3.757 -0.0097 -0.0358  0.0487
 6348SOL    HW130680   2.568   1.186   3.803  0.1489 -0.0564 -0.0764
 6348SOL    HW230681   2.531   1.234   3.668 -1.8022  1.6526 -0.3397
 6349SOL     OW30682   3.830   4.190   8.616  0.2469  0.2536 -0.0091
 6349SOL    HW130683   3.815   4.166   8.525 -1.5674 -0.3939  0.4517
 6349SOL    HW230684   3.846   4.109   8.664  0.4919  0.8663  0.9437
 6350SOL     OW30685   3.084   2.003  10.126 -0.1502  0.6871 -0.1604
 6350SOL    HW130686   3.067   2.077  10.184  3.1148 -1.0095  2.9479
 6350SOL    HW230687   3.124   1.958  10.200 -3.3398 -1.1259  0.4807
 6351SOL     OW30688   1.403   3.602   6.148  0.3064  0.5296 -0.8286
 6351SOL    HW130689   1.364   3.678   6.104  0.1078 -0.5010 -2.4168
 6351SOL    HW230690   1.439   3.643   6.227  1.8699 -0.3648 -1.0838
 6352SOL     OW30691   3.670   3.537   7.790 -0.1954  0.0600  0.4144
 6352SOL    HW130692   3.712   3.562   7.709 -0.2523  1.7952  0.9280
 6352SOL    HW230693   3.590   3.588   7.801  0.6655  1.2750  0.9490
 6353SOL     OW30694   4.267   3.162   1.648  0.1827  0.0982 -0.7767
 6353SOL    HW130695   4.266   3.077   1.602  1.3300 -1.0770  1.3925
 6353SOL    HW230696   4.208   3.149   1.722  0.6846  1.0105 -0.2176
 6354SOL     OW30697   2.428   1.586   1.625  0.6811 -0.4972  0.3898
 6354SOL    HW130698   2.343   1.546   1.609  1.1489 -1.2797 -0.1861
 6354SOL    HW230699   2.491   1.521   1.593  0.1620 -0.4335 -0.7865
 6355SOL     OW30700   3.578   1.837  16.085  0.2553  0.0282  0.0713
 6355SOL    HW130701   3.652   1.898  16.076  0.7278 -0.7004 -0.8915
 6355SOL    HW230702   3.532   1.887  16.153  0.7868 -0.6180  0.8949
 6356SOL     OW30703   1.216   1.001   2.449 -0.3117  0.0322 -0.1011
 6356SOL    HW130704   1.148   1.026   2.386  1.9908  0.6261 -2.3391
 6356SOL    HW230705   1.172   0.989   2.533  0.2302  0.8686  0.2925
 6357SOL     OW30706   0.571   3.614   3.044 -0.0256  0.4372  0.0792
 6357SOL    HW130707   0.518   3.549   3.091  1.4863 -0.6199  0.3248
 6357SOL    HW230708   0.549   3.687   3.102  3.3595  1.6695 -0.1447
 6358SOL     OW30709   3.270   4.512   3.080 -0.1406  0.4559  0.2568
 6358SOL    HW130710   3.225   4.540   3.001  0.6661  0.6956 -0.1207
 6358SOL    HW230711   3.247   4.419   3.090  1.1339 -0.0396 -1.3078
 6359SOL     OW30712   1.489   0.269  10.012 -0.0809 -0.6464 -0.1562
 6359SOL    HW130713   1.448   0.190   9.977 -0.5964  1.3692 -4.1773
 6359SOL    HW230714   1.458   0.337   9.952 -1.5997 -1.8878 -0.8135
 6360SOL     OW30715   0.608   1.238   3.035 -0.4903  0.2012  0.3600
 6360SOL    HW130716   0.592   1.303   3.104 -0.7561  1.0923 -0.5459
 6360SOL    HW230717   0.671   1.184   3.083  1.4553  1.3834 -0.8273
 6361SOL     OW30718   1.424   1.817   6.281  0.5796  0.3750  0.8104
 6361SOL    HW130719   1.382   1.903   6.291  1.7984  0.8642  1.6091
 6361SOL    HW230720   1.350   1.757   6.282  2.5455 -2.0377  0.3884
 6362SOL     OW30721   4.424   3.120   0.958 -0.6048  1.1728  0.0613
 6362SOL    HW130722   4.429   3.037   1.007 -1.1751 -0.0042 -1.8630
 6362SOL    HW230723   4.345   3.098   0.908 -0.0283 -2.0147  0.5108
 6363SOL     OW30724   2.342   2.678   5.503  0.3396  0.3669 -0.4172
 6363SOL    HW130725   2.413   2.724   5.458  1.3827  1.9680  2.8799
 6363SOL    HW230726   2.381   2.593   5.528  0.1876  0.1763 -0.8407
 6364SOL     OW30727   3.040   1.522   2.229  0.4211  0.0353  0.1509
 6364SOL    HW130728   3.029   1.583   2.157  1.0186  1.2381  1.0853
 6364SOL    HW230729   3.122   1.551   2.269  0.1999 -1.0328  1.3861
 6365SOL     OW30730   2.467   1.703   7.729 -0.2316 -1.0423 -0.6650
 6365SOL    HW130731   2.529   1.742   7.791  0.9491 -0.3546 -2.2622
 6365SOL    HW230732   2.497   1.738   7.645 -4.5320  1.0458 -1.3149
 6366SOL     OW30733   0.878   1.992   6.338 -0.5183  0.3867 -0.6470
 6366SOL    HW130734   0.797   1.951   6.369 -0.0206  0.0452  0.2090
 6366SOL    HW230735   0.938   1.960   6.405 -0.0441 -1.0165 -1.7457
 6367SOL     OW30736   2.822   2.738   7.749 -0.1348  0.5175  0.5656
 6367SOL    HW130737   2.772   2.714   7.827 -0.3141 -2.3013 -0.4110
 6367SOL    HW230738   2.913   2.726   7.777  0.0124 -1.0572 -0.6181
 6368SOL     OW30739   2.906   3.035  13.631  0.0162 -0.4011 -0.3064
 6368SOL    HW130740   2.867   3.109  13.585  0.4603  0.6716  1.0666
 6368SOL    HW230741   2.832   3.010  13.686  0.6318 -1.0981  0.2139
 6369SOL     OW30742   2.075   2.415   5.045 -1.0511  0.2834 -0.6430
 6369SOL    HW130743   2.031   2.354   5.103 -1.8370 -0.2865 -1.8512
 6369SOL    HW230744   2.007   2.478   5.021  1.5733  2.2880 -2.9361
 6370SOL     OW30745   2.149   0.634   6.669 -0.1483  0.4094 -0.5918
 6370SOL    HW130746   2.092   0.667   6.600 -0.1831 -2.0515 -1.7456
 6370SOL    HW230747   2.129   0.702   6.734  0.3162  1.4551 -1.5488
 6371SOL     OW30748   1.627   1.798   7.815 -0.5112 -0.1488 -0.2722
 6371SOL    HW130749   1.704   1.814   7.870 -0.6679 -1.8831  0.4323
 6371SOL    HW230750   1.584   1.884   7.823 -0.6672 -0.3972  1.5379
 6372SOL     OW30751   0.751   3.160   1.773 -0.1251 -0.0212  0.1127
 6372SOL    HW130752   0.818   3.107   1.816  0.5177  0.3874 -0.3876
 6372SOL    HW230753   0.726   3.097   1.705  0.8131 -0.7596  0.4615
 6373SOL     OW30754   2.638   1.172   1.075 -0.7036  0.2954  0.0731
 6373SOL    HW130755   2.591   1.157   1.157  0.4524 -3.0696  0.1291
 6373SOL    HW230756   2.729   1.184   1.101 -0.9299  1.3871  0.3454
 6374SOL     OW30757   4.626   4.630   0.608  0.7035 -0.8889 -0.1629
 6374SOL    HW130758   4.717   4.602   0.602  1.3755  1.4026 -0.6520
 6374SOL    HW230759   4.628   4.724   0.593  0.7234 -0.6136  1.5370
 6375SOL     OW30760   0.317   4.682   9.690 -0.0887  0.5345 -1.5242
 6375SOL    HW130761   0.248   4.735   9.650 -1.3976 -0.2810 -0.3278
 6375SOL    HW230762   0.394   4.705   9.638  0.1238  1.1277 -0.9447
 6376SOL     OW30763   4.324   4.628   4.875  0.1110  0.1385  0.0816
 6376SOL    HW130764   4.240   4.637   4.919  0.5462  1.2311  0.6628
 6376SOL    HW230765   4.374   4.686   4.931 -3.0827  0.5849  2.4445
 6377SOL     OW30766   3.429   4.064   3.410  0.2658 -0.1304  0.0454
 6377SOL    HW130767   3.507   4.117   3.391  1.1784 -0.7757  1.9667
 6377SOL    HW230768   3.460   3.976   3.390  0.0004 -0.6676  1.9885
 6378SOL     OW30769   2.646   2.505  15.586 -0.2959 -0.1572 -0.1387
 6378SOL    HW130770   2.721   2.563  15.594 -0.1503 -0.5123  1.0398
 6378SOL    HW230771   2.596   2.561  15.526  0.3895  0.4682 -0.1224
 6379SOL     OW30772   3.046   3.857  14.036  0.4467  0.6551 -0.1544
 6379SOL    HW130773   3.071   3.894  14.122  0.5433  0.5195 -0.1241
 6379SOL    HW230774   3.039   3.763  14.051 -0.2858  0.5040 -1.5270
 6380SOL     OW30775   3.364   0.356   1.193 -0.2962  0.8075 -0.3607
 6380SOL    HW130776   3.279   0.329   1.158 -0.0380  1.3658 -1.4237
 6380SOL    HW230777   3.394   0.296   1.261  0.8015  1.3151 -0.3882
 6381SOL     OW30778   0.277   0.767   9.057 -0.6302 -0.0803  0.7187
 6381SOL    HW130779   0.355   0.739   9.009 -0.4295 -0.8212  1.4746
 6381SOL    HW230780   0.214   0.787   8.988  0.0653  0.8775  0.3660
 6382SOL     OW30781   3.111   2.672   1.678 -0.1740 -0.5027 -1.0758
 6382SOL    HW130782   3.161   2.591   1.668  1.4709  0.3800 -0.0217
 6382SOL    HW230783   3.020   2.647   1.697 -0.1886 -0.3233 -0.9111
 6383SOL     OW30784   2.754   4.423   8.410  0.2062  0.1405 -0.1782
 6383SOL    HW130785   2.690   4.461   8.470  2.7210  1.6398  1.5382
 6383SOL    HW230786   2.810   4.381   8.475  1.7815  2.5837  0.0191
 6384SOL     OW30787   0.710   4.643  12.947  0.2358  0.0919  0.3085
 6384SOL    HW130788   0.617   4.661  12.935  0.4374  0.4957 -0.6864
 6384SOL    HW230789   0.740   4.723  12.991 -1.4619 -0.5194  2.5648
 6385SOL     OW30790   3.199   4.252   8.742  0.1398 -0.2146 -0.6447
 6385SOL    HW130791   3.215   4.328   8.797  1.3543 -0.1274 -1.1237
 6385SOL    HW230792   3.252   4.187   8.787  0.7668 -1.1064 -2.6479
 6386SOL     OW30793   3.025   2.743  10.922 -0.2505  0.0911  0.5651
 6386SOL    HW130794   3.033   2.736  11.018  0.8450 -0.9627  0.3989
 6386SOL    HW230795   3.054   2.658  10.888 -1.0673 -0.1886  0.5777
 6387SOL     OW30796   4.217   1.968   7.154  0.6313 -0.1983  0.1217
 6387SOL    HW130797   4.167   1.907   7.208  1.3016 -1.8493 -1.1078
 6387SOL    HW230798   4.242   1.905   7.087  0.4311  0.9243 -1.0092
 6388SOL     OW30799   2.620   3.567   1.421  0.1622  0.3752  0.5915
 6388SOL    HW130800   2.549   3.600   1.477  1.2894  2.5359  0.7748
 6388SOL    HW230801   2.637   3.652   1.380  0.2229  0.2408  0.3430
 6389SOL     OW30802   2.645   0.618  14.587 -0.1042  0.1219 -0.3245
 6389SOL    HW130803   2.622   0.534  14.626  0.4535  0.5267  0.8813
 6389SOL    HW230804   2.682   0.587  14.504  1.9137  1.8858 -0.1082
 6390SOL     OW30805   1.294   1.318  12.376  0.4810  0.5383  0.3423
 6390SOL    HW130806   1.271   1.385  12.440  1.3648 -1.6623  3.0003
 6390SOL    HW230807   1.211   1.297  12.333 -0.3966  1.3113  1.6636
 6391SOL     OW30808   4.682   2.849   5.640  0.5324 -0.1035 -0.7359
 6391SOL    HW130809   4.728   2.849   5.556 -0.8666 -0.4462 -1.4962
 6391SOL    HW230810   0.017   2.842   5.701  0.3930  1.1984 -0.4085
 6392SOL     OW30811   2.729   3.276   1.748  0.0121 -0.4279 -0.9880
 6392SOL    HW130812   2.640   3.288   1.714 -0.8854  0.5024  1.6586
 6392SOL    HW230813   2.738   3.367   1.777 -0.2459  0.3885 -3.5187
 6393SOL     OW30814   3.782   1.401   6.855  0.3498 -0.2479 -0.2628
 6393SOL    HW130815   3.721   1.357   6.797 -2.0003  0.1241  1.8754
 6393SOL    HW230816   3.784   1.337   6.926 -1.6535  0.9906  0.9186
 6394SOL     OW30817   3.541   4.488   3.432  0.3695  0.0194  0.5521
 6394SOL    HW130818   3.448   4.478   3.414  0.2239  0.6582  0.9424
 6394SOL    HW230819   3.581   4.478   3.346 -0.5140  2.0613 -0.1034
 6395SOL     OW30820   4.138   0.967   3.394 -0.7507  0.2885  0.0206
 6395SOL    HW130821   4.060   0.921   3.361 -0.2574 -1.4077  1.2291
 6395SOL    HW230822   4.169   1.031   3.331 -1.1982  0.3684 -0.1233
 6396SOL     OW30823   3.329   0.622  14.578  0.6163 -0.5169 -0.5147
 6396SOL    HW130824   3.304   0.579  14.660  1.4354 -1.2460 -0.6579
 6396SOL    HW230825   3.243   0.618  14.537  0.5235  0.0856 -0.3895
 6397SOL     OW30826   1.980   4.334   6.969  0.1667 -0.0888 -0.6680
 6397SOL    HW130827   2.016   4.317   6.882  0.4114 -0.1672 -0.5496
 6397SOL    HW230828   2.025   4.277   7.031  1.3810 -0.6452 -2.0689
 6398SOL     OW30829   1.937   4.064   4.756  0.1211 -0.2230 -0.4971
 6398SOL    HW130830   1.849   4.040   4.730  0.3899  0.9609 -2.5351
 6398SOL    HW230831   1.938   4.160   4.760 -1.9544 -0.1528 -2.2576
 6399SOL     OW30832   2.694   1.828  17.615 -0.0349 -0.3342 -0.7912
 6399SOL    HW130833   2.599   1.839  17.623 -0.1371 -1.6621 -0.2017
 6399SOL    HW230834   2.717   1.912  17.575  0.4933  0.3249  0.9070
 6400SOL     OW30835   0.541   1.093   3.661 -0.1745 -0.1478  0.3298
 6400SOL    HW130836   0.603   1.097   3.587  0.9102  0.9894  1.2997
 6400SOL    HW230837   0.461   1.131   3.624 -0.0450  0.6207  0.8497
 6401SOL     OW30838   2.928   1.030   4.889 -0.1739  0.4121 -0.0802
 6401SOL    HW130839   3.019   1.049   4.908 -0.0466 -0.1112 -0.1668
 6401SOL    HW230840   2.883   1.110   4.916 -1.4906 -0.2173 -0.4108
 6402SOL     OW30841   3.815   1.860   2.270 -0.2214  0.0089  0.5307
 6402SOL    HW130842   3.771   1.929   2.220 -0.2802  0.2258  0.8759
 6402SOL    HW230843   3.840   1.910   2.347  0.0336 -2.7413  2.2299
 6403SOL     OW30844   2.278   3.928   3.367 -0.4082  0.0802 -0.3441
 6403SOL    HW130845   2.353   3.946   3.310  0.6576  1.5719  1.5311
 6403SOL    HW230846   2.311   3.847   3.407  2.4167  0.6759 -1.4806
 6404SOL     OW30847   3.178   1.177   5.971  0.2546  0.6016 -0.0250
 6404SOL    HW130848   3.137   1.200   5.887  3.0838  0.4152 -1.4373
 6404SOL    HW230849   3.269   1.190   5.945  0.7611 -0.1669  1.4011
 6405SOL     OW30850   1.779   2.244   9.044 -0.5936 -0.3123  0.2086
 6405SOL    HW130851   1.708   2.204   9.094 -0.9069 -0.3479 -0.2672
 6405SOL    HW230852   1.788   2.174   8.980 -0.5516 -2.0109  2.0576
 6406SOL     OW30853   4.588   0.443   8.956 -0.1658  0.5455 -0.2523
 6406SOL    HW130854   4.534   0.441   9.035  0.6059  0.2785  0.2690
 6406SOL    HW230855   4.524   0.428   8.887 -0.4395  3.4644 -0.6369
 6407SOL     OW30856   2.404   1.510   8.868 -0.0911 -0.3002 -0.1293
 6407SOL    HW130857   2.323   1.557   8.850 -0.1860  0.3466  2.0311
 6407SOL    HW230858   2.458   1.581   8.903 -2.0455  0.6600  0.9413
 6408SOL     OW30859   1.651   0.973   3.067  0.1066 -0.0749 -0.5240
 6408SOL    HW130860   1.708   1.028   3.013  1.6775 -0.4059  0.7813
 6408SOL    HW230861   1.563   0.965   3.032 -0.0981 -0.6027  0.1155
 6409SOL     OW30862   0.827   1.686  10.625 -0.9125 -0.4106  0.4328
 6409SOL    HW130863   0.885   1.662  10.553 -1.3140  0.4350 -0.1786
 6409SOL    HW230864   0.815   1.604  10.673  1.2659 -0.4719  0.8876
 6410SOL     OW30865   0.997   4.679   9.682 -0.5321 -0.1057  0.4220
 6410SOL    HW130866   1.058   0.009   9.708 -0.2804  0.0220 -0.4974
 6410SOL    HW230867   0.985   4.623   9.759  0.2439  0.4401  0.9379
 6411SOL     OW30868   0.412   2.812  16.493  0.1747  0.2821 -0.4939
 6411SOL    HW130869   0.337   2.818  16.434 -0.7388 -1.3096  0.5172
 6411SOL    HW230870   0.459   2.735  16.460 -0.2784 -0.2316  0.0616
 6412SOL     OW30871   3.728   0.128   5.454  0.6425  0.1166  0.4530
 6412SOL    HW130872   3.805   0.072   5.453  0.0144 -0.7089 -1.3265
 6412SOL    HW230873   3.748   0.184   5.379  1.0605  0.5692  0.9034
 6413SOL     OW30874   2.335   1.843   9.821 -0.0364  0.0552 -0.3646
 6413SOL    HW130875   2.276   1.775   9.853 -1.7894  1.8651  0.2430
 6413SOL    HW230876   2.373   1.879   9.901  3.1486 -0.9170 -1.4442
 6414SOL     OW30877   2.477   0.934  11.288  0.1870  0.3376  0.3023
 6414SOL    HW130878   2.512   0.989  11.358  0.1768 -0.5052  0.9764
 6414SOL    HW230879   2.404   0.991  11.265  0.3170 -0.2843 -1.6628
 6415SOL     OW30880   2.255   4.298   6.491 -0.3896 -0.2088 -0.2546
 6415SOL    HW130881   2.235   4.252   6.409  0.1028  0.3198 -0.6667
 6415SOL    HW230882   2.240   4.390   6.469  1.3261 -0.4679 -2.5201
 6416SOL     OW30883   3.538   1.084   6.118  0.5795 -0.3604  0.0493
 6416SOL    HW130884   3.491   1.002   6.108 -0.5101  0.3549 -0.7503
 6416SOL    HW230885   3.575   1.065   6.204  1.1360 -2.3650 -0.6536
 6417SOL     OW30886   4.568   1.626   9.541 -0.0279 -0.1566  0.3305
 6417SOL    HW130887   4.511   1.569   9.593 -1.4880  1.3222  0.3480
 6417SOL    HW230888   4.597   1.692   9.604  0.2271 -0.4266  0.5004
 6418SOL     OW30889   1.560   0.793   6.137  0.1915 -0.1467  0.0214
 6418SOL    HW130890   1.493   0.752   6.192 -0.7508 -0.9202 -1.7135
 6418SOL    HW230891   1.624   0.825   6.200 -1.0053  0.5518  0.8939
 6419SOL     OW30892   3.075   4.703   7.593 -0.1294  0.3839  0.3554
 6419SOL    HW130893   3.006   0.030   7.594  0.8474  1.4376 -0.2449
 6419SOL    HW230894   3.034   4.635   7.646 -2.0576 -0.0363 -1.6579
 6420SOL     OW30895   1.712   2.240   1.618  0.2899  0.1632  0.3943
 6420SOL    HW130896   1.800   2.202   1.619  0.2517  0.0339 -0.8360
 6420SOL    HW230897   1.659   2.175   1.663 -0.2661 -0.2718 -0.8873
 6421SOL     OW30898   3.423   2.126   3.935 -0.4117 -0.7979 -0.8161
 6421SOL    HW130899   3.516   2.143   3.950 -0.8341  1.6301 -0.9009
 6421SOL    HW230900   3.393   2.091   4.019 -0.8762  0.0867 -0.6151
 6422SOL     OW30901   3.501   1.308   7.633 -1.0237 -0.5820 -0.0146
 6422SOL    HW130902   3.557   1.307   7.711 -0.3101  0.6062 -0.5160
 6422SOL    HW230903   3.476   1.217   7.619 -1.8713 -0.2601 -0.5651
 6423SOL     OW30904   2.710   3.426   2.533 -0.1547  0.1315  0.3761
 6423SOL    HW130905   2.701   3.423   2.628  0.0831  3.1270  0.4787
 6423SOL    HW230906   2.684   3.334   2.520 -1.6786  0.2541  2.5608
 6424SOL     OW30907   4.444   3.373   1.663 -0.0625  0.6495  0.5157
 6424SOL    HW130908   4.367   3.317   1.658 -1.1107  2.1153  0.3062
 6424SOL    HW230909   4.419   3.444   1.722 -0.0634 -1.1665  2.6993
 6425SOL     OW30910   0.350   4.107   6.117 -0.2605  0.2582  0.4818
 6425SOL    HW130911   0.361   4.150   6.033 -1.0324  1.1421  0.8390
 6425SOL    HW230912   0.440   4.090   6.145 -0.3450 -0.7296  0.1558
 6426SOL     OW30913   4.436   2.622   8.487 -0.1513 -0.3474 -0.0541
 6426SOL    HW130914   4.421   2.707   8.445 -0.4758 -0.8901 -1.0644
 6426SOL    HW230915   4.350   2.581   8.491 -0.7420  1.0258  1.0380
 6427SOL     OW30916   0.269   0.492   6.460  0.1070 -0.7561 -0.6632
 6427SOL    HW130917   0.346   0.543   6.434  0.6394 -1.5693 -0.6600
 6427SOL    HW230918   0.201   0.528   6.403  2.5949  0.4571 -2.8521
 6428SOL     OW30919   4.571   0.843  11.229 -0.1075  0.4018 -0.2138
 6428SOL    HW130920   4.620   0.896  11.167  0.4830 -3.0916 -2.7366
 6428SOL    HW230921   4.539   0.777  11.167  0.0228 -0.4408  0.6056
 6429SOL     OW30922   1.773   1.177   3.732  0.1013  0.4627  0.0285
 6429SOL    HW130923   1.712   1.113   3.696  0.0622  0.9694 -0.7989
 6429SOL    HW230924   1.726   1.260   3.721  0.8226  1.1692  2.3711
 6430SOL     OW30925   0.212   0.216   6.504 -0.0748 -0.0488 -0.2477
 6430SOL    HW130926   0.243   0.303   6.529  1.7107 -1.5459  2.6840
 6430SOL    HW230927   0.192   0.226   6.411 -1.1466 -1.1378 -0.1372
 6431SOL     OW30928   2.018   0.860  11.900  0.0939  0.0787 -0.9057
 6431SOL    HW130929   1.932   0.842  11.864 -0.0614 -1.1831  0.1048
 6431SOL    HW230930   2.090   0.850  11.838  0.2046 -1.2146 -0.5541
 6432SOL     OW30931   2.284   3.366  16.103  0.1131 -0.0009  0.2300
 6432SOL    HW130932   2.189   3.361  16.118 -0.1685  1.0629 -1.1684
 6432SOL    HW230933   2.292   3.462  16.104  0.0622 -0.0511  3.6264
 6433SOL     OW30934   3.170   3.201   3.615  0.5533  0.3800 -0.4796
 6433SOL    HW130935   3.089   3.197   3.665  0.3389 -0.9181 -0.9337
 6433SOL    HW230936   3.245   3.192   3.673 -0.5998  2.1298  1.2705
 6434SOL     OW30937   3.325   4.567   7.053  0.3942  0.7238  0.4016
 6434SOL    HW130938   3.230   4.550   7.053  0.1656  2.0504 -0.9441
 6434SOL    HW230939   3.345   4.631   6.986  0.9942  0.1414  0.0256
 6435SOL     OW30940   2.270   2.908  12.701  0.3732 -0.2506 -0.0492
 6435SOL    HW130941   2.212   2.868  12.636  2.1037  2.2354 -3.0988
 6435SOL    HW230942   2.354   2.875  12.669 -0.0114 -0.6431 -0.6451
 6436SOL     OW30943   0.750   4.314   8.169  0.1959 -0.4517 -0.4837
 6436SOL    HW130944   0.784   4.400   8.144  0.9685 -0.2466  1.2952
 6436SOL    HW230945   0.685   4.314   8.099 -1.1928  1.2576  0.8008
 6437SOL     OW30946   3.867   4.222   2.664  0.9193 -0.3514 -0.4754
 6437SOL    HW130947   3.949   4.175   2.647  0.4848 -1.3077  0.1022
 6437SOL    HW230948   3.874   4.294   2.601  1.3611  1.2266  1.3800
 6438SOL     OW30949   3.299   1.667   8.199  0.6713  0.6194 -0.5012
 6438SOL    HW130950   3.216   1.694   8.240  0.6189  1.3490 -1.1036
 6438SOL    HW230951   3.355   1.744   8.190  1.7077  0.1554  2.0025
 6439SOL     OW30952   1.470   3.115  12.809 -0.0356 -0.7811 -0.6859
 6439SOL    HW130953   1.445   3.046  12.871 -0.3772 -1.9638 -2.1171
 6439SOL    HW230954   1.529   3.069  12.748 -1.3710 -0.7486 -2.0135
 6440SOL     OW30955   4.430   3.958   5.189  0.0554 -0.0360 -0.1306
 6440SOL    HW130956   4.519   3.946   5.223  0.3853  1.7977 -0.3337
 6440SOL    HW230957   4.388   3.872   5.195 -0.8566  0.4675  0.6401
 6441SOL     OW30958   4.012   2.241  12.331  0.3927 -0.6244 -0.2128
 6441SOL    HW130959   3.958   2.311  12.368  0.6683 -0.3267 -0.3642
 6441SOL    HW230960   3.964   2.226  12.249 -1.4594  0.2761  0.7197
 6442SOL     OW30961   2.883   1.165   4.149  0.1043  0.1024  0.0799
 6442SOL    HW130962   2.886   1.091   4.209  1.7517 -1.1304 -1.5232
 6442SOL    HW230963   2.928   1.121   4.076 -0.5344 -0.0841 -0.2020
 6443SOL     OW30964   1.590   2.354  12.352  0.4927 -0.2958 -0.8182
 6443SOL    HW130965   1.650   2.342  12.425 -0.6096 -2.2633 -0.2422
 6443SOL    HW230966   1.534   2.417  12.397 -0.9180 -0.6028 -2.0932
 6444SOL     OW30967   2.865   2.954  16.173 -0.4383  0.4641 -0.2382
 6444SOL    HW130968   2.782   2.909  16.159  1.1692 -2.5730  0.0609
 6444SOL    HW230969   2.915   2.908  16.107 -0.6285  0.7043 -0.5472
 6445SOL     OW30970   4.698   2.090  12.260 -0.4117  0.0009 -0.3520
 6445SOL    HW130971   4.617   2.133  12.233  0.5579  0.9715 -1.7382
 6445SOL    HW230972   4.731   2.061  12.175  0.1888  0.2067 -0.1903
 6446SOL     OW30973   2.809   1.336   6.063 -0.3936 -0.4299 -0.0325
 6446SOL    HW130974   2.832   1.258   6.012  2.7318  1.2984 -1.2700
 6446SOL    HW230975   2.728   1.364   6.021 -0.1007  0.5923  0.0904
 6447SOL     OW30976   4.029   2.769   7.989  0.1506 -0.0628 -0.4742
 6447SOL    HW130977   3.947   2.744   8.031 -0.6523  0.2072 -1.8766
 6447SOL    HW230978   4.069   2.833   8.048  2.1406 -2.7093  1.0957
 6448SOL     OW30979   4.226   3.692   8.884  0.1713 -0.1021  0.2389
 6448SOL    HW130980   4.279   3.763   8.921 -1.7069 -0.3894  3.4114
 6448SOL    HW230981   4.245   3.700   8.790  0.0097 -0.0273  0.2139
 6449SOL     OW30982   3.835   1.228  10.108 -0.0667  0.1993 -0.6986
 6449SOL    HW130983   3.861   1.234  10.200  0.5494 -1.1131 -0.7893
 6449SOL    HW230984   3.741   1.243  10.121  0.4853  3.6858 -0.5240
 6450SOL     OW30985   3.217   0.315   2.141 -0.1567  0.6115 -0.2428
 6450SOL    HW130986   3.223   0.315   2.236 -1.5745  1.4854 -0.1557
 6450SOL    HW230987   3.177   0.230   2.120  0.6742  0.2569 -0.3562
 6451SOL     OW30988   3.381   1.927   6.674  0.2078  0.1869 -0.2923
 6451SOL    HW130989   3.356   2.005   6.625  2.3209  0.6607 -0.6411
 6451SOL    HW230990   3.473   1.942   6.697  0.3292 -0.2109 -0.5273
 6452SOL     OW30991   1.205   3.866   8.942 -0.0767 -0.0676 -0.5663
 6452SOL    HW130992   1.177   3.849   8.852  1.2077  0.0127 -0.9798
 6452SOL    HW230993   1.293   3.827   8.938 -0.1880 -0.2015 -1.8409
 6453SOL     OW30994   1.153   0.487   7.927  0.1784 -0.3409  0.1555
 6453SOL    HW130995   1.229   0.479   7.984 -0.0954  3.0827  1.0038
 6453SOL    HW230996   1.184   0.540   7.853 -0.9925 -0.5002 -0.4506
 6454SOL     OW30997   4.049   0.870   6.539 -0.0394 -0.1257 -0.4987
 6454SOL    HW130998   4.108   0.912   6.476  0.7254 -1.9554 -0.9791
 6454SOL    HW230999   4.044   0.937   6.608  3.1200 -1.5982  1.2052
 6455SOL     OW31000   3.997   2.787   5.385 -0.8274  0.1659 -0.1236
 6455SOL    HW131001   3.953   2.779   5.470  0.0362 -0.2460  0.2849
 6455SOL    HW231002   4.089   2.776   5.408 -0.6621 -0.1958 -0.9695
 6456SOL     OW31003   4.369   0.945   9.677  0.2633 -0.4408 -0.6091
 6456SOL    HW131004   4.464   0.947   9.685  0.1461  3.3758 -0.3393
 6456SOL    HW231005   4.359   1.039   9.661 -1.7378 -0.7816 -1.3396
 6457SOL     OW31006   0.301   0.711   5.238 -0.1421 -0.6345  0.3793
 6457SOL    HW131007   0.319   0.799   5.271  3.3815 -2.6465  3.8639
 6457SOL    HW231008   0.210   0.706   5.211 -0.7572  2.0085  1.9374
 6458SOL     OW31009   1.077   1.952   6.908 -0.4522 -0.3696  0.5505
 6458SOL    HW131010   1.152   1.970   6.852 -0.3560  0.6851  1.0254
 6458SOL    HW231011   1.014   2.014   6.871 -0.1561 -0.3659  0.0583
 6459SOL     OW31012   1.167   0.993   8.415  0.4631 -0.3387  0.1676
 6459SOL    HW131013   1.116   1.019   8.492  1.9953  0.4673  0.9029
 6459SOL    HW231014   1.094   1.005   8.353  0.0821 -1.6575  0.3609
 6460SOL     OW31015   1.161   1.545  12.517 -0.2928  0.1493 -0.2043
 6460SOL    HW131016   1.098   1.615  12.500 -1.6636 -1.1919 -0.6418
 6460SOL    HW231017   1.190   1.558  12.607 -0.1001  1.4828 -0.4455
 6461SOL     OW31018   3.331   1.693   3.734  0.5783  0.0182 -0.4510
 6461SOL    HW131019   3.396   1.747   3.778  0.4337  0.5927 -0.9436
 6461SOL    HW231020   3.382   1.644   3.669  2.1807  0.8694  0.1578
 6462SOL     OW31021   2.081   4.203  16.638  0.1535 -0.2421 -0.0663
 6462SOL    HW131022   2.028   4.125  16.624  0.7523 -0.8003  0.7369
 6462SOL    HW231023   2.015   4.269  16.662  1.3118  1.0523 -0.4420
 6463SOL     OW31024   3.051   3.801  13.271  0.4862  0.1022 -0.2974
 6463SOL    HW131025   2.986   3.860  13.232  0.7844  0.4691 -0.2442
 6463SOL    HW231026   3.068   3.843  13.355 -0.2876  2.0750 -1.1322
 6464SOL     OW31027   0.342   0.842   8.677 -0.4490 -0.2391  0.5960
 6464SOL    HW131028   0.265   0.816   8.728  0.7400 -1.7048  1.6292
 6464SOL    HW231029   0.351   0.936   8.694  0.4351  0.1420 -1.9001
 6465SOL     OW31030   1.059   3.526   0.449 -0.1368  0.2670  0.0313
 6465SOL    HW131031   0.997   3.589   0.412 -1.0208 -1.6910 -1.8136
 6465SOL    HW231032   1.134   3.585   0.457  1.0955 -1.2324 -0.5895
 6466SOL     OW31033   2.135   2.685  13.013 -0.2459  0.0528 -0.5360
 6466SOL    HW131034   2.202   2.619  13.028  1.8214  2.6059  1.6302
 6466SOL    HW231035   2.197   2.758  13.020 -1.5201  1.1460 -0.6582
 6467SOL     OW31036   1.188   3.359  12.798 -0.0839 -0.2723 -0.0178
 6467SOL    HW131037   1.167   3.284  12.743  1.7223 -0.3275 -0.6297
 6467SOL    HW231038   1.108   3.361  12.851  1.6807  3.2804  2.5119
 6468SOL     OW31039   4.471   2.381   5.925 -0.8117 -0.1862  0.4091
 6468SOL    HW131040   4.522   2.458   5.951 -0.0095 -0.3848 -0.5562
 6468SOL    HW231041   4.532   2.341   5.863 -1.0537  0.1410 -0.0402
 6469SOL     OW31042   4.054   1.659   2.529 -0.1889  0.3619  0.0119
 6469SOL    HW131043   4.017   1.713   2.599 -0.5194  1.4792 -1.0189
 6469SOL    HW231044   4.115   1.607   2.582 -0.8994 -2.9182 -2.3953
 6470SOL     OW31045   2.325   4.541   8.943  0.0098  0.5357  0.1106
 6470SOL    HW131046   2.335   4.450   8.915  0.9799  0.9058 -0.7409
 6470SOL    HW231047   2.416   4.568   8.954  0.3130 -0.5742  0.3252
 6471SOL     OW31048   3.831   4.509   6.776  0.0733  0.0855  0.4415
 6471SOL    HW131049   3.873   4.499   6.690 -0.8209  0.1544 -0.0047
 6471SOL    HW231050   3.800   4.420   6.794 -1.4779  0.4799 -0.2769
 6472SOL     OW31051   3.112   0.288   1.107  0.0762  0.5205 -0.1394
 6472SOL    HW131052   3.106   0.203   1.064 -0.7016  1.5111 -1.9756
 6472SOL    HW231053   3.103   0.351   1.036 -1.1596  0.8988  0.3491
 6473SOL     OW31054   1.432   4.358   5.971  0.5138  0.0887  0.1000
 6473SOL    HW131055   1.464   4.445   5.995  1.2709  0.1966 -1.3202
 6473SOL    HW231056   1.427   4.357   5.875 -1.8375 -0.8112  0.2187
 6474SOL     OW31057   2.497   3.409  11.312 -1.0502  0.0887  0.0483
 6474SOL    HW131058   2.554   3.333  11.309 -1.2181 -0.0441  0.2455
 6474SOL    HW231059   2.422   3.361  11.345  0.5100 -2.4327 -0.0912
 6475SOL     OW31060   1.372   0.602  14.467 -0.5458  0.5225 -0.4633
 6475SOL    HW131061   1.297   0.653  14.435 -0.4230  0.7074 -0.4566
 6475SOL    HW231062   1.329   0.526  14.506 -0.5897  0.3048 -0.9424
 6476SOL     OW31063   0.864   1.950   5.057  0.2389 -0.0646 -0.4685
 6476SOL    HW131064   0.943   1.946   5.111 -1.2499  3.4259  1.9986
 6476SOL    HW231065   0.809   2.004   5.113 -0.9971 -1.4785 -0.3463
 6477SOL     OW31066   1.050   1.212   2.319 -0.5671 -0.0717  0.0305
 6477SOL    HW131067   1.047   1.259   2.235  2.1911  1.5974  0.8988
 6477SOL    HW231068   1.103   1.259   2.382 -1.4739  0.2691  0.5463
 6478SOL     OW31069   2.292   4.185   8.250 -0.0058  0.2399 -0.1174
 6478SOL    HW131070   2.274   4.117   8.186 -0.0371  0.2666 -0.1367
 6478SOL    HW231071   2.387   4.186   8.254  0.0235  0.0582 -0.9297
 6479SOL     OW31072   0.561   3.810   2.231  0.4097 -0.5904 -0.0243
 6479SOL    HW131073   0.595   3.883   2.179  2.2027 -0.6036  1.1267
 6479SOL    HW231074   0.644   3.777   2.266  0.8211  0.2397 -0.2221
 6480SOL     OW31075   2.160   1.488   5.982 -0.1802  1.3248 -0.3024
 6480SOL    HW131076   2.134   1.560   5.925  2.4250  2.3074 -0.2490
 6480SOL    HW231077   2.150   1.527   6.069  0.2691  1.5310 -0.3474
 6481SOL     OW31078   0.052   1.156  15.137 -0.1714 -0.3226  0.8418
 6481SOL    HW131079   0.080   1.244  15.112  0.8235 -0.4267  1.6307
 6481SOL    HW231080   4.718   1.171  15.197  0.2220 -0.0583  1.2468
 6482SOL     OW31081   2.903   0.363   2.745 -0.1113 -0.4891 -0.5861
 6482SOL    HW131082   2.820   0.401   2.717  0.0424  0.1490 -0.1843
 6482SOL    HW231083   2.861   0.304   2.807  0.9851 -0.1278  0.5098
 6483SOL     OW31084   3.021   0.075  16.705 -0.0941 -0.0743  0.4385
 6483SOL    HW131085   3.075   0.011  16.659 -0.0866  2.7215 -3.4133
 6483SOL    HW231086   3.016   0.026  16.788  2.0371 -1.8787 -0.5181
 6484SOL     OW31087   3.341   0.910   3.058  0.3893 -0.2985  0.1147
 6484SOL    HW131088   3.361   0.817   3.048  1.9589 -0.0272  0.9011
 6484SOL    HW231089   3.327   0.919   3.152  0.0320  0.5753 -0.0239
 6485SOL     OW31090   2.365   3.135  10.184  0.3658 -0.3970  0.5270
 6485SOL    HW131091   2.273   3.130  10.211  0.0443 -1.8458 -0.8840
 6485SOL    HW231092   2.374   3.228  10.163 -0.1564 -0.6094 -0.6591
 6486SOL     OW31093   1.858   1.740  11.234  0.2169  0.5615  0.1749
 6486SOL    HW131094   1.942   1.699  11.211 -0.2433 -1.1195  1.4302
 6486SOL    HW231095   1.861   1.821  11.184 -0.0334  1.1228  1.0816
 6487SOL     OW31096   3.694   3.448  15.042  0.5306 -0.0244  0.1961
 6487SOL    HW131097   3.766   3.418  14.986 -0.6454 -0.4218 -1.1121
 6487SOL    HW231098   3.699   3.381  15.111  1.4922  2.1911  2.2597
 6488SOL     OW31099   2.331   0.621   6.145 -0.0336 -0.1147 -0.3813
 6488SOL    HW131100   2.413   0.573   6.138 -1.8233 -3.1479 -0.8986
 6488SOL    HW231101   2.299   0.619   6.235 -0.3552 -2.7521 -0.5649
 6489SOL     OW31102   0.846   2.006   5.344  0.1514 -0.0782 -0.1592
 6489SOL    HW131103   0.800   2.031   5.424 -2.1678 -0.3168 -1.4160
 6489SOL    HW231104   0.938   2.031   5.353  0.2070 -0.2743 -0.2014
 6490SOL     OW31105   2.764   1.241   2.219 -0.5103 -0.3650 -0.1136
 6490SOL    HW131106   2.799   1.206   2.300 -0.2766  0.4322  0.1204
 6490SOL    HW231107   2.842   1.237   2.163 -0.9077  0.6563 -0.7303
 6491SOL     OW31108   2.861   3.914   4.317 -0.1248 -0.1117  0.1605
 6491SOL    HW131109   2.786   3.860   4.288  1.4582 -1.5875 -1.1974
 6491SOL    HW231110   2.818   3.997   4.338  0.9987  0.8504 -1.2712
 6492SOL     OW31111   0.959   2.044   3.666 -0.2232 -0.3140 -0.6043
 6492SOL    HW131112   1.053   2.028   3.664 -0.6128 -2.8513  0.5063
 6492SOL    HW231113   0.950   2.139   3.664 -1.2647 -0.4069 -0.3600
 6493SOL     OW31114   1.288   2.805  13.923 -0.2318 -0.0365 -0.0213
 6493SOL    HW131115   1.244   2.856  13.990 -0.3245 -2.1389  1.5311
 6493SOL    HW231116   1.234   2.726  13.934  2.9246 -2.1893 -0.0282
 6494SOL     OW31117   0.473   0.319   5.783 -0.1723 -0.1287 -0.0446
 6494SOL    HW131118   0.455   0.286   5.696 -0.3000  0.4547 -0.2379
 6494SOL    HW231119   0.512   0.401   5.752  0.1513  0.1331  1.0395
 6495SOL     OW31120   1.802   0.277   7.449 -0.3536  0.6439  0.5715
 6495SOL    HW131121   1.757   0.219   7.388  2.0415 -1.0982  0.4582
 6495SOL    HW231122   1.871   0.216   7.476 -0.1577  1.7648  2.6670
 6496SOL     OW31123   4.173   0.688   4.336  0.2959  0.5153  0.2799
 6496SOL    HW131124   4.165   0.717   4.246  1.9424 -0.9493 -0.3430
 6496SOL    HW231125   4.108   0.618   4.336  1.1001 -0.2344  0.0651
 6497SOL     OW31126   1.253   4.096  11.453 -0.1350  0.2635 -0.2155
 6497SOL    HW131127   1.224   4.173  11.502  2.8756  0.0755  1.8211
 6497SOL    HW231128   1.179   4.035  11.453 -1.4724  1.9160  1.6986
 6498SOL     OW31129   2.364   4.205   7.161 -0.1455  0.2216 -0.0986
 6498SOL    HW131130   2.313   4.284   7.143  2.2812  2.3362  2.3207
 6498SOL    HW231131   2.454   4.238   7.159 -0.2607  0.6634  1.6261
 6499SOL     OW31132   3.809   2.706   8.379 -0.7872  0.2453 -0.1036
 6499SOL    HW131133   3.830   2.727   8.288 -2.1065  2.1620  0.0452
 6499SOL    HW231134   3.724   2.740   8.406 -0.7918 -1.5884  2.2190
 6500SOL     OW31135   1.114   2.072   3.188  0.2434 -0.1822 -0.0487
 6500SOL    HW131136   1.080   2.143   3.242  1.4966  0.9401 -0.7468
 6500SOL    HW231137   1.191   2.120   3.157  0.8701  0.3711  2.3545
 6501SOL     OW31138   2.141   4.194   4.990 -0.4200 -0.7305  0.0723
 6501SOL    HW131139   2.120   4.199   4.897 -1.5177 -1.0551  0.3051
 6501SOL    HW231140   2.098   4.113   5.018 -2.4597  0.2878 -0.1036
 6502SOL     OW31141   1.742   0.246   9.392  0.5590 -0.4804  0.7461
 6502SOL    HW131142   1.659   0.254   9.438  0.2367  0.3764 -0.0063
 6502SOL    HW231143   1.712   0.236   9.302  0.0604 -2.8130  1.1680
 6503SOL     OW31144   1.338   4.122   6.300 -0.1052 -0.8353 -0.0137
 6503SOL    HW131145   1.320   4.128   6.206 -0.4375  1.7666  0.2369
 6503SOL    HW231146   1.278   4.051   6.324  0.0973 -0.2950  2.1229
 6504SOL     OW31147   1.217   1.910   3.662 -0.1487  0.6152  0.1711
 6504SOL    HW131148   1.262   1.849   3.720  0.0686 -0.8510 -1.5334
 6504SOL    HW231149   1.258   1.875   3.583  1.7956 -0.0625  1.4904
 6505SOL     OW31150   1.840   4.233   6.658 -0.6064 -0.5163 -1.1046
 6505SOL    HW131151   1.849   4.183   6.577 -0.2974 -0.3759 -1.1535
 6505SOL    HW231152   1.924   4.218   6.701 -0.9067  0.4175 -0.2019
 6506SOL     OW31153   0.130   0.481  10.801 -0.3729 -0.2241 -0.5104
 6506SOL    HW131154   0.094   0.408  10.852  0.5091  0.5059  1.1392
 6506SOL    HW231155   0.068   0.550  10.824 -1.3935 -1.1445 -0.5091
 6507SOL     OW31156   3.897   1.319   2.190 -0.4840 -0.8974  0.0524
 6507SOL    HW131157   3.876   1.358   2.275  0.0398  2.2696 -1.2436
 6507SOL    HW231158   3.988   1.349   2.186 -0.6287 -0.4014  0.5952
 6508SOL     OW31159   3.765   1.779   6.532  0.1118 -0.1979  0.0663
 6508SOL    HW131160   3.719   1.842   6.476  2.7898  0.8802 -0.9182
 6508SOL    HW231161   3.695   1.716   6.549 -0.1418  0.3672  1.1236
 6509SOL     OW31162   2.461   2.637   3.110 -0.1855  0.0347  0.2595
 6509SOL    HW131163   2.555   2.648   3.093 -0.2969 -0.5980 -0.7785
 6509SOL    HW231164   2.427   2.704   3.051 -0.2255  0.1500  0.4151
 6510SOL     OW31165   2.086   1.877  16.995  0.2006  0.1948 -0.1691
 6510SOL    HW131166   2.082   1.929  17.075  0.9198  0.3163 -0.2069
 6510SOL    HW231167   1.993   1.871  16.973 -0.4134  0.0047  2.4729
 6511SOL     OW31168   0.919   2.482   4.578 -0.2162 -0.1474 -0.0271
 6511SOL    HW131169   0.846   2.468   4.519 -1.1176  1.3856  0.7168
 6511SOL    HW231170   0.954   2.394   4.572 -1.0988 -0.6452  2.0424
 6512SOL     OW31171   1.132   4.465   5.709  0.3266  0.1922 -0.8274
 6512SOL    HW131172   1.145   4.540   5.767  2.3004  1.2491 -2.6324
 6512SOL    HW231173   1.041   4.469   5.682 -0.0463  1.3813  0.6101
 6513SOL     OW31174   0.095   1.818   6.295 -0.4367 -0.4864  0.4555
 6513SOL    HW131175   0.015   1.787   6.251 -1.4695  1.1764  1.1620
 6513SOL    HW231176   0.056   1.891   6.342 -0.2607 -0.6676  0.8790
 6514SOL     OW31177   3.726   0.695   7.619 -0.1673 -0.6203 -0.3847
 6514SOL    HW131178   3.765   0.735   7.541  0.5283  2.6435  1.6286
 6514SOL    HW231179   3.646   0.662   7.578 -0.6331  0.5101 -0.4049
 6515SOL     OW31180   1.174   0.825   4.039 -0.1279  0.1437  0.3418
 6515SOL    HW131181   1.082   0.836   4.060 -0.2735 -0.1404 -0.1569
 6515SOL    HW231182   1.173   0.751   3.979 -1.0225 -1.4582  2.3390
 6516SOL     OW31183   4.124   3.648  13.528 -0.2402  0.0264  0.2380
 6516SOL    HW131184   4.149   3.735  13.558  0.2057  0.6039 -1.8209
 6516SOL    HW231185   4.195   3.596  13.565  1.9389  2.8812  0.0726
 6517SOL     OW31186   4.219   0.275   9.681 -0.6225 -0.0205  0.6975
 6517SOL    HW131187   4.168   0.238   9.609 -1.7813  0.1505  1.4336
 6517SOL    HW231188   4.202   0.369   9.674 -0.7274 -0.3069 -2.8929
 6518SOL     OW31189   3.737   3.096  17.675 -0.4971 -0.2211  0.0230
 6518SOL    HW131190   3.787   3.171  17.644  1.7641 -2.8651 -2.6948
 6518SOL    HW231191   3.774   3.020  17.630 -1.2800  0.3594 -1.5998
 6519SOL     OW31192   0.703   2.777   2.183 -0.0551 -0.1742  0.0069
 6519SOL    HW131193   0.648   2.777   2.105  0.0524 -0.7976 -0.0691
 6519SOL    HW231194   0.684   2.861   2.224  1.8192 -0.1629  0.8611
 6520SOL     OW31195   0.637   0.375   1.658 -0.0804  0.3392  0.9310
 6520SOL    HW131196   0.647   0.430   1.581 -0.4211 -1.3745 -0.3221
 6520SOL    HW231197   0.542   0.380   1.668 -0.3065 -0.4878 -0.8818
 6521SOL     OW31198   0.842   0.409   0.855 -0.8809 -0.3462  0.0680
 6521SOL    HW131199   0.771   0.451   0.806 -0.8623  0.4233  0.6946
 6521SOL    HW231200   0.800   0.326   0.879 -0.8813 -0.0312  1.1485
 6522SOL     OW31201   1.455   4.650   6.050  0.2914 -0.5427  0.0187
 6522SOL    HW131202   1.520   4.674   6.116  0.4507  1.6647 -0.9395
 6522SOL    HW231203   1.378   4.705   6.066 -1.1277 -2.1067 -1.4622
 6523SOL     OW31204   3.132   3.910  16.291  0.0755 -0.0230 -0.0057
 6523SOL    HW131205   3.057   3.904  16.350  0.7909 -0.9292  0.8093
 6523SOL    HW231206   3.197   3.851  16.329  0.6043  0.2577 -0.4828
 6524SOL     OW31207   0.075   1.744   1.654 -0.0923  0.9184 -0.1458
 6524SOL    HW131208   0.154   1.759   1.602  0.6286  1.0826  1.0024
 6524SOL    HW231209   0.050   1.655   1.630 -1.1614  1.3203 -0.5317
 6525SOL     OW31210   2.743   1.292  14.315  0.6143 -0.2960  0.2418
 6525SOL    HW131211   2.755   1.351  14.390 -1.0011  0.8597 -0.3956
 6525SOL    HW231212   2.783   1.211  14.347  3.2337  1.6318  1.7895
 6526SOL     OW31213   2.312   0.374   8.579 -0.4975 -0.1212 -0.0349
 6526SOL    HW131214   2.286   0.425   8.656 -1.9410 -1.9489  0.6988
 6526SOL    HW231215   2.375   0.315   8.620  0.4093  1.0572  0.2602
 6527SOL     OW31216   4.598   3.258  17.411 -0.3591 -0.0439 -0.2436
 6527SOL    HW131217   4.571   3.184  17.357  1.2316 -0.7919  0.0058
 6527SOL    HW231218   4.669   3.295  17.359  0.2181  1.6298  1.7477
 6528SOL     OW31219   0.800   4.648   7.245  0.7442  0.4084  0.3308
 6528SOL    HW131220   0.722   4.639   7.300  0.3225 -0.6418 -0.4347
 6528SOL    HW231221   0.859   4.689   7.309 -0.5065  2.2243  0.2966
 6529SOL     OW31222   1.261   4.242   7.714 -0.1404  0.1125  0.3411
 6529SOL    HW131223   1.313   4.261   7.792  1.4461  2.6415 -1.3194
 6529SOL    HW231224   1.178   4.283   7.738  0.0509 -0.4180  1.8783
 6530SOL     OW31225   1.778   0.838  15.089  0.1507  0.6474  0.8948
 6530SOL    HW131226   1.853   0.814  15.144  0.1127  1.5283  1.3296
 6530SOL    HW231227   1.835   0.874  15.021  0.7844 -1.5546  0.2384
 6531SOL     OW31228   1.221   2.773   6.453  0.2571  0.2136  0.8594
 6531SOL    HW131229   1.294   2.832   6.434  0.4827 -0.0606  0.8771
 6531SOL    HW231230   1.199   2.786   6.545 -1.0887 -0.2002  0.5959
 6532SOL     OW31231   2.437   1.612   3.268 -0.0032  0.1981  0.2961
 6532SOL    HW131232   2.519   1.565   3.257 -1.3356 -2.0978  0.0115
 6532SOL    HW231233   2.383   1.535   3.288  0.4681 -1.3321 -4.2602
 6533SOL     OW31234   0.204   0.916   2.807 -0.0065 -0.2606  0.2499
 6533SOL    HW131235   0.150   0.841   2.782  0.6807  0.0323 -2.1264
 6533SOL    HW231236   0.281   0.903   2.752 -0.5373 -0.4211 -0.4564
 6534SOL     OW31237   0.301   2.266  12.595  0.2584  0.0021 -0.5240
 6534SOL    HW131238   0.246   2.312  12.658  0.8579 -1.6402  1.1882
 6534SOL    HW231239   0.242   2.225  12.532  1.0920 -0.2998 -1.1223
 6535SOL     OW31240   1.771   2.935  11.104 -0.3206  0.5212  0.0432
 6535SOL    HW131241   1.859   2.926  11.067  0.6449 -1.7934  2.8197
 6535SOL    HW231242   1.756   2.847  11.138 -1.6903  1.2961  1.4500
 6536SOL     OW31243   2.172   0.197   3.178 -0.6475 -0.6439  0.0978
 6536SOL    HW131244   2.257   0.235   3.199 -1.3298  0.4384  0.9321
 6536SOL    HW231245   2.188   0.174   3.087 -2.3081  0.4325 -0.4742
 6537SOL     OW31246   2.697   1.834   0.254  1.1137  0.2652 -0.4798
 6537SOL    HW131247   2.722   1.917   0.213  2.0539  0.2850  0.1421
 6537SOL    HW231248   2.780   1.799   0.284  1.0035 -0.4356 -0.9855
 6538SOL     OW31249   0.960   1.456   5.506 -0.0660  0.2482 -0.3218
 6538SOL    HW131250   1.047   1.432   5.536  0.3270  0.2560 -1.4692
 6538SOL    HW231251   0.933   1.517   5.574 -0.3232  0.4564 -0.6067
 6539SOL     OW31252   0.478   0.763  10.566 -0.2546  0.0729 -0.3358
 6539SOL    HW131253   0.410   0.709  10.527  0.1046 -0.0718 -0.7600
 6539SOL    HW231254   0.535   0.698  10.606 -0.9422  0.5117  1.3627
 6540SOL     OW31255   0.117   2.744   6.840 -0.0779  0.4471 -0.1101
 6540SOL    HW131256   0.180   2.673   6.831 -2.4759 -1.5400 -0.9955
 6540SOL    HW231257   0.075   2.715   6.921  0.1191  0.3008 -0.0607
 6541SOL     OW31258   0.607   2.147   7.429 -0.8932 -0.0098  0.2612
 6541SOL    HW131259   0.564   2.127   7.512  0.0643 -2.2276  0.2189
 6541SOL    HW231260   0.568   2.081   7.372  1.8201  0.6650 -2.3917
 6542SOL     OW31261   1.789   4.691   4.532  0.3359  0.2793 -0.1709
 6542SOL    HW131262   1.721   0.004   4.575 -0.6355  0.1043 -1.4963
 6542SOL    HW231263   1.772   4.719   4.443  1.0238 -1.2844 -0.7986
 6543SOL     OW31264   1.687   4.658   7.598 -0.3554 -0.0609 -0.3882
 6543SOL    HW131265   1.624   4.657   7.670 -2.2085 -1.2132 -2.0361
 6543SOL    HW231266   1.660   4.580   7.548 -1.5535  0.3059 -0.3077
 6544SOL     OW31267   2.574   2.001  11.364 -0.2326  0.3697  0.3475
 6544SOL    HW131268   2.540   1.952  11.438 -1.1143 -0.9006 -0.9069
 6544SOL    HW231269   2.662   2.033  11.387 -0.0564 -0.6292  1.0288
 6545SOL     OW31270   1.608   1.029   4.601 -0.1698 -0.1061 -0.4471
 6545SOL    HW131271   1.615   1.124   4.606 -1.0579 -0.0496 -0.1775
 6545SOL    HW231272   1.641   1.013   4.513 -2.0524  0.6147 -1.2955
 6546SOL     OW31273   2.625   3.607   5.221  0.3898  0.4082 -0.1984
 6546SOL    HW131274   2.595   3.673   5.159  0.2343  0.5569  0.0327
 6546SOL    HW231275   2.576   3.527   5.206  1.9274 -0.0637 -2.7340
 6547SOL     OW31276   4.058   3.076   3.770 -0.6479 -0.0295  1.0618
 6547SOL    HW131277   3.971   3.111   3.788 -0.7196 -0.3585  1.3516
 6547SOL    HW231278   4.111   3.129   3.830  2.2164 -0.9387 -0.6653
 6548SOL     OW31279   2.744   3.805   7.059  0.4578 -1.0557  0.1319
 6548SOL    HW131280   2.726   3.797   7.153 -0.4570  1.4128  0.1696
 6548SOL    HW231281   2.756   3.898   7.041  3.0972 -1.5554 -0.6854
 6549SOL     OW31282   1.189   4.492   6.126 -0.0559 -0.5257 -0.0889
 6549SOL    HW131283   1.250   4.444   6.071 -0.5398 -0.4227 -0.7115
 6549SOL    HW231284   1.236   4.478   6.208 -0.4654 -0.2935  0.1880
 6550SOL     OW31285   0.647   4.253   2.344 -0.0163  0.2587 -0.8516
 6550SOL    HW131286   0.660   4.225   2.434  0.8733 -2.2393 -1.7562
 6550SOL    HW231287   0.552   4.246   2.335 -0.2666  1.4424  0.9273
 6551SOL     OW31288   4.314   3.839   3.907  0.0201 -0.6627 -0.2289
 6551SOL    HW131289   4.292   3.870   3.819 -0.3491 -1.2878 -0.3603
 6551SOL    HW231290   4.238   3.879   3.950  0.1817 -1.1783  0.5400
 6552SOL     OW31291   1.697   0.083   1.721  0.1682 -0.5422  0.3623
 6552SOL    HW131292   1.604   0.071   1.703 -0.0628 -0.0645  1.2323
 6552SOL    HW231293   1.735   0.000   1.693  0.4295 -0.6633  1.0840
 6553SOL     OW31294   1.525   0.702  16.284 -0.3958 -0.3046  0.0693
 6553SOL    HW131295   1.559   0.782  16.325  4.0340 -2.2323  0.2137
 6553SOL    HW231296   1.484   0.655  16.356  1.0131 -0.5603  0.7128
 6554SOL     OW31297   1.803   2.118   2.955  0.0614 -0.0034  0.6020
 6554SOL    HW131298   1.712   2.092   2.969  1.3109 -3.3145  2.4883
 6554SOL    HW231299   1.819   2.197   3.007  3.1863  0.7722 -1.5067
 6555SOL     OW31300   2.606   0.374  14.681  0.0585 -0.5733  0.4655
 6555SOL    HW131301   2.637   0.295  14.724 -2.2238 -0.8965  1.5493
 6555SOL    HW231302   2.566   0.415  14.758  0.8225  1.1019 -0.0343
 6556SOL     OW31303   0.600   0.625   5.445  0.0026 -0.3783  0.5765
 6556SOL    HW131304   0.509   0.637   5.418 -0.0695  2.5238  2.1266
 6556SOL    HW231305   0.588   0.532   5.463 -0.8205 -0.1488  1.2624
 6557SOL     OW31306   3.380   1.169   3.121  0.1073 -0.5152  0.6386
 6557SOL    HW131307   3.303   1.139   3.169 -1.0214 -0.0089 -0.8810
 6557SOL    HW231308   3.397   1.083   3.081 -1.2418  0.0450 -1.1467
 6558SOL     OW31309   1.948   4.630  16.445  0.1405 -0.0384  0.4202
 6558SOL    HW131310   1.936   4.541  16.479  0.7418 -0.1783  0.2743
 6558SOL    HW231311   1.867   4.678  16.462 -1.5548 -2.7142 -0.0790
 6559SOL     OW31312   1.219   2.663   2.686 -0.0288 -0.1450  0.0527
 6559SOL    HW131313   1.249   2.614   2.609 -1.2386 -0.5679 -0.1541
 6559SOL    HW231314   1.131   2.683   2.655  0.3006  1.2247  0.0004
 6560SOL     OW31315   0.786   1.191   7.176  0.0089  0.0642  0.5564
 6560SOL    HW131316   0.811   1.154   7.092  0.4094  1.5452  0.0238
 6560SOL    HW231317   0.867   1.205   7.225 -1.5617  0.4422  3.0306
 6561SOL     OW31318   3.361   0.248  10.130 -0.0056 -0.3922 -0.4768
 6561SOL    HW131319   3.354   0.196  10.050  1.4081 -1.3898  0.0314
 6561SOL    HW231320   3.322   0.181  10.187  0.5126  0.2027  0.5665
 6562SOL     OW31321   0.283   3.298   7.354 -0.0779  0.0051  0.6981
 6562SOL    HW131322   0.220   3.370   7.346 -0.1868 -0.1654  0.0181
 6562SOL    HW231323   0.350   3.344   7.404 -0.5192 -0.2783  1.5597
 6563SOL     OW31324   2.099   1.544   4.134 -0.8225  0.6742 -0.5261
 6563SOL    HW131325   2.131   1.494   4.059  0.1452 -0.7444  0.8189
 6563SOL    HW231326   2.178   1.539   4.188  0.0291 -0.4126 -1.8577
 6564SOL     OW31327   1.082   4.292   3.923 -0.0243 -0.5298  0.0817
 6564SOL    HW131328   1.157   4.276   3.980 -0.5616 -2.5785  0.2161
 6564SOL    HW231329   1.094   4.387   3.921 -2.0354 -0.3495 -3.8461
 6565SOL     OW31330   2.160   3.757  11.262 -0.0476 -0.5383 -0.3935
 6565SOL    HW131331   2.096   3.691  11.238 -1.0960 -0.1295  1.2789
 6565SOL    HW231332   2.138   3.823  11.196  0.6979  0.7434  0.6409
 6566SOL     OW31333   0.147   1.648  13.785 -0.3927 -0.2836  0.2681
 6566SOL    HW131334   0.113   1.641  13.874  0.0162  2.4013  0.6356
 6566SOL    HW231335   0.132   1.742  13.780 -1.7526 -0.4533  1.2092
 6567SOL     OW31336   4.465   1.745   9.208  0.0598  0.7633 -0.1211
 6567SOL    HW131337   4.522   1.700   9.146 -1.6093 -0.4727 -0.7508
 6567SOL    HW231338   4.406   1.789   9.147 -0.6232 -1.5106 -1.0943
 6568SOL     OW31339   2.166   3.434   4.852 -0.0814  0.1307 -0.2220
 6568SOL    HW131340   2.124   3.465   4.933 -2.0493  0.5401 -1.3866
 6568SOL    HW231341   2.098   3.458   4.789 -0.0698  0.3787 -0.1417
 6569SOL     OW31342   4.464   2.244   2.417  0.1293 -0.0451  0.5242
 6569SOL    HW131343   4.534   2.279   2.361 -1.2905  3.0093  0.6909
 6569SOL    HW231344   4.385   2.288   2.386 -0.5921  0.7959  3.6476
 6570SOL     OW31345   3.851   3.150   0.428 -0.6528 -0.6262 -0.4598
 6570SOL    HW131346   3.887   3.149   0.339 -0.2518 -0.3471 -0.2986
 6570SOL    HW231347   3.933   3.132   0.474 -2.0760  0.0902  2.3151
 6571SOL     OW31348   2.805   0.912   6.765  0.6512  0.2045  0.0844
 6571SOL    HW131349   2.778   0.820   6.764 -0.4572  0.5208  0.7270
 6571SOL    HW231350   2.863   0.915   6.842 -1.5024 -2.2858  1.7956
 6572SOL     OW31351   2.779   3.544   1.814  0.2685  0.0958  0.6845
 6572SOL    HW131352   2.737   3.623   1.849 -1.1240 -0.5111  0.4097
 6572SOL    HW231353   2.864   3.551   1.858  0.9794  2.3635 -1.1033
 6573SOL     OW31354   3.462   3.132   2.881  0.0370  0.2273  0.4816
 6573SOL    HW131355   3.523   3.170   2.819  0.3887 -0.8905  0.1483
 6573SOL    HW231356   3.434   3.054   2.832 -2.1037 -0.8211  3.3413
 6574SOL     OW31357   4.401   2.257   5.618 -0.1314  0.3696 -0.2183
 6574SOL    HW131358   4.441   2.328   5.569 -1.9918  0.1464 -2.0464
 6574SOL    HW231359   4.473   2.220   5.669 -0.4890  1.5318  1.1240
 6575SOL     OW31360   4.159   2.518   1.684 -0.4566 -0.1846 -0.6698
 6575SOL    HW131361   4.135   2.592   1.740  0.2763  0.6465 -1.4488
 6575SOL    HW231362   4.069   2.486   1.679 -0.7839  0.7152 -0.6061
 6576SOL     OW31363   2.790   3.901   9.000 -0.1356  0.0441  0.0632
 6576SOL    HW131364   2.723   3.873   9.062  2.1471  0.0023  2.5054
 6576SOL    HW231365   2.856   3.941   9.057  0.3476  0.7380 -0.9919
 6577SOL     OW31366   1.745   2.526   9.855  0.0221 -0.0833  0.1015
 6577SOL    HW131367   1.728   2.449   9.802  3.2392  0.6379 -1.9811
 6577SOL    HW231368   1.837   2.547   9.837  0.6289  0.9726  4.3626
 6578SOL     OW31369   2.800   0.612   5.659  0.3062 -0.1976  0.9036
 6578SOL    HW131370   2.757   0.579   5.580  0.8480  2.6149 -0.5766
 6578SOL    HW231371   2.726   0.655   5.703  0.6827 -0.0855  1.4247
 6579SOL     OW31372   1.831   3.154   7.994 -0.1862  0.2581  0.2968
 6579SOL    HW131373   1.883   3.120   8.067  0.4234  0.9657  0.1980
 6579SOL    HW231374   1.754   3.098   8.002  0.9590 -1.4281 -0.3952
 6580SOL     OW31375   3.247   3.632   3.137  0.5115 -0.4814  0.0645
 6580SOL    HW131376   3.193   3.698   3.093  0.4286  0.1409  1.1062
 6580SOL    HW231377   3.204   3.551   3.109  2.3746 -0.8078 -1.8917
 6581SOL     OW31378   2.555   2.067   2.857 -0.6646  0.7812 -0.1176
 6581SOL    HW131379   2.646   2.048   2.879 -1.3320 -1.7909  0.3259
 6581SOL    HW231380   2.556   2.159   2.885 -1.9400  1.1590 -1.3401
 6582SOL     OW31381   3.669   4.356   3.642 -0.1404 -0.5605  0.1630
 6582SOL    HW131382   3.601   4.370   3.575 -1.1850 -0.3897  1.2644
 6582SOL    HW231383   3.736   4.404   3.593  0.0295 -0.0229  0.9209
 6583SOL     OW31384   4.354   1.896  16.463  0.0491 -0.0710  0.1249
 6583SOL    HW131385   4.372   1.875  16.371  0.9577  0.7315  0.1157
 6583SOL    HW231386   4.308   1.817  16.490  0.6821  0.4090  2.5416
 6584SOL     OW31387   1.311   4.646   8.513  0.2792 -0.1341  0.1397
 6584SOL    HW131388   1.222   4.612   8.527  1.1250 -0.8471  3.5380
 6584SOL    HW231389   1.358   4.594   8.577  2.6243  1.4447 -0.3176
 6585SOL     OW31390   0.151   4.579   1.931 -0.2373 -0.2703  0.0963
 6585SOL    HW131391   0.071   4.544   1.969 -0.0019  0.7785  1.5637
 6585SOL    HW231392   0.185   4.606   2.017 -0.9341  0.1418  0.2380
 6586SOL     OW31393   0.887   2.225   7.169 -0.0824 -0.0265  0.0394
 6586SOL    HW131394   0.930   2.257   7.090  3.0996 -1.9316  0.9913
 6586SOL    HW231395   0.803   2.199   7.129 -0.1074 -1.4510  1.0169
 6587SOL     OW31396   3.042   3.086  15.891 -0.4414 -0.3995 -0.0005
 6587SOL    HW131397   3.074   3.140  15.819  2.1428 -2.4544 -0.3865
 6587SOL    HW231398   2.961   3.133  15.909 -1.5496 -2.2006 -0.2636
 6588SOL     OW31399   4.285   2.935   1.506 -0.1106 -0.1430 -0.0549
 6588SOL    HW131400   4.265   2.851   1.465  0.0519 -0.0390 -0.3528
 6588SOL    HW231401   4.321   2.986   1.433 -2.4843 -1.6773 -2.3223
 6589SOL     OW31402   1.411   3.344   7.626 -0.6319  0.2270  0.3185
 6589SOL    HW131403   1.461   3.333   7.545  0.3482 -0.0034  0.9589
 6589SOL    HW231404   1.473   3.374   7.693 -0.8506 -0.3817  0.7985
 6590SOL     OW31405   0.831   1.504   9.373 -0.3050  0.6040 -0.2487
 6590SOL    HW131406   0.795   1.510   9.285  2.5970  0.4814 -1.4512
 6590SOL    HW231407   0.787   1.428   9.411  0.9857  0.0566  0.1538
 6591SOL     OW31408   1.368   1.153   7.152  0.1691  0.3418  0.1127
 6591SOL    HW131409   1.450   1.118   7.188 -0.4090  0.8124  1.8796
 6591SOL    HW231410   1.408   1.222   7.098 -0.4991  1.1296  0.6327
 6592SOL     OW31411   2.372   0.693  11.328  0.6115  0.5768  0.2232
 6592SOL    HW131412   2.436   0.705  11.399  2.4148 -1.1634 -1.0970
 6592SOL    HW231413   2.383   0.775  11.280  0.8128  1.7259  2.2609
 6593SOL     OW31414   2.434   0.235   6.280 -0.6004 -0.3803  0.4870
 6593SOL    HW131415   2.431   0.189   6.364  1.3356 -1.0272  0.2161
 6593SOL    HW231416   2.344   0.266   6.267 -0.0549  0.4589 -1.2827
 6594SOL     OW31417   3.569   3.049  15.043  0.1278  0.3803  0.3024
 6594SOL    HW131418   3.580   2.965  15.087  0.4288  0.5643  0.5738
 6594SOL    HW231419   3.601   3.113  15.106  0.4559  0.8255 -0.3169
 6595SOL     OW31420   3.796   3.170   5.453 -0.2300  0.7974  0.6052
 6595SOL    HW131421   3.886   3.168   5.419  0.0729  1.9976  1.3233
 6595SOL    HW231422   3.818   3.102   5.516 -0.9923  1.5271  1.6556
 6596SOL     OW31423   3.920   3.273   6.758 -0.0540 -0.0044 -0.7533
 6596SOL    HW131424   4.002   3.283   6.711  0.3983  3.5742  0.7951
 6596SOL    HW231425   3.954   3.262   6.846  1.4398 -1.3782 -1.5129
 6597SOL     OW31426   4.533   4.397   8.016 -0.4078  0.2180 -0.2440
 6597SOL    HW131427   4.452   4.370   7.973 -1.6670  2.9296  0.5112
 6597SOL    HW231428   4.516   4.402   8.109 -1.6126 -1.9079 -0.3542
 6598SOL     OW31429   3.041   0.555   2.304 -0.1894  0.5991 -0.0905
 6598SOL    HW131430   2.981   0.607   2.251 -0.1643  0.6961 -0.0239
 6598SOL    HW231431   3.129   0.593   2.299 -0.3876  1.0087 -0.4842
 6599SOL     OW31432   4.720   0.570   1.072 -0.0452  0.8822 -0.4054
 6599SOL    HW131433   0.049   0.613   1.018 -0.8929  1.1410 -1.2585
 6599SOL    HW231434   4.639   0.601   1.031 -1.1764 -0.4822  0.8500
 6600SOL     OW31435   1.255   2.218  14.378 -0.2324  0.0930  0.1433
 6600SOL    HW131436   1.336   2.183  14.416 -1.8528 -0.9820  2.6050
 6600SOL    HW231437   1.201   2.139  14.375 -0.0103 -0.1001  1.1588
 6601SOL     OW31438   4.234   0.243   7.390 -0.1118 -0.0449 -0.6152
 6601SOL    HW131439   4.316   0.278   7.425 -1.2339  3.3527 -1.3467
 6601SOL    HW231440   4.173   0.276   7.456  0.2003  1.0921 -0.9027
 6602SOL     OW31441   3.007   0.642   7.394 -0.2439  0.3887  0.1644
 6602SOL    HW131442   3.030   0.590   7.471  1.0123 -0.3438 -0.7097
 6602SOL    HW231443   3.093   0.654   7.354 -0.6032 -0.4059 -0.8459
 6603SOL     OW31444   0.627   3.393   7.989 -0.5864 -0.3348 -0.1967
 6603SOL    HW131445   0.636   3.377   8.083  0.9237 -0.9429 -0.4432
 6603SOL    HW231446   0.699   3.339   7.957 -0.2626 -0.0078 -0.0145
 6604SOL     OW31447   3.987   4.538  11.573 -0.1118 -0.6523 -0.4416
 6604SOL    HW131448   4.067   4.583  11.545 -2.4955  3.0569 -1.2628
 6604SOL    HW231449   3.979   4.572  11.662  2.0860  1.0274 -0.8917
 6605SOL     OW31450   1.912   0.193   1.544  0.2342 -0.0082 -0.1424
 6605SOL    HW131451   1.841   0.165   1.602 -0.3390  0.7010 -0.5090
 6605SOL    HW231452   1.966   0.114   1.542  0.4695  0.1513 -0.1226
 6606SOL     OW31453   4.653   2.270   5.763  0.1237  0.2829 -0.1366
 6606SOL    HW131454   4.702   2.335   5.712 -1.8014 -0.2701 -2.7019
 6606SOL    HW231455   4.720   2.204   5.743 -1.2771 -1.3946  0.8376
 6607SOL     OW31456   3.180   2.059  12.113 -0.2160  0.2074 -0.1400
 6607SOL    HW131457   3.253   2.101  12.068  1.7409 -3.2141 -0.1325
 6607SOL    HW231458   3.126   2.031  12.039 -0.4561 -2.1933  0.9226
 6608SOL     OW31459   1.221   0.943   1.398  0.3235  0.1269 -0.0594
 6608SOL    HW131460   1.163   0.987   1.335 -0.0127 -2.2826 -1.4091
 6608SOL    HW231461   1.185   0.981   1.479  0.6464 -2.7989  1.4392
 6609SOL     OW31462   4.503   2.123   7.676  0.1558 -0.1190  0.1291
 6609SOL    HW131463   4.481   2.206   7.633  0.3819  0.0234  0.2957
 6609SOL    HW231464   4.418   2.083   7.693  0.1008  0.4621  1.1653
 6610SOL     OW31465   3.603   1.154  10.924  0.0649  0.0752 -0.3360
 6610SOL    HW131466   3.651   1.200  10.994 -1.0730  1.1372 -0.2576
 6610SOL    HW231467   3.618   1.194  10.838  0.4766  0.8072  0.0750
 6611SOL     OW31468   4.721   2.872   6.407  0.0053 -0.1781 -0.2815
 6611SOL    HW131469   0.049   2.898   6.471 -1.8498  5.7553 -0.6740
 6611SOL    HW231470   4.691   2.790   6.446  1.8024 -1.7179 -2.1831
 6612SOL     OW31471   3.899   1.943   1.924  0.0142  0.3350 -0.3166
 6612SOL    HW131472   3.834   1.990   1.976 -0.7890 -0.6823 -0.3853
 6612SOL    HW231473   3.840   1.915   1.853  0.2307 -2.2152  0.5071
 6613SOL     OW31474   0.499   1.439   5.549  0.1269 -0.0938 -0.8725
 6613SOL    HW131475   0.489   1.534   5.549 -1.9176 -0.3078 -0.3077
 6613SOL    HW231476   0.558   1.439   5.625  0.8975  0.0114 -1.4739
 6614SOL     OW31477   1.785   4.602   5.125  0.0219 -0.2560  0.3139
 6614SOL    HW131478   1.868   4.557   5.142 -0.5622 -0.1414  3.3011
 6614SOL    HW231479   1.809   4.688   5.159  2.1164 -0.9805  0.6811
 6615SOL     OW31480   0.961   3.014  14.589 -0.0360  0.3436 -0.3521
 6615SOL    HW131481   0.866   3.009  14.604 -0.3311  0.1252 -2.3240
 6615SOL    HW231482   0.971   2.958  14.512  0.2760  1.2212 -0.9418
 6616SOL     OW31483   1.414   0.516   2.267 -0.5731  0.3014  0.9300
 6616SOL    HW131484   1.370   0.432   2.280 -2.8383  1.4254  0.5723
 6616SOL    HW231485   1.360   0.580   2.313 -1.3396  0.2402  0.0991
 6617SOL     OW31486   0.306   0.091   7.858  0.1408 -0.8233  0.8073
 6617SOL    HW131487   0.240   0.053   7.916 -0.8976 -1.0618 -0.5463
 6617SOL    HW231488   0.381   0.094   7.918  0.1425 -1.2869  0.8284
 6618SOL     OW31489   0.737   2.326   5.927 -0.4288  0.6952  0.0070
 6618SOL    HW131490   0.772   2.329   6.017 -0.1424  0.8048 -0.1088
 6618SOL    HW231491   0.777   2.399   5.880  0.8938 -0.4047 -0.5479
 6619SOL     OW31492   1.041   3.291   4.856 -0.5327 -0.1329 -0.5991
 6619SOL    HW131493   1.127   3.322   4.884 -0.0282 -2.1180  0.0088
 6619SOL    HW231494   1.038   3.267   4.764 -0.5785 -1.9410 -0.1160
 6620SOL     OW31495   4.311   2.300   6.612 -0.2043  0.6169 -0.2950
 6620SOL    HW131496   4.292   2.215   6.573  1.3783 -0.1706  0.6778
 6620SOL    HW231497   4.244   2.350   6.564  0.4347  1.5843 -0.1721
 6621SOL     OW31498   0.920   0.130  13.345 -0.3121 -0.3175 -0.1143
 6621SOL    HW131499   0.832   0.097  13.327 -0.0673 -0.8937 -0.2343
 6621SOL    HW231500   0.979   0.072  13.298  2.3582  3.3035 -1.1987
 6622SOL     OW31501   0.530   3.428  11.717  0.3850  0.3058  0.0660
 6622SOL    HW131502   0.445   3.403  11.678  0.7974 -1.1243  0.0666
 6622SOL    HW231503   0.581   3.435  11.636  1.0114 -0.8807  0.3624
 6623SOL     OW31504   1.922   1.250   3.963  1.0522 -0.2585  0.0817
 6623SOL    HW131505   1.889   1.325   4.013  1.0565 -0.3869  0.2773
 6623SOL    HW231506   1.857   1.245   3.893  2.4704  0.8341 -1.2969
 6624SOL     OW31507   3.319   3.799   7.647  0.1541 -0.0767  0.2978
 6624SOL    HW131508   3.237   3.750   7.637  0.8243 -2.0427  4.5645
 6624SOL    HW231509   3.286   3.888   7.633  0.1966  0.1721  1.7339
 6625SOL     OW31510   4.011   4.206  11.314 -0.4741 -0.0917  0.5089
 6625SOL    HW131511   4.071   4.198  11.239 -1.6818  2.0520 -0.6698
 6625SOL    HW231512   4.067   4.204  11.392  0.5838 -0.5864 -0.2693
 6626SOL     OW31513   2.216   2.970   1.496  0.7229  0.0614  0.2396
 6626SOL    HW131514   2.162   3.048   1.504  1.1211  0.4597 -0.9204
 6626SOL    HW231515   2.224   2.965   1.400  0.0673  0.9455  0.1372
 6627SOL     OW31516   4.110   2.145   4.799  0.4901  0.0479 -0.3398
 6627SOL    HW131517   4.182   2.206   4.818  0.5349 -0.6304  1.5741
 6627SOL    HW231518   4.034   2.203   4.802  0.4674 -0.0510  0.8222
 6628SOL     OW31519   3.562   3.585   2.942  0.7414  0.8413  0.1974
 6628SOL    HW131520   3.599   3.598   3.029 -0.2609 -0.6994  0.8451
 6628SOL    HW231521   3.471   3.564   2.964  0.5588  0.0647 -1.3139
 6629SOL     OW31522   4.424   3.620   5.064 -0.5717 -0.3030 -0.0919
 6629SOL    HW131523   4.494   3.599   5.126 -1.4144 -0.0853  0.9290
 6629SOL    HW231524   4.360   3.659   5.124  1.4036  3.2044 -0.2378
 6630SOL     OW31525   3.285   3.891  14.248 -0.4081  0.0998 -0.0762
 6630SOL    HW131526   3.327   3.939  14.176 -0.0246 -2.0540 -1.2864
 6630SOL    HW231527   3.209   3.947  14.265  0.9119  1.7211  0.4236
 6631SOL     OW31528   1.566   4.223   2.293 -0.3364 -0.1880 -1.0515
 6631SOL    HW131529   1.498   4.163   2.321 -0.7503  1.3293  1.1575
 6631SOL    HW231530   1.519   4.271   2.224 -0.1155  1.1006 -0.3163
 6632SOL     OW31531   1.559   3.639  15.709 -0.6860  0.2939  0.1925
 6632SOL    HW131532   1.646   3.602  15.696 -0.5390  0.5618  0.4229
 6632SOL    HW231533   1.554   3.701  15.637  0.6777  0.8004  0.5480
 6633SOL     OW31534   2.564   3.432  15.373 -0.2999 -0.0930  0.0497
 6633SOL    HW131535   2.617   3.504  15.339 -0.4702  0.1639  0.3335
 6633SOL    HW231536   2.521   3.400  15.294  0.7018  1.3936 -1.0904
 6634SOL     OW31537   3.087   0.292   4.811 -0.3367  0.6696  0.6213
 6634SOL    HW131538   3.183   0.300   4.819 -0.4669  2.1286  0.7445
 6634SOL    HW231539   3.064   0.255   4.896 -0.9180 -3.2960 -1.2685
 6635SOL     OW31540   3.239   0.663   8.102  0.6646  0.0876  0.1115
 6635SOL    HW131541   3.171   0.663   8.168  0.3632  1.0849 -0.1901
 6635SOL    HW231542   3.207   0.741   8.056 -1.2365 -0.9057 -0.2101
 6636SOL     OW31543   3.501   2.090   5.067  0.6397 -0.4147 -0.9738
 6636SOL    HW131544   3.487   2.155   4.997 -0.7043 -1.6237 -1.8189
 6636SOL    HW231545   3.567   2.135   5.120  0.3728 -0.2341 -0.7953
 6637SOL     OW31546   3.340   3.486   4.473 -0.1865 -0.2873  0.1086
 6637SOL    HW131547   3.324   3.453   4.385 -1.4015 -2.1673  1.0384
 6637SOL    HW231548   3.296   3.572   4.471 -0.5556 -0.4722  0.2700
 6638SOL     OW31549   3.564   2.300   2.942 -0.0273  0.3311  0.3210
 6638SOL    HW131550   3.470   2.295   2.962  0.7765 -4.6393  2.9432
 6638SOL    HW231551   3.608   2.258   3.016  0.6917  1.6102  0.6040
 6639SOL     OW31552   4.594   1.097   8.121  0.3917 -0.0570  0.1728
 6639SOL    HW131553   4.684   1.120   8.095 -0.0438 -1.1432 -2.2215
 6639SOL    HW231554   4.548   1.090   8.038  1.5676  2.2181 -0.6926
 6640SOL     OW31555   2.077   2.209   4.812  0.6660 -0.0113  0.1947
 6640SOL    HW131556   2.104   2.162   4.891 -0.7686  1.9565  1.8533
 6640SOL    HW231557   2.001   2.258   4.844 -1.2987 -2.2107 -1.0679
 6641SOL     OW31558   1.758   1.000   7.018  0.4288  0.2645  0.4579
 6641SOL    HW131559   1.753   1.028   6.926  0.2922  1.4258  0.8237
 6641SOL    HW231560   1.849   0.970   7.019  0.1688 -0.5774 -1.5701
 6642SOL     OW31561   2.383   2.953  15.211  0.5589 -0.0743 -0.4125
 6642SOL    HW131562   2.355   2.869  15.174  0.7328  0.2325 -1.2327
 6642SOL    HW231563   2.379   3.009  15.134  1.0440 -1.2578 -1.3145
 6643SOL     OW31564   1.839   4.162   4.390 -0.1342 -0.1569 -0.2779
 6643SOL    HW131565   1.829   4.202   4.303 -1.0441 -1.5110 -0.8060
 6643SOL    HW231566   1.867   4.241   4.436  1.2146  0.7913 -2.6772
 6644SOL     OW31567   3.268   4.516   7.816  0.2772 -0.3738  0.1658
 6644SOL    HW131568   3.347   4.497   7.867  0.9183 -0.8496 -1.0146
 6644SOL    HW231569   3.222   4.583   7.867  1.2144  0.1844  0.2949
 6645SOL     OW31570   3.189   1.739  16.667  0.6368  0.4614  0.6521
 6645SOL    HW131571   3.177   1.655  16.623  1.2007  1.6898 -1.8653
 6645SOL    HW231572   3.251   1.713  16.736  0.9241  2.6221  1.2257
 6646SOL     OW31573   2.194   3.631   9.975 -0.1017  0.1417  0.1382
 6646SOL    HW131574   2.122   3.690   9.952 -1.3738 -1.4689  0.0066
 6646SOL    HW231575   2.181   3.619  10.069  1.4454 -1.5325  0.1344
 6647SOL     OW31576   0.308   3.336   3.300 -0.1082 -0.1323 -0.4535
 6647SOL    HW131577   0.384   3.394   3.312  0.7521 -1.4313  0.3621
 6647SOL    HW231578   0.289   3.309   3.390  2.4383  0.6943  0.3470
 6648SOL     OW31579   1.883   2.240   3.970  0.3509 -0.1322  0.2075
 6648SOL    HW131580   1.869   2.255   3.877 -0.6317 -2.4450 -0.0377
 6648SOL    HW231581   1.953   2.175   3.973  0.0155 -0.4857  0.4697
 6649SOL     OW31582   2.402   0.324   6.913 -0.1001 -0.6811 -0.4339
 6649SOL    HW131583   2.334   0.327   6.847 -0.9787  0.6360  0.5458
 6649SOL    HW231584   2.356   0.364   6.987  1.5062 -2.1256  1.3468
 6650SOL     OW31585   2.179   3.401   8.151  0.1234  0.3032  0.1060
 6650SOL    HW131586   2.086   3.411   8.170 -0.8166 -1.0382 -3.7926
 6650SOL    HW231587   2.197   3.359   8.235  1.4180  0.8454  0.1024
 6651SOL     OW31588   4.622   4.441   5.603  0.2663 -0.6789  0.4045
 6651SOL    HW131589   4.635   4.351   5.573 -0.4187 -0.2144 -1.3067
 6651SOL    HW231590   4.530   4.459   5.584 -0.1288 -1.6341  1.4475
 6652SOL     OW31591   1.111   4.707  12.954 -0.2544  0.4240 -0.0321
 6652SOL    HW131592   1.149   4.718  13.041  1.1219  0.4647 -0.6301
 6652SOL    HW231593   1.068   0.054  12.951 -1.0859 -0.0129 -0.4159
 6653SOL     OW31594   1.006   2.559   3.626  0.4011  0.6979  0.2581
 6653SOL    HW131595   0.953   2.616   3.682  1.9885  0.8283  1.6374
 6653SOL    HW231596   1.057   2.623   3.577  2.5363 -0.7663  0.6016
 6654SOL     OW31597   2.817   1.757   6.661 -0.1015 -0.4526 -0.1628
 6654SOL    HW131598   2.898   1.800   6.636 -0.4629  0.7577  0.7707
 6654SOL    HW231599   2.829   1.767   6.755  0.4287  2.7306 -0.5800
 6655SOL     OW31600   2.768   2.515   2.546  0.3395  0.2345 -0.0987
 6655SOL    HW131601   2.704   2.455   2.585  1.6293 -0.2214  1.3328
 6655SOL    HW231602   2.788   2.467   2.466  2.0437  0.4726  0.1793
 6656SOL     OW31603   0.574   0.004  16.448 -0.4797  0.7701 -0.4887
 6656SOL    HW131604   0.522   0.080  16.473 -1.9698 -0.0191 -1.1563
 6656SOL    HW231605   0.625   4.731  16.528 -1.2317 -0.3387 -0.1645
 6657SOL     OW31606   1.114   1.498   3.770  0.1922  0.4974 -0.7509
 6657SOL    HW131607   1.023   1.477   3.791  1.2418 -2.0782  1.1691
 6657SOL    HW231608   1.122   1.589   3.799  0.2019  0.3926 -0.4252
 6658SOL     OW31609   0.960   4.306   2.027 -0.4115 -0.3969  0.0014
 6658SOL    HW131610   1.004   4.244   2.086  0.0697  0.5504  0.6270
 6658SOL    HW231611   1.011   4.296   1.947  2.1297 -0.8339  1.6525
 6659SOL     OW31612   4.029   1.703   6.541  0.1229  0.2538 -0.4294
 6659SOL    HW131613   4.072   1.732   6.622  0.4232  0.1207 -0.5440
 6659SOL    HW231614   3.945   1.748   6.541 -0.1736 -0.2995  0.2844
 6660SOL     OW31615   3.811   1.311   4.233  0.2864  0.4829  0.3048
 6660SOL    HW131616   3.761   1.229   4.232  0.9710  0.0756 -0.4524
 6660SOL    HW231617   3.804   1.347   4.322  2.6212  2.4756 -0.3435
 6661SOL     OW31618   3.667   2.686   3.866 -0.0854 -0.0494 -0.1971
 6661SOL    HW131619   3.631   2.734   3.792  0.2133  2.5334  1.3412
 6661SOL    HW231620   3.615   2.727   3.935 -0.6665  0.0732 -0.7098
 6662SOL     OW31621   1.307   0.350   4.874  0.9587  0.3818 -0.4566
 6662SOL    HW131622   1.298   0.281   4.808  1.0697  0.3976 -0.4894
 6662SOL    HW231623   1.271   0.425   4.828  1.9425  1.1517  0.0098
 6663SOL     OW31624   2.837   1.389   3.674  0.6172  0.0359 -0.6599
 6663SOL    HW131625   2.845   1.367   3.767  0.0670 -1.8103 -1.0324
 6663SOL    HW231626   2.779   1.464   3.687  1.8223  0.7989  0.2771
 6664SOL     OW31627   2.048   4.602   0.775  0.4939  0.1689  0.2943
 6664SOL    HW131628   1.961   4.586   0.738  1.7933 -1.5462 -1.9876
 6664SOL    HW231629   2.072   4.684   0.731  2.2827 -1.0185 -0.9523
 6665SOL     OW31630   2.067   2.586   7.160 -0.4804  0.5928 -0.0707
 6665SOL    HW131631   2.020   2.509   7.127 -0.6168  1.0586 -0.9416
 6665SOL    HW231632   2.133   2.598   7.092 -0.1743 -2.1033 -0.2567
 6666SOL     OW31633   0.874   1.368  10.160 -0.1687 -1.0051 -0.9926
 6666SOL    HW131634   0.846   1.377  10.252 -0.3698 -3.1031 -0.8623
 6666SOL    HW231635   0.897   1.461  10.152  0.5603 -0.9536  1.5056
 6667SOL     OW31636   4.160   1.527   6.240  0.4737  0.4512 -0.1299
 6667SOL    HW131637   4.252   1.531   6.267 -0.0730  1.0043  1.6562
 6667SOL    HW231638   4.148   1.432   6.247 -1.8445  0.5211 -3.2749
 6668SOL     OW31639   2.464   2.296   3.242 -0.5007 -0.0990  0.3444
 6668SOL    HW131640   2.410   2.326   3.315 -2.1578  0.4719 -1.1137
 6668SOL    HW231641   2.430   2.335   3.161  1.4980 -0.6219 -0.7443
 6669SOL     OW31642   4.430   1.487   1.921  0.3317 -0.5855 -0.1777
 6669SOL    HW131643   4.334   1.487   1.927  0.1839  1.6653 -2.3334
 6669SOL    HW231644   4.428   1.464   1.829 -0.2044 -2.6674  0.3671
 6670SOL     OW31645   3.763   2.399   5.900  0.2902  0.3443  0.7375
 6670SOL    HW131646   3.840   2.405   5.844 -0.4831 -2.8388 -0.6918
 6670SOL    HW231647   3.719   2.326   5.855  2.2227  0.9099 -2.0578
 6671SOL     OW31648   1.132   0.410   1.706  1.0233  0.5032  0.0577
 6671SOL    HW131649   1.039   0.433   1.713  0.7247 -0.6482 -0.1080
 6671SOL    HW231650   1.170   0.428   1.792 -0.9530 -2.3432  1.5329
 6672SOL     OW31651   4.011   2.897  14.607  0.2949 -0.0932  0.1997
 6672SOL    HW131652   3.972   2.918  14.522 -0.7073 -2.5238  0.0676
 6672SOL    HW231653   4.079   2.836  14.578 -0.6929 -1.2066  0.2290
 6673SOL     OW31654   1.733   2.132   6.651  0.0983 -0.7587 -0.1201
 6673SOL    HW131655   1.674   2.202   6.622 -0.0666 -0.2734  1.4089
 6673SOL    HW231656   1.668   2.077   6.694 -0.0105 -1.1894 -0.8457
 6674SOL     OW31657   2.286   3.209   1.923  0.0186  0.0504  0.4505
 6674SOL    HW131658   2.213   3.160   1.884 -0.5945  1.6251 -0.3521
 6674SOL    HW231659   2.334   3.246   1.850 -2.0664 -0.5471 -1.2215
 6675SOL     OW31660   0.409   1.679  12.537 -0.0079  0.0018  0.1636
 6675SOL    HW131661   0.389   1.588  12.562 -2.3892  0.4088 -0.3089
 6675SOL    HW231662   0.463   1.702  12.612 -0.8032  1.3679  0.3075
 6676SOL     OW31663   1.923   3.400   1.118  0.2658 -0.4117 -0.0575
 6676SOL    HW131664   1.904   3.487   1.085 -1.2357 -0.4880  0.5737
 6676SOL    HW231665   1.847   3.350   1.088  0.5171  0.1056 -1.5282
 6677SOL     OW31666   0.540   4.090  10.324 -0.5147 -0.1899 -0.2126
 6677SOL    HW131667   0.458   4.134  10.347 -0.6492 -0.7778  0.4435
 6677SOL    HW231668   0.605   4.153  10.354 -1.7725  0.4020  1.2792
 6678SOL     OW31669   4.519   4.141  15.141  0.1662  0.3760  0.1896
 6678SOL    HW131670   4.436   4.094  15.134  0.9451 -0.9773  0.0155
 6678SOL    HW231671   4.514   4.168  15.233 -0.7880 -0.4252  0.3710
 6679SOL     OW31672   4.088   1.035  10.274 -0.1013 -0.0224 -0.5352
 6679SOL    HW131673   4.002   1.045  10.314 -0.5098 -0.5821 -1.2748
 6679SOL    HW231674   4.058   1.030  10.184 -1.3840  1.6395 -0.2039
 6680SOL     OW31675   0.160   3.301  16.116 -0.2870  0.4644  0.0199
 6680SOL    HW131676   0.237   3.266  16.071 -0.4446  1.5871 -1.0984
 6680SOL    HW231677   0.186   3.300  16.208 -3.8568 -0.1236  1.0383
 6681SOL     OW31678   1.762   4.199   2.752 -0.0261 -0.0659 -0.0682
 6681SOL    HW131679   1.729   4.283   2.785  1.9229  0.8354 -0.4197
 6681SOL    HW231680   1.715   4.133   2.803  1.4411 -1.3050 -0.3284
 6682SOL     OW31681   3.250   2.635  16.543 -0.8690  0.4475  0.0142
 6682SOL    HW131682   3.252   2.540  16.554 -1.4805  0.6150  1.6238
 6682SOL    HW231683   3.287   2.671  16.624 -0.3698  0.2967 -0.1487
 6683SOL     OW31684   3.245   3.111   4.117 -0.7276 -1.1108 -0.0527
 6683SOL    HW131685   3.219   3.178   4.053  2.0200  1.0986  1.1326
 6683SOL    HW231686   3.217   3.028   4.079 -0.5014 -2.3303  2.4998
 6684SOL     OW31687   2.584   3.678   8.766 -0.1878  0.1876  0.5950
 6684SOL    HW131688   2.544   3.593   8.789 -0.1724  0.3673  1.2983
 6684SOL    HW231689   2.514   3.740   8.784 -0.1479  0.5160 -0.4248
 6685SOL     OW31690   3.532   0.972   0.904  0.4379  0.6354  0.1488
 6685SOL    HW131691   3.571   0.890   0.874  2.3598  1.6605 -0.1878
 6685SOL    HW231692   3.512   1.016   0.821 -1.9322  3.6543  2.3194
 6686SOL     OW31693   3.792   1.165  13.057 -0.6112 -0.1811  0.3844
 6686SOL    HW131694   3.705   1.141  13.026 -1.0030  0.2299  1.1661
 6686SOL    HW231695   3.773   1.249  13.099  0.6572  0.5854 -0.5789
 6687SOL     OW31696   0.538   4.020   8.555 -0.3938 -0.4217  0.0663
 6687SOL    HW131697   0.561   3.956   8.488  1.2246 -3.0825  3.1112
 6687SOL    HW231698   0.453   4.055   8.529 -0.1937  1.8779  2.4797
 6688SOL     OW31699   2.927   3.720   3.338  0.0282  0.6468 -0.1321
 6688SOL    HW131700   2.933   3.680   3.252 -1.0116 -0.8104  0.4695
 6688SOL    HW231701   2.836   3.752   3.342 -0.3841 -0.5161 -0.2378
 6689SOL     OW31702   1.365   0.152   9.260 -0.0167 -0.2557 -0.3781
 6689SOL    HW131703   1.422   0.094   9.209  1.5020 -0.1616  1.2007
 6689SOL    HW231704   1.305   0.086   9.295  0.9249 -1.2282 -0.5956
 6690SOL     OW31705   0.961   2.130   5.762  0.2773 -0.1037  0.4685
 6690SOL    HW131706   1.055   2.133   5.779  0.0975  1.8836  1.1653
 6690SOL    HW231707   0.941   2.218   5.794 -0.2484  0.4406 -1.3197
 6691SOL     OW31708   1.456   2.091   5.962 -0.1077 -0.0835 -0.3625
 6691SOL    HW131709   1.392   2.099   6.034  1.1854  1.1401  0.6448
 6691SOL    HW231710   1.527   2.143   5.999  0.1551 -0.2491 -0.6309
 6692SOL     OW31711   1.118   4.275   1.071  0.5410  0.3896 -0.2022
 6692SOL    HW131712   1.126   4.355   1.123 -1.3189  1.1189 -1.0648
 6692SOL    HW231713   1.037   4.240   1.107 -0.1632  2.3240  0.0997
 6693SOL     OW31714   0.909   0.854   8.998 -0.1054  0.0908 -0.2049
 6693SOL    HW131715   0.819   0.880   8.981 -0.9449 -2.6775 -0.0865
 6693SOL    HW231716   0.904   0.783   9.062  3.7125 -0.9477 -1.0273
 6694SOL     OW31717   1.104   0.018   5.480  0.2476 -0.3721  0.5010
 6694SOL    HW131718   1.074   4.727   5.566  1.7150 -1.5438  0.6071
 6694SOL    HW231719   1.087   0.112   5.489 -0.8122 -0.4599 -0.6931
 6695SOL     OW31720   1.030   0.202   3.747  0.2507 -0.0523 -0.1109
 6695SOL    HW131721   1.079   0.271   3.792  0.6471 -1.2574  1.3119
 6695SOL    HW231722   0.995   0.245   3.669 -1.1378 -0.1177  0.4845
 6696SOL     OW31723   3.992   2.403   0.788 -0.4691  0.6100 -0.4942
 6696SOL    HW131724   4.049   2.344   0.836 -1.9534 -1.7347 -1.6373
 6696SOL    HW231725   3.951   2.341   0.728  2.6495 -2.9679  1.1207
 6697SOL     OW31726   4.251   3.322   4.418 -0.1933  0.2157 -0.3709
 6697SOL    HW131727   4.281   3.238   4.452  0.2798 -0.2788 -2.0251
 6697SOL    HW231728   4.291   3.313   4.332 -0.6833  0.6298 -0.6449
 6698SOL     OW31729   0.294   3.785  12.068 -0.5135  0.2110 -0.1653
 6698SOL    HW131730   0.288   3.837  11.988  1.1972  0.3656 -0.1941
 6698SOL    HW231731   0.382   3.752  12.054 -0.7138  0.0142 -0.9392
 6699SOL     OW31732   1.409   1.408   4.968 -0.1289  0.0074 -0.1272
 6699SOL    HW131733   1.458   1.330   4.991 -0.5496 -0.8001 -1.9134
 6699SOL    HW231734   1.323   1.388   5.007  0.7412 -0.6722  1.4155
 6700SOL     OW31735   3.634   3.788   6.593  0.9509  0.8167  0.4127
 6700SOL    HW131736   3.615   3.746   6.509 -0.6918  1.6217  0.3652
 6700SOL    HW231737   3.689   3.719   6.631  1.0158  0.0744 -1.0110
 6701SOL     OW31738   1.295   2.534   6.645 -0.0699  0.3025 -0.6647
 6701SOL    HW131739   1.256   2.512   6.561 -2.3498 -0.3647  0.5692
 6701SOL    HW231740   1.293   2.443   6.673  0.0074 -0.1016 -1.9971
 6702SOL     OW31741   0.704   0.742   3.077 -0.1377 -0.4950 -0.2239
 6702SOL    HW131742   0.731   0.750   2.986  0.2010 -0.5132 -0.1273
 6702SOL    HW231743   0.795   0.734   3.106  0.3947  2.0591 -1.1976
 6703SOL     OW31744   4.736   1.528   2.343  0.7146  0.2786  0.5101
 6703SOL    HW131745   0.057   1.599   2.367  2.1080 -0.5649 -0.5023
 6703SOL    HW231746   0.065   1.486   2.290 -1.2255 -1.9649 -0.1836
 6704SOL     OW31747   4.214   1.461   2.649 -0.2405  0.2729 -0.3453
 6704SOL    HW131748   4.259   1.514   2.714  1.5186  2.2468 -3.1417
 6704SOL    HW231749   4.214   1.368   2.671  0.1988  0.7561  1.6429
 6705SOL     OW31750   1.400   2.316   9.254  0.1190  0.2034 -0.3287
 6705SOL    HW131751   1.324   2.269   9.289  0.5414 -1.3484 -1.5105
 6705SOL    HW231752   1.356   2.378   9.196  1.1613  1.7167  0.5303
 6706SOL     OW31753   3.716   2.859   4.187 -0.7026  0.1096 -0.0348
 6706SOL    HW131754   3.713   2.796   4.260 -0.7635  0.7370  0.5068
 6706SOL    HW231755   3.811   2.860   4.174 -0.5600  2.1982  1.2746
 6707SOL     OW31756   0.725   3.182   6.393 -0.1539 -0.1168  0.0366
 6707SOL    HW131757   0.819   3.181   6.376 -0.3034 -2.3012 -0.6631
 6707SOL    HW231758   0.714   3.242   6.467 -0.9736 -0.9028  0.5449
 6708SOL     OW31759   3.470   0.534   9.118  0.2966  0.0088  0.0151
 6708SOL    HW131760   3.544   0.596   9.123 -0.2352  0.7028 -0.7260
 6708SOL    HW231761   3.389   0.585   9.123  0.0689 -0.4482  0.9088
 6709SOL     OW31762   0.935   3.806   5.951 -0.2320 -0.1057 -0.3243
 6709SOL    HW131763   1.013   3.825   6.004 -1.1697 -1.0819  1.4283
 6709SOL    HW231764   0.950   3.720   5.911  0.2384  0.7541 -1.9771
 6710SOL     OW31765   1.380   0.936   5.527 -0.1110 -0.1486  0.2871
 6710SOL    HW131766   1.402   0.949   5.435 -0.5970  1.1596  0.3561
 6710SOL    HW231767   1.286   0.919   5.523 -0.1275  0.0083  0.0157
 6711SOL     OW31768   4.731   3.254   7.483  0.2267  0.1540 -0.4282
 6711SOL    HW131769   0.040   3.337   7.470  1.5792 -0.5136  0.2199
 6711SOL    HW231770   0.048   3.206   7.544 -1.5314 -1.2425  0.0724
 6712SOL     OW31771   1.342   3.568  12.861  0.0373 -0.1548  0.2060
 6712SOL    HW131772   1.283   3.495  12.841  0.6260 -0.4316 -0.5036
 6712SOL    HW231773   1.335   3.624  12.783  1.5172  0.8000  0.7582
 6713SOL     OW31774   0.601   3.420   9.024  0.2092  0.4907 -0.1504
 6713SOL    HW131775   0.659   3.377   9.086  0.5767  1.2998  0.0545
 6713SOL    HW231776   0.581   3.344   8.968 -0.9466  0.5231  0.2141
 6714SOL     OW31777   4.507   1.710   5.416 -0.0448  0.4535  0.5994
 6714SOL    HW131778   4.511   1.709   5.321 -0.8413 -1.4233  0.5809
 6714SOL    HW231779   4.600   1.728   5.431  0.2576 -1.3247  0.9013
 6715SOL     OW31780   2.358   1.801   9.358 -0.3984 -0.0757  0.3949
 6715SOL    HW131781   2.263   1.785   9.357 -0.0423 -1.9985 -2.6257
 6715SOL    HW231782   2.397   1.714   9.347 -2.3224 -0.8895 -0.0520
 6716SOL     OW31783   1.183   4.631   4.323 -0.0467  0.4197 -0.5725
 6716SOL    HW131784   1.135   4.659   4.401 -0.8349 -0.2746 -0.8049
 6716SOL    HW231785   1.133   4.646   4.242  0.1668 -0.8391 -0.9450
 6717SOL     OW31786   1.281   0.576  17.322  0.4469 -0.2660  0.1256
 6717SOL    HW131787   1.255   0.600  17.233 -0.5602 -1.1179  0.1834
 6717SOL    HW231788   1.347   0.506  17.318 -0.1647 -0.8514  0.2152
 6718SOL     OW31789   4.685   0.266   6.641  0.1088 -0.2552 -0.2123
 6718SOL    HW131790   4.730   0.333   6.692  0.0263  0.7851 -1.5313
 6718SOL    HW231791   0.027   0.216   6.629  0.8024  1.4415 -2.4071
 6719SOL     OW31792   0.057   0.888  15.079 -0.2815 -0.2812 -0.0187
 6719SOL    HW131793   0.065   0.973  15.122 -0.1995  0.5062 -1.6051
 6719SOL    HW231794   4.727   0.851  15.134 -0.7437  0.1839 -0.2886
 6720SOL     OW31795   3.238   2.437   6.583 -0.4178 -0.2969  0.1223
 6720SOL    HW131796   3.230   2.532   6.594  1.6197 -0.0672 -0.3557
 6720SOL    HW231797   3.219   2.424   6.490 -0.9281  0.6280  0.0997
 6721SOL     OW31798   0.402   3.634   4.079 -0.3570  0.0971  0.0136
 6721SOL    HW131799   0.357   3.707   4.122 -0.3647 -0.2025  0.5151
 6721SOL    HW231800   0.434   3.672   3.998  0.4527  0.5116  0.5311
 6722SOL     OW31801   1.526   0.127   4.394 -0.3586  0.4618 -0.1971
 6722SOL    HW131802   1.616   0.104   4.373 -1.1002 -0.0241 -2.9023
 6722SOL    HW231803   1.487   0.141   4.307  0.0773  0.5617 -0.3766
 6723SOL     OW31804   1.776   3.224   5.242 -0.5081 -0.3291 -0.3124
 6723SOL    HW131805   1.783   3.304   5.189 -0.8124 -0.3263 -0.3499
 6723SOL    HW231806   1.769   3.264   5.329 -1.1054  0.5316 -0.7497
 6724SOL     OW31807   3.458   0.787   8.351 -1.1274 -0.1348 -0.5444
 6724SOL    HW131808   3.483   0.832   8.431 -2.0659 -1.0683  0.2727
 6724SOL    HW231809   3.386   0.844   8.326 -1.1906  0.1827  0.3493
 6725SOL     OW31810   1.100   1.170   4.271  0.0788 -0.2142  0.1031
 6725SOL    HW131811   1.189   1.135   4.267  0.8853  1.7212  1.6358
 6725SOL    HW231812   1.051   1.091   4.295 -0.1462  0.0559  0.5329
 6726SOL     OW31813   0.929   2.551   5.303 -0.2784 -0.3241  0.4783
 6726SOL    HW131814   0.847   2.511   5.273  0.3499 -2.4489  1.5286
 6726SOL    HW231815   0.986   2.498   5.248  0.0515  0.8417 -0.2844
 6727SOL     OW31816   3.686   0.624   0.437  0.2257  0.0139 -0.0743
 6727SOL    HW131817   3.634   0.578   0.371  0.4710 -1.2197  0.6095
 6727SOL    HW231818   3.650   0.582   0.515 -2.0366 -0.2155 -1.2487
 6728SOL     OW31819   1.881   2.588   2.841 -0.3908  0.0054 -0.5582
 6728SOL    HW131820   1.836   2.591   2.757 -0.9263 -1.0014 -0.2964
 6728SOL    HW231821   1.808   2.610   2.900  0.0303 -2.0828  0.7273
 6729SOL     OW31822   0.405   0.103   7.594 -0.3162  0.3659  0.0473
 6729SOL    HW131823   0.371   0.069   7.677 -2.5779  1.4919 -0.4049
 6729SOL    HW231824   0.326   0.126   7.545  0.1133 -0.3245 -0.9627
 6730SOL     OW31825   3.665   3.798  10.436 -0.0977  0.6521 -0.3452
 6730SOL    HW131826   3.623   3.760  10.513  1.4982 -1.9719 -0.7613
 6730SOL    HW231827   3.603   3.864  10.407  0.0281  1.0574  0.3318
 6731SOL     OW31828   3.025   4.270   9.060 -0.3203 -0.3540 -0.3457
 6731SOL    HW131829   2.993   4.300   8.976  1.3373  1.8388 -0.1960
 6731SOL    HW231830   2.941   4.238   9.093 -1.2207  1.5136 -0.7921
 6732SOL     OW31831   1.578   1.520   2.086  0.8134  0.3834  0.1958
 6732SOL    HW131832   1.578   1.592   2.022 -0.1675  0.2923  0.0943
 6732SOL    HW231833   1.638   1.458   2.044  0.3484 -0.2196  0.4237
 6733SOL     OW31834   4.678   3.228   5.064  0.0658  0.3482 -0.7067
 6733SOL    HW131835   4.628   3.177   5.128  1.0373 -0.9421 -0.9839
 6733SOL    HW231836   4.605   3.270   5.019 -0.4847  1.3669  1.1183
 6734SOL     OW31837   4.333   4.254   7.651 -0.1627 -0.5829  0.1632
 6734SOL    HW131838   4.352   4.290   7.565  0.6725 -1.3644  0.0237
 6734SOL    HW231839   4.411   4.207   7.681  1.7276  2.1019 -0.4541
 6735SOL     OW31840   3.834   0.127   7.178  0.0421 -0.5478  0.4135
 6735SOL    HW131841   3.859   0.047   7.132  1.2737  1.7000 -2.8274
 6735SOL    HW231842   3.893   0.113   7.252  0.7279  0.6507  0.0882
 6736SOL     OW31843   4.699   1.872   9.346  0.2819 -0.0789 -0.2737
 6736SOL    HW131844   4.680   1.935   9.415  2.1987 -0.1421  0.2840
 6736SOL    HW231845   4.623   1.813   9.351  0.3043 -0.1238 -0.4581
 6737SOL     OW31846   0.575   3.914   4.539 -0.0437  0.6051 -0.3184
 6737SOL    HW131847   0.664   3.885   4.517 -0.1649 -1.4699  1.8188
 6737SOL    HW231848   0.526   3.833   4.521  0.2831  0.4831 -0.6682
 6738SOL     OW31849   2.602   3.575  12.357  0.0402 -0.9212 -0.2290
 6738SOL    HW131850   2.581   3.623  12.277 -1.7310  1.4660  1.6461
 6738SOL    HW231851   2.544   3.605  12.427 -1.1640 -2.2832 -0.6435
 6739SOL     OW31852   3.501   0.482   7.236 -0.0385  0.0366  0.0722
 6739SOL    HW131853   3.577   0.521   7.193  0.0790 -0.6921 -0.3910
 6739SOL    HW231854   3.540   0.400   7.264  0.9264  0.6399  0.4801
 6740SOL     OW31855   3.327   1.100   9.313  0.1838  0.3342  0.3342
 6740SOL    HW131856   3.269   1.095   9.389 -2.3870  0.6317 -1.5952
 6740SOL    HW231857   3.337   1.007   9.290 -0.0629  0.4520 -0.2497
 6741SOL     OW31858   1.206   4.043  15.788  0.2338  0.5256 -0.3667
 6741SOL    HW131859   1.261   4.048  15.710  2.0608 -2.2061  0.7842
 6741SOL    HW231860   1.128   3.996  15.758  0.3243  1.9370 -2.9037
 6742SOL     OW31861   2.857   1.815   1.747 -0.3597 -0.2068  0.1786
 6742SOL    HW131862   2.794   1.780   1.809 -0.1765 -0.6368  0.1206
 6742SOL    HW231863   2.841   1.758   1.671  0.3218 -1.2310  0.8083
 6743SOL     OW31864   1.511   1.828   4.073 -0.0424 -0.3730 -0.4506
 6743SOL    HW131865   1.442   1.787   4.021 -1.6248 -1.2191  2.3059
 6743SOL    HW231866   1.585   1.843   4.014  0.7581 -0.0078  0.6534
 6744SOL     OW31867   1.898   1.294  10.739 -0.1893  0.2754  0.5036
 6744SOL    HW131868   1.987   1.292  10.704 -1.0970  0.5757 -1.8119
 6744SOL    HW231869   1.903   1.365  10.803 -0.1545  0.9537 -0.2479
 6745SOL     OW31870   1.447   2.595   3.427 -0.1125 -0.2747  0.3180
 6745SOL    HW131871   1.480   2.513   3.464 -0.9749 -0.0284  1.6422
 6745SOL    HW231872   1.507   2.628   3.360 -1.0839  0.2151 -0.3190
 6746SOL     OW31873   0.722   4.321   0.032  0.0362  0.1903 -0.4670
 6746SOL    HW131874   0.627   4.326   0.022 -0.3683 -0.9842  2.8737
 6746SOL    HW231875   0.746   4.363  17.701 -0.7439 -2.4692 -2.0607
 6747SOL     OW31876   0.645   0.133   1.788  0.2064  0.0436 -0.5771
 6747SOL    HW131877   0.725   0.115   1.837  0.5985  0.2022 -1.1627
 6747SOL    HW231878   0.655   0.224   1.761  0.6239  0.4708  1.0267
 6748SOL     OW31879   3.945   2.779   1.591 -0.3772  0.2843 -0.3498
 6748SOL    HW131880   4.005   2.842   1.551 -0.6023  1.1185  0.6089
 6748SOL    HW231881   3.987   2.771   1.677  2.2501 -0.2843 -1.6936
 6749SOL     OW31882   1.155   2.756   7.978  0.3907  0.0379 -0.2397
 6749SOL    HW131883   1.153   2.663   7.955  0.3211  0.1677 -0.7589
 6749SOL    HW231884   1.079   2.789   7.931 -0.8013 -0.4723  1.3358
 6750SOL     OW31885   0.327   2.762   6.258  0.2530 -0.1035  0.1191
 6750SOL    HW131886   0.306   2.851   6.288 -2.0243 -1.8356  3.5818
 6750SOL    HW231887   0.412   2.742   6.297  0.4325  1.8450  0.7396
 6751SOL     OW31888   1.026   4.503   3.621 -0.5386  0.0253 -0.6157
 6751SOL    HW131889   0.971   4.471   3.693  1.5391 -2.0295  0.0576
 6751SOL    HW231890   1.052   4.414   3.596 -1.1324  0.6178 -3.3801
 6752SOL     OW31891   1.670   1.998   3.495 -0.4926 -0.0496  0.5731
 6752SOL    HW131892   1.752   1.951   3.513 -0.5126 -0.5023 -0.5146
 6752SOL    HW231893   1.646   2.011   3.587 -0.7257  0.4090  0.4484
 6753SOL     OW31894   1.252   3.684   1.662 -0.6500  0.7655  1.4348
 6753SOL    HW131895   1.175   3.724   1.704 -1.0573 -0.1252  1.5366
 6753SOL    HW231896   1.284   3.632   1.735 -0.5287 -0.1274  0.7447
 6754SOL     OW31897   4.694   1.671   3.015 -0.3988  0.5982 -0.1964
 6754SOL    HW131898   0.041   1.637   2.990 -1.6511 -1.6589 -1.4179
 6754SOL    HW231899   4.695   1.698   3.107 -0.9700 -1.0097  0.2811
 6755SOL     OW31900   2.060   2.422   5.791 -0.0088 -0.2832  0.0342
 6755SOL    HW131901   2.065   2.429   5.886 -2.0246  0.1983  0.1059
 6755SOL    HW231902   2.038   2.514   5.773 -1.1853 -0.3948  0.8895
 6756SOL     OW31903   4.621   2.951   8.678 -0.4799 -0.0002 -0.8024
 6756SOL    HW131904   4.594   3.032   8.720 -1.4977 -0.4933 -0.5193
 6756SOL    HW231905   4.588   2.894   8.748 -2.7847 -0.0709 -1.9753
 6757SOL     OW31906   2.365   2.533   8.735  0.2491  0.3851 -0.1986
 6757SOL    HW131907   2.414   2.608   8.767  1.1552 -0.1548 -0.3266
 6757SOL    HW231908   2.439   2.493   8.690  0.1039 -0.2047  0.0823
 6758SOL     OW31909   4.079   3.777   2.711  0.7420 -0.0363 -0.4592
 6758SOL    HW131910   4.001   3.752   2.661  0.6631  0.7351 -0.7262
 6758SOL    HW231911   4.149   3.733   2.662 -0.5043  0.0278 -2.3133
 6759SOL     OW31912   3.216   0.989   9.535 -0.3593  0.2830  0.1927
 6759SOL    HW131913   3.210   0.982   9.630 -1.4108  0.7813  0.1634
 6759SOL    HW231914   3.189   0.907   9.494  1.8504 -0.7904  0.8692
 6760SOL     OW31915   3.575   0.817   5.324 -0.0315 -0.1849  0.1040
 6760SOL    HW131916   3.576   0.908   5.293 -1.8825 -0.5488 -1.0611
 6760SOL    HW231917   3.654   0.780   5.283  1.6500  0.6356  2.6517
 6761SOL     OW31918   1.359   1.171   9.568 -0.4618  0.5244  0.4764
 6761SOL    HW131919   1.309   1.172   9.649 -1.2864  2.1640 -0.0494
 6761SOL    HW231920   1.323   1.096   9.520 -3.1972 -0.2224  3.7696
 6762SOL     OW31921   0.227   2.888   9.101 -0.0074 -0.1160  0.8324
 6762SOL    HW131922   0.150   2.850   9.060  0.6256 -0.5476  0.0428
 6762SOL    HW231923   0.283   2.811   9.094  1.5492  1.0511  0.4046
 6763SOL     OW31924   2.489   3.654   9.574  0.4066  0.1767  0.2808
 6763SOL    HW131925   2.401   3.658   9.610  0.7664  0.1477  1.1464
 6763SOL    HW231926   2.545   3.658   9.651  1.7470 -0.5894 -0.6502
 6764SOL     OW31927   0.779   3.515   4.481  0.4660  0.2181 -0.1084
 6764SOL    HW131928   0.793   3.423   4.502 -1.3410 -0.7323 -3.2290
 6764SOL    HW231929   0.858   3.527   4.428 -0.4111  0.3777 -1.3689
 6765SOL     OW31930   2.592   2.179   5.786 -0.0047 -0.1664 -0.1653
 6765SOL    HW131931   2.597   2.270   5.758 -1.3149 -0.1164 -0.2774
 6765SOL    HW231932   2.668   2.186   5.843 -0.5637  1.7664  0.3712
 6766SOL     OW31933   2.147   3.934  11.015  0.0341 -0.2462 -0.1233
 6766SOL    HW131934   2.219   3.991  10.988  0.1649 -0.1636  0.4016
 6766SOL    HW231935   2.075   3.996  11.001  0.4225  0.2492  0.0752
 6767SOL     OW31936   3.489   4.587   9.993  0.2462 -0.2951  0.2874
 6767SOL    HW131937   3.578   4.611   9.966  0.4497  0.5491  1.7535
 6767SOL    HW231938   3.464   4.518   9.931 -0.9462  1.1153 -0.7832
 6768SOL     OW31939   0.020   0.208   3.341 -0.4417  0.2904  0.4838
 6768SOL    HW131940   4.694   0.195   3.410 -1.1156 -1.6339 -0.5175
 6768SOL    HW231941   4.726   0.143   3.281  2.9629 -1.3220  0.3619
 6769SOL     OW31942   2.952   0.635   2.029  0.3198 -0.1917 -0.1617
 6769SOL    HW131943   2.888   0.669   1.967 -1.7873 -0.3250  1.9376
 6769SOL    HW231944   2.896   0.581   2.084  0.5186 -1.1900 -0.9478
 6770SOL     OW31945   1.403   3.221  15.999 -0.5187  0.5502  0.8181
 6770SOL    HW131946   1.424   3.311  15.974 -2.0928  0.9079  0.7550
 6770SOL    HW231947   1.438   3.213  16.088  0.7527  1.0477  0.3607
 6771SOL     OW31948   0.096   2.658   7.908 -0.2881  0.0617  0.4613
 6771SOL    HW131949   0.060   2.708   7.835  0.0063  0.3784  0.5338
 6771SOL    HW231950   0.028   2.653   7.975 -0.4231  3.0019  0.5548
 6772SOL     OW31951   0.532   1.115   6.260  0.0167 -0.2436 -0.0955
 6772SOL    HW131952   0.561   1.083   6.174 -0.3410 -1.2726  0.1668
 6772SOL    HW231953   0.553   1.208   6.250  0.8391 -0.5612 -1.4249
 6773SOL     OW31954   3.915   1.478   3.416 -0.0375 -0.3225 -0.0710
 6773SOL    HW131955   3.934   1.385   3.428 -1.5392 -0.5779  0.2984
 6773SOL    HW231956   3.941   1.495   3.326 -0.7603 -3.0044 -0.7870
 6774SOL     OW31957   0.676   3.953   7.764  0.0070 -0.3062  0.3236
 6774SOL    HW131958   0.673   3.863   7.796  0.5123 -0.7159 -0.8159
 6774SOL    HW231959   0.751   3.992   7.809 -0.7628  0.7130  0.7210
 6775SOL     OW31960   4.379   1.715   4.205 -0.6490  0.6911  0.2304
 6775SOL    HW131961   4.440   1.641   4.212 -0.1242  1.1012 -0.0991
 6775SOL    HW231962   4.406   1.771   4.277  1.5228  3.2529 -2.6000
 6776SOL     OW31963   2.371   4.723   9.368 -0.6655  0.3050 -0.1150
 6776SOL    HW131964   2.334   4.681   9.290 -1.3976  0.2233  0.2724
 6776SOL    HW231965   2.343   4.671   9.444 -0.5449 -1.0212 -0.9797
 6777SOL     OW31966   2.874   3.531   6.996 -0.6058  0.2366  0.2196
 6777SOL    HW131967   2.845   3.616   7.029 -0.8343  0.4472 -0.5217
 6777SOL    HW231968   2.790   3.490   6.977 -2.6932  3.3292  2.8727
 6778SOL     OW31969   2.652   4.511   4.850  0.2252 -0.2496 -0.5408
 6778SOL    HW131970   2.565   4.534   4.885  0.3826 -0.8877  0.2654
 6778SOL    HW231971   2.715   4.567   4.896 -0.6481  0.4806 -0.2226
 6779SOL     OW31972   1.012   4.729   4.525 -0.8067  0.5824  0.2270
 6779SOL    HW131973   0.921   4.733   4.497 -0.3687 -1.7105 -1.5169
 6779SOL    HW231974   1.044   0.076   4.497 -3.6955  1.7216  0.4349
 6780SOL     OW31975   4.671   4.077   9.995  0.2030  0.2150  0.1480
 6780SOL    HW131976   4.654   4.052   9.904 -0.6975 -0.7016  0.5703
 6780SOL    HW231977   4.628   4.162   9.993 -1.2881 -0.5317  0.2632
 6781SOL     OW31978   3.204   0.926   0.053 -0.4325  0.3780  0.0744
 6781SOL    HW131979   3.116   0.895   0.032 -0.3570 -1.1835  2.0235
 6781SOL    HW231980   3.248   0.842   0.038 -1.2714 -0.1540  0.5805
 6782SOL     OW31981   0.016   4.385  12.385  0.8962 -0.5729 -0.8148
 6782SOL    HW131982   0.045   4.433  12.462 -0.9861 -1.3208  0.3758
 6782SOL    HW231983   0.017   4.298  12.426  1.0750  0.8207  2.0596
 6783SOL     OW31984   3.836   4.018  10.487  0.1874  0.5523 -0.5537
 6783SOL    HW131985   3.788   4.005  10.405 -0.0916 -0.1039 -0.2832
 6783SOL    HW231986   3.816   3.932  10.522 -1.3567  0.3269 -2.0019
 6784SOL     OW31987   2.287   0.372   1.495  0.2179 -0.0832 -0.3820
 6784SOL    HW131988   2.354   0.407   1.555  0.2441  0.4547 -0.7208
 6784SOL    HW231989   2.215   0.435   1.503  0.0770 -0.2388 -0.4314
 6785SOL     OW31990   2.277   0.068  17.183 -0.1188  0.3756  0.5696
 6785SOL    HW131991   2.195   0.084  17.231  0.2064  1.6558  0.6779
 6785SOL    HW231992   2.310   0.156  17.164 -1.9469  0.8161 -0.5952
 6786SOL     OW31993   2.630   1.538   4.391 -0.5566  0.0770 -0.2525
 6786SOL    HW131994   2.655   1.446   4.388  2.0508  0.6885  3.2404
 6786SOL    HW231995   2.705   1.573   4.437 -0.9519  1.2150 -0.4659
 6787SOL     OW31996   3.097   4.599   8.159  0.1098  0.2549  0.4081
 6787SOL    HW131997   3.137   4.641   8.083 -1.6950 -1.3355 -1.4020
 6787SOL    HW231998   3.138   4.653   8.227  0.1588 -0.1847  0.7228
 6788SOL     OW31999   1.833   3.645   5.304 -0.1261 -0.2360 -0.0417
 6788SOL    HW132000   1.800   3.619   5.390 -1.8732 -0.4180 -0.7645
 6788SOL    HW232001   1.754   3.685   5.267 -0.8897 -2.3757 -0.6956
 6789SOL     OW32002   1.097   2.110   9.049 -0.5736  0.0056 -0.2695
 6789SOL    HW132003   1.032   2.042   9.066 -0.1288 -0.1826  0.7153
 6789SOL    HW232004   1.160   2.073   8.986  0.9316  0.3845  0.9979
 6790SOL     OW32005   1.865   2.090  17.325  0.0686 -0.2934  0.2828
 6790SOL    HW132006   1.863   2.182  17.352 -0.6213  0.1650 -1.3861
 6790SOL    HW232007   1.797   2.063  17.387  0.6478  1.4958  1.7163
 6791SOL     OW32008   4.439   0.735   3.736  0.1062  0.0043 -0.1075
 6791SOL    HW132009   4.522   0.696   3.711 -0.2951  0.3330 -1.9470
 6791SOL    HW232010   4.458   0.800   3.804 -1.0175  1.5086 -1.2425
 6792SOL     OW32011   4.331   2.171  16.520  0.1147 -0.0277  0.5527
 6792SOL    HW132012   4.419   2.190  16.488 -0.6520  1.5892 -0.5818
 6792SOL    HW232013   4.325   2.082  16.485  0.1635  0.9440 -1.9613
 6793SOL     OW32014   2.701   3.625   4.887  0.1638  0.2871  0.9083
 6793SOL    HW132015   2.636   3.685   4.924 -1.5802 -0.4625 -0.9139
 6793SOL    HW232016   2.644   3.549   4.877  2.3864 -1.5502  2.0399
 6794SOL     OW32017   1.445   3.453   9.029  0.0787  0.2981 -0.3005
 6794SOL    HW132018   1.515   3.474   9.090  1.5313  0.1878 -1.9036
 6794SOL    HW232019   1.479   3.505   8.956 -0.6980 -1.1266 -1.6769
 6795SOL     OW32020   0.634   4.651   5.174  0.1352  0.9856 -0.4342
 6795SOL    HW132021   0.696   4.720   5.149 -0.1209  0.2460 -3.1362
 6795SOL    HW232022   0.699   4.594   5.217 -0.3818  0.6108 -0.1502
 6796SOL     OW32023   0.184   1.437  13.499  0.0821 -0.0178  0.3211
 6796SOL    HW132024   0.131   1.463  13.424 -0.7304 -0.9455  0.5686
 6796SOL    HW232025   0.124   1.444  13.574 -0.6916  1.6091 -0.4600
 6797SOL     OW32026   3.000   1.086   8.943 -0.5235  0.5452  0.5501
 6797SOL    HW132027   2.947   1.082   8.862  3.2690 -1.0827 -1.8494
 6797SOL    HW232028   2.936   1.115   9.008 -0.9915 -0.3388  0.4926
 6798SOL     OW32029   0.533   0.028   0.838  0.3288  0.1310  0.0598
 6798SOL    HW132030   0.455   0.063   0.880  0.7148  2.5086 -1.2326
 6798SOL    HW232031   0.499   4.694   0.785  3.0351  0.5150 -2.2146
 6799SOL     OW32032   1.042   3.878   1.264 -0.5169 -0.2007 -0.3907
 6799SOL    HW132033   1.119   3.860   1.318 -1.2713  1.9882  1.4098
 6799SOL    HW232034   1.072   3.856   1.176 -0.3935 -1.6603  0.0252
 6800SOL     OW32035   3.037   2.965   9.762 -0.0673 -0.0797  0.7475
 6800SOL    HW132036   3.128   2.973   9.733 -0.1824  1.1257  0.7288
 6800SOL    HW232037   3.002   2.875   9.767 -0.5851  0.1485  1.2941
 6801SOL     OW32038   1.912   0.990  16.547  0.1779 -0.3216  0.2221
 6801SOL    HW132039   1.886   1.036  16.466  1.9255  0.8567  0.3267
 6801SOL    HW232040   1.884   0.905  16.514  1.5605 -0.4438 -0.6592
 6802SOL     OW32041   0.745   4.529   8.442  0.1334  0.2674 -0.6288
 6802SOL    HW132042   0.839   4.527   8.426  0.0632 -2.7936 -0.5666
 6802SOL    HW232043   0.720   4.597   8.380 -1.2453 -0.3886 -0.8070
 6803SOL     OW32044   3.494   3.520   1.248 -0.0404  0.0185 -0.7284
 6803SOL    HW132045   3.410   3.482   1.223 -0.2684  0.2694 -0.3379
 6803SOL    HW232046   3.488   3.565   1.333 -2.5871 -2.9585  0.6624
 6804SOL     OW32047   3.075   0.259  15.280  0.1001  0.5510 -0.1748
 6804SOL    HW132048   3.013   0.251  15.207  0.1636  0.0917 -0.1771
 6804SOL    HW232049   3.028   0.198  15.337 -0.0141 -0.4513 -1.3399
 6805SOL     OW32050   2.408   0.614  13.045  0.0360 -0.1706 -0.0145
 6805SOL    HW132051   2.473   0.664  12.996 -0.0923  1.6325  1.6618
 6805SOL    HW232052   2.455   0.568  13.114 -0.5680  1.0462  1.2168
 6806SOL     OW32053   4.419   3.688   8.063  0.2706  0.8457  0.9405
 6806SOL    HW132054   4.502   3.678   8.015 -0.2180 -0.5195  0.3884
 6806SOL    HW232055   4.450   3.714   8.150 -0.8966  2.9032  0.7324
 6807SOL     OW32056   2.626   3.982   7.986 -0.2803 -0.1474  0.0819
 6807SOL    HW132057   2.670   3.899   8.001  2.4908  1.2107 -0.5437
 6807SOL    HW232058   2.685   4.052   8.014 -0.2925 -1.0306  2.3366
 6808SOL     OW32059   2.027   2.352  17.484 -0.9379 -0.7818 -0.2000
 6808SOL    HW132060   2.056   2.265  17.512 -0.1325 -0.4022  0.1385
 6808SOL    HW232061   2.109   2.401  17.489 -0.6392 -1.4437  1.3638
 6809SOL     OW32062   2.767   3.276  15.482 -0.0750 -0.1293 -0.0668
 6809SOL    HW132063   2.731   3.307  15.566 -1.2767  0.5205 -0.8121
 6809SOL    HW232064   2.706   3.335  15.437  0.4230  0.0646 -0.4893
 6810SOL     OW32065   1.666   3.510   6.060  0.5226  0.6317 -0.3895
 6810SOL    HW132066   1.646   3.448   5.989  0.1487 -0.4939  0.6959
 6810SOL    HW232067   1.597   3.576   6.051  1.2077  1.4860  0.7133
 6811SOL     OW32068   2.126   2.265  12.577 -0.5665  0.3369 -0.0647
 6811SOL    HW132069   2.074   2.312  12.643  0.4177  1.5249 -0.1274
 6811SOL    HW232070   2.067   2.247  12.504  1.3173 -2.0285 -0.9763
 6812SOL     OW32071   3.492   0.357   5.048 -0.1394  0.3416 -0.0012
 6812SOL    HW132072   3.559   0.421   5.071 -1.6647  1.3467  1.6251
 6812SOL    HW232073   3.449   0.348   5.132 -0.6136 -3.5089 -0.6819
 6813SOL     OW32074   0.315   0.961   6.853  0.3277  0.4561  0.6386
 6813SOL    HW132075   0.354   1.041   6.887  0.9324  1.7441 -3.0925
 6813SOL    HW232076   0.293   0.909   6.930  1.1127 -1.9225 -0.7413
 6814SOL     OW32077   4.449   4.614  10.484  0.3123  0.0142  0.1463
 6814SOL    HW132078   4.479   4.529  10.452 -1.1804  0.1416 -1.6075
 6814SOL    HW232079   4.511   4.629  10.556  0.8671  0.8820 -0.5143
 6815SOL     OW32080   2.072   4.263   3.205 -0.3620  0.2864 -0.0702
 6815SOL    HW132081   2.167   4.259   3.217 -0.2745  0.2765 -0.7646
 6815SOL    HW232082   2.063   4.234   3.114 -2.2957 -1.3840  0.6574
 6816SOL     OW32083   2.771   1.433  17.270 -0.0660 -0.7314  0.0190
 6816SOL    HW132084   2.783   1.527  17.258  0.8819 -0.8852 -0.2324
 6816SOL    HW232085   2.678   1.412  17.257 -0.6511 -0.0007  2.9438
 6817SOL     OW32086   1.989   2.483   7.873  0.3341  0.0412  0.2555
 6817SOL    HW132087   2.008   2.475   7.967  2.8750 -1.1174 -0.3572
 6817SOL    HW232088   1.905   2.525   7.887  0.3867  0.9873 -2.2107
 6818SOL     OW32089   1.226   1.635   6.195 -0.4421  0.2576  0.4293
 6818SOL    HW132090   1.163   1.575   6.235  0.3944  1.0857  2.9803
 6818SOL    HW232091   1.164   1.697   6.158 -0.0428  0.4689  0.1066
 6819SOL     OW32092   3.177   2.499   1.392 -0.5382 -0.0717  0.4009
 6819SOL    HW132093   3.208   2.524   1.480  0.6398  2.5573 -0.7501
 6819SOL    HW232094   3.257   2.461   1.357 -0.4099  0.2139  0.3855
 6820SOL     OW32095   4.031   4.264   7.919 -0.0448 -0.0700  0.1409
 6820SOL    HW132096   4.075   4.180   7.912  1.0886  0.3844  1.7743
 6820SOL    HW232097   4.107   4.322   7.927 -0.3132  0.5747 -1.7310
 6821SOL     OW32098   3.231   2.309   3.174 -0.3612  0.1717 -1.0097
 6821SOL    HW132099   3.266   2.276   3.256 -0.3838 -2.0696 -1.8898
 6821SOL    HW232100   3.151   2.346   3.212 -0.8493 -2.4181  0.4977
 6822SOL     OW32101   1.184   1.426   5.687  1.0109  0.3926  0.5453
 6822SOL    HW132102   1.216   1.337   5.702 -2.0787 -0.9594 -0.9253
 6822SOL    HW232103   1.184   1.449   5.780  0.6599  3.5850 -0.2235
 6823SOL     OW32104   0.313   2.970   2.663 -0.5823  0.0598 -0.2163
 6823SOL    HW132105   0.341   3.061   2.674 -1.0414  0.2965 -0.9937
 6823SOL    HW232106   0.255   2.968   2.738  2.0583 -3.1179  1.7315
 6824SOL     OW32107   0.703   1.566   7.672 -0.0116 -0.3722 -1.0222
 6824SOL    HW132108   0.737   1.615   7.597  1.6953 -1.3242 -0.8862
 6824SOL    HW232109   0.640   1.631   7.703  1.4447  1.4869 -1.9703
 6825SOL     OW32110   0.173   0.100   9.471 -0.0246 -0.0148  0.4353
 6825SOL    HW132111   0.131   0.184   9.486 -2.2218 -1.0156 -0.1259
 6825SOL    HW232112   0.227   0.107   9.393 -0.2886 -0.2501  0.2341
 6826SOL     OW32113   4.218   2.623   2.992  0.0654 -0.0562 -0.2384
 6826SOL    HW132114   4.137   2.647   3.035  0.4497  0.9104 -0.0565
 6826SOL    HW232115   4.169   2.615   2.910  0.5329  0.5513 -0.5869
 6827SOL     OW32116   1.628   2.999  12.627  0.6866  0.6573  0.2971
 6827SOL    HW132117   1.605   3.021  12.536 -0.1809  2.9789  1.0847
 6827SOL    HW232118   1.656   2.910  12.607  1.1380  1.3752 -2.3314
 6828SOL     OW32119   2.404   1.934  10.071 -0.0192 -0.3749 -0.1492
 6828SOL    HW132120   2.464   2.007  10.061  1.2004 -1.2034  1.0825
 6828SOL    HW232121   2.335   1.977  10.123 -0.6780 -0.7686 -0.6887
 6829SOL     OW32122   0.359   1.772   2.068  0.3560  0.0730  0.3586
 6829SOL    HW132123   0.273   1.782   2.026  1.8698  1.2951 -2.4238
 6829SOL    HW232124   0.363   1.844   2.131 -0.2584  2.3957 -2.2488
 6830SOL     OW32125   0.795   2.954  17.280 -0.7199 -0.3269 -0.3685
 6830SOL    HW132126   0.818   2.943  17.373 -0.0840  3.4064 -0.0951
 6830SOL    HW232127   0.867   3.011  17.255  0.4757 -1.8224 -0.3903
 6831SOL     OW32128   0.098   4.266   1.380 -0.3468 -0.9772  0.0432
 6831SOL    HW132129   0.051   4.239   1.459 -2.4237  1.5442 -0.3546
 6831SOL    HW232130   0.034   4.255   1.310  2.0416 -0.0196 -2.2745
 6832SOL     OW32131   0.927   3.576   4.950 -0.0060 -0.6410 -0.9733
 6832SOL    HW132132   1.006   3.630   4.939 -0.5522  0.8617  2.2963
 6832SOL    HW232133   0.956   3.488   4.926  0.8390 -1.0178  1.4163
 6833SOL     OW32134   3.743   0.601   7.175 -0.3055  0.2555 -0.3411
 6833SOL    HW132135   3.782   0.680   7.138  0.0215  1.3064  2.2819
 6833SOL    HW232136   3.808   0.538   7.144 -1.9654 -1.5378 -0.1519
 6834SOL     OW32137   2.573   2.699   4.956 -0.0219 -0.0929  0.0096
 6834SOL    HW132138   2.505   2.651   5.005 -0.2451  0.2947  0.0806
 6834SOL    HW232139   2.522   2.724   4.879 -1.7307 -0.3552  1.0438
 6835SOL     OW32140   1.819   1.383   6.705  0.2585  0.6156  0.2107
 6835SOL    HW132141   1.786   1.409   6.791 -2.4516 -1.9646 -0.0436
 6835SOL    HW232142   1.750   1.323   6.678  0.4867  0.8586 -0.8886
 6836SOL     OW32143   1.005   3.452   3.167  0.5976 -0.4661 -0.0713
 6836SOL    HW132144   1.001   3.530   3.223 -0.2711  0.8405 -1.9605
 6836SOL    HW232145   1.063   3.492   3.102 -0.5350 -1.2342 -1.5434
 6837SOL     OW32146   1.283   2.919  15.411  0.4430 -0.4803 -0.1179
 6837SOL    HW132147   1.329   2.992  15.452 -0.4769  1.1934 -2.0032
 6837SOL    HW232148   1.348   2.907  15.342 -1.1272  0.4833 -1.7708
 6838SOL     OW32149   3.561   1.486   2.323  0.5592 -0.7165  0.2827
 6838SOL    HW132150   3.538   1.498   2.415 -2.3906  0.5761 -0.6330
 6838SOL    HW232151   3.654   1.465   2.333  1.2464  1.8363 -0.6876
 6839SOL     OW32152   2.653   3.447   9.451  0.0425 -0.1004  0.3786
 6839SOL    HW132153   2.646   3.354   9.431 -1.4820 -0.3010  1.8109
 6839SOL    HW232154   2.574   3.466   9.503 -0.1891 -2.5280  0.9369
 6840SOL     OW32155   0.375   0.040   9.945  0.4398 -0.0388 -0.2821
 6840SOL    HW132156   0.451   0.082   9.907  0.6401  0.7376  0.9886
 6840SOL    HW232157   0.347   0.002   9.862  1.9544  0.3998 -0.9782
 6841SOL     OW32158   0.252   1.099   2.015  0.6079  0.3201 -0.2301
 6841SOL    HW132159   0.281   1.040   2.085 -2.7751  1.7832  2.3993
 6841SOL    HW232160   0.157   1.094   2.028  0.9325 -2.1790  1.2188
 6842SOL     OW32161   1.623   0.844   2.279  0.1610 -0.2358  0.2339
 6842SOL    HW132162   1.627   0.816   2.188 -0.1132 -1.5604  0.6324
 6842SOL    HW232163   1.577   0.928   2.274  0.5535  0.1818  3.2887
 6843SOL     OW32164   2.115   1.128  11.678 -0.5245 -0.7157  0.4825
 6843SOL    HW132165   2.064   1.159  11.752 -0.8500  0.5033 -0.2597
 6843SOL    HW232166   2.168   1.057  11.716  0.0168 -0.0401  0.9731
 6844SOL     OW32167   4.661   0.218   7.248  0.2433 -0.2516  0.0128
 6844SOL    HW132168   4.593   0.275   7.213  1.6319  1.0529 -0.5540
 6844SOL    HW232169   4.733   0.243   7.191 -0.1613 -1.4830 -1.0306
 6845SOL     OW32170   2.187   1.031   9.033  0.3100  0.0459 -0.2020
 6845SOL    HW132171   2.251   1.098   9.006  0.2998  0.8074  1.6929
 6845SOL    HW232172   2.178   1.048   9.126 -2.2547  1.5467 -0.7305
 6846SOL     OW32173   1.101   3.254   3.944  0.4218 -0.1177  0.0073
 6846SOL    HW132174   1.080   3.171   3.902  1.5811  0.6895 -2.1164
 6846SOL    HW232175   1.155   3.296   3.878  1.0367  1.7850  1.7245
 6847SOL     OW32176   2.586   0.510   4.739  0.5534  0.1484  0.1898
 6847SOL    HW132177   2.528   0.558   4.799 -0.2793  0.4032 -0.8225
 6847SOL    HW232178   2.654   0.575   4.721 -1.3195  2.1089  0.1347
 6848SOL     OW32179   1.890   0.035   4.918  0.6538 -0.1926 -0.0423
 6848SOL    HW132180   1.844   0.119   4.918 -0.3600 -0.7543 -3.3918
 6848SOL    HW232181   1.866   0.000   5.004  0.7570  0.6056  0.3080
 6849SOL     OW32182   3.836   3.282   4.682 -0.4382 -0.3295 -0.1885
 6849SOL    HW132183   3.876   3.341   4.746 -0.1601 -0.8352  0.1048
 6849SOL    HW232184   3.804   3.338   4.611 -0.6986 -0.8847 -0.5092
 6850SOL     OW32185   0.078   1.264   9.526  0.5142  0.1309  0.1364
 6850SOL    HW132186   0.069   1.351   9.487  2.3922  0.0163 -0.5321
 6850SOL    HW232187   0.150   1.279   9.587  0.4027 -1.4232  0.6601
 6851SOL     OW32188   3.661   1.364   4.743 -0.3982 -0.0394  1.2349
 6851SOL    HW132189   3.668   1.400   4.831  1.9820  2.9163 -0.1309
 6851SOL    HW232190   3.570   1.381   4.718  0.4759  0.9639 -1.2624
 6852SOL     OW32191   4.214   2.123   1.715 -0.4983 -0.0175  0.8540
 6852SOL    HW132192   4.223   2.031   1.739  2.5999  0.6851  2.4489
 6852SOL    HW232193   4.301   2.153   1.743 -1.1827  0.9217  1.9213
 6853SOL     OW32194   4.459   4.335   2.555 -0.2648 -0.2746 -0.1306
 6853SOL    HW132195   4.375   4.347   2.511 -0.6804 -2.4281  0.0820
 6853SOL    HW232196   4.434   4.304   2.642  0.4825 -1.3543 -0.3086
 6854SOL     OW32197   4.549   4.430   1.673  0.1479 -0.7052  0.1207
 6854SOL    HW132198   4.640   4.460   1.667  0.0851 -0.4084  0.7105
 6854SOL    HW232199   4.526   4.456   1.762 -1.8293 -1.7510 -0.0916
 6855SOL     OW32200   3.584   1.874   8.920  0.0434  0.5263  0.8268
 6855SOL    HW132201   3.521   1.809   8.889  0.2654  0.3614  0.7193
 6855SOL    HW232202   3.661   1.819   8.908  0.7236  1.7355 -0.4002
 6856SOL     OW32203   1.999   1.442  11.366 -0.3365 -0.6510  0.5059
 6856SOL    HW132204   2.061   1.498  11.413 -1.8019  0.2934  1.2990
 6856SOL    HW232205   2.044   1.412  11.287 -2.5367  3.0778 -2.1392
 6857SOL     OW32206   4.486   1.955   3.348 -0.3371 -0.2100  0.1302
 6857SOL    HW132207   4.534   2.010   3.286 -2.4525  0.5161 -0.8534
 6857SOL    HW232208   4.399   1.957   3.308 -0.9978  2.6868  1.7205
 6858SOL     OW32209   1.679   1.871  13.724  0.5454 -0.2387 -0.0891
 6858SOL    HW132210   1.748   1.870  13.659  0.9584  0.7923  0.3409
 6858SOL    HW232211   1.703   1.801  13.784  1.6788 -0.7018 -1.0949
 6859SOL     OW32212   3.768   4.116   5.395  0.2613 -0.4598  0.2886
 6859SOL    HW132213   3.861   4.098   5.380  0.9122  0.8820  2.6295
 6859SOL    HW232214   3.723   4.061   5.331 -0.7928  1.4084 -0.5952
 6860SOL     OW32215   0.169   2.422  12.323  0.9221 -0.0757  0.6306
 6860SOL    HW132216   0.074   2.422  12.322  0.9067  1.1840  1.1877
 6860SOL    HW232217   0.193   2.340  12.366  0.4099 -1.4501 -1.6796
 6861SOL     OW32218   2.693   4.401   7.609  0.1407  0.6590 -0.7837
 6861SOL    HW132219   2.633   4.341   7.566 -4.1310  3.2219  1.6657
 6861SOL    HW232220   2.631   4.468   7.637  0.2968  1.0153 -1.2848
 6862SOL     OW32221   0.283   1.330  12.346  0.1982 -0.2592  0.1020
 6862SOL    HW132222   0.194   1.339  12.312  0.4394  1.2005 -0.1439
 6862SOL    HW232223   0.277   1.241  12.383 -0.0332 -0.1139  0.4137
 6863SOL     OW32224   0.906   0.309  15.322 -0.2147 -0.5624  0.6135
 6863SOL    HW132225   0.934   0.219  15.335  2.4725  0.1698 -0.0364
 6863SOL    HW232226   0.973   0.360  15.369 -0.0523  1.0771 -1.4072
 6864SOL     OW32227   4.215   3.752   6.080  0.6397 -0.2000 -0.0968
 6864SOL    HW132228   4.124   3.762   6.109  1.0887  1.4558  0.7386
 6864SOL    HW232229   4.224   3.789   5.992  1.5322  1.3319  0.6495
 6865SOL     OW32230   1.499   4.171   2.879  0.3614  0.0366 -0.0253
 6865SOL    HW132231   1.420   4.132   2.916 -0.5751  2.3048  0.3423
 6865SOL    HW232232   1.465   4.259   2.865 -0.0671  0.0354  0.9999
 6866SOL     OW32233   2.294   4.435   2.559 -0.1235 -0.5313  0.0345
 6866SOL    HW132234   2.375   4.410   2.605 -0.0205 -0.6459 -0.2086
 6866SOL    HW232235   2.230   4.375   2.596  1.6612 -1.1033  2.2198
 6867SOL     OW32236   2.538   0.137   2.936 -0.5097 -0.5471 -0.1071
 6867SOL    HW132237   2.570   0.069   2.876 -2.1592 -1.5187  0.1219
 6867SOL    HW232238   2.464   0.168   2.883 -0.7785 -2.0544 -0.6258
 6868SOL     OW32239   0.444   0.986   7.660 -0.2222  0.1194 -0.1806
 6868SOL    HW132240   0.350   0.969   7.652 -0.1905 -0.5918  0.9201
 6868SOL    HW232241   0.457   1.060   7.601 -1.7118 -0.7138 -1.5657
 6869SOL     OW32242   0.652   4.237   3.827 -0.4248 -0.7120 -0.0293
 6869SOL    HW132243   0.695   4.199   3.904  0.0076  1.3196  0.7542
 6869SOL    HW232244   0.559   4.229   3.849 -1.0688  2.0316 -1.7795
 6870SOL     OW32245   3.004   1.590  10.500  0.5292  0.1931 -0.1129
 6870SOL    HW132246   2.952   1.635  10.566  0.4217  0.3578 -0.3116
 6870SOL    HW232247   3.077   1.650  10.485  0.2717  0.1502 -1.5563
 6871SOL     OW32248   0.032   1.953  17.193 -0.1550  1.0116 -0.2135
 6871SOL    HW132249   0.003   2.017  17.258  0.5842  1.6336 -0.5026
 6871SOL    HW232250   4.682   1.928  17.167  0.5767 -1.7031 -0.1206
 6872SOL     OW32251   0.899   4.108  14.030 -0.1571 -1.0456 -0.5654
 6872SOL    HW132252   0.839   4.151  14.091  1.0276 -2.0559  1.2955
 6872SOL    HW232253   0.984   4.095  14.072  0.4193  2.2877 -0.7232
 6873SOL     OW32254   2.481   1.579   9.306  0.5112  0.0430 -0.4216
 6873SOL    HW132255   2.569   1.552   9.331 -0.3784 -2.1608  0.2574
 6873SOL    HW232256   2.431   1.500   9.287 -0.5287  0.4438  0.6168
 6874SOL     OW32257   2.557   2.144   3.953 -0.6207  0.3566  0.3950
 6874SOL    HW132258   2.564   2.060   3.999  0.4687  0.4482  0.3957
 6874SOL    HW232259   2.468   2.168   3.977  0.1121  3.2144  0.2216
 6875SOL     OW32260   2.342   3.165  12.376 -0.4421  0.4464  0.0104
 6875SOL    HW132261   2.408   3.231  12.356  0.1926 -0.2618 -0.2411
 6875SOL    HW232262   2.337   3.105  12.302 -0.8390 -1.4717  1.5718
 6876SOL     OW32263   0.137   1.448   7.696 -0.1760 -0.5357 -0.1209
 6876SOL    HW132264   0.214   1.462   7.751 -0.0814  0.3878 -0.4878
 6876SOL    HW232265   0.069   1.507   7.727  0.1690 -0.5854  0.7297
 6877SOL     OW32266   1.208   0.382   6.220 -0.2796 -0.5641  0.3492
 6877SOL    HW132267   1.214   0.475   6.196  0.8383 -0.7152  0.0445
 6877SOL    HW232268   1.227   0.381   6.314  1.1989  2.1510  0.0852
 6878SOL     OW32269   0.271   3.038   8.039  0.6414  0.6085  0.3175
 6878SOL    HW132270   0.234   3.078   8.118 -0.3756  0.6249 -0.1726
 6878SOL    HW232271   0.320   3.110   7.999  1.0053  0.0761 -0.1886
 6879SOL     OW32272   0.655   0.624   8.575 -0.4188 -0.7881 -0.7058
 6879SOL    HW132273   0.635   0.689   8.642 -2.3907 -1.1273 -0.9584
 6879SOL    HW232274   0.698   0.674   8.506 -1.0966 -0.4618 -0.8888
 6880SOL     OW32275   2.376   2.197  10.277 -0.3723  0.1700  0.0525
 6880SOL    HW132276   2.302   2.144  10.251  0.5194 -0.9452 -0.2052
 6880SOL    HW232277   2.374   2.269  10.214 -2.3252  0.7304  0.7484
 6881SOL     OW32278   2.981   1.486   1.426 -0.3264  0.3273 -0.0180
 6881SOL    HW132279   3.036   1.552   1.384 -0.9794  0.4834 -0.6257
 6881SOL    HW232280   3.006   1.493   1.518 -0.3559  0.7158 -0.0385
 6882SOL     OW32281   4.281   0.956   9.401 -0.2861 -0.2285  0.1322
 6882SOL    HW132282   4.345   1.026   9.387 -2.5340  1.2287 -2.9239
 6882SOL    HW232283   4.295   0.944   9.495  0.3596  1.5977  0.2722
 6883SOL     OW32284   2.320   4.107   2.754 -0.1965  0.5860 -0.2945
 6883SOL    HW132285   2.366   4.084   2.835  0.7934  0.4521 -0.9025
 6883SOL    HW232286   2.388   4.089   2.689  1.6621  1.0917  1.5200
 6884SOL     OW32287   4.476   1.920  15.132  0.1717  0.0445 -0.2755
 6884SOL    HW132288   4.460   1.839  15.082 -1.1848 -0.9444  1.7538
 6884SOL    HW232289   4.538   1.888  15.197 -1.5171  0.4125  1.5396
 6885SOL     OW32290   0.013   0.338   2.256 -0.0155  0.0494  0.5314
 6885SOL    HW132291   0.066   0.415   2.236  1.8640 -1.2160  0.6416
 6885SOL    HW232292   0.079   0.279   2.293 -0.1830 -0.6617 -0.3318
 6886SOL     OW32293   4.439   0.539  17.084  0.0364  0.0613  0.1634
 6886SOL    HW132294   4.504   0.588  17.135 -1.0263  1.5033  0.1335
 6886SOL    HW232295   4.381   0.610  17.059  0.4875  0.3826  0.0253
 6887SOL     OW32296   0.698   4.683   6.611 -0.2957 -0.7743 -0.2896
 6887SOL    HW132297   0.614   4.728   6.606 -0.8090 -1.6734  0.2336
 6887SOL    HW232298   0.767   0.010   6.602 -1.5287  0.7091  1.0988
 6888SOL     OW32299   3.061   3.680   7.597  0.1988 -0.3300  0.3984
 6888SOL    HW132300   3.003   3.682   7.521 -0.4138  0.6466  0.8909
 6888SOL    HW232301   3.026   3.752   7.650  1.1492  0.9446 -0.7240
 6889SOL     OW32302   0.259   3.996   7.522 -0.9066 -0.0268  0.2803
 6889SOL    HW132303   0.271   3.902   7.531 -3.0375 -0.6560 -3.6316
 6889SOL    HW232304   0.235   4.003   7.430  1.6086  0.5418 -0.3563
 6890SOL     OW32305   0.513   4.631  14.853  0.3828 -0.2062  0.1222
 6890SOL    HW132306   0.461   4.579  14.913 -1.5468 -0.0680 -1.4127
 6890SOL    HW232307   0.463   4.711  14.835  1.7567  0.9874  1.6758
 6891SOL     OW32308   0.134   1.050   1.471 -0.5181 -0.3835  0.1065
 6891SOL    HW132309   0.186   1.076   1.547  0.5462  0.2625 -0.8389
 6891SOL    HW232310   0.055   1.103   1.478 -1.7917 -2.2509  0.0157
 6892SOL     OW32311   0.090   1.152   8.985 -0.0863 -0.5273 -0.2651
 6892SOL    HW132312   0.021   1.215   9.008 -0.4183 -0.3066 -1.8631
 6892SOL    HW232313   0.085   1.097   9.063 -2.8459 -1.2544 -0.9526
 6893SOL     OW32314   1.048   2.315   6.494  0.3155  0.1227  0.3134
 6893SOL    HW132315   0.973   2.365   6.462  1.0223  0.6628 -0.4932
 6893SOL    HW232316   1.118   2.328   6.430 -0.1590  1.2097  0.0222
 6894SOL     OW32317   2.580   4.325  17.630  0.2106 -0.1845  0.5033
 6894SOL    HW132318   2.667   4.314  17.668 -0.1695 -0.4938  1.2769
 6894SOL    HW232319   2.592   4.412  17.593 -3.5902  0.8246  1.5769
 6895SOL     OW32320   4.497   3.378   4.926 -0.1744  0.1652  0.1625
 6895SOL    HW132321   4.433   3.308   4.911 -1.4207  1.6907 -1.7218
 6895SOL    HW232322   4.440   3.453   4.944  0.8957  1.1298 -0.4330
 6896SOL     OW32323   1.862   2.558   8.516  0.0139 -0.1231  0.0933
 6896SOL    HW132324   1.783   2.610   8.504 -0.0751  0.6212  3.6943
 6896SOL    HW232325   1.884   2.580   8.607 -0.3524 -0.9443  0.3820
 6897SOL     OW32326   0.071   1.759   8.688  0.5211  0.1478 -0.7001
 6897SOL    HW132327   4.716   1.739   8.675  0.7580 -0.9643 -0.7172
 6897SOL    HW232328   0.088   1.704   8.764 -0.9087  0.4021 -0.1917
 6898SOL     OW32329   4.201   3.167  15.052  0.2697 -0.0701 -0.6959
 6898SOL    HW132330   4.277   3.118  15.083 -1.6391 -1.9040  1.1719
 6898SOL    HW232331   4.241   3.253  15.041  0.2508  0.2663  1.7273
 6899SOL     OW32332   0.181   3.010   4.317  0.2115 -0.3718 -0.2276
 6899SOL    HW132333   0.210   3.093   4.352  0.7440 -0.6089 -0.1124
 6899SOL    HW232334   0.230   3.011   4.234 -0.0183  0.1737 -0.3567
 6900SOL     OW32335   0.327   0.657  12.872  0.4984 -0.7029 -0.3372
 6900SOL    HW132336   0.341   0.628  12.962  0.0721 -1.1763 -0.4251
 6900SOL    HW232337   0.356   0.748  12.881  0.5364 -0.8034  0.5084
 6901SOL     OW32338   0.671   4.618   7.495 -0.4204  0.5020 -0.4522
 6901SOL    HW132339   0.713   4.653   7.573 -1.2786  0.0824  0.1874
 6901SOL    HW232340   0.627   4.539   7.525  1.4273 -0.5581 -0.4959
 6902SOL     OW32341   1.961   0.309   5.812  0.3494 -0.6850  0.2005
 6902SOL    HW132342   1.939   0.385   5.757  0.1970  0.5924  2.0171
 6902SOL    HW232343   1.881   0.257   5.809 -0.0151 -0.1047 -0.3311
 6903SOL     OW32344   1.144   3.212   3.077  0.4816  0.1468  0.4404
 6903SOL    HW132345   1.198   3.259   3.141 -1.6501  0.2154  2.1699
 6903SOL    HW232346   1.066   3.266   3.089  1.0748  0.8452  1.2097
 6904SOL     OW32347   1.453   3.912   0.484 -0.9383 -0.2279  0.0636
 6904SOL    HW132348   1.388   3.925   0.554 -1.9762 -2.0433 -0.5425
 6904SOL    HW232349   1.478   3.825   0.516 -2.2377 -0.4017  0.6269
 6905SOL     OW32350   2.204   2.524   3.194  0.3438 -0.1516 -0.0262
 6905SOL    HW132351   2.225   2.483   3.278 -1.0942 -0.0103  0.4088
 6905SOL    HW232352   2.282   2.578   3.180 -0.4826  0.8184 -0.8939
 6906SOL     OW32353   2.040   0.294   8.481 -0.1872 -0.1401 -0.2562
 6906SOL    HW132354   2.116   0.336   8.522 -1.2503  2.3558 -0.9121
 6906SOL    HW232355   2.002   0.370   8.438  2.3306  0.7298 -0.9324
 6907SOL     OW32356   0.252   2.609   5.775  0.2086  0.0924  0.4100
 6907SOL    HW132357   0.205   2.692   5.788  0.3187  0.1560  0.4000
 6907SOL    HW232358   0.181   2.566   5.726 -2.5413  3.0351  1.7460
 6908SOL     OW32359   2.876   3.366  13.002  0.5213 -0.1419  0.0731
 6908SOL    HW132360   2.928   3.432  13.048 -1.0436  1.6935 -0.7749
 6908SOL    HW232361   2.786   3.382  13.032  0.4071  0.8682 -0.7999
 6909SOL     OW32362   3.244   2.851   3.465 -0.2426  0.1675  0.3977
 6909SOL    HW132363   3.235   2.909   3.541  3.5805  1.2336  0.0361
 6909SOL    HW232364   3.284   2.912   3.404 -0.0617  0.1839  0.5308
 6910SOL     OW32365   0.197   4.414   6.735 -0.3322 -0.7753  0.1788
 6910SOL    HW132366   0.177   4.349   6.668 -0.3095 -0.1338 -0.4443
 6910SOL    HW232367   0.268   4.377   6.787  1.6817 -0.7313 -2.6028
 6911SOL     OW32368   1.292   2.464   2.518  0.8270 -0.2030 -0.1167
 6911SOL    HW132369   1.386   2.468   2.499  1.0173  1.7284  1.3038
 6911SOL    HW232370   1.257   2.468   2.429  0.9444  0.2381 -0.1427
 6912SOL     OW32371   4.310   4.207   6.558 -0.3496  0.4245  0.1220
 6912SOL    HW132372   4.227   4.159   6.563 -0.6003  0.5563 -2.4589
 6912SOL    HW232373   4.289   4.268   6.487  0.4445 -1.9475 -2.1670
 6913SOL     OW32374   1.393   3.244   5.167  0.0653  0.3613 -0.1717
 6913SOL    HW132375   1.435   3.286   5.242  1.0968  0.0422 -0.5714
 6913SOL    HW232376   1.319   3.200   5.208  0.2188  0.6679  0.4409
 6914SOL     OW32377   1.330   0.714   3.022 -0.3235 -0.2546 -0.3134
 6914SOL    HW132378   1.393   0.705   3.093 -0.4441 -1.0293 -0.3031
 6914SOL    HW232379   1.373   0.746   2.942 -0.3911  2.4460  0.7436
 6915SOL     OW32380   4.201   3.583  14.242 -0.3217 -0.1143 -0.4390
 6915SOL    HW132381   4.147   3.649  14.198  0.0597  1.1593  1.0191
 6915SOL    HW232382   4.270   3.644  14.268 -2.1622  0.6233  2.7011
 6916SOL     OW32383   0.365   4.545  12.132  0.5321  0.6243 -0.2320
 6916SOL    HW132384   0.291   4.606  12.123 -0.0411 -0.0197  0.0884
 6916SOL    HW232385   0.364   4.520  12.224  1.6489  0.9841 -0.1286
 6917SOL     OW32386   3.682   2.740   6.636  0.4090  0.0435 -0.0393
 6917SOL    HW132387   3.776   2.749   6.649  0.3811  1.1665 -0.6288
 6917SOL    HW232388   3.684   2.689   6.555  0.2979  0.2252 -0.1543
 6918SOL     OW32389   3.848   1.264  15.033 -0.5213  0.1666  0.0837
 6918SOL    HW132390   3.854   1.334  14.968 -1.4104  0.9780  0.8790
 6918SOL    HW232391   3.885   1.303  15.112 -0.3354  0.6433 -0.2331
 6919SOL     OW32392   0.128   3.157   5.589 -0.2075  0.3366 -0.0593
 6919SOL    HW132393   0.182   3.190   5.661  0.4971  0.7436 -0.7799
 6919SOL    HW232394   0.196   3.116   5.536 -1.6298 -0.1404 -1.5195
 6920SOL     OW32395   0.988   0.240  12.955  0.2065  0.1440  0.2477
 6920SOL    HW132396   0.972   0.263  12.863  2.3349 -1.3132 -0.5060
 6920SOL    HW232397   0.899   0.238  12.989  0.4049  0.1721  0.7660
 6921SOL     OW32398   1.524   3.235  16.229 -0.6056  0.3294 -0.2304
 6921SOL    HW132399   1.536   3.233  16.324  0.3018  0.7329 -0.3320
 6921SOL    HW232400   1.601   3.283  16.199 -2.4447  2.4792 -1.5442
 6922SOL     OW32401   0.248   4.403   8.480  0.2614 -0.0290 -0.4458
 6922SOL    HW132402   0.277   4.432   8.566 -0.9350 -1.7316  0.5411
 6922SOL    HW232403   0.330   4.413   8.431  1.0315  0.9381  1.0401
 6923SOL     OW32404   2.160   2.954  16.048 -1.0191 -0.0667  0.2880
 6923SOL    HW132405   2.197   2.867  16.032  0.3104  0.2953  1.3669
 6923SOL    HW232406   2.072   2.934  16.019 -0.8003  1.7223 -1.5639
 6924SOL     OW32407   0.421   3.911   1.781 -0.4757 -0.3202 -0.3582
 6924SOL    HW132408   0.371   3.946   1.708  0.0711 -0.4286 -0.7813
 6924SOL    HW232409   0.421   3.990   1.836  0.5574  0.3605 -1.3320
 6925SOL     OW32410   1.116   3.011   9.664 -0.0612 -0.6284 -0.0979
 6925SOL    HW132411   1.102   3.036   9.573 -1.1269  1.1137  0.5454
 6925SOL    HW232412   1.211   3.011   9.671 -0.0497  0.2480 -0.2336
 6926SOL     OW32413   1.118   3.334   4.209  0.3085  0.1597 -0.0172
 6926SOL    HW132414   1.210   3.341   4.185  0.9328  1.5352  2.8118
 6926SOL    HW232415   1.082   3.296   4.129  0.4059 -2.1867  1.0693
 6927SOL     OW32416   2.504   0.949  10.961 -0.4775 -0.2854  0.1905
 6927SOL    HW132417   2.471   0.993  11.039 -0.8786 -0.5380  0.1644
 6927SOL    HW232418   2.466   0.992  10.884  3.1539  1.0018 -0.8995
 6928SOL     OW32419   3.879   4.683   5.222 -0.0376  0.0573  0.8287
 6928SOL    HW132420   3.866   0.027   5.174  2.0832  1.4889  2.7083
 6928SOL    HW232421   3.849   4.629   5.149  0.9285  0.2270  0.3110
 6929SOL     OW32422   2.164   1.258   1.413  0.3306  0.5815 -0.1663
 6929SOL    HW132423   2.085   1.212   1.442  1.1937 -0.3767  0.6712
 6929SOL    HW232424   2.137   1.254   1.321  0.0065 -0.3387 -0.0340
 6930SOL     OW32425   3.703   3.268  16.436 -0.7133  0.2070  0.3887
 6930SOL    HW132426   3.757   3.216  16.495  0.2133 -0.1389 -0.7640
 6930SOL    HW232427   3.624   3.279  16.488  0.6394  0.7302  2.3059
 6931SOL     OW32428   0.043   3.585   2.511 -0.0478 -0.0459  0.0592
 6931SOL    HW132429   0.035   3.536   2.594  0.8109 -0.1805  0.0625
 6931SOL    HW232430   4.690   3.575   2.485  0.7728  0.4124 -2.9498
 6932SOL     OW32431   0.571   4.564  15.516 -0.4982  0.5514  0.0237
 6932SOL    HW132432   0.620   4.646  15.519  0.2099  0.0691  1.2034
 6932SOL    HW232433   0.515   4.578  15.439 -0.6822 -1.6292 -0.2517
 6933SOL     OW32434   1.272   3.353   3.268  0.4653 -0.2486  0.0459
 6933SOL    HW132435   1.367   3.342   3.263  0.8088  2.1674  1.3046
 6933SOL    HW232436   1.268   3.449   3.267  1.1767 -0.2195  0.3313
 6934SOL     OW32437   4.608   0.555   1.310 -0.0945  0.4278  0.2006
 6934SOL    HW132438   4.688   0.584   1.354  1.1523  1.0678 -2.4795
 6934SOL    HW232439   4.630   0.571   1.218  2.4500 -1.3145  0.5190
 6935SOL     OW32440   1.744   1.377   1.361  0.2056 -0.4066 -0.3719
 6935SOL    HW132441   1.818   1.436   1.347  0.3088 -0.7291 -1.1604
 6935SOL    HW232442   1.799   1.301   1.377  0.4164  0.1234  1.4660
 6936SOL     OW32443   2.785   1.166   5.140 -0.2145 -0.0208  0.3821
 6936SOL    HW132444   2.860   1.191   5.194 -2.0942  0.9192  2.5558
 6936SOL    HW232445   2.810   1.215   5.062 -0.6122  0.8317  0.7949
 6937SOL     OW32446   4.239   4.412   4.701  0.1109  0.3287 -0.4077
 6937SOL    HW132447   4.200   4.426   4.787 -3.2673  0.8610 -2.0455
 6937SOL    HW232448   4.198   4.489   4.662 -1.3455 -0.6311 -0.7749
 6938SOL     OW32449   3.519   3.282  15.505 -0.0482 -0.0683  0.2278
 6938SOL    HW132450   3.579   3.229  15.454  1.6564  1.3978  0.7319
 6938SOL    HW232451   3.553   3.371  15.500  0.9744 -0.5999 -2.3116
 6939SOL     OW32452   0.443   0.108   7.094 -0.3734 -0.0660 -0.0150
 6939SOL    HW132453   0.422   0.201   7.091 -0.1096 -0.0541 -1.5703
 6939SOL    HW232454   0.444   0.096   7.189  1.6691  4.4394  0.5422
 6940SOL     OW32455   1.099   1.527   9.311  0.3491  0.0400  0.2103
 6940SOL    HW132456   1.006   1.548   9.314 -0.1817 -2.2985  0.3618
 6940SOL    HW232457   1.100   1.455   9.374  2.8650 -0.7834 -0.7498
 6941SOL     OW32458   2.892   3.764   2.299 -0.2320 -0.2717  0.0987
 6941SOL    HW132459   2.813   3.726   2.337 -0.0303  0.1470  0.9508
 6941SOL    HW232460   2.864   3.849   2.263 -0.2798 -0.0987  0.5426
 6942SOL     OW32461   1.930   3.740  10.203 -0.0542  0.5450  0.2342
 6942SOL    HW132462   1.887   3.714  10.122  1.2462 -1.2026  0.1128
 6942SOL    HW232463   1.883   3.823  10.217 -0.4678  0.0836  1.5219
 6943SOL     OW32464   4.239   2.557   5.844  0.5697  0.3905  0.2290
 6943SOL    HW132465   4.261   2.644   5.810  0.4887  1.2597  2.4248
 6943SOL    HW232466   4.313   2.499   5.826 -0.3247 -0.9026  0.7784
 6944SOL     OW32467   3.311   2.174   2.922 -0.0362  0.1980 -1.0728
 6944SOL    HW132468   3.243   2.195   2.985  0.2527 -0.5958 -0.4972
 6944SOL    HW232469   3.358   2.101   2.962 -2.0918 -2.0220 -2.7004
 6945SOL     OW32470   2.764   1.704   2.904  0.3202  0.4429  0.5206
 6945SOL    HW132471   2.721   1.695   2.818  2.2975 -0.2734 -0.3982
 6945SOL    HW232472   2.853   1.731   2.882  0.0862 -0.6641 -1.8014
 6946SOL     OW32473   0.044   2.712   9.835 -0.1431 -0.2624 -0.3958
 6946SOL    HW132474   0.104   2.738   9.765 -0.2149  2.5937  0.6303
 6946SOL    HW232475   0.079   2.756   9.912  0.3099 -2.4312  0.6445
 6947SOL     OW32476   0.870   0.510  12.139 -0.3730  0.1763 -0.2856
 6947SOL    HW132477   0.802   0.552  12.086 -0.4334  1.0182  0.4647
 6947SOL    HW232478   0.822   0.458  12.203  1.2521 -1.2650 -0.2444
 6948SOL     OW32479   0.594   3.565   2.762 -0.1087 -0.4439  0.2174
 6948SOL    HW132480   0.653   3.503   2.806  1.6756  0.7416 -0.5180
 6948SOL    HW232481   0.538   3.611   2.825 -1.2171 -1.2206 -0.2089
 6949SOL     OW32482   2.851   2.297   8.360  0.3215  0.4840  0.2990
 6949SOL    HW132483   2.885   2.334   8.279 -0.7155 -2.8939 -1.6818
 6949SOL    HW232484   2.815   2.212   8.336  1.3396  0.1645 -0.0564
 6950SOL     OW32485   2.097   1.526   3.386  0.0316 -0.1111  0.2471
 6950SOL    HW132486   2.034   1.502   3.454  1.5583 -1.8338  1.0213
 6950SOL    HW232487   2.069   1.614   3.358  0.7836 -0.6818 -2.2923
 6951SOL     OW32488   4.707   2.805   2.313 -0.0512  0.1540 -0.0244
 6951SOL    HW132489   0.046   2.861   2.308  0.3448 -0.2033  2.3471
 6951SOL    HW232490   4.646   2.868   2.351  0.3881  0.9683 -0.6765
 6952SOL     OW32491   3.929   1.134   9.225  0.1809 -0.2661 -0.2787
 6952SOL    HW132492   3.916   1.116   9.132 -1.8023  1.4567 -0.3307
 6952SOL    HW232493   3.955   1.053   9.269 -1.6191  0.1884  1.5993
 6953SOL     OW32494   3.855   1.861   1.374  0.5253  0.0755  0.3205
 6953SOL    HW132495   3.921   1.828   1.312  0.2239 -0.6587  0.3944
 6953SOL    HW232496   3.785   1.798   1.358 -1.2766  1.8441  1.2549
 6954SOL     OW32497   2.228   3.347  12.169  0.0668 -0.1484 -0.2119
 6954SOL    HW132498   2.250   3.255  12.154  2.8904  0.3770  0.8259
 6954SOL    HW232499   2.140   3.327  12.202  0.4798 -0.9817  0.3942
 6955SOL     OW32500   4.569   3.959   8.265  0.1085  0.0453  0.3887
 6955SOL    HW132501   4.574   3.960   8.169  1.2011  0.7304  0.4613
 6955SOL    HW232502   4.477   3.983   8.270 -0.2090 -1.4384  1.8365
 6956SOL     OW32503   2.503   3.105   9.737  0.2662 -0.0836 -0.0486
 6956SOL    HW132504   2.435   3.037   9.736  0.8683 -0.6303 -3.0741
 6956SOL    HW232505   2.581   3.049   9.740  0.6253  0.4282  0.0623
 6957SOL     OW32506   2.032   1.356   4.320  0.2298  0.0300 -0.5596
 6957SOL    HW132507   2.023   1.420   4.249 -1.8933  1.0824  0.6393
 6957SOL    HW232508   2.059   1.418   4.388  0.7076  0.9767 -1.6029
 6958SOL     OW32509   4.524   0.012   9.196  0.4570  0.2254 -0.0092
 6958SOL    HW132510   4.556   0.050   9.278 -1.3684 -1.4120  1.4680
 6958SOL    HW232511   4.608   4.722   9.160  2.0288  2.4414  1.9640
 6959SOL     OW32512   1.327   0.248   5.175 -0.5182  0.4580  0.4888
 6959SOL    HW132513   1.323   0.183   5.246 -1.3510 -0.5013 -0.4336
 6959SOL    HW232514   1.267   0.214   5.109  1.5672  1.2694 -1.8227
 6960SOL     OW32515   0.954   1.372   0.487 -1.0797  0.4342  0.1073
 6960SOL    HW132516   0.983   1.455   0.450 -1.0799  0.9170  1.1955
 6960SOL    HW232517   0.969   1.390   0.580 -1.3399  0.7046  0.0952
 6961SOL     OW32518   3.503   4.670   3.119  0.3962  0.7490  0.3805
 6961SOL    HW132519   3.547   4.592   3.152  1.2448  1.3176  0.6036
 6961SOL    HW232520   3.414   4.636   3.118  0.9414 -0.7231  1.3085
 6962SOL     OW32521   4.541   1.960  17.354  0.5831 -0.2547  0.0717
 6962SOL    HW132522   4.451   1.974  17.384  1.1308 -0.4574  1.8530
 6962SOL    HW232523   4.584   2.033  17.399  1.3454 -0.1777 -0.7872
 6963SOL     OW32524   0.339   0.144   8.567 -0.0260  0.0748 -0.0458
 6963SOL    HW132525   0.367   0.090   8.641 -0.7321 -1.2553 -0.7493
 6963SOL    HW232526   0.263   0.188   8.606 -0.5955 -0.6385 -0.3419
 6964SOL     OW32527   2.214   1.788   8.708  0.3951  0.2038 -0.0734
 6964SOL    HW132528   2.295   1.816   8.665 -0.9903  2.0684 -1.5014
 6964SOL    HW232529   2.190   1.872   8.749 -1.6297 -1.0010  1.2134
 6965SOL     OW32530   1.487   2.912   6.888  0.0957 -0.9037  0.0591
 6965SOL    HW132531   1.521   2.880   6.971  0.7404 -0.7212 -0.1398
 6965SOL    HW232532   1.486   2.830   6.840  0.2001 -0.6893 -0.3072
 6966SOL     OW32533   1.994   0.068   7.493 -0.3360 -0.2652  0.1001
 6966SOL    HW132534   1.947   0.051   7.412 -0.5311 -0.9827  0.3633
 6966SOL    HW232535   1.962   4.733   7.545 -1.1719 -0.1816 -0.2911
 6967SOL     OW32536   2.478   0.773   1.451  0.4422 -0.1757 -0.2001
 6967SOL    HW132537   2.499   0.765   1.358 -0.3767 -0.5868 -0.3455
 6967SOL    HW232538   2.508   0.864   1.461 -0.1934  0.0295 -0.1808
 6968SOL     OW32539   1.528   4.190  17.286 -0.2760 -0.7181  0.0132
 6968SOL    HW132540   1.441   4.204  17.325 -1.1322 -0.6534 -1.8703
 6968SOL    HW232541   1.531   4.095  17.279  0.0646 -0.8589  2.3392
 6969SOL     OW32542   3.634   2.086   2.743  0.0619  0.6591  0.0485
 6969SOL    HW132543   3.668   2.167   2.705 -1.5501  1.0404 -0.5556
 6969SOL    HW232544   3.638   2.109   2.836 -0.0621  1.4596 -0.1463
 6970SOL     OW32545   3.787   1.425   9.916 -0.5575 -0.3641  0.3269
 6970SOL    HW132546   3.705   1.381   9.892  0.1134 -0.3549 -1.9601
 6970SOL    HW232547   3.829   1.358   9.970 -0.4820 -0.0697  0.6337
 6971SOL     OW32548   0.861   2.669   3.004  0.4804  0.4085 -0.8261
 6971SOL    HW132549   0.798   2.617   3.055  2.1387 -0.8772 -0.0915
 6971SOL    HW232550   0.920   2.597   2.979  2.6087  2.2571 -1.0787
 6972SOL     OW32551   1.911   2.711   4.281 -0.0478 -0.4858  0.6741
 6972SOL    HW132552   1.819   2.684   4.285 -0.6385  1.4582  0.4457
 6972SOL    HW232553   1.918   2.773   4.208 -2.2339 -0.5090  0.4209
 6973SOL     OW32554   2.837   0.732   7.719  0.0218 -0.1740  0.4844
 6973SOL    HW132555   2.748   0.766   7.728 -0.1313 -0.4724  0.1078
 6973SOL    HW232556   2.843   0.665   7.787 -0.0417 -1.0980 -0.4182
 6974SOL     OW32557   0.513   0.024   9.516  0.0287  0.4882 -0.2262
 6974SOL    HW132558   0.531   0.108   9.473 -0.2897  1.2740  1.1992
 6974SOL    HW232559   0.591   0.005   9.568 -1.2592  3.6402  2.8077
 6975SOL     OW32560   3.901   3.803   6.872 -0.4246  0.1525  0.0051
 6975SOL    HW132561   3.962   3.782   6.802 -1.0903  0.2176 -0.5941
 6975SOL    HW232562   3.869   3.716   6.896  0.2511  0.2084  1.1580
 6976SOL     OW32563   2.113   0.359   1.801  0.2642  0.4279  0.3669
 6976SOL    HW132564   2.027   0.318   1.805  0.5318 -0.0282  1.3612
 6976SOL    HW232565   2.091   0.428   1.865 -0.9837 -0.6766  1.1143
 6977SOL     OW32566   3.946   1.535   3.775 -0.4574 -0.2587 -0.3307
 6977SOL    HW132567   3.884   1.462   3.776 -0.8106  0.0586  1.4446
 6977SOL    HW232568   3.890   1.601   3.816 -1.3925 -0.9647 -0.4769
 6978SOL     OW32569   1.237   1.153   5.658  0.6833  0.1079 -0.2763
 6978SOL    HW132570   1.300   1.090   5.624 -0.4623 -0.0678 -2.0924
 6978SOL    HW232571   1.175   1.093   5.698  0.3352  0.8574  0.3060
 6979SOL     OW32572   3.674   0.093  15.452  0.3771 -0.1643 -0.0521
 6979SOL    HW132573   3.645   0.002  15.445  1.5588 -0.6711  1.5201
 6979SOL    HW232574   3.593   0.144  15.446  0.3869 -0.1120  0.2868
 6980SOL     OW32575   4.628   1.993  16.665  0.6263  0.0667  0.2789
 6980SOL    HW132576   4.601   2.051  16.593 -2.1992  0.7601  1.9136
 6980SOL    HW232577   4.652   1.913  16.618 -0.4963 -0.2128  0.1684
 6981SOL     OW32578   2.789   4.166  14.895  1.3647  0.1561 -0.0379
 6981SOL    HW132579   2.807   4.076  14.924  2.5698  0.9147  1.6052
 6981SOL    HW232580   2.825   4.170  14.806 -2.1488 -1.0788 -1.4822
 6982SOL     OW32581   1.595   2.854   7.125  0.1104  0.2860  1.0580
 6982SOL    HW132582   1.683   2.818   7.123  0.6322  1.5943  0.7595
 6982SOL    HW232583   1.587   2.870   7.219 -0.2920 -3.0426  1.6081
 6983SOL     OW32584   1.737   2.533   5.978  0.7538 -0.6364 -0.1694
 6983SOL    HW132585   1.831   2.517   5.980  0.3305 -2.7123  1.6714
 6983SOL    HW232586   1.724   2.583   6.058 -0.6646 -0.0092 -0.7847
 6984SOL     OW32587   2.288   4.604  15.961  0.8997 -0.4491 -0.1912
 6984SOL    HW132588   2.278   4.512  15.935 -0.7043 -0.0316 -1.0303
 6984SOL    HW232589   2.265   4.592  16.053  1.0893  1.1503  0.0694
 6985SOL     OW32590   2.517   4.262   3.839  0.0700  0.4844  0.6032
 6985SOL    HW132591   2.611   4.248   3.836  0.3725  2.8534 -0.9633
 6985SOL    HW232592   2.480   4.175   3.822  0.0249  0.3759  1.2764
 6986SOL     OW32593   3.409   2.850   5.536 -0.2974  0.1007 -0.2982
 6986SOL    HW132594   3.387   2.936   5.573  0.1168 -0.5340  1.4196
 6986SOL    HW232595   3.411   2.793   5.613 -0.4776 -0.4880 -0.7359
 6987SOL     OW32596   1.765   1.598   6.393  0.5381 -0.0163  0.1400
 6987SOL    HW132597   1.802   1.535   6.331  0.1509 -2.0795  1.9993
 6987SOL    HW232598   1.747   1.534   6.462 -1.9097  1.2604  0.6895
 6988SOL     OW32599   2.678   1.021   9.581  0.4951 -0.1385 -0.0575
 6988SOL    HW132600   2.675   0.963   9.657 -2.1078 -0.2418 -0.2157
 6988SOL    HW232601   2.740   1.088   9.608  0.3832  0.1910 -0.6299
 6989SOL     OW32602   2.226   1.937   7.346 -0.5742  0.1074 -0.2250
 6989SOL    HW132603   2.261   1.936   7.257  1.1895 -0.2431  0.4679
 6989SOL    HW232604   2.308   1.962   7.390  0.4844 -0.2025 -2.0145
 6990SOL     OW32605   1.952   0.772   6.572 -0.1246 -0.1830 -0.3022
 6990SOL    HW132606   1.931   0.851   6.522 -0.9170  1.5213  2.6831
 6990SOL    HW232607   1.906   0.783   6.655  0.7467 -0.3926  0.2168
 6991SOL     OW32608   4.525   1.824   7.722  0.1115 -0.2012  0.1005
 6991SOL    HW132609   4.548   1.889   7.788 -2.4511  0.1477  0.6529
 6991SOL    HW232610   4.446   1.870   7.691 -0.3319 -1.2206 -0.3089
 6992SOL     OW32611   3.709   0.323   5.240  0.2941  0.1795 -0.5027
 6992SOL    HW132612   3.746   0.354   5.158  0.9560  1.6142  0.3292
 6992SOL    HW232613   3.701   0.404   5.290  1.5316 -0.9855  1.6325
 6993SOL     OW32614   2.718   3.829   3.145 -0.3132  0.1448  0.1162
 6993SOL    HW132615   2.635   3.823   3.097 -0.1074 -1.2973 -0.0647
 6993SOL    HW232616   2.762   3.750   3.116  0.9702  0.7221  0.4880
 6994SOL     OW32617   1.781   0.473   5.376 -0.4136 -0.4144  0.5774
 6994SOL    HW132618   1.873   0.446   5.378 -0.7588 -1.6644 -1.0060
 6994SOL    HW232619   1.795   0.567   5.387 -1.1035 -0.6046  3.0777
 6995SOL     OW32620   1.229   3.699   5.731 -0.3906 -0.0740 -0.4327
 6995SOL    HW132621   1.237   3.660   5.644  1.1762  0.0669 -0.3512
 6995SOL    HW232622   1.235   3.793   5.716  1.1592  0.0139  0.7076
 6996SOL     OW32623   2.789   1.333  16.958  0.2641 -0.3214  0.3817
 6996SOL    HW132624   2.828   1.281  16.888 -1.7549 -1.7073  0.3117
 6996SOL    HW232625   2.831   1.419  16.956 -2.0310  0.7957  0.3000
 6997SOL     OW32626   1.684   0.740   9.932  0.2257 -0.0172 -0.2345
 6997SOL    HW132627   1.678   0.828   9.968 -0.2818 -0.6535  1.2260
 6997SOL    HW232628   1.773   0.715   9.957  0.3920 -0.7985 -1.5652
 6998SOL     OW32629   3.029   2.323   7.554 -0.2467  0.6058  0.4063
 6998SOL    HW132630   2.939   2.320   7.586  0.2903  1.6435  1.9802
 6998SOL    HW232631   3.024   2.296   7.462 -0.3171 -1.9335  1.1543
 6999SOL     OW32632   0.101   3.507  14.607 -0.1537 -0.1594  0.0446
 6999SOL    HW132633   0.010   3.497  14.578 -1.4186  1.7060  3.3023
 6999SOL    HW232634   0.123   3.588  14.563 -3.8073 -1.4090 -4.0866
 7000SOL     OW32635   1.564   1.995   5.270  0.0920  0.1869  0.4853
 7000SOL    HW132636   1.615   1.956   5.341 -0.6679  0.5499  1.2219
 7000SOL    HW232637   1.516   2.067   5.310  0.7219  0.1994  1.2375
 7001SOL     OW32638   2.421   3.788   7.062  0.2411  0.1771 -0.1841
 7001SOL    HW132639   2.489   3.780   6.995  0.4254 -0.0989  0.0346
 7001SOL    HW232640   2.465   3.745   7.136  0.7313 -0.5322 -0.8802
 7002SOL     OW32641   1.179   3.401   2.657 -0.2825  0.1597 -0.5519
 7002SOL    HW132642   1.242   3.348   2.608 -1.0089 -1.0708 -0.1350
 7002SOL    HW232643   1.179   3.346   2.735 -2.0156 -0.0271 -0.6869
 7003SOL     OW32644   2.834   3.575   8.789 -0.0102  0.0302 -0.1679
 7003SOL    HW132645   2.745   3.609   8.796 -0.7488 -1.3284 -2.8876
 7003SOL    HW232646   2.835   3.570   8.694 -1.2490 -3.4824  0.0204
 7004SOL     OW32647   1.958   1.600   2.015  0.2610 -0.5625 -0.0754
 7004SOL    HW132648   1.979   1.651   2.093 -1.6429  0.6687 -0.3740
 7004SOL    HW232649   1.898   1.657   1.968  1.6745  0.9319 -0.0741
 7005SOL     OW32650   2.581   0.225  15.203  0.0101 -0.0632  0.0886
 7005SOL    HW132651   2.511   0.179  15.158 -0.7584 -0.3967  1.6281
 7005SOL    HW232652   2.543   0.224  15.290 -1.0720 -0.2171 -0.3926
 7006SOL     OW32653   2.874   1.232   2.767 -0.4000  0.6212  0.8841
 7006SOL    HW132654   2.923   1.313   2.783  1.1532  0.0976 -1.2535
 7006SOL    HW232655   2.848   1.213   2.857  1.3844 -1.3063  1.0024
 7007SOL     OW32656   0.636   2.927   6.435  0.1115  0.5375 -0.0304
 7007SOL    HW132657   0.662   3.012   6.398  1.9407  0.2765  0.6597
 7007SOL    HW232658   0.540   2.926   6.431  0.0587  1.4524  0.7323
 7008SOL     OW32659   1.146   2.843   5.955  0.4901  0.0119 -0.1042
 7008SOL    HW132660   1.093   2.815   5.880  2.4883 -0.7380 -1.2421
 7008SOL    HW232661   1.142   2.938   5.940  2.1422 -0.3037 -2.4816
 7009SOL     OW32662   0.568   2.307   9.468  0.0667  0.0827  0.7436
 7009SOL    HW132663   0.479   2.289   9.497  0.5140 -0.3091  1.8811
 7009SOL    HW232664   0.554   2.344   9.381  1.2809  0.9365  0.9195
 7010SOL     OW32665   4.054   3.333   5.708  0.1272  0.5295 -0.1207
 7010SOL    HW132666   4.096   3.412   5.674  0.1225  1.4494  2.0206
 7010SOL    HW232667   4.045   3.285   5.626  1.3298 -0.1788  0.1583
 7011SOL     OW32668   0.879   2.998  11.033 -0.0009  0.0998 -0.5188
 7011SOL    HW132669   0.832   3.027  11.111  1.3513 -0.6306  0.5702
 7011SOL    HW232670   0.914   3.080  10.998  2.7346  0.0921  2.1609
 7012SOL     OW32671   2.517   1.661  13.730  0.3088  0.4891 -0.2109
 7012SOL    HW132672   2.506   1.609  13.810  0.9137  0.2495 -0.2765
 7012SOL    HW232673   2.435   1.651  13.682  0.3947 -0.3546 -0.1843
 7013SOL     OW32674   2.761   3.810  14.236  0.4002 -0.6636 -0.0615
 7013SOL    HW132675   2.841   3.757  14.229  1.5005  0.8740  0.7727
 7013SOL    HW232676   2.692   3.749  14.259  1.6452 -2.2296 -0.4626
 7014SOL     OW32677   0.396   4.261   1.438  0.0477 -0.4171  0.0585
 7014SOL    HW132678   0.466   4.234   1.497  1.5815 -1.1867 -2.1314
 7014SOL    HW232679   0.343   4.181   1.427 -2.0370  1.1129 -1.1346
 7015SOL     OW32680   0.401   3.821   0.662  0.0374 -0.1942  0.2760
 7015SOL    HW132681   0.328   3.865   0.705 -0.7211 -1.5880  0.4345
 7015SOL    HW232682   0.442   3.886   0.605  1.5943 -0.2978  1.2703
 7016SOL     OW32683   0.564   1.435  12.304 -0.3567 -0.3624 -0.4891
 7016SOL    HW132684   0.603   1.348  12.313  0.0541 -0.1419 -0.1402
 7016SOL    HW232685   0.474   1.420  12.335  0.1126  2.2398  2.0548
 7017SOL     OW32686   4.011   1.276  14.625 -0.6265  0.1545  0.2210
 7017SOL    HW132687   3.952   1.200  14.621  0.4800 -0.6287 -1.1886
 7017SOL    HW232688   3.956   1.342  14.666 -0.9611 -0.6749  1.1210
 7018SOL     OW32689   0.297   0.232   4.175 -0.1104  0.4454  0.0349
 7018SOL    HW132690   0.335   0.265   4.093 -0.8134 -1.5479 -1.0771
 7018SOL    HW232691   0.246   0.161   4.136 -0.3369  1.3748 -1.3729
 7019SOL     OW32692   3.738   3.530  16.628  0.1541 -0.0626 -0.1971
 7019SOL    HW132693   3.799   3.457  16.635 -0.0799 -0.2466 -0.0730
 7019SOL    HW232694   3.673   3.494  16.689 -0.0612  2.7989  1.2544
 7020SOL     OW32695   2.453   2.555   4.111  0.1597 -0.1790 -0.0482
 7020SOL    HW132696   2.467   2.541   4.205 -0.0970  0.3502  0.0674
 7020SOL    HW232697   2.538   2.522   4.082  0.8154  1.2609  0.1853
 7021SOL     OW32698   3.113   1.805  14.371 -0.5253 -0.8216  0.1347
 7021SOL    HW132699   3.077   1.766  14.292  0.2452  1.8148 -1.4792
 7021SOL    HW232700   3.176   1.865  14.332 -0.4396 -1.8289 -1.2769
 7022SOL     OW32701   1.052   4.482   1.241  0.2933 -0.1820 -0.2069
 7022SOL    HW132702   1.108   4.559   1.236 -2.5189  1.8335 -0.9206
 7022SOL    HW232703   0.982   4.511   1.299 -0.8167 -2.3318 -0.4420
 7023SOL     OW32704   2.678   1.711   4.869  0.2718  0.3804 -0.3699
 7023SOL    HW132705   2.595   1.703   4.917 -0.1764  0.9175 -1.0665
 7023SOL    HW232706   2.668   1.771   4.796  1.1196  1.0749  0.0932
 7024SOL     OW32707   3.632   1.599   0.590 -0.1387 -0.1895 -0.4216
 7024SOL    HW132708   3.568   1.549   0.640 -0.2115  0.4637  0.1358
 7024SOL    HW232709   3.698   1.599   0.659  1.4271 -0.5714 -1.9241
 7025SOL     OW32710   4.075   4.396   7.115 -0.5431  0.3711  0.1898
 7025SOL    HW132711   4.132   4.333   7.071 -1.7732  0.0335 -0.9391
 7025SOL    HW232712   3.997   4.344   7.135 -2.2313  2.8914  0.1528
 7026SOL     OW32713   0.764   2.304   0.234  0.6038  0.0488  0.2440
 7026SOL    HW132714   0.716   2.286   0.153  4.2447  0.7488 -2.0734
 7026SOL    HW232715   0.804   2.385   0.201 -0.0658  0.2939  0.0310
 7027SOL     OW32716   2.590   1.882   8.205 -0.5342 -0.3445  0.3136
 7027SOL    HW132717   2.545   1.813   8.253 -0.1650  0.3943  1.7215
 7027SOL    HW232718   2.526   1.952   8.216 -1.0309 -0.7388 -0.0996
 7028SOL     OW32719   0.781   2.000   1.892  0.6520 -0.4978 -0.8564
 7028SOL    HW132720   0.810   2.088   1.868 -1.0092 -0.1120 -1.4879
 7028SOL    HW232721   0.713   1.971   1.830  1.4480 -2.9001 -0.5720
 7029SOL     OW32722   0.155   1.929   0.454  0.5574  0.0270  0.4751
 7029SOL    HW132723   0.123   1.839   0.446  0.6802  0.0310 -0.0585
 7029SOL    HW232724   0.236   1.929   0.403  0.7068  1.1237  0.7164
 7030SOL     OW32725   3.508   0.617   1.100  0.0799 -0.4346  0.4622
 7030SOL    HW132726   3.491   0.589   1.010 -1.1750  1.8127 -0.0095
 7030SOL    HW232727   3.587   0.671   1.089  0.4632 -0.9609  0.6549
 7031SOL     OW32728   4.221   2.070   6.487 -0.0423  0.2459 -0.2017
 7031SOL    HW132729   4.197   2.019   6.565 -0.7709  0.2121 -0.4439
 7031SOL    HW232730   4.211   2.002   6.420 -1.1724  0.0892  0.1211
 7032SOL     OW32731   1.631   0.473   5.877 -0.4199  0.1497 -0.1494
 7032SOL    HW132732   1.567   0.541   5.896  1.2154  1.2121  1.5971
 7032SOL    HW232733   1.699   0.518   5.827 -0.7305 -0.1067 -0.8034
 7033SOL     OW32734   4.288   2.431   2.337 -0.7649 -0.4473  0.3552
 7033SOL    HW132735   4.316   2.518   2.364 -0.9803  0.7104 -3.2523
 7033SOL    HW232736   4.196   2.424   2.361 -0.8258 -2.6403 -0.5177
 7034SOL     OW32737   2.181   2.578   4.068 -0.5146  0.3821 -0.4309
 7034SOL    HW132738   2.153   2.495   4.108  0.8107 -0.4480 -1.1942
 7034SOL    HW232739   2.275   2.584   4.084 -0.3666 -2.0371 -0.3102
 7035SOL     OW32740   3.828   0.227  13.776 -0.5970  0.9848 -0.0577
 7035SOL    HW132741   3.757   0.163  13.787  0.2074  0.3208  1.2876
 7035SOL    HW232742   3.784   0.301  13.733 -1.6747 -1.1268 -2.5575
 7036SOL     OW32743   0.974   4.388   6.479 -0.3482  0.4423  0.3179
 7036SOL    HW132744   1.038   4.455   6.454 -0.3135  0.9299  1.7091
 7036SOL    HW232745   0.896   4.408   6.427  1.4243  1.1549 -2.1041
 7037SOL     OW32746   1.727   1.765   8.799  0.0602  0.2778  0.9922
 7037SOL    HW132747   1.798   1.769   8.863  0.0595 -3.9742  1.3135
 7037SOL    HW232748   1.753   1.840   8.746 -0.1365  0.1823  0.7579
 7038SOL     OW32749   1.833   2.366   3.089 -0.6994 -0.7669 -0.1222
 7038SOL    HW132750   1.779   2.362   3.167 -0.5168 -0.8256  0.0020
 7038SOL    HW232751   1.779   2.420   3.031 -2.4512 -1.9461  0.4270
 7039SOL     OW32752   4.148   4.628  13.846  0.3431 -0.4558 -0.5872
 7039SOL    HW132753   4.221   4.672  13.802  0.0254  0.9014  0.2401
 7039SOL    HW232754   4.178   4.644  13.936 -0.9859 -0.6552 -0.1090
 7040SOL     OW32755   2.967   0.603   9.026  0.5417 -0.3960  0.3157
 7040SOL    HW132756   2.938   0.512   9.030 -1.5675  0.1982 -1.3066
 7040SOL    HW232757   3.018   0.599   8.945 -0.4734 -1.1886 -0.2873
 7041SOL     OW32758   2.846   1.749   6.936  0.3008 -0.7727 -0.1620
 7041SOL    HW132759   2.889   1.799   7.005  2.0056 -0.6082 -1.3628
 7041SOL    HW232760   2.762   1.795   6.927  1.4746  1.8613  2.5018
 7042SOL     OW32761   2.686   4.698   2.491  0.3242  0.3052  0.1977
 7042SOL    HW132762   2.709   0.004   2.409  0.7737  2.0680  1.2710
 7042SOL    HW232763   2.776   4.697   2.523  0.6551 -1.4093 -0.8159
 7043SOL     OW32764   4.725   0.842  10.298  0.4064 -0.1324  0.4245
 7043SOL    HW132765   4.658   0.883  10.353 -0.4078 -2.1477  0.9388
 7043SOL    HW232766   0.007   0.917  10.242  0.2914 -0.7999 -0.5070
 7044SOL     OW32767   1.547   1.019   5.763 -0.3313  0.6287  0.4582
 7044SOL    HW132768   1.573   1.021   5.671 -0.3955  2.3808  0.4778
 7044SOL    HW232769   1.469   0.964   5.755 -0.8730  1.5874 -0.8472
 7045SOL     OW32770   0.698   3.758   1.062  0.5886  0.0075  0.5040
 7045SOL    HW132771   0.715   3.762   0.967 -0.0610  1.3643  0.4431
 7045SOL    HW232772   0.745   3.680   1.092  0.1691  0.5767  2.6129
 7046SOL     OW32773   0.465   2.783   2.485 -0.4397 -0.5982  0.2841
 7046SOL    HW132774   0.445   2.808   2.394 -2.0275 -0.7963  0.5828
 7046SOL    HW232775   0.407   2.842   2.533 -2.0643  0.2068 -2.6343
 7047SOL     OW32776   1.207   1.256  15.769  0.3928 -0.6995 -0.2693
 7047SOL    HW132777   1.123   1.225  15.736  1.1064 -0.3544 -2.4412
 7047SOL    HW232778   1.257   1.250  15.687  1.5783  0.5752  0.3550
 7048SOL     OW32779   1.794   0.500   6.758  0.1894 -0.2071 -0.9312
 7048SOL    HW132780   1.819   0.482   6.667  2.8090 -1.4720  0.0307
 7048SOL    HW232781   1.835   0.426   6.802  2.1100 -1.0493 -4.1933
 7049SOL     OW32782   1.514   3.613   8.491 -0.3125 -0.2705  0.7103
 7049SOL    HW132783   1.420   3.631   8.479  0.3661  1.5379 -1.7544
 7049SOL    HW232784   1.509   3.519   8.509  1.0052 -1.1892 -3.8122
 7050SOL     OW32785   2.247   3.882   1.575  0.3316 -0.1247  0.1709
 7050SOL    HW132786   2.151   3.884   1.573  0.3086 -0.0653  1.5269
 7050SOL    HW232787   2.273   3.909   1.487 -1.5626 -2.5155 -1.1415
 7051SOL     OW32788   3.483   0.772   2.780 -0.1313  0.3784  0.3053
 7051SOL    HW132789   3.455   0.726   2.859  2.3297 -2.2103 -0.3606
 7051SOL    HW232790   3.537   0.843   2.814  2.5893 -0.4305 -2.4008
 7052SOL     OW32791   0.986   2.796  11.892 -0.2609  0.0977  0.5823
 7052SOL    HW132792   0.915   2.763  11.837 -0.5991  0.1614  0.9823
 7052SOL    HW232793   0.951   2.841  11.968 -1.5112  0.7513 -0.3745
 7053SOL     OW32794   1.353   4.348   2.138  0.4915 -0.3991  0.0750
 7053SOL    HW132795   1.391   4.399   2.066  2.9505 -1.0537  0.9184
 7053SOL    HW232796   1.271   4.397   2.149  0.0922 -1.4314  1.5804
 7054SOL     OW32797   4.113   0.014   9.781  0.6682 -0.0152  0.0792
 7054SOL    HW132798   4.089   4.711   9.698 -0.1294 -0.5163  0.5677
 7054SOL    HW232799   4.131   0.104   9.753  1.4032  0.1628  1.1168
 7055SOL     OW32800   0.194   2.235   3.427  0.5959 -0.0645 -0.2510
 7055SOL    HW132801   0.170   2.292   3.354  3.0495  1.2782 -0.0201
 7055SOL    HW232802   0.121   2.247   3.488  0.4227 -1.7348 -0.1417
 7056SOL     OW32803   4.299   1.250   4.220 -0.3385 -0.4573 -0.3893
 7056SOL    HW132804   4.361   1.305   4.269  0.3127 -1.9601  0.4969
 7056SOL    HW232805   4.224   1.307   4.208 -1.0066 -1.0107  1.1962
 7057SOL     OW32806   1.530   0.107   3.421 -0.0004 -0.2429  0.2900
 7057SOL    HW132807   1.435   0.103   3.426  0.2237 -2.5809  2.6396
 7057SOL    HW232808   1.549   0.189   3.374 -0.5624  0.0509  0.5730
 7058SOL     OW32809   4.539   2.338   2.848 -0.1112 -0.0193 -0.3009
 7058SOL    HW132810   4.481   2.261   2.844 -0.2316  0.1510 -2.0912
 7058SOL    HW232811   4.573   2.336   2.758  0.8524  0.1111  0.0629
 7059SOL     OW32812   2.122   2.808   7.909  0.0140  0.3174 -0.2876
 7059SOL    HW132813   2.164   2.723   7.897 -0.4943  0.2619 -1.6875
 7059SOL    HW232814   2.154   2.863   7.837 -0.4761  2.5405  1.1896
 7060SOL     OW32815   1.228   1.739   4.299  0.6577  0.0312 -0.4635
 7060SOL    HW132816   1.269   1.790   4.369  0.7081 -1.1921  0.3995
 7060SOL    HW232817   1.219   1.802   4.227  0.3086 -0.9028 -1.2417
 7061SOL     OW32818   1.611   4.101   5.807  0.1002  0.0433  0.3613
 7061SOL    HW132819   1.563   4.124   5.726 -0.5191  0.6020  0.8827
 7061SOL    HW232820   1.542   4.049   5.848 -1.3638  0.5976 -1.3732
 7062SOL     OW32821   3.520   1.828   0.522 -0.1044  0.7220 -0.1616
 7062SOL    HW132822   3.591   1.775   0.558 -0.8202  0.1480  0.4109
 7062SOL    HW232823   3.477   1.755   0.476 -0.6869 -1.2437  3.4852
 7063SOL     OW32824   1.409   2.680   1.907 -0.1924  0.4968  0.2343
 7063SOL    HW132825   1.474   2.681   1.977  0.1844  0.9232 -0.1193
 7063SOL    HW232826   1.473   2.709   1.842  0.2832  0.4998  0.7014
 7064SOL     OW32827   2.564   0.892   6.278 -0.5013 -0.0912 -0.3391
 7064SOL    HW132828   2.615   0.822   6.237  1.6604  1.5219 -0.4730
 7064SOL    HW232829   2.590   0.881   6.370 -0.9676 -1.9691 -0.4371
 7065SOL     OW32830   1.213   0.931   8.939  0.6325 -0.7586 -0.1920
 7065SOL    HW132831   1.189   1.024   8.948  2.9897 -0.2430  0.7729
 7065SOL    HW232832   1.214   0.891   9.026  0.8920 -0.0017  0.1579
 7066SOL     OW32833   0.791   2.124   8.169  0.3198  0.1653  0.0215
 7066SOL    HW132834   0.827   2.145   8.255  0.6001 -0.4121  0.0451
 7066SOL    HW232835   0.701   2.102   8.194  0.2686  1.1349  0.6788
 7067SOL     OW32836   1.097   3.197   5.707 -0.0270  0.2140 -0.2995
 7067SOL    HW132837   1.147   3.177   5.786 -0.7098 -1.6076 -0.3154
 7067SOL    HW232838   1.145   3.140   5.647  0.8513  0.6922 -0.0350
 7068SOL     OW32839   4.132   3.783   9.209  0.2912  0.4936  0.3226
 7068SOL    HW132840   4.228   3.784   9.213  0.2726 -0.3421  1.0192
 7068SOL    HW232841   4.111   3.721   9.279  2.0554  0.3524  0.7319
 7069SOL     OW32842   4.478   4.025   1.032 -0.3826 -1.1996  0.1688
 7069SOL    HW132843   4.527   4.107   1.027 -0.8434 -1.0261 -1.4583
 7069SOL    HW232844   4.528   3.978   0.965  0.0910 -0.4443 -0.0136
 7070SOL     OW32845   3.069   4.037   3.126  0.4621  0.2179  0.2156
 7070SOL    HW132846   3.075   3.944   3.104 -0.7787  0.6001 -1.7811
 7070SOL    HW232847   3.112   4.029   3.211 -0.4701 -0.1213  0.6432
 7071SOL     OW32848   1.911   1.537  10.862 -0.6013 -0.2637  0.0178
 7071SOL    HW132849   1.922   1.514  10.954  0.5850  0.2368 -0.0075
 7071SOL    HW232850   1.953   1.621  10.844 -1.6571  0.0757 -0.8601
 7072SOL     OW32851   3.632   0.983   2.892 -0.1941 -0.1532 -0.2593
 7072SOL    HW132852   3.644   0.937   2.975 -0.5389 -1.5377 -0.9729
 7072SOL    HW232853   3.671   1.066   2.918  3.5624 -1.3462 -2.0745
 7073SOL     OW32854   3.459   3.858   8.440  0.1224  0.1538 -0.1195
 7073SOL    HW132855   3.509   3.934   8.469  1.4457 -0.9291  0.5113
 7073SOL    HW232856   3.465   3.798   8.515  1.3473 -1.1735 -1.2823
 7074SOL     OW32857   1.895   2.214   9.980  0.2802 -0.3919 -0.2903
 7074SOL    HW132858   1.802   2.201   9.997 -0.1715  5.6148  1.9101
 7074SOL    HW232859   1.931   2.218  10.069 -1.3921  0.5480  0.3484
 7075SOL     OW32860   2.661   2.615   6.169  0.5303  0.0182 -0.1022
 7075SOL    HW132861   2.579   2.659   6.147 -0.7180 -2.2923 -0.1187
 7075SOL    HW232862   2.625   2.538   6.214 -0.8382  0.2638 -0.7892
 7076SOL     OW32863   0.009   0.033   8.674  0.2130  0.4638 -0.0602
 7076SOL    HW132864   0.062   0.093   8.726 -0.2818  2.1379 -1.5010
 7076SOL    HW232865   0.049   4.689   8.703 -2.5446 -1.2093 -1.0349
 7077SOL     OW32866   3.125   2.617   2.384  0.4450  0.4095  0.1098
 7077SOL    HW132867   3.139   2.708   2.356 -0.1990  0.5120  0.1188
 7077SOL    HW232868   3.046   2.600   2.332  0.2772 -0.0173  0.5079
 7078SOL     OW32869   4.090   1.762   0.172 -0.0674 -0.0628  0.0754
 7078SOL    HW132870   4.152   1.825   0.209 -1.3251 -0.0166  2.0929
 7078SOL    HW232871   4.010   1.783   0.221  0.7102 -1.6914  2.0356
 7079SOL     OW32872   1.400   3.267   4.130  0.5470  0.1442  0.1366
 7079SOL    HW132873   1.470   3.251   4.194 -1.2950  1.2308  2.4153
 7079SOL    HW232874   1.407   3.362   4.117 -0.7546 -0.0655 -1.9799
 7080SOL     OW32875   0.822   2.725  10.940  0.1711  0.3203  0.3384
 7080SOL    HW132876   0.818   2.818  10.959 -1.1830  0.8153 -2.3818
 7080SOL    HW232877   0.849   2.692  11.026 -2.4439  2.8240  2.0913
 7081SOL     OW32878   2.871   2.149   7.774 -0.4554  0.1229 -0.2110
 7081SOL    HW132879   2.798   2.188   7.822 -0.5611  0.2058 -0.4346
 7081SOL    HW232880   2.941   2.130   7.836 -0.9265 -1.3386 -0.1254
 7082SOL     OW32881   0.465   3.487  13.234  0.4155 -0.0645  0.4292
 7082SOL    HW132882   0.520   3.415  13.267  2.7095  1.6857  0.4503
 7082SOL    HW232883   0.486   3.553  13.301  0.0794 -0.3362  0.8010
 7083SOL     OW32884   0.509   2.117   7.972 -0.0342 -0.4224  0.0093
 7083SOL    HW132885   0.487   2.190   8.031  3.9994  0.9670 -0.2085
 7083SOL    HW232886   0.443   2.054   8.001 -0.9561  1.0965  1.2459
 7084SOL     OW32887   0.637   0.809   3.929  0.0673  0.1511 -0.5257
 7084SOL    HW132888   0.668   0.891   3.891  0.9812 -0.1129 -0.3529
 7084SOL    HW232889   0.556   0.796   3.881 -0.0925 -1.8133  0.2836
 7085SOL     OW32890   2.427   0.085   7.853  0.0598 -0.0721  0.0397
 7085SOL    HW132891   2.360   0.066   7.788  0.6415 -0.7180 -0.3617
 7085SOL    HW232892   2.383   0.084   7.939  0.6597 -0.2994  0.3435
 7086SOL     OW32893   2.480   3.021   3.336  0.6796 -0.5927  0.5101
 7086SOL    HW132894   2.540   3.018   3.261  2.7384  1.0074  2.0884
 7086SOL    HW232895   2.435   2.937   3.326  0.5820 -0.2046 -2.2828
 7087SOL     OW32896   4.605   4.721   3.230  0.0025  0.1297 -0.3103
 7087SOL    HW132897   4.648   4.732   3.145 -2.7647  1.7077 -1.5125
 7087SOL    HW232898   4.519   4.684   3.207 -1.0888  1.4903  1.5582
 7088SOL     OW32899   2.160   0.800   0.790 -0.0307 -0.4028 -0.0367
 7088SOL    HW132900   2.086   0.812   0.850  1.5677 -3.1748  2.4735
 7088SOL    HW232901   2.218   0.872   0.814 -0.8503  0.6331 -1.1661
 7089SOL     OW32902   2.109   1.421   5.275 -0.5636  0.0965 -0.2133
 7089SOL    HW132903   2.025   1.431   5.320 -0.2019 -0.6470  0.6246
 7089SOL    HW232904   2.153   1.502   5.299  0.1884 -0.0257 -1.1679
 7090SOL     OW32905   1.109   0.107   9.100 -0.4525  0.5498  0.3150
 7090SOL    HW132906   1.147   0.074   9.018  0.3599 -0.1253  0.9487
 7090SOL    HW232907   1.122   0.032   9.158 -1.4802 -0.3830 -0.6565
 7091SOL     OW32908   1.879   2.294   9.712  0.0869 -0.3132  0.1211
 7091SOL    HW132909   1.969   2.272   9.689 -0.1585  0.4184 -1.5510
 7091SOL    HW232910   1.891   2.288   9.807 -0.6276  2.6080  0.3854
 7092SOL     OW32911   2.996   2.303   3.327 -0.2038  0.4400 -0.4689
 7092SOL    HW132912   3.016   2.209   3.320 -1.9892  0.0467 -0.3045
 7092SOL    HW232913   2.909   2.309   3.288 -0.9593  1.9552  1.4686
 7093SOL     OW32914   0.974   2.412  10.449 -0.3129  0.2212  0.4582
 7093SOL    HW132915   1.064   2.436  10.429  0.3556 -2.0648  0.7756
 7093SOL    HW232916   0.985   2.317  10.456  1.6972  0.3941 -0.5824
 7094SOL     OW32917   2.656   3.579   7.751 -0.1726 -0.4310  0.2496
 7094SOL    HW132918   2.569   3.540   7.758 -0.3705 -0.1325 -0.5956
 7094SOL    HW232919   2.714   3.503   7.748  0.3346 -0.0158 -0.3474
 7095SOL     OW32920   0.982   3.918  16.160  0.0194  0.0088  0.3359
 7095SOL    HW132921   0.915   3.850  16.155 -2.8089  2.7433  1.1373
 7095SOL    HW232922   0.941   3.997  16.196 -0.7959 -0.6018  0.7497
 7096SOL     OW32923   1.164   1.535  11.566 -0.0625  0.3475 -0.1347
 7096SOL    HW132924   1.103   1.530  11.493  1.6486  0.7798 -1.5914
 7096SOL    HW232925   1.131   1.467  11.626 -2.4827  2.2853  0.7219
 7097SOL     OW32926   1.065   3.448  13.420 -0.2202 -0.6074 -0.0580
 7097SOL    HW132927   1.053   3.411  13.332 -0.0248 -1.7236  0.3815
 7097SOL    HW232928   1.095   3.537  13.402  0.4101 -0.2334  2.7500
 7098SOL     OW32929   0.278   1.873   3.821  0.1121 -0.3309 -0.3491
 7098SOL    HW132930   0.319   1.856   3.736 -0.4619 -0.3804 -0.6165
 7098SOL    HW232931   0.290   1.968   3.825  0.1438 -0.3090 -0.9720
 7099SOL     OW32932   3.452   0.127   6.159 -0.1391  0.2508 -0.5690
 7099SOL    HW132933   3.426   0.041   6.126 -0.0088 -0.3123  0.7800
 7099SOL    HW232934   3.481   0.116   6.250  2.0978 -0.1499 -1.3189
 7100SOL     OW32935   0.497   3.879   6.833  0.0513 -0.0397  0.7785
 7100SOL    HW132936   0.526   3.930   6.909 -1.7800  0.5492  1.0995
 7100SOL    HW232937   0.403   3.896   6.828  0.1304  0.3460  0.6035
 7101SOL     OW32938   2.124   3.001   5.911  0.3835 -0.5364  0.2102
 7101SOL    HW132939   2.103   3.090   5.882  0.8869  0.0578  1.6896
 7101SOL    HW232940   2.064   2.958   5.850  0.0605  2.1587 -1.4218
 7102SOL     OW32941   1.718   1.689   3.462  0.1566  0.0501  0.5225
 7102SOL    HW132942   1.786   1.750   3.488  0.7815 -0.6446  0.5185
 7102SOL    HW232943   1.648   1.753   3.447 -0.8859 -1.5446 -1.5189
 7103SOL     OW32944   0.394   2.977   7.543  0.4155 -0.0961 -0.0593
 7103SOL    HW132945   0.365   2.937   7.625  0.4574  1.5327  0.7710
 7103SOL    HW232946   0.335   2.923   7.491 -2.3175  1.6003  1.2607
 7104SOL     OW32947   3.882   0.684  15.448 -0.3096 -0.4564 -0.6094
 7104SOL    HW132948   3.824   0.753  15.414 -0.4379 -0.5534 -0.5876
 7104SOL    HW232949   3.968   0.727  15.447 -0.2553 -0.5672 -0.6587
 7105SOL     OW32950   2.203   0.912   3.282  0.0221 -0.8506 -0.2191
 7105SOL    HW132951   2.256   0.869   3.348 -2.6672 -1.6907  1.3813
 7105SOL    HW232952   2.206   0.850   3.209  1.5804  0.0429 -0.9102
 7106SOL     OW32953   3.669   2.393  11.346 -0.3073 -0.2889  0.0657
 7106SOL    HW132954   3.588   2.407  11.296 -0.5641 -1.8732  0.0603
 7106SOL    HW232955   3.732   2.366  11.279 -0.2625  2.2811 -0.9273
 7107SOL     OW32956   3.692   0.736   7.999  0.4020  0.7685  0.0293
 7107SOL    HW132957   3.718   0.661   7.946  0.5781 -0.3684  1.7459
 7107SOL    HW232958   3.716   0.706   8.087 -0.7923 -0.3449 -0.0241
 7108SOL     OW32959   2.743   3.935   3.706  0.3070 -0.3070  0.2273
 7108SOL    HW132960   2.690   3.903   3.780 -0.6407  0.6687 -0.0289
 7108SOL    HW232961   2.822   3.964   3.752  0.1055  0.3296  0.1698
 7109SOL     OW32962   3.431   4.731   6.824 -0.1482 -0.3266 -0.3553
 7109SOL    HW132963   3.385   4.669   6.767 -0.8068 -0.0433 -0.1284
 7109SOL    HW232964   3.507   0.010   6.768  0.3363  1.7444  0.9574
 7110SOL     OW32965   0.523   3.169   9.276 -0.2102  0.3424  0.1827
 7110SOL    HW132966   0.589   3.237   9.290  0.2516 -0.0430 -0.1092
 7110SOL    HW232967   0.578   3.092   9.291 -0.1567  0.4792  0.6797
 7111SOL     OW32968   3.079   2.847   2.288  0.3121 -0.4572 -0.0385
 7111SOL    HW132969   3.066   2.875   2.197  0.0315  0.9531  0.4376
 7111SOL    HW232970   2.991   2.824   2.318  0.8500  1.1813  2.7886
 7112SOL     OW32971   0.163   4.358   3.968  0.1667  0.6610 -0.8656
 7112SOL    HW132972   0.069   4.364   3.947 -0.5015 -3.3838  1.0360
 7112SOL    HW232973   0.167   4.371   4.063 -0.4770 -1.8499 -0.5048
 7113SOL     OW32974   2.699   3.064   1.930  0.5375  0.2198 -0.4270
 7113SOL    HW132975   2.712   2.991   1.870 -2.8869 -0.1232 -0.7143
 7113SOL    HW232976   2.713   3.139   1.872 -2.2625  1.7506  0.9060
 7114SOL     OW32977   3.457   2.942   7.724 -0.7380  0.1563 -0.0755
 7114SOL    HW132978   3.380   2.978   7.767 -0.6521  0.8372 -0.4980
 7114SOL    HW232979   3.416   2.861   7.696  1.0140 -0.5884 -0.5109
 7115SOL     OW32980   4.015   1.809   9.854  0.3209 -0.3859  0.6059
 7115SOL    HW132981   4.104   1.773   9.856  0.4004 -0.1941  0.3595
 7115SOL    HW232982   3.963   1.746   9.804 -0.8270  1.1008 -0.0501
 7116SOL     OW32983   4.415   2.039   4.499 -0.1133  0.1353  0.3322
 7116SOL    HW132984   4.466   2.003   4.427  0.9052  1.3539  0.4398
 7116SOL    HW232985   4.327   2.013   4.472  0.7142 -0.3559 -1.8712
 7117SOL     OW32986   2.046   1.183   6.208  0.5766 -0.1417 -0.0832
 7117SOL    HW132987   2.131   1.214   6.237 -1.0794  1.9040  2.4817
 7117SOL    HW232988   2.057   1.197   6.114 -0.1684 -0.6309 -0.2463
 7118SOL     OW32989   0.782   3.285  17.116  0.6875 -0.3586 -0.4951
 7118SOL    HW132990   0.835   3.332  17.052 -1.5942  2.0319 -0.6548
 7118SOL    HW232991   0.725   3.238  17.056  1.0387 -0.0382 -1.0754
 7119SOL     OW32992   0.007   3.799   6.303  0.2449  0.3921 -0.1092
 7119SOL    HW132993   0.092   3.826   6.271  1.4456 -2.6749  0.4364
 7119SOL    HW232994   0.038   3.768   6.389 -0.4055  0.6338  0.2176
 7120SOL     OW32995   2.611   0.940  11.917  0.3969 -0.4514 -0.5236
 7120SOL    HW132996   2.704   0.924  11.903  0.4715  1.0563 -1.6595
 7120SOL    HW232997   2.575   0.881  11.850 -2.1543  1.0756 -0.4734
 7121SOL     OW32998   2.529   3.847   2.727 -0.5302 -0.9022 -0.4922
 7121SOL    HW132999   2.517   3.779   2.794  1.1459 -0.8332 -0.1239
 7121SOL    HW233000   2.536   3.789   2.652  0.2707 -1.3478 -0.0664
 7122SOL     OW33001   3.992   2.272   1.605 -0.4423 -0.4802 -0.0372
 7122SOL    HW133002   3.965   2.284   1.696  1.8275  1.6059  0.3581
 7122SOL    HW233003   4.048   2.196   1.622 -0.3714 -0.5230 -0.4552
 7123SOL     OW33004   4.051   0.987   1.039  0.1900  0.2621 -0.4525
 7123SOL    HW133005   4.088   1.025   1.118 -0.3917  0.7649 -0.4206
 7123SOL    HW233006   4.013   0.904   1.070  0.0040  0.4733 -0.1247
 7124SOL     OW33007   1.877   3.479  10.073 -0.7843  0.4443 -0.6400
 7124SOL    HW133008   1.842   3.516  10.155  0.3978  0.3765 -0.1067
 7124SOL    HW233009   1.815   3.408  10.054  1.2226 -1.7433  0.9019
 7125SOL     OW33010   1.953   3.633   7.369  0.0668  0.8232 -0.4461
 7125SOL    HW133011   1.986   3.721   7.390  2.3282 -0.5234  1.6522
 7125SOL    HW233012   1.874   3.628   7.422  1.0639  1.1113  1.0823
 7126SOL     OW33013   2.777   4.384   4.307  0.0399  0.0311 -0.0106
 7126SOL    HW133014   2.815   4.463   4.267 -0.3261  1.5824  2.6779
 7126SOL    HW233015   2.747   4.411   4.394  2.0104 -1.8839  1.2529
 7127SOL     OW33016   1.438   3.620  12.584 -0.1282  0.3288  0.3065
 7127SOL    HW133017   1.371   3.553  12.573  1.0498 -1.0817  1.7181
 7127SOL    HW233018   1.519   3.571  12.599 -0.5462 -1.1631 -2.4467
 7128SOL     OW33019   4.271   4.726   2.028  0.3153  0.0306 -0.1815
 7128SOL    HW133020   4.298   0.074   1.995 -1.8585  0.2492 -1.3564
 7128SOL    HW233021   4.184   4.734   1.990 -0.0058 -1.9706  0.1794
 7129SOL     OW33022   1.110   3.490   7.061 -0.0573 -0.3333 -0.0616
 7129SOL    HW133023   1.080   3.536   6.983  0.6296  1.6691  0.8408
 7129SOL    HW233024   1.177   3.553   7.090  0.2584  0.5516 -2.6941
 7130SOL     OW33025   3.316   2.964   2.690 -0.2219 -0.2131 -0.1431
 7130SOL    HW133026   3.345   3.028   2.625  0.8716  1.1823  1.7281
 7130SOL    HW233027   3.316   2.883   2.639 -1.0111 -1.6315  2.1258
 7131SOL     OW33028   1.132   0.845   5.646  0.0771  0.2127 -0.4635
 7131SOL    HW133029   1.144   0.755   5.677  2.0140  0.8057  0.5059
 7131SOL    HW233030   1.105   0.884   5.729  1.8798 -1.8672  1.1226
 7132SOL     OW33031   2.373   1.499   2.418  0.0902 -0.2002  0.5329
 7132SOL    HW133032   2.345   1.474   2.330  0.4308 -2.9334  1.2227
 7132SOL    HW233033   2.450   1.443   2.424  0.5832  0.1967 -1.9477
 7133SOL     OW33034   2.612   2.846  16.113 -0.6309 -0.1823 -0.0472
 7133SOL    HW133035   2.581   2.821  16.026 -2.4024 -0.7307  0.7438
 7133SOL    HW233036   2.539   2.904  16.135 -0.3322  1.0653 -2.4489
 7134SOL     OW33037   2.287   2.140   2.777  0.3325 -0.1487  0.0021
 7134SOL    HW133038   2.256   2.158   2.866  0.7636 -0.5264  0.2311
 7134SOL    HW233039   2.366   2.089   2.791  0.5136  0.2796  0.5635
 7135SOL     OW33040   0.742   2.123   6.816  0.5380 -0.8949 -0.0836
 7135SOL    HW133041   0.736   2.178   6.894 -0.7874 -1.5338  0.2666
 7135SOL    HW233042   0.650   2.105   6.798 -0.2573  1.2215  1.8832
 7136SOL     OW33043   2.579   4.664   4.359  0.5088 -0.3224  0.1115
 7136SOL    HW133044   2.531   4.638   4.281  1.2740 -1.3935 -0.0000
 7136SOL    HW233045   2.647   4.725   4.329 -0.1222 -0.5035 -1.6829
 7137SOL     OW33046   4.429   3.967  14.029 -0.2209 -0.1552 -0.1560
 7137SOL    HW133047   4.475   3.895  13.986 -1.1045 -0.4575 -0.5885
 7137SOL    HW233048   4.391   3.932  14.110 -0.1977  1.2201  0.4493
 7138SOL     OW33049   0.479   2.201  12.828  0.1503  1.4842 -0.1745
 7138SOL    HW133050   0.438   2.217  12.744 -1.9567  2.4348  1.0427
 7138SOL    HW233051   0.552   2.263  12.824  0.3322  1.1955 -1.3681
 7139SOL     OW33052   0.104   2.415  11.872 -0.3097 -0.5982 -0.4005
 7139SOL    HW133053   0.196   2.429  11.851  0.1501  0.1716  2.1074
 7139SOL    HW233054   0.082   2.349  11.806 -1.3911 -0.4226 -0.2167
 7140SOL     OW33055   0.521   1.454   9.263 -0.4662 -0.0006  0.3477
 7140SOL    HW133056   0.536   1.436   9.170  0.3538  1.9390  0.1012
 7140SOL    HW233057   0.516   1.549   9.266  0.6894  0.0006  2.2147
 7141SOL     OW33058   1.092   0.652   7.373 -1.0761  0.2153 -0.2227
 7141SOL    HW133059   1.054   0.618   7.455  1.2110  0.1249  0.7872
 7141SOL    HW233060   1.059   0.742   7.382 -0.2804  0.4801  0.0031
 7142SOL     OW33061   1.664   4.336   1.460  0.2693 -0.1351  0.0479
 7142SOL    HW133062   1.617   4.281   1.398 -1.1644 -0.8370  1.7582
 7142SOL    HW233063   1.659   4.278   1.537 -2.6069 -0.7932 -0.6500
 7143SOL     OW33064   2.578   0.565  12.227 -0.0428  0.3739  0.0755
 7143SOL    HW133065   2.620   0.529  12.304  2.9742 -1.2229 -2.3239
 7143SOL    HW233066   2.488   0.551  12.257  0.0540 -1.5119 -0.5089
 7144SOL     OW33067   3.925   0.189  14.042 -0.1657  0.0269 -0.0667
 7144SOL    HW133068   3.893   0.203  13.952  0.4615 -0.0447 -0.3017
 7144SOL    HW233069   3.848   0.158  14.088 -0.0442 -1.8792 -1.1554
 7145SOL     OW33070   1.611   4.291   4.770  0.3325 -0.3069  0.6655
 7145SOL    HW133071   1.585   4.374   4.809  1.4248  1.0710 -1.5503
 7145SOL    HW233072   1.667   4.330   4.702  0.5687  0.3412  1.2244
 7146SOL     OW33073   1.979   4.441   9.352 -0.2879  0.3118  0.2709
 7146SOL    HW133074   1.972   4.496   9.430 -0.4220 -0.1180  0.5652
 7146SOL    HW233075   1.894   4.462   9.312  1.5270  3.3664 -1.9072
 7147SOL     OW33076   0.447   0.781   2.003 -0.0551 -0.1500 -0.7464
 7147SOL    HW133077   0.378   0.719   1.980  1.1672 -1.7665  0.0151
 7147SOL    HW233078   0.404   0.837   2.069  0.9548  0.9025 -0.9741
 7148SOL     OW33079   4.512   4.222  15.398  0.7477 -0.4604 -0.7601
 7148SOL    HW133080   4.510   4.153  15.464  3.9408  0.3411  0.1656
 7148SOL    HW233081   4.604   4.246  15.392  0.4372  1.0725  0.5300
 7149SOL     OW33082   3.682   4.175   3.301  0.3473  0.1291 -0.0234
 7149SOL    HW133083   3.668   4.214   3.215  0.9092 -1.3338 -0.7602
 7149SOL    HW233084   3.734   4.246   3.338  2.3817 -1.1121 -0.5278
 7150SOL     OW33085   0.720   1.615   5.148  0.6447 -0.3322  0.1407
 7150SOL    HW133086   0.801   1.575   5.116  0.3932 -2.6776  2.3504
 7150SOL    HW233087   0.692   1.671   5.076 -0.8251 -0.2888  0.7463
 7151SOL     OW33088   0.891   3.070   1.222  0.0469  0.5385 -0.2412
 7151SOL    HW133089   0.877   3.001   1.286  0.4248  1.5159  0.8935
 7151SOL    HW233090   0.911   3.021   1.142 -0.2618  0.1152 -0.0580
 7152SOL     OW33091   2.063   2.013   9.817  0.5991  0.1357  0.3745
 7152SOL    HW133092   2.033   2.061   9.894 -3.9388 -1.6394 -0.2698
 7152SOL    HW233093   2.131   1.952   9.845 -1.4997 -1.1839  2.6435
 7153SOL     OW33094   2.446   2.075   0.924  0.3223 -0.2655 -0.2069
 7153SOL    HW133095   2.532   2.113   0.945 -0.2664  0.8216  0.2110
 7153SOL    HW233096   2.458   1.996   0.871 -1.0054 -0.2898 -0.4499
 7154SOL     OW33097   3.102   4.330   4.848 -1.0767 -0.9164  0.7572
 7154SOL    HW133098   3.178   4.282   4.881  0.2609  0.2781 -0.5183
 7154SOL    HW233099   3.068   4.371   4.927  2.7360 -0.1166  1.9837
 7155SOL     OW33100   1.906   4.623   7.963 -0.1689 -0.3059 -0.2581
 7155SOL    HW133101   1.810   4.627   7.970 -0.1122  0.0468  0.3364
 7155SOL    HW233102   1.912   4.707   7.917 -0.5884 -0.5808 -0.8103
 7156SOL     OW33103   2.518   3.251  12.050  0.2186 -0.7078 -0.2752
 7156SOL    HW133104   2.517   3.160  12.079  0.8378 -0.4770  0.4678
 7156SOL    HW233105   2.522   3.297  12.134  0.6960  0.5302 -0.9734
 7157SOL     OW33106   2.321   1.121   3.908  0.2678  0.3096 -0.1785
 7157SOL    HW133107   2.293   1.110   3.999 -1.2102 -0.9539 -0.7918
 7157SOL    HW233108   2.412   1.092   3.920  0.1574 -0.4686 -1.2228
 7158SOL     OW33109   2.906   0.851   2.370 -0.5228 -0.7779 -0.0267
 7158SOL    HW133110   2.909   0.927   2.429  0.0095 -0.8858  0.0850
 7158SOL    HW233111   2.934   0.784   2.431 -1.1981  1.3936  2.6778
 7159SOL     OW33112   2.696   1.652   3.726  0.2466  0.1810  0.2764
 7159SOL    HW133113   2.774   1.660   3.782  0.1616 -1.4959  0.6384
 7159SOL    HW233114   2.699   1.735   3.680 -2.3769 -0.7226 -1.5437
 7160SOL     OW33115   2.071   2.566   2.499  0.5756  0.2838  0.3717
 7160SOL    HW133116   2.029   2.617   2.429 -1.9040 -1.3253  0.6711
 7160SOL    HW233117   2.164   2.561   2.480  0.3231 -0.7458 -0.5601
 7161SOL     OW33118   0.634   2.669   5.570 -0.0752 -0.3873  0.5761
 7161SOL    HW133119   0.576   2.663   5.646 -0.9917  0.1925 -0.0810
 7161SOL    HW233120   0.593   2.624   5.496 -0.3554 -0.9031  1.0415
 7162SOL     OW33121   2.051   3.084   5.308 -0.1186  0.2613  0.5829
 7162SOL    HW133122   1.983   3.139   5.269 -0.4439 -1.1455 -0.8411
 7162SOL    HW233123   2.028   2.993   5.291  1.0169  0.1091 -0.0937
 7163SOL     OW33124   1.257   0.100  15.119 -0.1411  0.3022  0.1420
 7163SOL    HW133125   1.179   0.057  15.154  0.0421  0.2732  0.5162
 7163SOL    HW233126   1.330   0.066  15.171  0.2333  0.2893 -0.3875
 7164SOL     OW33127   4.564   3.336   0.765 -0.0848  0.4095  0.5319
 7164SOL    HW133128   4.658   3.315   0.761  0.1937  1.5769  0.9992
 7164SOL    HW233129   4.530   3.247   0.756 -0.4401  0.5751  0.2446
 7165SOL     OW33130   0.885   4.142  16.268 -0.2442  0.0193 -0.2445
 7165SOL    HW133131   0.951   4.210  16.281 -1.8940  1.2727  1.4506
 7165SOL    HW233132   0.811   4.191  16.305  0.4316  0.0691  1.0369
 7166SOL     OW33133   0.969   2.928   5.718 -0.0629  0.4949 -0.0379
 7166SOL    HW133134   0.970   3.023   5.731  0.6481  0.7223 -1.8654
 7166SOL    HW233135   0.876   2.913   5.738  0.5267 -0.3447  2.1113
 7167SOL     OW33136   4.435   0.420   7.476  0.7169 -0.1342 -0.2632
 7167SOL    HW133137   4.359   0.462   7.516  0.2008 -0.9343 -0.3970
 7167SOL    HW233138   4.495   0.426   7.551  0.5503  1.4567 -0.2659
 7168SOL     OW33139   3.937   0.812  14.614  0.5563  0.2459  0.0466
 7168SOL    HW133140   3.851   0.823  14.654  0.1904 -1.5871 -0.2200
 7168SOL    HW233141   3.988   0.820  14.695  1.7094  0.6264 -0.7286
 7169SOL     OW33142   3.985   1.886   6.163  0.3269 -0.4448 -0.2140
 7169SOL    HW133143   3.927   1.812   6.175  0.9539 -0.9490 -0.3103
 7169SOL    HW233144   3.973   1.945   6.237  1.5735  2.2146 -2.0912
 7170SOL     OW33145   3.161   3.056   7.451 -0.4845  0.1102  0.2424
 7170SOL    HW133146   3.135   2.964   7.452 -1.6594  0.4484  0.3784
 7170SOL    HW233147   3.224   3.066   7.379 -1.6351 -1.1465 -0.9290
 7171SOL     OW33148   1.685   4.282  14.642 -0.1767  0.3578  0.3693
 7171SOL    HW133149   1.701   4.341  14.569 -0.6448 -1.1085 -0.9254
 7171SOL    HW233150   1.592   4.296  14.662 -1.0712 -2.1030 -2.0541
 7172SOL     OW33151   1.184   3.168   8.986 -0.1036 -0.5120  0.3862
 7172SOL    HW133152   1.220   3.092   8.939 -0.6016  0.1630 -1.1036
 7172SOL    HW233153   1.108   3.191   8.932 -0.3249  1.4691  1.5617
 7173SOL     OW33154   2.997   3.693   9.096 -0.3990 -0.2326 -0.3917
 7173SOL    HW133155   2.936   3.746   9.046 -1.1891 -0.4866  0.3034
 7173SOL    HW233156   2.967   3.602   9.091  0.5177 -0.7100  2.6392
 7174SOL     OW33157   3.256   0.849   4.372 -0.0738  0.0737  0.3113
 7174SOL    HW133158   3.219   0.767   4.337 -0.4503 -0.3966  1.7950
 7174SOL    HW233159   3.343   0.820   4.399  0.6087  0.7702 -1.2064
 7175SOL     OW33160   2.516   1.854   0.768 -0.5023 -0.1358 -0.0025
 7175SOL    HW133161   2.549   1.845   0.679 -0.4783 -0.2379  0.0175
 7175SOL    HW233162   2.569   1.786   0.809 -0.7422 -1.3958 -1.7815
 7176SOL     OW33163   0.420   1.707   2.588 -0.1914  0.3290 -0.2388
 7176SOL    HW133164   0.472   1.785   2.608 -0.9201  0.4436  1.2907
 7176SOL    HW233165   0.465   1.644   2.645 -0.2360 -0.5979 -1.2342
 7177SOL     OW33166   2.461   0.907   5.205 -0.1833  0.2296 -0.1096
 7177SOL    HW133167   2.407   0.828   5.202 -0.4641  0.4394 -0.6452
 7177SOL    HW233168   2.497   0.910   5.116  1.7829 -2.4247  0.5764
 7178SOL     OW33169   3.609   3.393  13.361 -0.2362 -0.1508  0.0872
 7178SOL    HW133170   3.648   3.472  13.399  3.4783 -1.9109  0.0046
 7178SOL    HW233171   3.520   3.425  13.352 -0.5551 -1.0897 -0.1276
 7179SOL     OW33172   4.129   2.295   4.467  0.1139  0.0320 -0.1955
 7179SOL    HW133173   4.104   2.230   4.402 -1.7688 -0.4352  0.9719
 7179SOL    HW233174   4.049   2.305   4.519 -0.7158  1.2235 -1.7387
 7180SOL     OW33175   1.655   1.319   0.567 -0.1497 -1.1156  0.5366
 7180SOL    HW133176   1.742   1.354   0.583 -0.5669  0.1543  0.0277
 7180SOL    HW233177   1.648   1.305   0.473 -0.7817  0.6168  0.3330
 7181SOL     OW33178   4.017   0.993   8.796  1.0641  0.0730 -0.3282
 7181SOL    HW133179   3.964   0.931   8.747 -0.8782 -0.0796  2.0186
 7181SOL    HW233180   4.099   0.987   8.747  1.1928 -2.0197  0.1607
 7182SOL     OW33181   4.460   0.811   8.483  0.1663  0.2836 -0.1643
 7182SOL    HW133182   4.500   0.774   8.404 -2.0514 -0.7455 -0.7978
 7182SOL    HW233183   4.476   0.902   8.457 -2.8515  1.0967  0.8465
 7183SOL     OW33184   0.597   3.158   5.688 -0.1202  0.1287  0.0678
 7183SOL    HW133185   0.661   3.092   5.712  1.0414 -0.1910 -3.8930
 7183SOL    HW233186   0.641   3.238   5.717 -1.4585  0.6871  0.5705
 7184SOL     OW33187   1.158   1.911  13.583  0.0144 -0.1503 -0.9480
 7184SOL    HW133188   1.118   1.851  13.646  0.1635 -0.1037 -0.8122
 7184SOL    HW233189   1.244   1.871  13.570 -0.1065  0.0905 -2.5595
 7185SOL     OW33190   2.981   2.301   1.378  0.1990 -0.2453 -0.1297
 7185SOL    HW133191   2.906   2.339   1.424 -0.8129 -0.3143 -1.7311
 7185SOL    HW233192   3.036   2.378   1.364  0.3990 -0.2877  0.4012
 7186SOL     OW33193   1.263   2.979   4.093 -0.1356  0.1079 -0.5102
 7186SOL    HW133194   1.305   3.063   4.074 -0.2146  0.2115 -0.2213
 7186SOL    HW233195   1.314   2.950   4.169  0.6902 -1.8993 -1.8389
 7187SOL     OW33196   1.568   3.598  14.218  0.4329  0.6936  0.4787
 7187SOL    HW133197   1.607   3.685  14.226 -0.9199  1.3784 -0.5263
 7187SOL    HW233198   1.507   3.586  14.291 -0.0821 -2.2932 -0.4217
 7188SOL     OW33199   1.644   4.049  11.027  0.5268  0.1394  0.1636
 7188SOL    HW133200   1.587   4.045  10.950  1.7491  0.5736 -0.7696
 7188SOL    HW233201   1.731   4.018  11.003 -1.4016 -4.6201 -0.7177
 7189SOL     OW33202   3.681   0.373   8.749 -0.0231  0.1372  0.0538
 7189SOL    HW133203   3.672   0.464   8.775 -2.3103 -0.3752  1.0633
 7189SOL    HW233204   3.598   0.345   8.787  0.7304 -1.5396  0.4663
 7190SOL     OW33205   2.093   2.580  16.957  0.2324  0.0840 -0.3582
 7190SOL    HW133206   2.037   2.574  16.879 -1.1134  1.4618  0.4920
 7190SOL    HW233207   2.047   2.512  17.007 -1.3292  0.9526 -0.5893
 7191SOL     OW33208   2.868   3.216   7.121 -0.0538  0.2723 -0.2872
 7191SOL    HW133209   2.775   3.226   7.144 -0.0758 -1.4135  0.3141
 7191SOL    HW233210   2.867   3.138   7.066  0.4577  0.3927 -0.4647
 7192SOL     OW33211   0.421   1.335   2.437 -0.0503 -0.3918  0.1002
 7192SOL    HW133212   0.453   1.303   2.352  3.1154  1.5707  0.5609
 7192SOL    HW233213   0.337   1.369   2.406  0.0808 -0.4517 -0.3163
 7193SOL     OW33214   2.398   3.339   9.650  0.4319  0.7597 -0.5300
 7193SOL    HW133215   2.427   3.248   9.647  2.0999  1.2991 -1.0533
 7193SOL    HW233216   2.435   3.365   9.734 -0.0725  1.4776 -0.5303
 7194SOL     OW33217   1.370   0.556   7.388  0.1521  0.5877  0.2854
 7194SOL    HW133218   1.337   0.491   7.450  0.0377  1.8037  1.5116
 7194SOL    HW233219   1.299   0.550   7.324  0.2833 -1.1896  0.3030
 7195SOL     OW33220   3.991   2.814   7.509 -0.0888  0.2427 -0.1668
 7195SOL    HW133221   3.963   2.724   7.494 -1.4426  0.6690 -0.2501
 7195SOL    HW233222   3.908   2.860   7.525 -1.1021 -2.0204  1.0363
 7196SOL     OW33223   1.037   4.002   7.633  0.3750 -0.5930  0.6492
 7196SOL    HW133224   1.086   3.959   7.703 -2.5481 -4.3645  0.4192
 7196SOL    HW233225   1.046   3.939   7.562  1.2172  0.4436 -0.1573
 7197SOL     OW33226   3.341   3.460   2.344 -0.2756 -0.0721  0.1788
 7197SOL    HW133227   3.306   3.425   2.425 -1.1345  0.8160  0.1850
 7197SOL    HW233228   3.264   3.500   2.304 -0.6486 -1.5425 -0.5709
 7198SOL     OW33229   1.574   2.318   4.582 -1.0375 -0.7337  0.1286
 7198SOL    HW133230   1.613   2.351   4.502  0.5518 -1.0078  0.7852
 7198SOL    HW233231   1.592   2.381   4.652  1.4039 -1.2217 -0.0494
 7199SOL     OW33232   4.083   1.752   2.240  0.0130  0.0618  0.2873
 7199SOL    HW133233   4.091   1.694   2.316  1.0239  2.1560  1.7633
 7199SOL    HW233234   3.990   1.776   2.244 -0.9431 -3.3150 -1.7877
 7200SOL     OW33235   1.131   0.756   5.330  0.1659 -0.3602 -0.2558
 7200SOL    HW133236   1.215   0.712   5.340  0.0953 -0.9576 -2.2532
 7200SOL    HW233237   1.083   0.733   5.409  0.7361  0.4444  0.3151
 7201SOL     OW33238   3.260   0.295   4.366 -0.8102 -0.7580  0.0195
 7201SOL    HW133239   3.278   0.240   4.290  0.6186 -0.0239 -0.1837
 7201SOL    HW233240   3.191   0.351   4.332 -0.7606 -1.1008 -0.6338
 7202SOL     OW33241   3.794   3.355  17.637 -0.3518  0.1814 -0.0526
 7202SOL    HW133242   3.879   3.394  17.616 -0.2546 -1.4002 -2.5716
 7202SOL    HW233243   3.733   3.429  17.639  1.5558  1.7565 -0.5524
 7203SOL     OW33244   1.507   3.785   1.635 -0.0102 -0.6473  0.6207
 7203SOL    HW133245   1.425   3.736   1.632 -0.5368  0.5072 -3.0996
 7203SOL    HW233246   1.486   3.873   1.666  0.4225 -0.4216  0.2879
 7204SOL     OW33247   2.495   3.410   2.193 -0.2121 -0.3029  0.4407
 7204SOL    HW133248   2.434   3.428   2.265  1.8704  1.1728  1.8193
 7204SOL    HW233249   2.458   3.329   2.160 -0.8185  0.6165 -1.1723
 7205SOL     OW33250   2.114   0.707   8.728 -0.3839 -0.4896 -0.1691
 7205SOL    HW133251   2.203   0.687   8.697 -0.4533 -2.7173  1.0872
 7205SOL    HW233252   2.092   0.780   8.670 -1.3151  0.4760  1.3901
 7206SOL     OW33253   1.977   3.213   7.761 -0.0858 -0.5058  0.4538
 7206SOL    HW133254   1.910   3.203   7.829  0.6014 -0.8262  1.0846
 7206SOL    HW233255   1.983   3.122   7.735  2.1837 -0.5392  1.0779
 7207SOL     OW33256   3.934   4.512   2.888  0.6060 -0.2537 -0.5074
 7207SOL    HW133257   3.863   4.449   2.881 -1.0283  1.2720  2.2663
 7207SOL    HW233258   4.008   4.454   2.907 -0.9762 -0.9868  3.2847
 7208SOL     OW33259   3.134   4.364  11.757 -0.2369  0.2431  0.1797
 7208SOL    HW133260   3.072   4.373  11.684  0.2781 -0.1426 -0.3106
 7208SOL    HW233261   3.089   4.412  11.826 -1.1882  1.6775 -1.4144
 7209SOL     OW33262   1.078   0.458  14.277 -0.0161  0.0906  0.0041
 7209SOL    HW133263   1.123   0.534  14.313 -0.9622 -0.3774  2.1253
 7209SOL    HW233264   0.994   0.473  14.320 -0.2216  1.0358 -0.7342
 7210SOL     OW33265   0.940   4.718   3.434  0.4147  0.2761  0.0973
 7210SOL    HW133266   0.979   4.715   3.347 -0.3901  0.3144 -0.2677
 7210SOL    HW233267   0.995   4.663   3.489 -1.6963 -1.4085  0.5329
 7211SOL     OW33268   3.155   0.253   2.415  0.6649 -0.2835  0.5907
 7211SOL    HW133269   3.062   0.263   2.391  0.2169  0.6758  2.7932
 7211SOL    HW233270   3.149   0.201   2.495  2.1815 -0.3490  0.6433
 7212SOL     OW33271   1.331   0.220   8.795 -0.3219  0.1268  0.3020
 7212SOL    HW133272   1.274   0.270   8.736 -1.7909  0.2608  1.8499
 7212SOL    HW233273   1.271   0.147   8.807  0.5630 -0.5538  0.6111
 7213SOL     OW33274   0.904   2.745   4.637 -0.6588  0.0303 -0.3915
 7213SOL    HW133275   0.952   2.669   4.603 -0.9492  0.2694 -1.3379
 7213SOL    HW233276   0.882   2.779   4.550 -1.8637 -0.1039 -0.1470
 7214SOL     OW33277   0.467   1.732   7.695 -0.1321 -0.4413  0.3671
 7214SOL    HW133278   0.460   1.674   7.772 -0.6839 -0.5320  0.2444
 7214SOL    HW233279   0.409   1.806   7.712 -0.4058 -0.5728 -0.0004
 7215SOL     OW33280   4.089   1.502   8.102 -0.0097 -0.2792 -0.0938
 7215SOL    HW133281   4.029   1.577   8.101 -0.2992 -0.4689  1.6312
 7215SOL    HW233282   4.027   1.445   8.148  0.1244  0.1594  0.6337
 7216SOL     OW33283   2.355   3.157  16.365 -0.8803  0.0251  0.0078
 7216SOL    HW133284   2.381   3.096  16.296  0.9116  2.3386 -1.4091
 7216SOL    HW233285   2.423   3.225  16.362 -1.8608  0.9571 -0.9242
 7217SOL     OW33286   1.422   0.312   3.023  0.0976  0.1928 -0.0846
 7217SOL    HW133287   1.486   0.327   3.093  1.6279  2.5197 -1.9609
 7217SOL    HW233288   1.350   0.353   3.069  1.9690  2.5839  0.7039
 7218SOL     OW33289   3.046   1.614  15.513  0.1197  0.4985 -0.2025
 7218SOL    HW133290   3.060   1.689  15.571 -1.4083  1.3384 -0.9280
 7218SOL    HW233291   2.950   1.607  15.514  0.1099  0.9534  2.9654
 7219SOL     OW33292   0.325   1.419  12.605 -0.4353  0.5698  0.2606
 7219SOL    HW133293   0.302   1.403  12.513 -1.1307 -0.7898  0.6736
 7219SOL    HW233294   0.240   1.456  12.628 -1.4397  0.9610 -3.9942
 7220SOL     OW33295   0.630   3.053   5.235  0.0718 -0.3973  0.4622
 7220SOL    HW133296   0.658   3.134   5.277  3.2025 -1.6230  0.7537
 7220SOL    HW233297   0.567   3.083   5.170  1.2927 -0.8485 -0.9249
 7221SOL     OW33298   4.570   4.639   5.216 -0.5481  0.4615  0.0596
 7221SOL    HW133299   4.500   4.642   5.281 -0.3817  0.9067  0.2183
 7221SOL    HW233300   4.579   4.544   5.205 -1.2978  0.4072 -0.0607
 7222SOL     OW33301   3.344   1.241   1.649 -0.2970 -0.2187  0.0967
 7222SOL    HW133302   3.311   1.275   1.732  1.3049 -1.2340  1.1500
 7222SOL    HW233303   3.426   1.200   1.677 -1.1675 -1.4334  0.8650
 7223SOL     OW33304   3.131   0.081   7.140  0.6911 -0.1674 -0.3640
 7223SOL    HW133305   3.149   0.076   7.234 -1.0358  1.4431  0.0655
 7223SOL    HW233306   3.219   0.101   7.108  1.3148  1.0852  2.1258
 7224SOL     OW33307   0.881   3.050   9.149  0.3750  0.1448 -0.3490
 7224SOL    HW133308   0.966   3.033   9.190 -0.3298 -0.1167  1.0143
 7224SOL    HW233309   0.827   2.993   9.205 -0.1005 -0.3497 -1.3220
 7225SOL     OW33310   2.162   1.399   8.280  0.0244  0.0969 -0.2741
 7225SOL    HW133311   2.087   1.443   8.242  0.3926  1.9280  1.1168
 7225SOL    HW233312   2.150   1.313   8.238  0.5767 -0.3271  0.4187
 7226SOL     OW33313   4.039   0.313  16.872  0.1701 -0.1153  0.2448
 7226SOL    HW133314   4.077   0.380  16.815 -2.8644  0.4779 -1.0984
 7226SOL    HW233315   3.977   0.371  16.915  0.9080 -0.4459  1.7560
 7227SOL     OW33316   3.127   3.482   8.828 -0.0747 -0.1518  0.3834
 7227SOL    HW133317   3.033   3.471   8.816  0.0712  1.3398 -2.2262
 7227SOL    HW233318   3.161   3.512   8.743  1.7268 -1.9128  0.4726
 7228SOL     OW33319   0.039   2.112   4.019 -0.0506 -0.3489  0.4188
 7228SOL    HW133320   4.684   2.093   4.027  0.0533  0.0508  2.5547
 7228SOL    HW233321   0.065   2.050   3.951  1.8162 -1.5333  2.2023
 7229SOL     OW33322   1.612   1.786  12.018 -0.3205  0.2383  0.0380
 7229SOL    HW133323   1.562   1.719  12.066  0.7382  1.2940  2.6218
 7229SOL    HW233324   1.606   1.856  12.084 -0.3264 -2.3149  2.7642
 7230SOL     OW33325   3.009   0.938   6.258  0.8936 -0.4517 -0.2969
 7230SOL    HW133326   3.092   0.986   6.259 -0.1355  1.3292 -1.3642
 7230SOL    HW233327   2.976   0.973   6.341  0.8888  1.1951 -0.9982
 7231SOL     OW33328   0.271   2.003   7.169 -0.4292  0.6461 -0.1832
 7231SOL    HW133329   0.265   1.948   7.091 -1.5120  2.7273 -1.5626
 7231SOL    HW233330   0.180   1.989   7.194 -0.6299 -0.1055 -1.3485
 7232SOL     OW33331   2.610   0.821  12.959  0.0134 -0.4412 -0.3718
 7232SOL    HW133332   2.595   0.801  12.867 -3.6344  1.5187 -0.1762
 7232SOL    HW233333   2.702   0.849  12.950  0.2018 -0.2758  2.0825
 7233SOL     OW33334   0.306   2.277   7.765  0.4174  0.6535 -0.5424
 7233SOL    HW133335   0.361   2.296   7.841  1.2982 -0.6590 -0.8632
 7233SOL    HW233336   0.220   2.266   7.805  0.9172 -2.7290 -0.4378
 7234SOL     OW33337   0.177   3.530   0.784  0.0836  0.0410  0.1515
 7234SOL    HW133338   0.141   3.445   0.760 -2.3782  0.7095  1.5030
 7234SOL    HW233339   0.171   3.508   0.877 -0.4911  1.4008  0.4463
 7235SOL     OW33340   4.398   3.123   2.897 -0.3291 -0.2413  0.4382
 7235SOL    HW133341   4.350   3.040   2.895 -1.7070  0.5559  0.2551
 7235SOL    HW233342   4.319   3.176   2.903 -0.8501 -1.2841  2.9550
 7236SOL     OW33343   4.106   2.121   6.946  0.4364  0.0887 -0.2932
 7236SOL    HW133344   4.142   2.070   7.019  1.0189  0.1797 -0.5188
 7236SOL    HW233345   4.180   2.181   6.932 -1.6039  2.6930  0.1347
 7237SOL     OW33346   0.400   3.103   2.218 -0.4455 -0.3963 -0.2192
 7237SOL    HW133347   0.396   3.112   2.123 -0.5377  2.0297  0.0109
 7237SOL    HW233348   0.487   3.063   2.231 -1.8331 -2.9976  1.1276
 7238SOL     OW33349   2.799   2.086   0.242 -0.3692 -0.1376  0.7933
 7238SOL    HW133350   2.868   2.100   0.307  0.5262 -2.9869  0.4346
 7238SOL    HW233351   2.765   2.175   0.228  3.3774  0.9522 -1.4630
 7239SOL     OW33352   4.481   0.373   8.446 -1.0547  0.6183  0.2074
 7239SOL    HW133353   4.402   0.346   8.398 -0.1528  0.2264 -1.0345
 7239SOL    HW233354   4.531   0.292   8.455 -3.4504 -0.9513 -0.4441
 7240SOL     OW33355   4.108   2.226  17.332 -0.1045 -0.0514 -0.0102
 7240SOL    HW133356   4.068   2.141  17.315 -0.9185  0.4911 -0.8006
 7240SOL    HW233357   4.047   2.299  17.331  0.5928  0.4531 -3.4156
 7241SOL     OW33358   3.116   0.553   5.910  0.4672 -0.3849  0.2919
 7241SOL    HW133359   3.035   0.551   5.960  1.5976  2.0000  2.2582
 7241SOL    HW233360   3.107   0.466   5.871  2.4260  0.1539 -1.4124
 7242SOL     OW33361   0.559   1.935   1.747  0.0377  0.0018 -0.0384
 7242SOL    HW133362   0.465   1.924   1.757 -0.1566  0.5947 -1.2927
 7242SOL    HW233363   0.566   2.000   1.677 -1.4351 -1.9338 -1.9674
 7243SOL     OW33364   2.577   4.193   6.887 -0.3352 -0.0042  0.0622
 7243SOL    HW133365   2.633   4.196   6.809  0.0333 -2.3882  0.2101
 7243SOL    HW233366   2.567   4.285   6.909  1.9410  0.2681 -0.0243
 7244SOL     OW33367   1.519   1.754   9.212 -0.1292  0.1268 -0.2469
 7244SOL    HW133368   1.500   1.763   9.305  0.6773 -0.1296 -0.0624
 7244SOL    HW233369   1.436   1.720   9.178  0.7147  0.8822 -3.0728
 7245SOL     OW33370   4.466   2.604  12.104 -0.1719 -0.5035  0.0966
 7245SOL    HW133371   4.556   2.631  12.084  0.8965 -2.1584  2.7431
 7245SOL    HW233372   4.425   2.635  12.023  0.1797  2.0669  0.8960
 7246SOL     OW33373   0.368   2.499   4.083 -0.1573  0.3074 -0.0037
 7246SOL    HW133374   0.294   2.441   4.066  0.3800 -0.6273  0.8330
 7246SOL    HW233375   0.373   2.541   3.997 -0.8322  1.8658  0.7158
 7247SOL     OW33376   3.744   2.141   6.155 -0.0770 -0.0126 -0.1657
 7247SOL    HW133377   3.826   2.143   6.204 -1.3386  0.2934  1.9341
 7247SOL    HW233378   3.777   2.112   6.070 -2.1137  1.6146 -1.5303
 7248SOL     OW33379   4.091   3.132   2.639  0.3610 -0.2658  0.2278
 7248SOL    HW133380   4.063   3.063   2.699 -0.2977 -0.0057  0.2140
 7248SOL    HW233381   4.118   3.200   2.700  1.1835 -1.1275  0.8366
 7249SOL     OW33382   1.534   4.088   3.238 -1.0585  0.8571 -0.1307
 7249SOL    HW133383   1.531   4.084   3.333 -1.4969  1.2748 -0.1289
 7249SOL    HW233384   1.613   4.140   3.224 -0.8626  1.1005  1.9853
 7250SOL     OW33385   3.392   2.761   2.274  0.0310 -0.3415  0.7347
 7250SOL    HW133386   3.401   2.781   2.368  0.4872  1.1505  0.3810
 7250SOL    HW233387   3.317   2.817   2.251 -0.0007  0.0881  1.8505
 7251SOL     OW33388   0.506   1.437   1.017 -0.2594 -0.9393 -0.0110
 7251SOL    HW133389   0.431   1.402   0.968 -1.2376  0.6048  0.3823
 7251SOL    HW233390   0.538   1.360   1.063  2.7533  1.6342  2.2166
 7252SOL     OW33391   2.423   0.548   9.344  0.4405  0.2205 -0.2842
 7252SOL    HW133392   2.440   0.489   9.418  1.0451  0.2189 -0.4224
 7252SOL    HW233393   2.352   0.502   9.300 -0.4525  2.4957 -1.1968
 7253SOL     OW33394   3.227   2.076   6.886 -0.5136 -0.1028  0.2187
 7253SOL    HW133395   3.275   2.007   6.840 -0.1964 -1.3748  2.4496
 7253SOL    HW233396   3.167   2.108   6.819  0.8619  0.1091 -0.9268
 7254SOL     OW33397   4.563   0.527   6.374  0.1278 -0.1075  0.7382
 7254SOL    HW133398   4.560   0.523   6.470 -0.6701  0.1432  0.7175
 7254SOL    HW233399   4.488   0.579   6.346  0.0113 -1.2396 -1.1017
 7255SOL     OW33400   1.048   1.679   6.943 -0.0693 -0.1897  0.1628
 7255SOL    HW133401   1.075   1.667   6.852  0.1086 -2.3294  0.4902
 7255SOL    HW233402   1.055   1.774   6.953 -1.0298  0.0359 -1.4752
 7256SOL     OW33403   1.451   2.635   5.158 -0.1515  0.3544  0.8263
 7256SOL    HW133404   1.480   2.585   5.082 -1.9127 -0.2909  0.5955
 7256SOL    HW233405   1.367   2.669   5.129 -0.2994 -2.3493 -1.9068
 7257SOL     OW33406   4.501   4.271  16.122 -0.1735 -0.2838 -0.3451
 7257SOL    HW133407   4.546   4.356  16.121 -0.6428  0.0175  2.5857
 7257SOL    HW233408   4.425   4.305  16.074 -0.4976  2.2792  1.9845
 7258SOL     OW33409   2.785   1.342  10.909  0.0925  0.9373 -0.3413
 7258SOL    HW133410   2.781   1.428  10.869 -1.2387  1.4380  0.8586
 7258SOL    HW233411   2.877   1.322  10.892 -0.2456 -1.0336  0.0324
 7259SOL     OW33412   4.579   2.177  15.143  0.1724  1.0365  0.4613
 7259SOL    HW133413   4.534   2.207  15.223 -0.0002 -0.0263  0.7572
 7259SOL    HW233414   4.556   2.085  15.152  1.7658  0.7155  1.3163
 7260SOL     OW33415   2.313   0.582   4.453  0.7601 -0.0302 -0.7262
 7260SOL    HW133416   2.294   0.627   4.535 -0.2094 -1.3034 -0.2476
 7260SOL    HW233417   2.316   0.491   4.482 -1.1849  0.3510  0.6837
 7261SOL     OW33418   4.414   1.436   1.636  0.3462 -0.5171  0.2692
 7261SOL    HW133419   4.333   1.446   1.585  1.9478  2.6736 -1.6631
 7261SOL    HW233420   4.438   1.529   1.633 -1.5779 -0.0549 -0.7468
 7262SOL     OW33421   0.835   3.481   8.878  0.6242  0.0625 -0.1841
 7262SOL    HW133422   0.752   3.486   8.924 -0.0581  1.0914 -1.5205
 7262SOL    HW233423   0.816   3.522   8.793  0.4008  0.6026  0.1302
 7263SOL     OW33424   2.820   2.475  11.036 -0.2009 -0.2260  0.3045
 7263SOL    HW133425   2.850   2.536  11.104 -0.0005  0.6625 -0.5761
 7263SOL    HW233426   2.805   2.401  11.094  1.6162 -1.4090 -0.7495
 7264SOL     OW33427   1.355   3.369   5.553 -0.4637  0.0049 -0.2759
 7264SOL    HW133428   1.352   3.354   5.648  0.0111 -0.0060 -0.2647
 7264SOL    HW233429   1.302   3.296   5.521 -0.2451  0.6800 -2.1838
 7265SOL     OW33430   1.081   3.447   7.703  0.4058  0.3580  0.7567
 7265SOL    HW133431   1.080   3.361   7.661  2.2850 -0.0862  1.6312
 7265SOL    HW233432   1.068   3.503   7.626 -2.8125 -0.3277  0.8250
 7266SOL     OW33433   0.585   1.004   7.310 -0.3226  0.1326  0.1542
 7266SOL    HW133434   0.561   1.066   7.379  0.6195 -0.4466  0.9999
 7266SOL    HW233435   0.641   1.061   7.256  0.3832 -1.0311 -0.3349
 7267SOL     OW33436   2.623   3.046   5.090 -0.7605 -0.6316  0.1541
 7267SOL    HW133437   2.534   3.052   5.126 -0.8420 -1.1841  0.0349
 7267SOL    HW233438   2.668   3.042   5.174 -0.7132 -0.3941  0.1421
 7268SOL     OW33439   1.085   3.316   7.950  0.5899 -0.3500 -0.3645
 7268SOL    HW133440   1.118   3.359   7.871 -1.0007  1.1496 -0.2027
 7268SOL    HW233441   1.159   3.259   7.974  1.9654  1.3925 -0.4373
 7269SOL     OW33442   4.212   2.471  13.428  0.0776 -0.0361 -0.0562
 7269SOL    HW133443   4.271   2.465  13.503 -1.0550 -0.6201  0.8036
 7269SOL    HW233444   4.132   2.474  13.481  1.4410  2.9050  1.8360
 7270SOL     OW33445   0.228   1.272   0.812 -0.0773  0.7272 -0.4501
 7270SOL    HW133446   0.220   1.286   0.906  1.6480  0.6443 -0.2937
 7270SOL    HW233447   0.134   1.264   0.795  0.0067 -1.1299 -0.0706
 7271SOL     OW33448   0.992   0.651   2.465  0.4417  0.5779 -0.1557
 7271SOL    HW133449   0.939   0.707   2.521  0.4468 -1.3842  1.8016
 7271SOL    HW233450   1.032   0.590   2.526  1.1569  1.7134  0.5080
 7272SOL     OW33451   0.149   4.614   7.739 -0.3365 -0.0970  0.4666
 7272SOL    HW133452   0.058   4.607   7.710  0.0573  0.1471 -0.7928
 7272SOL    HW233453   0.167   4.708   7.742  0.1579 -0.1652 -0.5550
 7273SOL     OW33454   1.630   4.240   7.725 -0.2295  0.1659  0.0441
 7273SOL    HW133455   1.683   4.162   7.711  1.0014  0.9358  0.3888
 7273SOL    HW233456   1.700   4.303   7.746 -1.4054  2.0772 -1.7851
 7274SOL     OW33457   2.596   1.192  11.066  0.6196 -0.0900 -0.1138
 7274SOL    HW133458   2.657   1.121  11.045 -0.2147 -0.6939 -0.5151
 7274SOL    HW233459   2.653   1.263  11.040  2.2417 -0.6953  1.8454
 7275SOL     OW33460   1.955   0.065   3.742  0.2909  0.6725  0.4343
 7275SOL    HW133461   1.905   0.100   3.668 -2.1650  0.4116  1.9957
 7275SOL    HW233462   1.926   4.713   3.752 -1.0280  0.9694 -0.6453
 7276SOL     OW33463   0.638   4.447   5.512 -0.3422  0.9128  0.1544
 7276SOL    HW133464   0.544   4.468   5.520 -0.5580 -0.5322  1.4149
 7276SOL    HW233465   0.628   4.394   5.434  1.0040  2.9598 -1.4185
 7277SOL     OW33466   1.099   3.153   3.426  0.4129  0.4682  0.1150
 7277SOL    HW133467   1.158   3.224   3.402  0.7614  1.0410  2.6463
 7277SOL    HW233468   1.056   3.186   3.506  0.7544 -2.6746  1.5676
 7278SOL     OW33469   1.435   0.571   4.598  0.2952  0.7045 -0.5700
 7278SOL    HW133470   1.357   0.581   4.653  1.7051 -0.5004  1.6528
 7278SOL    HW233471   1.408   0.497   4.545  3.5864 -1.1815  0.3870
 7279SOL     OW33472   3.098   1.412   7.792 -0.5130  0.2339  0.6959
 7279SOL    HW133473   3.113   1.383   7.703  0.1507 -1.3271  1.3161
 7279SOL    HW233474   3.187   1.437   7.818 -0.3445 -1.2005  1.4851
 7280SOL     OW33475   3.217   4.147   8.473  0.4448  0.0607  0.7266
 7280SOL    HW133476   3.183   4.173   8.558 -0.7367  1.3069 -0.1316
 7280SOL    HW233477   3.311   4.136   8.484  0.4428 -0.3991  0.3157
 7281SOL     OW33478   3.487   4.021  13.147 -0.0198  0.2389  0.2015
 7281SOL    HW133479   3.532   4.019  13.063  2.0752 -2.2447  1.3851
 7281SOL    HW233480   3.503   4.109  13.183 -1.3395  1.3335 -1.8658
 7282SOL     OW33481   3.482   1.854  12.307 -0.0651 -0.6899 -0.9307
 7282SOL    HW133482   3.568   1.826  12.277  0.6654 -2.4180  2.8119
 7282SOL    HW233483   3.440   1.775  12.341 -1.7902  0.4854 -0.3142
 7283SOL     OW33484   4.554   1.405  13.425 -0.0935 -0.1568  0.3424
 7283SOL    HW133485   4.589   1.472  13.484  1.5756 -0.1441 -0.6641
 7283SOL    HW233486   4.508   1.449  13.353 -1.2082 -0.6544  0.7502
 7284SOL     OW33487   2.120   1.121   7.160  0.3824  0.5821 -0.5986
 7284SOL    HW133488   2.197   1.169   7.129  1.0219 -0.4194 -0.5677
 7284SOL    HW233489   2.042   1.158   7.119 -0.4534  0.1027  0.5518
 7285SOL     OW33490   0.995   0.577   3.436  0.5723  0.1287 -0.0976
 7285SOL    HW133491   1.083   0.614   3.438  0.1236  1.1899 -0.3337
 7285SOL    HW233492   0.955   0.603   3.519  2.7598 -0.1689  1.0474
 7286SOL     OW33493   0.784   1.169  10.812  0.2247 -0.2169 -0.0266
 7286SOL    HW133494   0.824   1.252  10.784 -1.5389  0.5815 -0.1939
 7286SOL    HW233495   0.705   1.172  10.758 -1.2129 -1.1573  2.0045
 7287SOL     OW33496   4.555   0.646  10.794 -0.2236 -0.2312  0.7199
 7287SOL    HW133497   4.514   0.564  10.820  1.6982 -1.1355  0.9193
 7287SOL    HW233498   4.599   0.669  10.877  0.6311 -0.3792  0.3145
 7288SOL     OW33499   2.176   3.893   6.957  0.2641 -0.3736 -1.0315
 7288SOL    HW133500   2.254   3.847   6.987  1.0796  1.8737  0.2705
 7288SOL    HW233501   2.203   3.985   6.962 -1.2287  0.0616 -1.0114
 7289SOL     OW33502   2.105   2.163   8.114 -1.1401  0.1060 -0.1283
 7289SOL    HW133503   2.116   2.253   8.145 -1.3296 -1.0201  3.2428
 7289SOL    HW233504   2.194   2.150   8.080 -0.9229 -1.1674  0.8993
 7290SOL     OW33505   3.453   2.074   7.188  0.1770 -0.5793  0.3251
 7290SOL    HW133506   3.540   2.036   7.197  0.5608  0.3594  0.5625
 7290SOL    HW233507   3.469   2.162   7.154 -1.8283  0.0198  0.8922
 7291SOL     OW33508   0.243   0.017   3.719 -0.5956  0.2815  0.6668
 7291SOL    HW133509   0.202   4.725   3.800 -0.6393 -4.1712 -1.0101
 7291SOL    HW233510   0.335   0.025   3.746 -0.1738 -3.6060  0.3238
 7292SOL     OW33511   0.990   3.536   4.322  0.6539  0.0506  0.0587
 7292SOL    HW133512   1.050   3.610   4.316  0.2498  0.3382 -0.5191
 7292SOL    HW233513   1.046   3.466   4.288 -1.3499 -1.8211  0.6044
 7293SOL     OW33514   3.187   2.145   8.577  0.1286  0.0893  0.5874
 7293SOL    HW133515   3.232   2.174   8.497  0.7609 -2.2896  0.0548
 7293SOL    HW233516   3.155   2.228   8.611 -2.3412 -0.7106  0.2066
 7294SOL     OW33517   2.413   1.856   2.968  0.0153 -0.0347  0.1130
 7294SOL    HW133518   2.469   1.932   2.955  0.6856 -0.8442 -1.7692
 7294SOL    HW233519   2.359   1.893   3.038 -0.0178  0.0094  0.0636
 7295SOL     OW33520   4.043   1.766   3.623  0.2287 -0.1191  0.4297
 7295SOL    HW133521   4.050   1.832   3.692 -1.3826 -1.3486  1.7613
 7295SOL    HW233522   4.063   1.686   3.673  1.9875  1.1485  1.7745
 7296SOL     OW33523   0.343   1.402  14.033 -0.2726 -0.5898 -0.6525
 7296SOL    HW133524   0.298   1.356  13.962 -1.9245  2.2448 -1.4526
 7296SOL    HW233525   0.410   1.449  13.984 -0.7085  1.2456  0.5015
 7297SOL     OW33526   3.014   1.976   6.548  0.6976 -0.5824 -0.9039
 7297SOL    HW133527   3.047   1.901   6.598 -3.4742 -2.9289 -1.7535
 7297SOL    HW233528   3.008   2.044   6.615 -1.4112 -1.2977 -0.3660
 7298SOL     OW33529   2.856   4.361  15.295 -0.1083 -0.3618 -0.2066
 7298SOL    HW133530   2.830   4.410  15.217  2.1476  2.0671  0.5595
 7298SOL    HW233531   2.818   4.427  15.354 -1.4848 -0.1924 -1.3015
 7299SOL     OW33532   4.629   3.057   4.689 -0.5326 -0.5126 -0.3795
 7299SOL    HW133533   4.593   3.143   4.665 -0.1904  0.0133  0.9864
 7299SOL    HW233534   4.723   3.074   4.690 -0.7767  0.7322  1.3146
 7300SOL     OW33535   2.152   3.856   1.958 -0.4923 -0.1037  0.2701
 7300SOL    HW133536   2.213   3.891   2.022  0.1313 -0.8100  0.0688
 7300SOL    HW233537   2.181   3.917   1.890 -0.5096 -2.0507 -1.4855
 7301SOL     OW33538   3.836   2.888  10.967  0.0182 -0.2709  0.1134
 7301SOL    HW133539   3.793   2.951  11.025 -1.0414  0.0050 -0.9622
 7301SOL    HW233540   3.798   2.929  10.888  0.2922  0.5551  0.4071
 7302SOL     OW33541   4.568   1.384   3.160 -0.6688  0.1605 -0.0762
 7302SOL    HW133542   4.613   1.347   3.236 -1.4566 -1.7368 -0.5122
 7302SOL    HW233543   4.626   1.367   3.087  0.1853 -1.9955  1.0944
 7303SOL     OW33544   3.481   4.713   3.787 -0.3406  0.9850  0.7440
 7303SOL    HW133545   3.429   4.642   3.825  0.3760 -0.1383 -0.3746
 7303SOL    HW233546   3.566   4.712   3.832 -0.7305 -1.2191  1.4496
 7304SOL     OW33547   2.194   3.399   0.908  0.2573 -0.4100 -0.1706
 7304SOL    HW133548   2.113   3.393   0.857  1.5886  1.9161 -2.5421
 7304SOL    HW233549   2.189   3.485   0.950  0.8631  0.1867 -1.3068
 7305SOL     OW33550   1.217   2.296   6.292 -0.0380 -0.5687  0.1884
 7305SOL    HW133551   1.217   2.299   6.196 -0.3682  0.9672  0.2390
 7305SOL    HW233552   1.274   2.370   6.313 -1.0926  0.3810 -0.3592
 7306SOL     OW33553   1.975   4.501   6.605 -0.0274  0.2329  0.1690
 7306SOL    HW133554   1.929   4.419   6.585  1.4903 -1.0713  2.0167
 7306SOL    HW233555   1.896   4.554   6.614 -1.1362 -1.0113 -1.9967
 7307SOL     OW33556   4.295   3.121   8.317 -0.0934 -0.4235  0.7717
 7307SOL    HW133557   4.227   3.122   8.384 -0.4929 -0.3925  0.3632
 7307SOL    HW233558   4.373   3.095   8.365 -1.6850 -3.0639  1.8884
 7308SOL     OW33559   4.002   0.408   5.283  0.1870 -0.3573  0.0695
 7308SOL    HW133560   3.919   0.410   5.331 -0.8895 -1.2367 -1.7465
 7308SOL    HW233561   4.020   0.316   5.265 -0.1480 -0.1768 -1.1781
 7309SOL     OW33562   0.480   0.902   8.238  0.5997  0.2219  0.1251
 7309SOL    HW133563   0.474   0.819   8.285  2.3775  0.3475  0.5776
 7309SOL    HW233564   0.393   0.940   8.248 -0.0143 -0.9346 -0.7562
 7310SOL     OW33565   4.178   1.754  11.086  0.3618 -0.7629  0.2551
 7310SOL    HW133566   4.185   1.785  10.995  0.1964  1.0473  0.8648
 7310SOL    HW233567   4.129   1.814  11.141  1.7598  0.6552 -0.0409
 7311SOL     OW33568   1.595   2.877  17.553 -0.1302 -0.6432 -0.3875
 7311SOL    HW133569   1.578   2.937  17.625 -0.3731 -0.2433 -0.7744
 7311SOL    HW233570   1.628   2.813  17.616 -0.8614 -0.4295  0.2119
 7312SOL     OW33571   1.957   0.062  12.596 -0.5751 -0.2742  0.0800
 7312SOL    HW133572   2.005   0.143  12.617 -0.8993 -0.6444  2.2417
 7312SOL    HW233573   1.880   0.075  12.652 -0.1495  3.4731 -0.1908
 7313SOL     OW33574   3.642   2.439   5.536  0.5075  0.1371 -0.2829
 7313SOL    HW133575   3.661   2.507   5.601  0.8741 -1.6248  1.4585
 7313SOL    HW233576   3.651   2.487   5.454 -2.5797  0.6301 -0.3529
 7314SOL     OW33577   2.093   1.168   6.513 -0.3243  0.0651 -0.3536
 7314SOL    HW133578   2.014   1.167   6.567 -2.0955 -0.4415 -2.9390
 7314SOL    HW233579   2.054   1.143   6.429 -0.0759  0.7889 -0.6754
 7315SOL     OW33580   0.725   3.404   5.745 -0.0383 -0.0616 -0.0219
 7315SOL    HW133581   0.809   3.449   5.733 -0.9224  1.8074  0.7921
 7315SOL    HW233582   0.668   3.479   5.762  0.3743 -0.0756  1.4577
 7316SOL     OW33583   4.604   3.485   9.066  0.0673 -0.9000  0.1891
 7316SOL    HW133584   4.585   3.462   8.975  0.1715  0.9658 -0.3000
 7316SOL    HW233585   4.573   3.405   9.109  0.1260 -1.8830 -1.5911
 7317SOL     OW33586   3.765   4.006   4.858 -0.2582  0.7252 -0.3683
 7317SOL    HW133587   3.831   4.036   4.920  0.8332 -0.3751 -1.0037
 7317SOL    HW233588   3.818   4.007   4.778  1.4045  0.8782  0.7271
 7318SOL     OW33589   4.683   4.001   9.727 -0.2807 -0.5814 -0.4702
 7318SOL    HW133590   4.727   4.043   9.654  0.4471  0.7336  0.7223
 7318SOL    HW233591   4.627   3.935   9.687 -2.5290  0.5160  0.8736
 7319SOL     OW33592   1.461   3.033   7.500 -0.4137  0.1841 -0.0233
 7319SOL    HW133593   1.369   3.016   7.480 -0.8087  1.2755  0.8465
 7319SOL    HW233594   1.479   3.112   7.451 -0.0579  0.4386  0.5117
 7320SOL     OW33595   3.279   0.640  11.345 -0.0597  0.1175 -0.1368
 7320SOL    HW133596   3.301   0.598  11.428  0.5637  2.4931  0.9169
 7320SOL    HW233597   3.308   0.569  11.287  0.7646  0.6543 -0.3845
 7321SOL     OW33598   1.226   1.393  17.312  0.4407 -0.2142 -0.5989
 7321SOL    HW133599   1.231   1.323  17.377  0.6231 -0.9608 -1.4324
 7321SOL    HW233600   1.302   1.359  17.265  0.3563  2.0780 -2.4196
 7322SOL     OW33601   3.055   4.412   2.279  0.5715 -0.2458  0.2002
 7322SOL    HW133602   3.083   4.419   2.370 -1.3321 -0.1026  0.7617
 7322SOL    HW233603   3.031   4.500   2.249  1.7625 -0.9337 -2.8196
 7323SOL     OW33604   3.219   3.869   2.681  0.0776 -0.2234 -0.6403
 7323SOL    HW133605   3.160   3.882   2.607 -0.7781 -2.9196 -0.4153
 7323SOL    HW233606   3.285   3.812   2.640  0.4462  0.5970 -1.1957
 7324SOL     OW33607   1.590   4.706   7.182 -0.4065 -0.2984  0.9152
 7324SOL    HW133608   1.539   4.657   7.117  1.1617  1.0031 -1.3187
 7324SOL    HW233609   1.520   0.023   7.216 -1.1492 -0.0292 -1.0221
 7325SOL     OW33610   3.804   3.243   6.301 -0.2261 -0.3956  0.0865
 7325SOL    HW133611   3.884   3.191   6.304 -0.4138 -0.6250  1.1926
 7325SOL    HW233612   3.756   3.177   6.351  0.0834 -0.8608 -0.2350
 7326SOL     OW33613   1.828   2.114   8.027  0.3267  0.2299 -0.0192
 7326SOL    HW133614   1.799   2.176   8.094  1.2136  1.0603 -0.4112
 7326SOL    HW233615   1.923   2.121   8.036  0.2084  0.6555  0.8650
 7327SOL     OW33616   2.643   3.653   9.829  0.4487 -0.8921 -0.0661
 7327SOL    HW133617   2.584   3.728   9.831 -0.1562 -1.4282  1.4346
 7327SOL    HW233618   2.598   3.580   9.872  0.9070 -2.2528 -1.8600
 7328SOL     OW33619   4.027   1.687  16.297  0.2680  0.4059  0.2326
 7328SOL    HW133620   4.041   1.753  16.365  2.3531  1.2522 -0.9933
 7328SOL    HW233621   4.095   1.620  16.304 -0.7043 -0.2499  3.2770
 7329SOL     OW33622   4.551   0.511   2.305  0.2274 -0.4007  0.4118
 7329SOL    HW133623   4.557   0.500   2.400 -1.9853 -0.7359  0.5223
 7329SOL    HW233624   4.614   0.442   2.285  0.9617  0.2985  0.3276
 7330SOL     OW33625   0.038   3.633  16.310  0.9869 -0.1116 -0.3290
 7330SOL    HW133626   0.015   3.591  16.227 -0.0194  0.1990 -0.2079
 7330SOL    HW233627   0.015   3.724  16.291 -0.7865 -0.5538 -0.3469
 7331SOL     OW33628   3.275   0.412   6.974  0.1679 -0.1796  0.3383
 7331SOL    HW133629   3.236   0.336   6.931  2.4662 -0.9310 -0.3973
 7331SOL    HW233630   3.305   0.367   7.052  1.9921 -1.2075 -0.9648
 7332SOL     OW33631   3.291   3.434   3.787  0.2732  0.7646  0.3325
 7332SOL    HW133632   3.225   3.475   3.730  0.3084 -0.3553 -0.5213
 7332SOL    HW233633   3.369   3.489   3.787  1.3318 -0.7204  0.5619
 7333SOL     OW33634   0.672   3.779   2.602  0.0715  0.4190  0.1579
 7333SOL    HW133635   0.705   3.757   2.515 -0.2250 -1.0083  0.4093
 7333SOL    HW233636   0.643   3.693   2.632  3.4154 -0.4191  1.0989
 7334SOL     OW33637   1.508   1.531   3.414 -0.1827  0.7343 -0.4000
 7334SOL    HW133638   1.461   1.561   3.335 -1.2080 -0.3888 -0.2139
 7334SOL    HW233639   1.594   1.571   3.402  0.6531 -0.2668  2.2392
 7335SOL     OW33640   1.671   3.896   8.673 -0.0457 -0.0454  0.2484
 7335SOL    HW133641   1.736   3.829   8.651 -0.9063 -0.6231 -0.5452
 7335SOL    HW233642   1.665   3.943   8.590 -1.2679 -2.4285 -1.0096
 7336SOL     OW33643   2.162   4.441   7.461  0.2596 -0.0261 -0.5559
 7336SOL    HW133644   2.170   4.528   7.499  0.4249 -1.3425  2.3830
 7336SOL    HW233645   2.070   4.447   7.438  0.3037 -1.3433 -1.0689
 7337SOL     OW33646   0.799   1.032   2.387 -0.4135  0.2673 -0.2109
 7337SOL    HW133647   0.716   1.071   2.360 -1.6042 -1.2906  1.2523
 7337SOL    HW233648   0.863   1.094   2.352  0.5159 -0.1784  0.7159
 7338SOL     OW33649   3.972   0.173   8.541  0.5234  0.3263 -0.6098
 7338SOL    HW133650   3.988   0.256   8.585 -1.6038  0.8689 -0.8614
 7338SOL    HW233651   4.047   0.126   8.578  1.2419  3.3427  1.7376
 7339SOL     OW33652   3.136   4.276   3.005  0.4717  0.0688  0.6492
 7339SOL    HW133653   3.135   4.192   3.052  0.8848 -0.1022  0.3571
 7339SOL    HW233654   3.086   4.250   2.928  0.1297  2.4775  0.0525
 7340SOL     OW33655   2.405   1.373   5.006  0.0207  0.1272 -0.3273
 7340SOL    HW133656   2.426   1.308   4.939 -2.6701 -0.1903 -0.8559
 7340SOL    HW233657   2.314   1.347   5.015 -0.4613  3.2319  3.7496
 7341SOL     OW33658   2.123   3.694   5.230 -0.0084  0.4179 -0.1628
 7341SOL    HW133659   2.088   3.664   5.146  2.6302 -0.6244 -0.9057
 7341SOL    HW233660   2.039   3.725   5.265 -1.0536  0.4144 -2.6691
 7342SOL     OW33661   0.731   2.589   3.715 -0.3246 -0.2273  0.0029
 7342SOL    HW133662   0.655   2.597   3.657  0.9688 -1.2386 -1.8395
 7342SOL    HW233663   0.700   2.519   3.772 -1.6018 -1.1088 -1.7450
 7343SOL     OW33664   4.716   3.362   2.146  0.6607 -0.2113  0.5653
 7343SOL    HW133665   0.031   3.298   2.100 -0.3329  0.7375 -1.9102
 7343SOL    HW233666   0.035   3.438   2.159 -1.0028  1.3636 -1.1574
 7344SOL     OW33667   2.673   3.421   6.867  0.4449 -0.5532  0.1349
 7344SOL    HW133668   2.684   3.326   6.870  1.2950 -0.3468  3.5132
 7344SOL    HW233669   2.583   3.446   6.885  2.0250  4.1961  1.4575
 7345SOL     OW33670   3.678   2.771   2.298 -0.5303  0.4225  0.1579
 7345SOL    HW133671   3.585   2.768   2.280 -0.6105 -2.0879  0.9229
 7345SOL    HW233672   3.694   2.688   2.344 -0.1719  1.1016  1.2703
 7346SOL     OW33673   3.917   4.229   3.098  0.1655  0.3291 -0.0851
 7346SOL    HW133674   3.884   4.151   3.053 -1.3837  0.0872  1.4393
 7346SOL    HW233675   3.960   4.280   3.029 -1.9673  1.6292 -0.4480
 7347SOL     OW33676   2.599   3.313   7.292 -0.1926 -0.2281 -0.0010
 7347SOL    HW133677   2.525   3.375   7.295  0.0286  0.0408 -0.1381
 7347SOL    HW233678   2.569   3.246   7.231  0.2604 -0.1610 -0.2969
 7348SOL     OW33679   1.044   3.547   5.887 -0.4170  0.0106  1.1553
 7348SOL    HW133680   1.084   3.595   5.815 -1.6910 -0.6927 -0.0260
 7348SOL    HW233681   1.112   3.480   5.882  2.2405  2.8104 -0.5612
 7349SOL     OW33682   2.407   0.558  11.564 -0.1682 -1.0172 -0.1213
 7349SOL    HW133683   2.431   0.467  11.550 -1.2786 -0.9879 -2.1688
 7349SOL    HW233684   2.311   0.557  11.560 -0.2338 -1.3189  1.2506
 7350SOL     OW33685   3.002   0.186  13.014  0.2856  0.4375  0.1099
 7350SOL    HW133686   3.039   0.273  13.030 -2.4545  1.7707 -0.8933
 7350SOL    HW233687   2.969   0.198  12.925  1.6192 -2.9642 -0.8230
 7351SOL     OW33688   3.687   0.755   2.476  0.5095  0.4094 -0.3894
 7351SOL    HW133689   3.773   0.753   2.518  1.8715  1.4353 -3.1276
 7351SOL    HW233690   3.692   0.850   2.463  1.2188  0.0725 -2.5282
 7352SOL     OW33691   0.977   1.298   2.692  0.5427 -0.8457  0.2521
 7352SOL    HW133692   0.947   1.382   2.728 -2.3614 -1.0306 -1.7834
 7352SOL    HW233693   0.900   1.261   2.650  1.1997 -1.1291 -0.6941
 7353SOL     OW33694   2.162   0.770   2.154  0.0698 -0.6755  0.6081
 7353SOL    HW133695   2.182   0.708   2.224  1.7871  0.8356  1.4701
 7353SOL    HW233696   2.190   0.845   2.207 -0.1564  1.5965 -2.4567
 7354SOL     OW33697   1.940   2.193   5.134 -0.0547  0.0739 -0.2192
 7354SOL    HW133698   1.889   2.220   5.057  1.1726 -1.8158 -1.6893
 7354SOL    HW233699   1.933   2.098   5.134  1.0057  0.0001 -0.1370
 7355SOL     OW33700   1.610   2.992   8.029 -0.1734 -0.0440 -0.7944
 7355SOL    HW133701   1.527   3.036   8.049  1.2390  1.9513  0.7222
 7355SOL    HW233702   1.579   2.902   8.037 -0.0810  0.2258  2.6270
 7356SOL     OW33703   1.396   0.061  16.134 -0.3251  0.9854 -0.2476
 7356SOL    HW133704   1.314   0.080  16.179 -0.6938 -0.0354 -0.4821
 7356SOL    HW233705   1.461   0.040  16.201 -0.5904 -2.4965 -1.0411
 7357SOL     OW33706   3.470   1.674  14.550  0.4966  0.2886  0.1129
 7357SOL    HW133707   3.466   1.753  14.604 -1.8928  0.2710 -0.0675
 7357SOL    HW233708   3.479   1.703  14.460  1.5921  3.0050  1.0944
 7358SOL     OW33709   0.511   2.457   1.443  0.0643 -0.2513  0.0118
 7358SOL    HW133710   0.589   2.457   1.498  0.0357 -2.4855  0.0411
 7358SOL    HW233711   0.440   2.437   1.505 -0.8530  2.0961 -0.2862
 7359SOL     OW33712   2.534   4.610   1.251 -0.0606  0.7800  0.0420
 7359SOL    HW133713   2.597   4.661   1.302 -1.5765  1.7204  0.9607
 7359SOL    HW233714   2.471   4.674   1.218 -0.3245 -0.4271 -1.7669
 7360SOL     OW33715   4.023   3.971  14.436  0.0582  0.6573  0.3608
 7360SOL    HW133716   3.996   3.981  14.527 -0.6124  2.9839 -0.1032
 7360SOL    HW233717   4.111   4.006  14.453  1.0257 -0.5117 -2.1267
 7361SOL     OW33718   4.629   0.531  10.553  0.4053  0.0410 -0.4788
 7361SOL    HW133719   4.660   0.570  10.635  0.4667  0.7842 -0.8647
 7361SOL    HW233720   4.566   0.470  10.593 -0.1620  0.5214 -0.6320
 7362SOL     OW33721   3.070   0.342   3.402  0.1076  0.1926  0.4413
 7362SOL    HW133722   3.012   0.417   3.415  3.4359  2.5701  1.5399
 7362SOL    HW233723   3.148   0.371   3.447  0.5179  1.7040 -1.2381
 7363SOL     OW33724   2.175   2.698   5.047 -0.1679 -0.6927 -0.1575
 7363SOL    HW133725   2.131   2.706   4.963 -0.6307  5.3877  0.6797
 7363SOL    HW233726   2.164   2.603   5.054 -0.9050 -0.7818 -2.5910
 7364SOL     OW33727   0.267   2.272   8.417  0.0912 -1.3396 -0.2771
 7364SOL    HW133728   0.172   2.259   8.424 -0.0776  0.4833  0.8212
 7364SOL    HW233729   0.292   2.182   8.435 -0.1238 -1.3641 -0.1020
 7365SOL     OW33730   0.738   0.336  10.070  0.3729 -0.5342  1.0721
 7365SOL    HW133731   0.775   0.248  10.081 -0.0711 -1.0953 -1.8589
 7365SOL    HW233732   0.694   0.353  10.153 -1.3159  0.4827 -0.0505
 7366SOL     OW33733   3.249   1.161  12.296 -0.1369  0.1942 -0.4002
 7366SOL    HW133734   3.248   1.202  12.209 -0.7442  2.5057  0.7261
 7366SOL    HW233735   3.211   1.075  12.275  0.7421 -0.7457  1.9357
 7367SOL     OW33736   0.395   2.650   0.085  0.0789 -0.2539 -0.3612
 7367SOL    HW133737   0.324   2.713   0.079 -0.4123 -1.0176 -2.4083
 7367SOL    HW233738   0.473   2.701   0.105  1.1958 -2.3619  0.7217
 7368SOL     OW33739   1.523   1.690  10.248 -0.0458  0.1204 -0.3132
 7368SOL    HW133740   1.484   1.714  10.332 -0.1178  0.8291 -0.5483
 7368SOL    HW233741   1.480   1.750  10.186  0.7667 -0.8614 -1.8292
 7369SOL     OW33742   0.826   0.585  15.586  0.2957 -0.0473  0.2732
 7369SOL    HW133743   0.894   0.641  15.622  1.0531 -0.7053 -0.1282
 7369SOL    HW233744   0.822   0.628  15.500  4.2725 -0.9419 -0.3208
 7370SOL     OW33745   3.463   3.418   3.233 -0.5953 -0.0250 -0.2652
 7370SOL    HW133746   3.413   3.492   3.266 -0.4141  0.7101 -1.6438
 7370SOL    HW233747   3.467   3.368   3.314  1.9338  1.2753  0.4123
 7371SOL     OW33748   1.441   3.535   4.904  0.4400  0.1382  0.0369
 7371SOL    HW133749   1.444   3.554   4.998 -1.0587  2.6008 -0.4115
 7371SOL    HW233750   1.346   3.522   4.898  0.4253 -0.1268  0.7996
 7372SOL     OW33751   3.693   1.058   5.270  0.0839 -0.0865 -0.2935
 7372SOL    HW133752   3.777   1.017   5.252  0.1326  0.5055 -1.4248
 7372SOL    HW233753   3.722   1.136   5.318 -1.5801 -0.4772  1.3320
 7373SOL     OW33754   0.083   2.638   2.614 -0.0034 -0.2623  1.0878
 7373SOL    HW133755   0.019   2.592   2.668  0.8439 -1.0717  1.4099
 7373SOL    HW233756   0.085   2.726   2.653 -1.2833  0.1549  0.2118
 7374SOL     OW33757   2.606   1.223  12.765  0.3015 -0.1643 -0.4818
 7374SOL    HW133758   2.566   1.240  12.680  0.2153  1.3369 -0.1259
 7374SOL    HW233759   2.697   1.206  12.740  0.7662  1.9345 -0.2045
 7375SOL     OW33760   4.142   1.907   9.276  0.2723 -0.0298  0.2619
 7375SOL    HW133761   4.108   1.818   9.292  1.2282 -0.3210  0.6957
 7375SOL    HW233762   4.109   1.930   9.189  0.5771  0.4840  0.2868
 7376SOL     OW33763   0.223   4.319   2.711 -0.2745  0.7671  0.4829
 7376SOL    HW133764   0.165   4.243   2.711  1.4923 -0.5689 -0.8936
 7376SOL    HW233765   0.193   4.354   2.627 -0.6375 -0.7989 -0.0426
 7377SOL     OW33766   0.443   3.666   5.755 -0.0366  0.1922 -0.1251
 7377SOL    HW133767   0.385   3.595   5.783 -3.7243  2.5231 -1.8699
 7377SOL    HW233768   0.410   3.735   5.812  0.1697 -0.7106  1.1173
 7378SOL     OW33769   2.731   0.028   8.313 -0.0139  0.1830  0.2999
 7378SOL    HW133770   2.750   0.039   8.406  1.0408  3.2913 -0.2650
 7378SOL    HW233771   2.640   0.057   8.304 -0.4787 -1.0258  1.0496
 7379SOL     OW33772   3.635   4.693  12.480 -0.1198 -0.4573 -0.0241
 7379SOL    HW133773   3.559   0.013  12.475 -0.1853 -0.5283  0.1493
 7379SOL    HW233774   3.696   4.733  12.418  0.4978  0.3144  1.0771
 7380SOL     OW33775   4.194   0.652   7.334  0.0327 -0.7446 -0.7154
 7380SOL    HW133776   4.177   0.742   7.363 -0.1850 -1.5407  1.6106
 7380SOL    HW233777   4.252   0.664   7.259  0.0424 -0.0449 -0.5965
 7381SOL     OW33778   1.379   0.679   5.398  0.0585  0.0879 -0.2316
 7381SOL    HW133779   1.412   0.627   5.472 -2.6928 -1.0948  0.1667
 7381SOL    HW233780   1.456   0.730   5.375 -0.0558  0.5743  0.4651
 7382SOL     OW33781   4.136   3.312   5.010 -0.3267 -0.3443  0.1991
 7382SOL    HW133782   4.192   3.280   4.939  1.8791 -1.3642  2.3895
 7382SOL    HW233783   4.088   3.377   4.958  2.1781  1.4778  0.1656
 7383SOL     OW33784   2.301   1.282   9.624  0.5189 -0.4109 -0.3978
 7383SOL    HW133785   2.341   1.209   9.576  3.0420  1.8891 -1.7917
 7383SOL    HW233786   2.349   1.276   9.707  2.5267 -1.1966 -1.6117
 7384SOL     OW33787   1.150   3.760   8.675 -0.2706  0.4003 -0.0773
 7384SOL    HW133788   1.099   3.697   8.625  1.3271 -0.6955 -0.3077
 7384SOL    HW233789   1.075   3.821   8.674 -0.4917  0.1122 -0.6813
 7385SOL     OW33790   1.247   3.485  16.249  0.8628 -0.0283 -0.3398
 7385SOL    HW133791   1.340   3.504  16.240  1.4881 -1.5127  2.7910
 7385SOL    HW233792   1.226   3.468  16.157  0.0057  1.4340 -0.4246
 7386SOL     OW33793   2.395   3.785  13.024 -0.1437 -0.3407 -0.4374
 7386SOL    HW133794   2.413   3.727  13.099  0.3280  0.8078  0.3406
 7386SOL    HW233795   2.363   3.860  13.074  1.3996  0.4044 -0.5607
 7387SOL     OW33796   1.719   1.255   8.568  0.2735  0.3536  0.0174
 7387SOL    HW133797   1.629   1.277   8.543 -0.0339  0.4510  1.1765
 7387SOL    HW233798   1.757   1.343   8.566  0.2434  0.3996  1.2570
 7388SOL     OW33799   4.681   3.676   2.881 -0.1775  0.0046  0.5329
 7388SOL    HW133800   4.704   3.585   2.862 -1.8250 -0.0894 -1.0222
 7388SOL    HW233801   4.587   3.676   2.861  0.2899  1.6351 -1.6943
 7389SOL     OW33802   3.645   3.267   8.352 -0.3906  0.5949 -0.3742
 7389SOL    HW133803   3.603   3.349   8.378  0.5866  0.1649  2.5047
 7389SOL    HW233804   3.587   3.239   8.282 -1.8994  1.5849  0.4774
 7390SOL     OW33805   4.181   3.564   1.680  0.0483  0.8209  0.1864
 7390SOL    HW133806   4.221   3.538   1.763 -0.2895  1.6437  0.6090
 7390SOL    HW233807   4.235   3.638   1.652  0.9959  0.7189  1.7050
 7391SOL     OW33808   2.537   3.307   3.738  0.2155 -0.0768  1.0573
 7391SOL    HW133809   2.492   3.241   3.792 -3.2166  1.7586  0.4038
 7391SOL    HW233810   2.593   3.349   3.803 -1.2159  0.2533  2.0759
 7392SOL     OW33811   3.650   0.174   6.921  0.5047 -0.2644 -0.1746
 7392SOL    HW133812   3.694   0.258   6.906 -2.9245  1.8577  1.4930
 7392SOL    HW233813   3.694   0.141   7.000  0.0943 -3.3568 -1.2572
 7393SOL     OW33814   2.618   1.423   5.158  0.1187 -0.4153 -0.2649
 7393SOL    HW133815   2.533   1.412   5.116 -0.3311  0.7650  0.3263
 7393SOL    HW233816   2.640   1.330   5.153  1.7235 -0.0738  0.3308
 7394SOL     OW33817   1.840   0.675   7.661 -0.2168 -0.6561  0.2531
 7394SOL    HW133818   1.782   0.674   7.585  1.0133  1.9997 -0.7365
 7394SOL    HW233819   1.872   0.763   7.641  0.4293 -1.2846 -1.5322
 7395SOL     OW33820   0.743   1.935  12.298  0.1383  0.0286 -0.6048
 7395SOL    HW133821   0.711   1.846  12.313 -0.3531  0.3839  0.4488
 7395SOL    HW233822   0.774   1.942  12.388 -0.1480 -0.2368 -0.4878
 7396SOL     OW33823   0.770   3.955  15.458 -0.2421  0.2003  0.3972
 7396SOL    HW133824   0.787   4.049  15.449  1.8641  0.0064  2.3313
 7396SOL    HW233825   0.825   3.941  15.536  0.7409 -1.2775 -0.5580
 7397SOL     OW33826   4.680   2.024   0.260  0.1274 -0.2603  0.2182
 7397SOL    HW133827   0.033   2.037   0.286 -0.2868  0.8673  1.0971
 7397SOL    HW233828   4.698   1.986   0.174 -0.1302 -1.7718  0.8354
 7398SOL     OW33829   0.463   3.079   1.443 -0.1200  0.3766  0.3122
 7398SOL    HW133830   0.535   3.132   1.410  0.8315 -1.0250  0.1433
 7398SOL    HW233831   0.514   3.022   1.501 -1.3026 -2.3335 -1.2893
 7399SOL     OW33832   4.656   3.275   5.938 -0.1209  0.1481 -0.2743
 7399SOL    HW133833   4.736   3.248   5.892  0.5315  0.0546  0.9220
 7399SOL    HW233834   4.686   3.267   6.029  1.5747 -2.6865 -1.0454
 7400SOL     OW33835   1.945   1.981  11.093 -0.5722 -0.4977 -0.4443
 7400SOL    HW133836   1.895   2.013  11.167  2.2306 -0.1488  1.3085
 7400SOL    HW233837   2.029   2.018  11.119 -1.3170  0.6799  0.2637
 7401SOL     OW33838   3.493   2.837   4.048 -0.3671  0.0532 -0.1444
 7401SOL    HW133839   3.436   2.797   4.112 -0.5024 -1.3487 -1.1386
 7401SOL    HW233840   3.575   2.839   4.097  0.7477 -0.3286 -1.9903
 7402SOL     OW33841   1.498   1.171  11.210 -0.2123  0.3180  0.1077
 7402SOL    HW133842   1.461   1.223  11.282 -0.4488 -1.9113  1.6139
 7402SOL    HW233843   1.423   1.124  11.174  0.4232  0.3940 -1.3148
 7403SOL     OW33844   0.207   0.589   0.789  0.3319  0.1195 -0.1941
 7403SOL    HW133845   0.143   0.585   0.718 -2.0926 -0.5787  1.9953
 7403SOL    HW233846   0.274   0.532   0.753 -0.8042  0.5846 -3.0244
 7404SOL     OW33847   0.964   4.319  13.895 -0.3394 -0.1430 -0.0723
 7404SOL    HW133848   1.042   4.357  13.934 -1.4981  1.4124  0.7317
 7404SOL    HW233849   0.942   4.244  13.951 -2.4715 -0.1579 -0.9260
 7405SOL     OW33850   1.526   2.491   8.192  0.2373 -0.2141  0.5914
 7405SOL    HW133851   1.540   2.560   8.257  0.2488 -0.0860  0.4551
 7405SOL    HW233852   1.494   2.420   8.247 -1.7510  1.5579  1.7252
 7406SOL     OW33853   4.377   2.857   4.252 -0.3269  0.3230  0.4417
 7406SOL    HW133854   4.433   2.934   4.242 -0.0261  0.1909  1.0772
 7406SOL    HW233855   4.391   2.839   4.345  1.0397  0.3277  0.2486
 7407SOL     OW33856   3.899   4.599   0.756  0.6446 -0.0378  0.5222
 7407SOL    HW133857   3.981   4.572   0.796  1.0445  0.8050  0.2648
 7407SOL    HW233858   3.880   4.533   0.689  0.8115 -1.6318  2.0577
 7408SOL     OW33859   2.000   3.318  13.796  0.1874  0.1338  0.7569
 7408SOL    HW133860   1.946   3.397  13.788 -0.4146 -0.3601 -0.0781
 7408SOL    HW233861   2.031   3.318  13.705  0.3647 -0.3986  0.8183
 7409SOL     OW33862   2.389   3.117  15.436 -0.2288  0.2339 -0.2379
 7409SOL    HW133863   2.468   3.084  15.479  0.3140  0.0169 -1.4255
 7409SOL    HW233864   2.388   3.074  15.351 -2.4758  1.2950 -0.7621
 7410SOL     OW33865   2.628   0.514   5.956 -0.1331  0.1022  0.3546
 7410SOL    HW133866   2.724   0.509   5.958 -0.0790  0.6252 -0.6103
 7410SOL    HW233867   2.603   0.591   5.905  0.4532  0.1500  0.1369
 7411SOL     OW33868   4.364   3.058  12.761  0.4870 -0.2103 -0.1204
 7411SOL    HW133869   4.376   3.014  12.676  0.7393 -2.1409  0.9290
 7411SOL    HW233870   4.433   3.124  12.759 -0.0782  0.3083 -2.8915
 7412SOL     OW33871   1.263   3.794   1.406 -0.2464 -0.1577  0.0055
 7412SOL    HW133872   1.261   3.778   1.500 -0.6177 -1.3432 -0.2065
 7412SOL    HW233873   1.328   3.726   1.389  2.3900  2.4770 -0.4611
 7413SOL     OW33874   4.453   2.588  12.887 -0.2613  0.5787 -0.3142
 7413SOL    HW133875   4.450   2.546  12.973  2.3779 -1.5085 -1.2575
 7413SOL    HW233876   4.405   2.529  12.829  3.4048 -1.4240 -1.3336
 7414SOL     OW33877   2.987   4.486   4.667 -0.2159 -0.1232  0.5482
 7414SOL    HW133878   3.005   4.579   4.681  0.4720 -0.5512  2.5141
 7414SOL    HW233879   3.033   4.436   4.735 -1.4174  0.8644  2.0916
 7415SOL     OW33880   1.082   3.992   6.876 -0.2154 -0.2921 -0.3665
 7415SOL    HW133881   1.104   4.070   6.927 -0.3708  0.4069 -1.3700
 7415SOL    HW233882   0.990   3.984   6.900  0.3354 -0.8960  1.5953
 7416SOL     OW33883   2.746   3.284   7.746  0.1725 -0.0581 -0.7691
 7416SOL    HW133884   2.814   3.339   7.706  0.0461  0.8900  0.2930
 7416SOL    HW233885   2.676   3.275   7.682 -1.2358 -0.0754  0.7551
 7417SOL     OW33886   1.280   0.090  17.752 -0.3276  0.5679 -0.0727
 7417SOL    HW133887   1.208   0.148   0.026 -0.6790 -0.2431  0.7161
 7417SOL    HW233888   1.317   0.063   0.084 -3.0289 -0.3314  0.8316
 7418SOL     OW33889   1.857   0.278  17.204 -0.0947 -0.4419 -0.1313
 7418SOL    HW133890   1.826   0.194  17.238 -0.3270  0.3754  1.6457
 7418SOL    HW233891   1.825   0.339  17.269  1.6174  1.2012 -0.8266
 7419SOL     OW33892   4.188   4.280   8.197  0.1831 -0.3815  1.1488
 7419SOL    HW133893   4.267   4.311   8.240  0.5410  0.3203 -0.0121
 7419SOL    HW233894   4.202   4.335   8.120  2.2737 -2.7706 -0.1664
 7420SOL     OW33895   1.346   1.898   3.271 -0.0526 -0.1479 -0.2624
 7420SOL    HW133896   1.255   1.893   3.299  0.4304 -0.6052  1.2339
 7420SOL    HW233897   1.335   1.944   3.188  0.8546  0.5167 -0.0190
 7421SOL     OW33898   0.061   3.218  16.782  0.8531  0.3085  0.4425
 7421SOL    HW133899   0.077   3.185  16.870 -1.8439  0.7758  1.1146
 7421SOL    HW233900   0.005   3.291  16.807 -1.8736 -0.4603 -3.3138
 7422SOL     OW33901   3.554   1.056   3.469  0.0607  0.0749 -0.2239
 7422SOL    HW133902   3.558   0.961   3.459  2.7819  0.2190 -0.3137
 7422SOL    HW233903   3.536   1.050   3.563 -0.2086 -0.4057 -0.3071
 7423SOL     OW33904   2.780   3.981   9.678 -0.6618  0.5427 -0.0759
 7423SOL    HW133905   2.789   3.885   9.673 -2.6555  0.4308 -1.8114
 7423SOL    HW233906   2.858   4.009   9.631 -0.6509  0.4784 -0.0964
 7424SOL     OW33907   4.604   1.568   4.189 -0.0234 -0.8605 -0.2293
 7424SOL    HW133908   4.617   1.507   4.117 -0.2573 -0.9333 -0.2072
 7424SOL    HW233909   4.622   1.503   4.257 -1.2431 -0.2880  0.6467
 7425SOL     OW33910   3.785   2.858  14.947  0.5120 -0.1576  0.6111
 7425SOL    HW133911   3.788   2.928  15.013 -0.9168 -0.1416  0.6544
 7425SOL    HW233912   3.879   2.851  14.932  0.3404 -1.2680  0.0701
 7426SOL     OW33913   1.614   3.743   3.041 -0.3875  0.2875  0.3727
 7426SOL    HW133914   1.637   3.716   3.130 -2.9118 -1.0839  0.5920
 7426SOL    HW233915   1.650   3.832   3.040  0.6476 -0.1353 -0.4109
 7427SOL     OW33916   4.246   2.745   5.502 -0.1150  0.6196  0.1536
 7427SOL    HW133917   4.308   2.809   5.467  1.9111 -1.2012  0.4117
 7427SOL    HW233918   4.293   2.713   5.580 -0.5077 -0.7954 -0.1885
 7428SOL     OW33919   1.705   3.328   3.899 -0.1138  0.2106 -0.0222
 7428SOL    HW133920   1.700   3.386   3.974 -1.8927 -0.9858  0.7873
 7428SOL    HW233921   1.626   3.355   3.853  0.8538  0.1103 -1.7565
 7429SOL     OW33922   1.017   4.250   9.006 -0.1647  0.6887 -0.1297
 7429SOL    HW133923   0.943   4.286   9.055 -1.7293 -2.2902 -0.3154
 7429SOL    HW233924   1.027   4.168   9.055 -1.0372  1.5400  1.4779
 7430SOL     OW33925   0.676   3.077   3.478 -0.1954  0.3341 -0.0381
 7430SOL    HW133926   0.674   3.024   3.399 -1.1852 -0.6531  0.6471
 7430SOL    HW233927   0.746   3.133   3.445 -0.5914  0.9066  0.0879
 7431SOL     OW33928   3.746   3.354   2.219  0.0851 -0.2560 -0.7145
 7431SOL    HW133929   3.812   3.302   2.263 -0.3927  0.8168  1.2541
 7431SOL    HW233930   3.797   3.384   2.143  0.0681  0.9166 -0.2686
 7432SOL     OW33931   4.675   2.749   7.040  0.0188  0.1642 -0.0173
 7432SOL    HW133932   4.619   2.809   6.990 -1.9052  0.2661  2.2640
 7432SOL    HW233933   4.648   2.786   7.124  1.3619  3.3660 -0.9810
 7433SOL     OW33934   2.895   4.708   3.597 -0.1466 -0.2350 -0.2710
 7433SOL    HW133935   2.838   4.728   3.672  0.7044 -0.8844  0.5504
 7433SOL    HW233936   2.867   0.032   3.530 -1.5858 -1.1499 -0.5172
 7434SOL     OW33937   4.657   2.353  12.107  0.8975  0.0302  0.2290
 7434SOL    HW133938   4.665   2.449  12.102 -2.2206  0.5094  4.5500
 7434SOL    HW233939   4.623   2.331  12.020 -1.0825 -3.1354  1.7917
 7435SOL     OW33940   0.281   1.028   5.930  0.2468  0.0687  0.2337
 7435SOL    HW133941   0.362   1.072   5.904 -0.1373 -0.0904 -1.2359
 7435SOL    HW233942   0.211   1.055   5.870 -1.5464  0.2692  2.4390
 7436SOL     OW33943   4.228   0.308   2.192  0.8604  0.3616 -0.3995
 7436SOL    HW133944   4.281   0.297   2.113 -2.5585  1.4578 -2.8436
 7436SOL    HW233945   4.201   0.398   2.174  1.3994  1.3471  3.7294
 7437SOL     OW33946   2.779   2.251   4.907  0.3312  0.1560  0.2730
 7437SOL    HW133947   2.712   2.212   4.964  0.1104  0.5136  0.2602
 7437SOL    HW233948   2.790   2.341   4.939  1.7292  0.3789 -0.8616
 7438SOL     OW33949   3.853   1.287   3.109 -0.7108 -0.2001  0.2783
 7438SOL    HW133950   3.780   1.252   3.159 -3.9823  2.7202 -2.4993
 7438SOL    HW233951   3.927   1.276   3.169  0.4957  1.2248 -0.9452
 7439SOL     OW33952   1.489   1.252   6.060 -0.2249 -1.1022 -0.3033
 7439SOL    HW133953   1.426   1.197   6.105  0.3189 -0.6471  1.0020
 7439SOL    HW233954   1.549   1.194   6.014  0.7134  0.9134 -1.6284
 7440SOL     OW33955   1.554   3.696   0.597  0.0893 -0.0413 -0.0883
 7440SOL    HW133956   1.519   3.646   0.522 -0.3247 -0.1643  0.1826
 7440SOL    HW233957   1.633   3.643   0.602  2.1842  3.1843  0.2869
 7441SOL     OW33958   3.146   1.718   7.861  0.0202  0.7995 -0.3649
 7441SOL    HW133959   3.215   1.659   7.890  0.1001  1.0820  0.0198
 7441SOL    HW233960   3.143   1.705   7.766  0.7987  2.2184 -0.5841
 7442SOL     OW33961   4.099   0.291   4.161  0.5161 -0.3463  0.2308
 7442SOL    HW133962   4.067   0.260   4.246 -0.3643 -0.0914 -0.0085
 7442SOL    HW233963   4.188   0.256   4.164  0.7871  0.2264 -1.2305
 7443SOL     OW33964   0.817   4.211  15.426 -0.0953  0.0010  0.1988
 7443SOL    HW133965   0.894   4.212  15.368  1.0028 -1.0391  1.6532
 7443SOL    HW233966   0.859   4.249  15.502  1.9891  1.2155 -1.5517
 7444SOL     OW33967   3.146   3.616   2.218  0.3304  0.1384 -0.1084
 7444SOL    HW133968   3.071   3.558   2.201  0.9124 -0.4667 -0.6325
 7444SOL    HW233969   3.098   3.699   2.219  0.4650  0.1818  1.4808
 7445SOL     OW33970   4.031   1.988  17.231  0.3953 -0.1422  0.0595
 7445SOL    HW133971   4.087   1.943  17.295  0.3847 -0.8247 -0.4106
 7445SOL    HW233972   4.039   1.931  17.154 -2.5277 -1.8365  1.0464
 7446SOL     OW33973   1.349   1.591   1.320  0.3585 -0.2331  0.1395
 7446SOL    HW133974   1.332   1.673   1.365  0.5675 -1.0162  1.6590
 7446SOL    HW233975   1.263   1.554   1.301 -0.2586  1.1265  0.3444
 7447SOL     OW33976   1.580   1.232   7.672 -0.1138 -0.8624  0.4893
 7447SOL    HW133977   1.547   1.298   7.610  0.0080  0.0997  1.4475
 7447SOL    HW233978   1.592   1.159   7.611  1.5319  0.5813 -0.9295
 7448SOL     OW33979   1.202   0.990  12.693  0.0711  0.6426 -0.2916
 7448SOL    HW133980   1.113   1.025  12.691 -0.1291  0.1038 -1.0021
 7448SOL    HW233981   1.239   1.018  12.609  0.0342 -0.4005 -0.6554
 7449SOL     OW33982   1.781   2.972  12.928  0.3488  0.1261  0.6142
 7449SOL    HW133983   1.693   2.943  12.902  1.5715  0.1555 -3.4222
 7449SOL    HW233984   1.829   2.951  12.848 -0.1016 -1.3983  0.7396
 7450SOL     OW33985   0.560   0.721  12.155 -0.0916 -0.1026 -0.5077
 7450SOL    HW133986   0.467   0.719  12.131 -0.4394 -1.2709  0.8876
 7450SOL    HW233987   0.609   0.703  12.075  0.6823  0.2600 -0.1163
 7451SOL     OW33988   4.655   2.611   4.957 -0.1576  0.7475  0.8354
 7451SOL    HW133989   0.008   2.595   4.935 -0.1741 -0.2095  1.4744
 7451SOL    HW233990   4.608   2.550   4.901  3.0168  0.2401 -1.2757
 7452SOL     OW33991   4.555   3.125   5.553 -0.0395 -0.4019  0.0786
 7452SOL    HW133992   4.646   3.153   5.556 -0.4391  1.2093 -2.5770
 7452SOL    HW233993   4.563   3.029   5.552 -0.8081 -0.4729  0.7688
 7453SOL     OW33994   2.432   3.940  12.076 -0.6102  0.2330  0.0797
 7453SOL    HW133995   2.389   3.988  12.147 -0.5990  1.3695 -0.6726
 7453SOL    HW233996   2.486   3.877  12.123  0.8140  0.1778 -1.6564
 7454SOL     OW33997   1.816   4.195  11.782  0.6923 -0.1395  0.1880
 7454SOL    HW133998   1.776   4.235  11.859  0.8648 -1.4412  0.9515
 7454SOL    HW233999   1.793   4.103  11.799  0.3981  0.0250  0.6832
 7455SOL     OW34000   1.593   3.903  14.288 -0.0946  0.4167 -0.1867
 7455SOL    HW134001   1.666   3.868  14.339 -2.1905 -1.3980  1.5377
 7455SOL    HW234002   1.610   3.998  14.289 -1.8786  0.7159  1.0045
 7456SOL     OW34003   0.900   0.893   7.438  0.4709  0.1625  0.6743
 7456SOL    HW134004   0.852   0.862   7.515  0.1047 -0.7584  0.0820
 7456SOL    HW234005   0.821   0.903   7.384  0.6245  2.7582  0.9311
 7457SOL     OW34006   1.456   2.976   6.608  0.0570  0.1175 -0.6120
 7457SOL    HW134007   1.528   2.941   6.556  0.5489  1.2844 -0.7076
 7457SOL    HW234008   1.490   2.956   6.696  1.4592  3.3223 -0.4271
 7458SOL     OW34009   3.837   2.061  15.289 -0.5859  0.2059 -0.3430
 7458SOL    HW134010   3.874   2.020  15.367  0.6912 -0.7922 -1.4656
 7458SOL    HW234011   3.886   2.142  15.300 -0.6708  0.1137  0.6896
 7459SOL     OW34012   4.084   1.344   7.112  0.1280  0.4416  0.3195
 7459SOL    HW134013   4.118   1.339   7.022  0.4940  0.6181  0.4480
 7459SOL    HW234014   3.997   1.306   7.101  0.5511 -0.3679 -0.2149
 7460SOL     OW34015   2.275   1.941   7.065 -0.0565  0.4824  0.2313
 7460SOL    HW134016   2.285   1.877   6.994 -0.4198 -1.2995  1.7911
 7460SOL    HW234017   2.225   2.005   7.014  2.2507  0.5824 -1.9068
 7461SOL     OW34018   2.472   4.528   6.152 -0.0263 -0.2011  0.2062
 7461SOL    HW134019   2.383   4.500   6.131 -0.9740  2.5417  0.5999
 7461SOL    HW234020   2.466   4.623   6.152  0.7556 -0.1638  2.5139
 7462SOL     OW34021   3.149   0.082  12.069 -0.0431  0.0462  0.2895
 7462SOL    HW134022   3.106   0.090  11.984 -1.1313 -3.5852  0.4706
 7462SOL    HW234023   3.216   0.149  12.053  1.1854 -0.5704  2.8276
 7463SOL     OW34024   3.470   1.243  17.688 -0.3202 -0.4211 -0.2982
 7463SOL    HW134025   3.435   1.295  17.615 -0.7532  0.9843  0.9091
 7463SOL    HW234026   3.560   1.273  17.681 -0.1947 -0.6335  0.4173
 7464SOL     OW34027   4.077   1.984   9.015  0.1603 -0.1049  0.4818
 7464SOL    HW134028   3.985   2.000   9.038  0.1207 -1.3401  1.1343
 7464SOL    HW234029   4.080   2.055   8.950 -0.3218 -0.1008  0.4636
 7465SOL     OW34030   1.589   1.046   9.388 -0.4985 -0.8459  0.2478
 7465SOL    HW134031   1.638   0.966   9.406  1.9088  0.4904 -0.4701
 7465SOL    HW234032   1.553   1.067   9.474 -0.7545 -2.2777  0.4914
 7466SOL     OW34033   2.623   2.099   2.600 -0.2606  0.0619 -0.0057
 7466SOL    HW134034   2.590   2.074   2.687 -0.2449 -1.3825 -0.4151
 7466SOL    HW234035   2.585   2.186   2.587 -1.9042 -0.7828 -0.8168
 7467SOL     OW34036   4.022   1.625   5.640 -0.1911  0.1823 -0.0837
 7467SOL    HW134037   4.106   1.636   5.684  0.0646 -1.9635 -0.0524
 7467SOL    HW234038   3.980   1.711   5.632  1.2003  1.0305  1.7536
 7468SOL     OW34039   1.689   2.960   3.690 -0.4297  0.4382  0.3669
 7468SOL    HW134040   1.607   2.962   3.640 -0.5626  2.0762  0.6440
 7468SOL    HW234041   1.755   2.953   3.622 -1.2304  0.5077 -0.4247
 7469SOL     OW34042   0.028   4.460   2.888  0.4003 -0.5572  0.5788
 7469SOL    HW134043   0.096   4.407   2.848  1.2584  0.6110  0.5076
 7469SOL    HW234044   0.038   4.437   2.980  1.2649  0.5167  0.7433
 7470SOL     OW34045   4.050   4.025   7.114  0.2328  0.4130  0.3759
 7470SOL    HW134046   3.960   3.996   7.095 -0.0027  1.6822 -0.4797
 7470SOL    HW234047   4.093   3.940   7.122 -0.9210 -0.2953 -0.9886
 7471SOL     OW34048   1.939   2.174   3.675 -0.1619  0.0731 -0.3996
 7471SOL    HW134049   1.847   2.201   3.669  1.3454  4.8571 -2.2415
 7471SOL    HW234050   1.961   2.155   3.584  0.9008  0.1057 -0.1418
 7472SOL     OW34051   0.260   3.147   8.596 -0.1291  0.2947  0.1737
 7472SOL    HW134052   0.193   3.163   8.662 -2.3412  1.3645 -2.3516
 7472SOL    HW234053   0.289   3.235   8.571  0.6527 -0.5639 -1.9870
 7473SOL     OW34054   0.038   1.528  12.096  0.6251  0.0435 -0.2587
 7473SOL    HW134055   4.712   1.581  12.142  1.6102  1.1965 -0.2212
 7473SOL    HW234056   0.058   1.460  12.161 -2.0068 -0.4741  0.0373
 7474SOL     OW34057   1.009   0.461  17.282 -0.2355  0.0055 -0.0316
 7474SOL    HW134058   1.077   0.524  17.307 -1.0802  0.1387  1.9024
 7474SOL    HW234059   1.038   0.432  17.196 -1.4737  2.1875 -1.1948
 7475SOL     OW34060   4.303   1.713  16.070 -0.8509 -0.1696 -0.3202
 7475SOL    HW134061   4.323   1.630  16.026 -2.0434 -0.9906  0.7013
 7475SOL    HW234062   4.387   1.749  16.099 -0.7617  1.2198 -2.2832
 7476SOL     OW34063   0.995   0.963   3.400  0.0620  0.3624  0.1960
 7476SOL    HW134064   1.069   1.024   3.412 -0.8877  1.4193  0.7040
 7476SOL    HW234065   1.010   0.909   3.478  1.9771  0.2995 -0.2093
 7477SOL     OW34066   2.829   2.121   4.649 -0.0009  0.3302  0.1620
 7477SOL    HW134067   2.746   2.075   4.638 -1.3829  2.9534 -0.2343
 7477SOL    HW234068   2.810   2.170   4.729 -0.7715 -1.2058  0.9165
 7478SOL     OW34069   3.279   4.516  10.154  0.5881  0.0082  0.1873
 7478SOL    HW134070   3.276   4.424  10.178 -0.2914 -0.1128 -0.3565
 7478SOL    HW234071   3.372   4.521  10.132  0.3381 -2.4373 -1.3708
 7479SOL     OW34072   3.006   4.492   5.074 -0.1514  0.1913  0.2302
 7479SOL    HW134073   3.067   4.515   5.144  0.2695  0.0584 -0.0944
 7479SOL    HW234074   2.958   4.572   5.049 -1.0499  0.1739  1.9266
 7480SOL     OW34075   1.039   0.593   7.615 -0.1578 -0.1520  0.0716
 7480SOL    HW134076   1.134   0.600   7.623 -0.0406  0.0760 -1.5219
 7480SOL    HW234077   1.009   0.640   7.693 -0.4924 -2.5200  1.3692
 7481SOL     OW34078   1.811   3.802   8.239  0.1191 -0.0499  0.0535
 7481SOL    HW134079   1.874   3.755   8.184 -0.2958 -2.4234  1.5570
 7481SOL    HW234080   1.809   3.755   8.323 -1.6566  1.9326  1.0977
 7482SOL     OW34081   4.637   2.269   6.398  0.8299 -0.1321 -0.2984
 7482SOL    HW134082   4.604   2.289   6.485 -0.3620  2.3496 -1.3244
 7482SOL    HW234083   4.564   2.303   6.345  1.1933  0.0800 -0.6721
 7483SOL     OW34084   0.740   1.022   1.222  0.4377 -0.2796 -0.2721
 7483SOL    HW134085   0.696   0.953   1.272  1.0554  0.5849  1.4676
 7483SOL    HW234086   0.806   0.978   1.168  1.1717  0.2832  0.1704
 7484SOL     OW34087   2.061   0.170   8.203 -0.0014  0.0241  0.9235
 7484SOL    HW134088   1.996   0.107   8.234  0.8955 -1.1938  0.3181
 7484SOL    HW234089   2.077   0.218   8.284 -0.4430  0.2822  0.8625
 7485SOL     OW34090   2.145   3.445   7.403 -0.1254 -0.1449  0.3806
 7485SOL    HW134091   2.174   3.429   7.313  0.0289 -0.6040  0.5143
 7485SOL    HW234092   2.063   3.490   7.383  0.3706  0.3274 -0.5677
 7486SOL     OW34093   1.694   2.920   3.981  0.2504  0.0500  0.0065
 7486SOL    HW134094   1.683   2.941   3.889  0.1545  1.1648  0.2621
 7486SOL    HW234095   1.605   2.903   4.013 -0.0444 -1.3760 -1.5693
 7487SOL     OW34096   1.066   0.843   4.647 -0.0499  0.0279 -0.2817
 7487SOL    HW134097   1.128   0.905   4.610  0.9391  0.1174  1.5294
 7487SOL    HW234098   1.030   0.894   4.720  3.0561  0.9688  0.5891
 7488SOL     OW34099   2.570   1.051   3.903 -0.3059  0.3147  0.1431
 7488SOL    HW134100   2.575   0.988   3.975  0.6971 -0.3152 -0.4725
 7488SOL    HW234101   2.643   1.010   3.857 -1.0469  0.2549 -0.9784
 7489SOL     OW34102   1.855   0.002   7.264  0.3373  0.1188 -0.3617
 7489SOL    HW134103   1.899   4.698   7.191  0.8941  0.0130  0.0342
 7489SOL    HW234104   1.765   4.725   7.238  0.4206  2.1553 -1.9236
 7490SOL     OW34105   1.911   2.605   3.973  0.1683 -0.2073 -0.2015
 7490SOL    HW134106   1.917   2.559   3.889 -0.6185 -0.7365  0.0218
 7490SOL    HW234107   2.002   2.600   4.001 -0.0983 -1.8371  0.4097
 7491SOL     OW34108   2.228   4.717   0.270  0.5014  0.0687  0.1965
 7491SOL    HW134109   2.188   0.003   0.187  2.6494  0.8335 -0.6079
 7491SOL    HW234110   2.239   4.623   0.256 -0.2638 -0.3054  2.0548
 7492SOL     OW34111   0.439   2.912   5.368  0.2510  0.5424 -0.1302
 7492SOL    HW134112   0.515   2.961   5.338  0.1117  1.0387  0.3325
 7492SOL    HW234113   0.367   2.971   5.349 -0.8556 -1.6457 -2.7672
 7493SOL     OW34114   1.183   4.002   9.340  0.0864 -0.5250 -0.3509
 7493SOL    HW134115   1.122   4.008   9.266 -0.1105 -2.6599 -0.3563
 7493SOL    HW234116   1.137   3.941   9.398  1.6776 -0.9543  0.4526
 7494SOL     OW34117   2.711   0.092   1.283  0.4614 -0.5029 -0.0149
 7494SOL    HW134118   2.733   0.089   1.376 -0.7616  0.0068  0.2977
 7494SOL    HW234119   2.619   0.114   1.299  0.9611  1.4904  0.0540
 7495SOL     OW34120   1.717   2.872   1.347 -0.2512 -0.3789 -0.2914
 7495SOL    HW134121   1.733   2.967   1.346 -2.2293 -0.0464  0.1553
 7495SOL    HW234122   1.631   2.873   1.389  0.8700  0.3220  2.0001
 7496SOL     OW34123   2.944   3.419   7.660  0.1651  0.5431 -0.3449
 7496SOL    HW134124   3.032   3.456   7.661  0.4284 -0.0545 -1.3732
 7496SOL    HW234125   2.932   3.415   7.565  0.2893 -2.7513 -0.2197
 7497SOL     OW34126   3.056   2.566  17.373  0.1625 -0.5291  0.4710
 7497SOL    HW134127   3.091   2.651  17.399 -1.5739 -0.3764  2.3369
 7497SOL    HW234128   3.038   2.581  17.281 -0.1557  0.0248  0.6226
 7498SOL     OW34129   1.062   1.682   7.618 -0.1685  0.0397  0.5572
 7498SOL    HW134130   1.013   1.657   7.540 -1.3458  1.8076  0.7297
 7498SOL    HW234131   1.155   1.696   7.598 -0.2921  1.8578  1.2674
 7499SOL     OW34132   0.809   4.085   1.767 -0.2427  0.5055  0.5846
 7499SOL    HW134133   0.874   4.156   1.760 -0.7590  0.8218 -0.9620
 7499SOL    HW234134   0.728   4.123   1.733  0.4216  2.2695  0.9621
 7500SOL     OW34135   0.728   1.820  16.193 -0.5367  0.2224 -0.0761
 7500SOL    HW134136   0.750   1.891  16.253 -0.0354  0.1943 -0.2273
 7500SOL    HW234137   0.805   1.800  16.139 -1.2320 -1.0482 -0.5743
 7501SOL     OW34138   3.604   1.477   5.036  0.6493 -0.1726 -0.8512
 7501SOL    HW134139   3.665   1.508   5.102 -0.0833  0.2744 -0.3775
 7501SOL    HW234140   3.597   1.384   5.057 -0.1069 -0.1446 -0.9491
 7502SOL     OW34141   3.659   1.616   8.023  0.1935  0.4900  0.0667
 7502SOL    HW134142   3.635   1.595   8.113 -1.6825 -0.9970 -0.7984
 7502SOL    HW234143   3.755   1.624   8.026  0.2612 -0.3138  0.1530
 7503SOL     OW34144   4.120   4.706   7.954 -0.1261  0.5686 -0.0984
 7503SOL    HW134145   4.043   0.017   7.982  0.2872  1.4465 -0.5001
 7503SOL    HW234146   4.184   0.036   7.934 -0.1837  0.6971  0.1585
 7504SOL     OW34147   1.553   1.576  13.081 -0.1365  0.3828  0.3459
 7504SOL    HW134148   1.624   1.581  13.018 -0.6785 -0.6869 -0.3652
 7504SOL    HW234149   1.597   1.538  13.157 -1.2980 -1.6976 -0.0104
 7505SOL     OW34150   2.917   0.829   4.030  0.0044 -0.5053  0.4567
 7505SOL    HW134151   2.996   0.783   4.003  0.4956  0.7090 -0.1440
 7505SOL    HW234152   2.943   0.866   4.115 -2.3444  0.2893  0.8371
 7506SOL     OW34153   4.407   4.447  14.732 -0.3364  0.0869  0.0238
 7506SOL    HW134154   4.406   4.514  14.799 -2.0877  0.7194 -0.6339
 7506SOL    HW234155   4.496   4.412  14.735 -1.1491 -1.9717  0.2255
 7507SOL     OW34156   4.518   0.977   6.367 -0.1976 -0.4679  0.0648
 7507SOL    HW134157   4.507   0.950   6.458  2.6434  0.7468  0.7705
 7507SOL    HW234158   4.532   1.072   6.374 -1.4733 -0.2726 -0.0698
 7508SOL     OW34159   1.307   0.688   5.048 -0.3574 -0.1086  0.5652
 7508SOL    HW134160   1.260   0.687   5.132 -0.1428 -0.1873  0.6852
 7508SOL    HW234161   1.394   0.683   5.087 -0.8838 -0.6896  1.6765
 7509SOL     OW34162   0.438   2.884   1.674 -0.6805  0.0031 -0.2464
 7509SOL    HW134163   0.370   2.821   1.653 -0.8035 -0.4081  1.3865
 7509SOL    HW234164   0.509   2.821   1.661 -1.7367 -1.0964 -0.6529
 7510SOL     OW34165   1.575   4.167  14.318 -0.3637 -0.5462  0.0909
 7510SOL    HW134166   1.483   4.195  14.317  0.0884  0.9588 -0.6877
 7510SOL    HW234167   1.610   4.234  14.377  1.1835 -2.1280  0.9378
 7511SOL     OW34168   1.493   0.270   9.566 -0.3746 -0.2593 -0.0868
 7511SOL    HW134169   1.473   0.345   9.622 -0.4315  0.2213 -0.7563
 7511SOL    HW234170   1.420   0.211   9.587 -1.5017  0.9144 -0.7059
 7512SOL     OW34171   0.666   3.876  12.776  0.0919 -0.1314 -0.1220
 7512SOL    HW134172   0.721   3.809  12.734 -0.5042 -0.5072 -0.3096
 7512SOL    HW234173   0.675   3.951  12.717  0.6764  0.3489  0.5885
 7513SOL     OW34174   3.738   1.896   4.183  0.1274  0.0018 -0.0602
 7513SOL    HW134175   3.741   1.992   4.188 -2.0420  0.0018  1.1137
 7513SOL    HW234176   3.832   1.882   4.180 -0.0018 -0.4527 -2.4289
 7514SOL     OW34177   0.996   2.235  12.805 -0.8203 -0.0630  0.3765
 7514SOL    HW134178   1.009   2.163  12.743  0.1159  0.3539  0.0804
 7514SOL    HW234179   1.082   2.257  12.842 -1.0616 -0.0717  0.9391
 7515SOL     OW34180   2.342   1.642  14.399 -0.7917  0.1786  0.6852
 7515SOL    HW134181   2.371   1.589  14.474 -0.7348 -1.9347 -0.8075
 7515SOL    HW234182   2.426   1.662  14.357 -1.1581  0.4087  0.0795
 7516SOL     OW34183   2.742   2.068   1.985 -0.4422  0.7650  0.3200
 7516SOL    HW134184   2.811   2.035   1.927 -1.1024  0.1156 -0.1008
 7516SOL    HW234185   2.666   2.016   1.958  0.6789  0.0028 -1.3505
 7517SOL     OW34186   1.410   4.592   7.021 -0.2299 -0.4694 -0.4495
 7517SOL    HW134187   1.397   4.651   6.947  0.4132 -0.4634 -0.5574
 7517SOL    HW234188   1.325   4.549   7.026 -0.8263  0.9001  1.6951
 7518SOL     OW34189   2.422   3.040   6.151  0.0213 -0.4674 -0.2354
 7518SOL    HW134190   2.448   3.051   6.059 -3.7769 -1.7140 -1.4689
 7518SOL    HW234191   2.477   3.109   6.188 -2.1900  1.5757 -0.8176
 7519SOL     OW34192   3.135   2.543   7.963  0.3072 -0.1824 -0.6045
 7519SOL    HW134193   3.104   2.621   7.918 -0.1911  2.5955  4.5399
 7519SOL    HW234194   3.132   2.488   7.885 -0.1289  0.3550 -0.9638
 7520SOL     OW34195   3.426   1.723  11.665  0.1076  0.1039  0.0921
 7520SOL    HW134196   3.519   1.729  11.685 -0.0017  3.2557 -0.4025
 7520SOL    HW234197   3.400   1.815  11.661  1.1193  0.4649  1.7969
 7521SOL     OW34198   3.743   1.922   5.713  0.2051  0.2222 -0.0842
 7521SOL    HW134199   3.830   1.957   5.693 -0.3769  1.3519 -0.6066
 7521SOL    HW234200   3.701   1.937   5.628 -1.2366  0.3003  0.6476
 7522SOL     OW34201   0.551   4.359   5.841 -0.2363 -0.2913 -0.0741
 7522SOL    HW134202   0.523   4.275   5.806 -0.9829 -0.4611  0.9278
 7522SOL    HW234203   0.470   4.410   5.842  0.8111  1.3843  1.7922
 7523SOL     OW34204   3.428   1.165   5.877  0.6192  0.1844  0.3364
 7523SOL    HW134205   3.484   1.143   5.951  2.0254  1.4736 -0.3472
 7523SOL    HW234206   3.480   1.210   5.811  2.6347 -0.9606  1.1651
 7524SOL     OW34207   0.222   1.937   5.583 -0.0122 -0.3695 -0.1031
 7524SOL    HW134208   0.309   1.977   5.593 -0.2571  0.1578 -0.1220
 7524SOL    HW234209   0.237   1.882   5.506  0.3680  0.6535 -0.7484
 7525SOL     OW34210   3.697   1.478   4.049 -0.1501 -0.6768 -0.2871
 7525SOL    HW134211   3.602   1.480   4.051 -0.1448 -1.9385  0.8714
 7525SOL    HW234212   3.724   1.419   4.119 -2.4410 -1.6950 -0.2665
 7526SOL     OW34213   0.429   3.153   6.822  0.6106  0.3447  0.4830
 7526SOL    HW134214   0.429   3.092   6.895  0.0768 -0.9328 -0.5900
 7526SOL    HW234215   0.353   3.205   6.850 -1.7851 -1.5761 -2.3980
 7527SOL     OW34216   1.385   3.402   3.545 -0.0977  0.1413 -0.6100
 7527SOL    HW134217   1.347   3.364   3.466 -1.8143  0.2681  0.1371
 7527SOL    HW234218   1.445   3.456   3.494  1.8515 -1.1508  0.3250
 7528SOL     OW34219   2.533   0.352   2.276 -0.0660 -0.2074 -0.3645
 7528SOL    HW134220   2.481   0.386   2.204 -1.6845  0.0905  0.9425
 7528SOL    HW234221   2.465   0.308   2.327 -1.2221  1.7476 -0.2172
 7529SOL     OW34222   4.667   4.465   2.043 -0.5354 -0.5705  0.2030
 7529SOL    HW134223   4.657   4.465   2.138  2.8349  1.3377  0.5236
 7529SOL    HW234224   4.579   4.493   2.018  0.9879  1.5591 -2.8110
 7530SOL     OW34225   1.043   4.277  15.332 -0.2121 -0.3328  0.1534
 7530SOL    HW134226   1.065   4.320  15.249 -3.3325  1.7272  0.3561
 7530SOL    HW234227   1.111   4.313  15.388 -1.1325  1.7579 -0.0695
 7531SOL     OW34228   4.571   2.603   7.664  0.1139  0.3987 -0.2962
 7531SOL    HW134229   4.666   2.607   7.655  0.4026 -1.6673  1.6123
 7531SOL    HW234230   4.550   2.689   7.700 -0.1643 -0.1763  0.9415
 7532SOL     OW34231   1.306   1.908   2.925 -0.3609  0.0336 -0.1996
 7532SOL    HW134232   1.259   1.838   2.880  0.1219 -0.6521  0.3580
 7532SOL    HW234233   1.272   1.982   2.876 -0.2363 -0.9085 -1.7046
 7533SOL     OW34234   2.593   1.364   1.552 -0.0594 -0.3640  0.2270
 7533SOL    HW134235   2.524   1.299   1.555 -0.2620 -0.1122  0.9537
 7533SOL    HW234236   2.675   1.315   1.549  0.2763  0.2056  0.1710
 7534SOL     OW34237   0.516   1.737   5.533 -0.0305 -0.2508  0.6856
 7534SOL    HW134238   0.601   1.757   5.495  0.4547 -0.0731  1.8455
 7534SOL    HW234239   0.497   1.812   5.589 -3.5767 -1.1767  0.7387
 7535SOL     OW34240   0.873   3.962  10.018 -0.1536 -0.3013  0.7182
 7535SOL    HW134241   0.914   4.008  10.090 -0.8297  0.7865  0.4047
 7535SOL    HW234242   0.823   4.032   9.977 -0.5703  0.6925  2.9632
 7536SOL     OW34243   3.942   1.705   4.444 -0.1273  0.0233 -0.8422
 7536SOL    HW134244   4.014   1.698   4.381 -0.0441 -0.6399 -0.6695
 7536SOL    HW234245   3.948   1.619   4.485 -0.3601 -0.0470 -0.9528
 7537SOL     OW34246   2.091   0.788  16.617 -0.1347  0.6610 -0.7622
 7537SOL    HW134247   2.075   0.758  16.528  2.2839 -4.3205  0.5352
 7537SOL    HW234248   2.041   0.870  16.625  2.0923  2.1362 -1.9658
 7538SOL     OW34249   2.098   1.735   2.804 -0.1387  0.4705  0.4019
 7538SOL    HW134250   2.072   1.823   2.775  0.2017 -0.1507 -1.7951
 7538SOL    HW234251   2.167   1.725   2.739 -0.6300 -2.7109  0.3578
 7539SOL     OW34252   3.541   3.021   6.180 -0.1500 -0.0809 -0.2939
 7539SOL    HW134253   3.588   3.034   6.262 -1.9236  0.1870  0.6660
 7539SOL    HW234254   3.613   2.974   6.137  1.1033  0.5495  1.1404
 7540SOL     OW34255   4.295   3.387  16.662 -0.2730 -0.1879 -0.0485
 7540SOL    HW134256   4.222   3.352  16.611 -1.0335 -0.1281  1.0001
 7540SOL    HW234257   4.316   3.469  16.617  2.7900 -1.6516 -1.3193
 7541SOL     OW34258   1.284   4.494   7.297 -0.3751  0.0702 -0.1161
 7541SOL    HW134259   1.287   4.588   7.318 -1.8975  0.3673 -1.2787
 7541SOL    HW234260   1.198   4.458   7.318  1.0487 -3.0690  0.2936
 7542SOL     OW34261   1.933   4.264   3.430 -0.6702  0.5974 -0.0695
 7542SOL    HW134262   2.012   4.242   3.478 -1.3047  1.3874  1.3148
 7542SOL    HW234263   1.963   4.273   3.339  0.5874  2.0459  0.5020
 7543SOL     OW34264   4.546   3.261   2.638 -0.0452 -0.0478  0.0062
 7543SOL    HW134265   4.629   3.247   2.593 -0.3785  0.2186 -0.6886
 7543SOL    HW234266   4.521   3.170   2.657  0.2703 -0.3202 -0.8834
 7544SOL     OW34267   3.838   0.588   3.330  0.0242 -0.3754 -0.7934
 7544SOL    HW134268   3.846   0.605   3.236 -0.0345 -1.0385 -0.9153
 7544SOL    HW234269   3.846   0.493   3.333 -1.4853 -0.5272 -1.3402
 7545SOL     OW34270   0.452   0.095   6.663  0.2742 -0.7112 -0.4998
 7545SOL    HW134271   0.391   0.038   6.710  0.8643 -0.3730  0.6698
 7545SOL    HW234272   0.395   0.159   6.621 -0.6280 -0.9534  0.3704
 7546SOL     OW34273   2.902   3.565   5.077 -0.1405 -0.0043 -0.1607
 7546SOL    HW134274   2.846   3.554   5.000  0.2921  1.6257 -0.7108
 7546SOL    HW234275   2.992   3.567   5.046  0.3931 -0.1265  1.3864
 7547SOL     OW34276   0.597   3.547   2.437 -0.1734  0.1143 -0.3157
 7547SOL    HW134277   0.556   3.463   2.457 -1.2717  0.5822 -0.5791
 7547SOL    HW234278   0.571   3.549   2.345  1.2080 -2.4424 -0.7448
 7548SOL     OW34279   0.867   2.539   9.732  0.1184 -0.1290 -0.6050
 7548SOL    HW134280   0.908   2.624   9.745  0.7458 -0.5271 -0.0103
 7548SOL    HW234281   0.871   2.543   9.636 -1.5668 -3.4931 -0.8433
 7549SOL     OW34282   2.936   1.747   9.040 -0.1820  0.0479 -0.3940
 7549SOL    HW134283   2.863   1.801   9.071  0.3262 -0.4046  1.5666
 7549SOL    HW234284   2.895   1.664   9.066  1.1053 -0.1527  0.9833
 7550SOL     OW34285   2.875   3.852   4.019 -0.0352 -0.2595  0.1819
 7550SOL    HW134286   2.894   3.913   4.090  1.9729 -1.8185  1.0208
 7550SOL    HW234287   2.782   3.870   4.006  0.6035 -0.1272 -3.9749
 7551SOL     OW34288   0.950   0.244   4.807 -0.0097 -0.3007 -0.1710
 7551SOL    HW134289   0.869   0.195   4.789  1.0809 -1.9639 -0.5187
 7551SOL    HW234290   0.961   0.305   4.734 -1.3645  0.3426  0.1523
 7552SOL     OW34291   1.027   4.432   7.486 -0.0913 -0.0700  0.3140
 7552SOL    HW134292   1.089   4.366   7.453 -0.2457  1.0208 -2.1194
 7552SOL    HW234293   0.974   4.381   7.548 -0.4315 -1.6284 -1.2641
 7553SOL     OW34294   2.840   1.480   7.652  0.5855 -0.0684  0.5815
 7553SOL    HW134295   2.841   1.394   7.610 -0.7725 -0.3526  1.1219
 7553SOL    HW234296   2.899   1.473   7.727  1.1346 -1.0926  0.0570
 7554SOL     OW34297   3.146   2.355  17.075 -0.2932  0.3195  0.0807
 7554SOL    HW134298   3.138   2.279  17.133 -0.7107  0.4831  0.2379
 7554SOL    HW234299   3.067   2.405  17.096 -0.1189  1.5795 -2.2302
 7555SOL     OW34300   0.832   0.115   2.761  0.7314  0.1660 -0.3018
 7555SOL    HW134301   0.822   0.139   2.669  0.5440 -0.5294 -0.4667
 7555SOL    HW234302   0.779   0.180   2.806 -0.2462  0.4773 -1.8865
 7556SOL     OW34303   1.257   0.356   3.885 -0.5046 -0.2997 -0.3974
 7556SOL    HW134304   1.227   0.444   3.908  0.7467  0.1779 -0.5778
 7556SOL    HW234305   1.313   0.390   3.815  0.6673  1.5897  1.4370
 7557SOL     OW34306   3.431   1.277   4.622 -0.4293  0.1984  0.6140
 7557SOL    HW134307   3.350   1.265   4.572  0.2321 -1.5807 -0.0675
 7557SOL    HW234308   3.465   1.347   4.567 -0.7411 -0.2950 -0.2130
 7558SOL     OW34309   0.445   2.358   5.055  0.3994  0.0212  0.4916
 7558SOL    HW134310   0.468   2.265   5.056  1.5926  0.3220  0.3705
 7558SOL    HW234311   0.518   2.394   5.005  0.3821 -0.4535  0.1223
 7559SOL     OW34312   4.381   3.757   9.190 -0.0896  0.2315 -0.0361
 7559SOL    HW134313   4.465   3.797   9.210  0.1878 -1.0717  1.3956
 7559SOL    HW234314   4.399   3.751   9.096  0.4028  0.7564  0.0262
 7560SOL     OW34315   3.440   1.310  16.906  0.6494  0.4047  0.0882
 7560SOL    HW134316   3.391   1.376  16.956 -1.1424 -0.9959  0.1986
 7560SOL    HW234317   3.447   1.233  16.963  3.0574  0.1174 -0.5963
 7561SOL     OW34318   0.297   2.000   1.694  0.7371  0.2009  0.0395
 7561SOL    HW134319   0.239   2.051   1.638  1.7237 -0.8962 -1.9843
 7561SOL    HW234320   0.281   2.033   1.782 -0.3932 -2.6728  0.9260
 7562SOL     OW34321   2.180   0.152   2.914  0.1478  0.0482 -0.5422
 7562SOL    HW134322   2.115   0.169   2.845  1.2910  2.6376 -0.9856
 7562SOL    HW234323   2.216   0.071   2.876 -0.2219 -1.2510  1.9179
 7563SOL     OW34324   3.632   0.289  12.335  0.1783  0.4710 -0.2041
 7563SOL    HW134325   3.629   0.382  12.311  0.7309  0.5662  0.1017
 7563SOL    HW234326   3.726   0.287  12.353  0.4260  1.4508 -1.3231
 7564SOL     OW34327   3.067   2.552   3.922 -0.0325  0.6499 -0.0265
 7564SOL    HW134328   3.076   2.471   3.974  1.5249  0.1416 -1.1063
 7564SOL    HW234329   3.155   2.560   3.887 -0.5885 -1.4066 -1.9071
 7565SOL     OW34330   0.399   0.369   3.965 -0.2762  0.0126 -0.5090
 7565SOL    HW134331   0.487   0.331   3.975 -0.3016  0.2698  0.6491
 7565SOL    HW234332   0.425   0.459   3.944 -0.5061  0.0706 -0.5408
 7566SOL     OW34333   3.134   1.838  14.621  0.0385  0.3415 -0.2404
 7566SOL    HW134334   3.110   1.817  14.530 -1.2592  0.4467  0.0799
 7566SOL    HW234335   3.229   1.844  14.611 -0.1510  2.5708 -0.6813
 7567SOL     OW34336   1.570   4.009   4.897  0.1872  0.0187 -0.0005
 7567SOL    HW134337   1.611   4.092   4.871  2.1839 -1.4592 -1.5890
 7567SOL    HW234338   1.640   3.944   4.889  0.5121  0.0949  2.4838
 7568SOL     OW34339   3.710   4.570   4.612  0.1865  0.0905  0.5220
 7568SOL    HW134340   3.755   4.643   4.652 -2.0069  1.0994  1.1622
 7568SOL    HW234341   3.717   4.497   4.674 -0.7516 -0.8908 -0.5183
 7569SOL     OW34342   4.712   4.457   8.466 -0.4230  0.9464 -0.2281
 7569SOL    HW134343   4.703   4.474   8.559 -2.0486  1.3002 -0.4488
 7569SOL    HW234344   0.069   4.464   8.459 -0.2578 -3.1389 -1.7244
 7570SOL     OW34345   0.219   1.887  13.328 -0.4387  0.5045 -0.3946
 7570SOL    HW134346   0.265   1.967  13.353  0.3049 -0.6938  2.1684
 7570SOL    HW234347   0.279   1.833  13.277 -1.6379  0.3384 -1.6129
 7571SOL     OW34348   1.374   0.075   1.662  0.0708  0.3358  0.1833
 7571SOL    HW134349   1.288   0.054   1.699  0.1253  0.4920  0.3995
 7571SOL    HW234350   1.379   0.015   1.588 -1.5790 -0.0745  0.4127
 7572SOL     OW34351   2.619   0.237   0.573 -0.0754 -0.2219 -0.3172
 7572SOL    HW134352   2.697   0.217   0.521 -0.2570 -0.3705 -0.5369
 7572SOL    HW234353   2.650   0.225   0.663  0.5706 -3.5824 -0.9802
 7573SOL     OW34354   4.641   4.433  10.453  0.2806 -0.3367 -0.1934
 7573SOL    HW134355   4.714   4.479  10.410 -0.1211  1.0063  0.5367
 7573SOL    HW234356   4.666   4.420  10.544  0.3594  1.3924  0.0404
 7574SOL     OW34357   2.247   4.168   7.504  0.4878  0.2071  0.1007
 7574SOL    HW134358   2.170   4.143   7.557  1.0574 -0.3136  0.6842
 7574SOL    HW234359   2.226   4.261   7.496  0.0462  0.1115  0.1518
 7575SOL     OW34360   2.099   2.039  17.205 -0.3421 -0.5238 -0.0590
 7575SOL    HW134361   2.171   2.084  17.250  0.2378  0.4256 -1.9456
 7575SOL    HW234362   2.026   2.059  17.264  1.0079  3.3235  0.3459
 7576SOL     OW34363   3.900   1.151  12.800  0.1210  0.0262 -0.4993
 7576SOL    HW134364   3.857   1.178  12.882 -1.5281 -1.5141 -0.8707
 7576SOL    HW234365   3.928   1.230  12.753 -0.4654  0.0946 -0.7379
 7577SOL     OW34366   3.357   1.767  15.443 -0.7583  0.4456 -0.0058
 7577SOL    HW134367   3.366   1.862  15.439 -0.4948  0.3352 -2.1355
 7577SOL    HW234368   3.369   1.750  15.349  2.5784  2.0623  0.1209
 7578SOL     OW34369   2.851   0.637   4.311  0.2448  0.0147  0.5236
 7578SOL    HW134370   2.892   0.652   4.396  2.3415 -0.1110 -0.4860
 7578SOL    HW234371   2.879   0.719   4.271  0.0131 -0.4382 -0.5711
 7579SOL     OW34372   1.548   0.508   6.912 -0.0978  0.0266  0.1428
 7579SOL    HW134373   1.617   0.506   6.846 -0.8542  0.6159 -0.6703
 7579SOL    HW234374   1.519   0.417   6.904  3.0086 -0.9239 -0.4055
 7580SOL     OW34375   4.573   4.512  13.624  0.1135 -0.0371  0.1499
 7580SOL    HW134376   4.547   4.535  13.535  0.0921 -0.0536  0.1517
 7580SOL    HW234377   4.664   4.486  13.610  0.0263 -0.7001  0.7605
 7581SOL     OW34378   2.331   3.743   0.691  0.1190 -0.1110 -0.2942
 7581SOL    HW134379   2.328   3.684   0.616 -0.4404  0.8011 -0.9869
 7581SOL    HW234380   2.375   3.824   0.664  0.4797 -0.3300 -0.3634
 7582SOL     OW34381   3.271   3.275  14.558  0.2186  0.7580 -0.7643
 7582SOL    HW134382   3.258   3.184  14.588 -1.0167  0.4538 -2.2226
 7582SOL    HW234383   3.287   3.253  14.467  1.6412 -0.3156 -0.2598
 7583SOL     OW34384   4.702   2.871   8.194  0.2907 -0.0242 -0.0114
 7583SOL    HW134385   4.711   2.965   8.210 -0.3625 -0.3349  2.0932
 7583SOL    HW234386   4.612   2.860   8.225  0.5303 -1.7462  0.0967
 7584SOL     OW34387   1.916   2.806   9.158 -0.1876  0.7647  0.0876
 7584SOL    HW134388   1.852   2.870   9.191 -0.3397  0.8857 -0.4395
 7584SOL    HW234389   1.956   2.785   9.242 -2.2555 -0.4576  0.7701
 7585SOL     OW34390   2.290   3.497   2.391  0.2530 -0.7758 -0.3082
 7585SOL    HW134391   2.250   3.581   2.370  0.9324 -1.3373 -3.9081
 7585SOL    HW234392   2.237   3.428   2.351 -1.4884 -1.3966  3.0744
 7586SOL     OW34393   4.278   2.910   9.825 -0.2620  0.3158  0.1326
 7586SOL    HW134394   4.327   2.885   9.746 -0.0649  0.8284  0.0936
 7586SOL    HW234395   4.345   2.961   9.871  0.6897  0.1423 -1.0411
 7587SOL     OW34396   3.568   3.700  16.447 -0.2307 -0.1279  0.3925
 7587SOL    HW134397   3.626   3.752  16.503 -0.6009  0.0887  0.5757
 7587SOL    HW234398   3.595   3.610  16.465 -1.1721 -0.6780 -0.9717
 7588SOL     OW34399   0.148   2.909   6.608 -0.4887 -0.4494 -0.5953
 7588SOL    HW134400   0.196   2.992   6.606 -1.6171  0.2399  1.0211
 7588SOL    HW234401   0.161   2.878   6.698 -0.9969  0.9295 -0.0606
 7589SOL     OW34402   1.450   2.664  11.904 -0.3489 -0.6464 -0.5620
 7589SOL    HW134403   1.491   2.616  11.832  1.7125  0.0899  0.1178
 7589SOL    HW234404   1.362   2.660  11.868 -0.5488  2.3197 -0.4213
 7590SOL     OW34405   1.171   3.764   4.288  0.2820 -0.1429  0.1465
 7590SOL    HW134406   1.133   3.789   4.203  1.4493  0.3519 -0.2282
 7590SOL    HW234407   1.226   3.841   4.304  0.9554 -0.2914 -1.3824
 7591SOL     OW34408   2.076   3.468   6.506  0.2216 -0.1765  0.5008
 7591SOL    HW134409   2.085   3.461   6.411 -1.6191  2.3278  0.1474
 7591SOL    HW234410   1.996   3.520   6.507  0.8343  0.7202  1.9851
 7592SOL     OW34411   2.412   2.752   6.189  0.7336  0.1385 -0.8564
 7592SOL    HW134412   2.394   2.846   6.193  1.1625  0.2281 -1.0895
 7592SOL    HW234413   2.331   2.729   6.143  0.5487 -0.0646 -0.4318
 7593SOL     OW34414   0.513   4.104   5.715  0.2407  0.1956  0.4194
 7593SOL    HW134415   0.601   4.067   5.721  0.7335  1.5713  1.6184
 7593SOL    HW234416   0.454   4.039   5.753 -0.8807  1.0537  0.1258
 7594SOL     OW34417   1.839   4.414  16.582 -0.3432 -0.5137  0.3138
 7594SOL    HW134418   1.818   4.384  16.670  0.6657 -3.4754 -0.4437
 7594SOL    HW234419   1.751   4.415  16.545  0.1079  0.2056 -0.7395
 7595SOL     OW34420   3.027   4.661   2.490 -0.1496  0.4386 -0.3305
 7595SOL    HW134421   3.027   4.727   2.560 -1.6710 -0.3020  0.3762
 7595SOL    HW234422   3.066   4.582   2.527 -1.3878 -0.7120 -1.4545
 7596SOL     OW34423   4.730   3.138  13.362 -0.1371  0.3442 -0.0963
 7596SOL    HW134424   4.708   3.132  13.269  1.2747  1.6765 -0.5134
 7596SOL    HW234425   4.722   3.231  13.383  0.7122  0.4345 -0.1728
 7597SOL     OW34426   3.059   0.636  14.430  0.1239 -0.2400 -0.4903
 7597SOL    HW134427   3.036   0.641  14.337 -0.4458 -2.3104 -0.4661
 7597SOL    HW234428   2.994   0.574  14.462  0.7429 -1.2140 -1.1332
 7598SOL     OW34429   2.864   1.205  16.727  0.0176  0.0052  0.0616
 7598SOL    HW134430   2.840   1.134  16.667 -0.0803 -0.8676  1.1285
 7598SOL    HW234431   2.856   1.278  16.665 -1.2368  0.7264  1.0495
 7599SOL     OW34432   3.456   1.160   0.721  0.4610  0.6478  0.0490
 7599SOL    HW134433   3.448   1.142   0.628  1.5870  2.4543 -0.3878
 7599SOL    HW234434   3.425   1.250   0.716 -4.0433 -0.6961  2.8305
 7600SOL     OW34435   0.618   0.754   3.569  0.2681 -0.2955  0.4647
 7600SOL    HW134436   0.585   0.731   3.482 -1.7487  2.9013  0.4044
 7600SOL    HW234437   0.612   0.849   3.572 -1.8686 -0.4877  2.4175
 7601SOL     OW34438   2.961   4.323   8.632 -0.0551 -0.0748  0.2325
 7601SOL    HW134439   3.050   4.299   8.654  0.8284  1.3547 -1.8122
 7601SOL    HW234440   2.949   4.378   8.710  1.0918  1.0407 -0.3829
 7602SOL     OW34441   4.654   4.489   6.519  0.1420 -0.2540 -0.4277
 7602SOL    HW134442   4.699   4.408   6.494  0.5343  0.2878 -1.4644
 7602SOL    HW234443   4.727   4.548   6.533  1.0369 -1.7704  1.2866
 7603SOL     OW34444   0.055   1.060   6.856 -0.6547 -0.4181 -0.4166
 7603SOL    HW134445   0.077   1.123   6.788 -1.7995 -0.6140 -0.9720
 7603SOL    HW234446   0.130   1.001   6.857  1.0501  1.7848  1.0604
 7604SOL     OW34447   0.487   4.391   8.349 -0.3711  0.3996  0.3427
 7604SOL    HW134448   0.567   4.391   8.402 -2.0911 -2.4372  2.9435
 7604SOL    HW234449   0.525   4.421   8.267 -1.4950 -0.9331 -0.6621
 7605SOL     OW34450   3.070   0.920   5.518  0.1159  0.7289  0.8020
 7605SOL    HW134451   3.001   0.986   5.521 -0.4838  0.2103 -1.1524
 7605SOL    HW234452   3.056   0.891   5.608  2.9060 -0.3926  0.8696
 7606SOL     OW34453   2.630   3.173  11.226 -0.0908 -0.3260  0.2204
 7606SOL    HW134454   2.702   3.112  11.244 -0.1233 -0.0597  1.2374
 7606SOL    HW234455   2.557   3.115  11.203 -1.0629  1.1364 -0.3962
 7607SOL     OW34456   3.776   3.993   7.075  0.3466  0.7066 -0.1222
 7607SOL    HW134457   3.788   3.944   6.994 -0.5785  0.4437 -0.1046
 7607SOL    HW234458   3.726   3.934   7.132 -0.4028  0.2256 -1.2864
 7608SOL     OW34459   3.538   1.199   5.110  0.6244 -0.1277 -0.0047
 7608SOL    HW134460   3.595   1.132   5.149 -0.0623 -0.7973 -0.1594
 7608SOL    HW234461   3.464   1.194   5.171  0.3758  2.0546 -0.1385
 7609SOL     OW34462   2.946   2.631   8.363  0.2994 -0.0158  0.3747
 7609SOL    HW134463   2.858   2.592   8.369 -0.9793  2.6166 -1.3555
 7609SOL    HW234464   2.990   2.586   8.435  1.7484  0.9845  0.1016
 7610SOL     OW34465   0.352   2.037   6.341  0.1345  0.5813 -0.1248
 7610SOL    HW134466   0.285   1.971   6.357  1.1078 -0.5084 -0.5635
 7610SOL    HW234467   0.329   2.099   6.410 -0.0536  1.0209 -0.5897
 7611SOL     OW34468   4.653   2.075   9.528 -0.5417 -0.3707 -0.1577
 7611SOL    HW134469   4.597   2.152   9.517 -1.2499 -0.8988 -0.2764
 7611SOL    HW234470   4.730   2.103   9.577  0.0499  0.3744 -1.5034
 7612SOL     OW34471   1.688   0.742   5.879 -0.1175  0.3861  0.2592
 7612SOL    HW134472   1.655   0.776   5.962 -2.9877  1.0374 -1.1217
 7612SOL    HW234473   1.760   0.805   5.876  0.7075 -0.4722  2.2712
 7613SOL     OW34474   1.450   3.230   7.108  0.0834 -0.3699 -0.2255
 7613SOL    HW134475   1.357   3.212   7.093  0.5710 -2.3927 -0.8531
 7613SOL    HW234476   1.459   3.293   7.037  0.6644  0.2371  0.3918
 7614SOL     OW34477   3.317   2.261   2.671  0.1358 -0.8185  0.7780
 7614SOL    HW134478   3.284   2.182   2.628 -1.0647  1.5437 -2.6453
 7614SOL    HW234479   3.336   2.229   2.759  0.1468  0.4566  1.2337
 7615SOL     OW34480   2.447   4.054   7.787  0.1155 -0.1827 -0.0610
 7615SOL    HW134481   2.515   4.016   7.842 -0.5899 -1.2953  0.0480
 7615SOL    HW234482   2.427   4.139   7.825 -0.7983 -1.0869  1.4943
 7616SOL     OW34483   1.047   1.039   5.801 -0.0273  0.6010 -0.5463
 7616SOL    HW134484   1.064   1.044   5.895  2.8994 -1.9060 -0.9362
 7616SOL    HW234485   0.952   1.046   5.802  0.0528  1.9812 -2.5366
 7617SOL     OW34486   2.868   4.005   6.554  0.3774 -0.1407  0.1246
 7617SOL    HW134487   2.795   4.056   6.590  1.2247  0.3682  1.1308
 7617SOL    HW234488   2.829   3.920   6.575  0.4100  0.1419  1.3390
 7618SOL     OW34489   3.829   3.229  14.845  0.0578  0.1517  0.0171
 7618SOL    HW134490   3.892   3.257  14.778 -0.4609  0.1333 -0.4816
 7618SOL    HW234491   3.771   3.182  14.784 -0.8256  1.1144  0.1101
 7619SOL     OW34492   2.283   4.166   5.520  0.0579 -0.0066  0.0539
 7619SOL    HW134493   2.266   4.097   5.457  1.6788  0.5770 -1.0105
 7619SOL    HW234494   2.374   4.184   5.498  0.1274 -0.3050  0.1036
 7620SOL     OW34495   1.898   0.531   8.708  0.5230  0.2424 -0.0973
 7620SOL    HW134496   1.970   0.592   8.689 -0.4360  2.1000  2.1608
 7620SOL    HW234497   1.873   0.509   8.618  0.6982  2.1535 -0.6073
 7621SOL     OW34498   2.218   3.830  17.403 -0.9079  0.7367 -0.2134
 7621SOL    HW134499   2.259   3.902  17.451  2.3122 -2.5694  1.9721
 7621SOL    HW234500   2.157   3.871  17.341  0.7164  0.2489 -2.1364
 7622SOL     OW34501   2.008   3.375   1.719 -0.4268  0.0347 -0.3530
 7622SOL    HW134502   1.959   3.429   1.657 -0.6586  0.2222  0.0009
 7622SOL    HW234503   2.081   3.434   1.737 -1.1142  0.7550  0.0656
 7623SOL     OW34504   1.953   3.157   9.653 -0.4037 -0.3124  0.5303
 7623SOL    HW134505   1.860   3.153   9.677 -0.3629  1.1043  0.9230
 7623SOL    HW234506   1.974   3.079   9.602 -0.2835 -0.7835  1.3045
 7624SOL     OW34507   1.846   2.769   7.883 -0.3269 -0.5472  0.1309
 7624SOL    HW134508   1.936   2.796   7.903  0.1979 -2.5733  0.6069
 7624SOL    HW234509   1.811   2.766   7.972 -0.5933 -0.1041  0.0364
 7625SOL     OW34510   4.121   2.918   8.698 -0.0790  0.3514  0.2339
 7625SOL    HW134511   4.049   2.874   8.743 -0.0064  0.1537  0.1560
 7625SOL    HW234512   4.192   2.911   8.762 -1.3486  1.9843  1.8106
 7626SOL     OW34513   3.975   3.293  11.397  0.0982 -0.0176 -0.0095
 7626SOL    HW134514   3.917   3.362  11.429 -0.2558  0.7367 -2.2855
 7626SOL    HW234515   3.987   3.296  11.302  0.6823  0.6778  0.0829
 7627SOL     OW34516   3.632   1.838   5.042  0.0620  0.3436 -0.0816
 7627SOL    HW134517   3.597   1.927   5.030  0.7682  0.5906 -0.3418
 7627SOL    HW234518   3.724   1.857   5.060  0.3570 -0.0071 -1.2608
 7628SOL     OW34519   1.599   2.570   4.732  0.4078 -0.7033 -0.0297
 7628SOL    HW134520   1.615   2.544   4.823  2.3061 -2.3375 -0.8304
 7628SOL    HW234521   1.660   2.643   4.727 -0.6500  0.2428  0.9923
 7629SOL     OW34522   2.907   3.583   5.561  0.4525  0.1066  0.7356
 7629SOL    HW134523   2.926   3.656   5.501 -2.1308 -2.3107 -3.0120
 7629SOL    HW234524   2.899   3.511   5.499 -2.7006  1.4860 -0.4510
 7630SOL     OW34525   2.152   3.658  16.769  0.0640  0.2825 -0.0867
 7630SOL    HW134526   2.119   3.599  16.837  2.4337  0.9917  1.6683
 7630SOL    HW234527   2.091   3.729  16.792  0.1233  0.2070  0.3055
 7631SOL     OW34528   0.881   1.635  14.685 -0.3283 -0.9062  0.1488
 7631SOL    HW134529   0.879   1.568  14.617  0.5580  0.5513 -1.3095
 7631SOL    HW234530   0.850   1.580  14.757  1.3998 -0.9976  0.8312
 7632SOL     OW34531   2.508   3.413   9.886  0.1049  0.7557 -0.0172
 7632SOL    HW134532   2.449   3.420   9.962 -1.2393  0.6664 -1.0540
 7632SOL    HW234533   2.577   3.366   9.933  0.5473  1.2466 -0.1875
 7633SOL     OW34534   0.835   4.464   3.836 -0.4399 -0.6760 -0.1088
 7633SOL    HW134535   0.764   4.400   3.834 -0.4990 -0.5338 -2.8419
 7633SOL    HW234536   0.864   4.472   3.927 -2.1634 -0.2565  0.4145
 7634SOL     OW34537   2.462   3.575   3.160  0.0836 -0.6090 -0.5904
 7634SOL    HW134538   2.540   3.535   3.198 -1.5435 -2.6752  0.6172
 7634SOL    HW234539   2.390   3.520   3.190 -2.4170  2.9218 -0.1580
 7635SOL     OW34540   0.227   3.785  17.485  0.0861 -0.4049  0.1698
 7635SOL    HW134541   0.220   3.690  17.481  2.5729 -0.6169  1.2367
 7635SOL    HW234542   0.184   3.798  17.570 -1.2884 -0.0381 -0.5717
 7636SOL     OW34543   3.229   2.778   1.269  0.1482 -0.1537 -0.3388
 7636SOL    HW134544   3.188   2.704   1.314 -0.6095  0.4151 -0.1159
 7636SOL    HW234545   3.306   2.800   1.321 -1.7616 -0.6066  2.6507
 7637SOL     OW34546   1.871   1.874   7.895  0.4775 -0.8700 -0.1202
 7637SOL    HW134547   1.897   1.899   7.806  0.6562 -0.1243  0.1355
 7637SOL    HW234548   1.869   1.955   7.946  0.9264 -1.7688  1.3271
 7638SOL     OW34549   3.207   2.847   3.733 -0.0410  0.4653  0.6938
 7638SOL    HW134550   3.215   2.855   3.828 -0.4248  2.9200  0.5383
 7638SOL    HW234551   3.263   2.771   3.720 -0.2077  0.6620 -1.0938
 7639SOL     OW34552   0.359   2.023   8.507 -0.1982  0.5872  0.3145
 7639SOL    HW134553   0.334   1.938   8.471 -0.2302  0.4292  0.7037
 7639SOL    HW234554   0.406   1.992   8.585 -0.4114  1.3813  0.7578
 7640SOL     OW34555   1.322   0.943   4.576 -0.7042  0.4208 -0.7931
 7640SOL    HW134556   1.312   0.971   4.485  0.1517 -2.9530 -1.9149
 7640SOL    HW234557   1.417   0.953   4.581 -0.5677 -0.7747 -0.9759
 7641SOL     OW34558   0.581   2.946   3.701 -0.6679 -0.5979  0.1776
 7641SOL    HW134559   0.610   2.998   3.626  1.9308 -0.0212  1.5828
 7641SOL    HW234560   0.666   2.930   3.742 -1.3810 -0.6536  1.6509
 7642SOL     OW34561   3.323   0.525   0.871 -1.0374 -0.5291 -0.4282
 7642SOL    HW134562   3.332   0.431   0.888 -0.8927 -1.0367 -3.3338
 7642SOL    HW234563   3.232   0.544   0.894 -0.8591 -0.9972  0.6825
 7643SOL     OW34564   1.019   0.155   9.886  0.5615 -0.5350 -0.1709
 7643SOL    HW134565   0.955   0.141   9.957 -0.0677  2.6742 -0.0842
 7643SOL    HW234566   1.043   0.248   9.884  0.2469 -0.5212 -2.9035
 7644SOL     OW34567   4.346   2.160  17.160  0.3315 -0.3691  0.7983
 7644SOL    HW134568   4.293   2.191  17.086  1.4475  1.2994  0.6952
 7644SOL    HW234569   4.282   2.166  17.231 -0.0945 -0.8882  0.4506
 7645SOL     OW34570   0.126   4.349   3.126 -0.2959  0.3664  0.1913
 7645SOL    HW134571   0.188   4.405   3.172  1.0174  0.0804 -1.2503
 7645SOL    HW234572   0.115   4.291   3.202 -0.6731  0.8523  0.5035
 7646SOL     OW34573   0.307   0.481  10.604 -0.8057  0.0334  0.2939
 7646SOL    HW134574   0.249   0.500  10.678 -0.1371 -0.8330  1.0469
 7646SOL    HW234575   0.238   0.429  10.562  0.0049  0.1002 -1.1130
 7647SOL     OW34576   3.105   2.852  16.856 -0.0366 -0.2898 -0.4326
 7647SOL    HW134577   3.104   2.917  16.786 -1.4131 -1.8994 -1.9143
 7647SOL    HW234578   3.045   2.905  16.908 -1.4030 -0.2034 -2.0708
 7648SOL     OW34579   3.140   1.161   1.290 -0.0133 -0.4743 -0.4836
 7648SOL    HW134580   3.207   1.094   1.299 -1.0160 -1.2928  0.8987
 7648SOL    HW234581   3.194   1.240   1.277  0.1599 -0.2721  1.3609
 7649SOL     OW34582   1.750   0.579  13.864  0.0712 -0.0454  0.6545
 7649SOL    HW134583   1.663   0.548  13.837  0.1038 -0.5523  1.1523
 7649SOL    HW234584   1.805   0.546  13.793  0.2782  1.3911  0.1521
 7650SOL     OW34585   2.551   1.421   5.917 -0.4358 -0.0837 -0.5050
 7650SOL    HW134586   2.526   1.436   5.826 -0.6841 -1.3125 -0.6402
 7650SOL    HW234587   2.517   1.332   5.928  2.0959 -0.7022  2.1315
 7651SOL     OW34588   3.326   1.191   6.525 -0.2276 -0.2979 -0.1705
 7651SOL    HW134589   3.364   1.147   6.601  0.0880  0.8979  0.3570
 7651SOL    HW234590   3.393   1.159   6.466 -0.4993 -1.0532 -0.0708
 7652SOL     OW34591   3.888   3.319  16.716 -0.1255 -0.7673  0.5804
 7652SOL    HW134592   3.958   3.304  16.653  0.6826 -0.1043  1.3148
 7652SOL    HW234593   3.890   3.238  16.768  1.9445 -0.3517  1.1610
 7653SOL     OW34594   2.887   3.329   3.077 -0.1777  0.1732 -0.1151
 7653SOL    HW134595   2.896   3.305   3.169 -0.2566 -0.6739 -0.3323
 7653SOL    HW234596   2.958   3.276   3.041 -0.0874 -1.4105  2.4403
 7654SOL     OW34597   4.194   1.212   9.619  0.1075 -0.1308  0.5025
 7654SOL    HW134598   4.105   1.179   9.632 -1.0032  1.6483 -2.7804
 7654SOL    HW234599   4.210   1.194   9.526  0.5823  0.1791  0.5251
 7655SOL     OW34600   2.976   0.973   4.579 -0.1024  0.0489 -0.2319
 7655SOL    HW134601   2.961   0.939   4.667 -1.8017  1.9557  0.2225
 7655SOL    HW234602   2.971   1.066   4.598  1.4442  0.4483 -1.8334
 7656SOL     OW34603   2.372   4.424   4.404  0.3819 -0.1368 -0.0814
 7656SOL    HW134604   2.418   4.353   4.448  1.7749  0.8840  0.1169
 7656SOL    HW234605   2.434   4.470   4.346  1.3431 -0.0129  1.0372
 7657SOL     OW34606   1.510   4.149   4.204 -0.3174 -0.7910 -0.3135
 7657SOL    HW134607   1.499   4.199   4.285  1.4064  0.5395 -0.8974
 7657SOL    HW234608   1.572   4.080   4.227  0.1127 -0.3659 -0.2140
 7658SOL     OW34609   2.074   1.850   9.364 -0.3019  0.0629 -0.5236
 7658SOL    HW134610   2.032   1.770   9.332 -1.3512  0.4860 -0.1845
 7658SOL    HW234611   2.082   1.903   9.285  0.4065  3.0855  1.5573
 7659SOL     OW34612   2.340   0.602   3.229  0.2909 -0.0837  0.3902
 7659SOL    HW134613   2.410   0.579   3.168 -1.3701  3.3895 -2.8700
 7659SOL    HW234614   2.269   0.631   3.171 -0.5987  0.8398  1.9519
 7660SOL     OW34615   3.011   3.226   4.512  0.6951 -0.1066 -0.2487
 7660SOL    HW134616   2.973   3.292   4.454  0.0601 -0.9639 -0.8233
 7660SOL    HW234617   2.932   3.174   4.528  0.1281  0.2001 -2.0867
 7661SOL     OW34618   0.071   4.734   7.413  0.5284  1.0767  0.1366
 7661SOL    HW134619   0.024   4.700   7.336 -2.3670  0.1312  2.2996
 7661SOL    HW234620   0.046   4.670   7.479 -0.7959  2.4821  0.9926
 7662SOL     OW34621   1.379   3.431   8.044 -0.7765  0.7695  0.4065
 7662SOL    HW134622   1.344   3.464   7.961  2.1700 -1.7732 -1.8530
 7662SOL    HW234623   1.450   3.491   8.062 -3.5651  3.8783  1.0252
 7663SOL     OW34624   4.695   4.685   8.293  0.4339 -0.1310 -0.2712
 7663SOL    HW134625   0.043   4.679   8.253  0.5613  1.1094 -0.1850
 7663SOL    HW234626   4.700   4.620   8.364 -0.6046 -0.8669 -0.8641
 7664SOL     OW34627   0.331   1.044   9.658  0.4727 -0.3508 -0.3261
 7664SOL    HW134628   0.299   1.134   9.665  1.0317 -0.1927  0.1965
 7664SOL    HW234629   0.361   1.034   9.749  0.1867 -2.5218 -0.4637
 7665SOL     OW34630   3.550   0.715  16.716  0.0442  0.3659 -0.1284
 7665SOL    HW134631   3.599   0.692  16.638 -1.2180 -3.2190  0.1602
 7665SOL    HW234632   3.556   0.811  16.716 -0.2244  0.3791 -1.5817
 7666SOL     OW34633   1.201   4.738  13.215  0.0065  0.1333  0.4297
 7666SOL    HW134634   1.197   0.091  13.240 -0.6528  0.3543 -0.4715
 7666SOL    HW234635   1.295   4.725  13.232 -0.5328 -1.7469  1.9335
 7667SOL     OW34636   0.230   0.978   7.931 -0.3612  0.0656  0.3853
 7667SOL    HW134637   0.159   1.023   7.886 -0.6168 -1.3126 -0.6003
 7667SOL    HW234638   0.228   1.026   8.013 -1.7047  1.3825 -0.4366
 7668SOL     OW34639   2.563   4.553   3.381 -0.2905 -0.0111 -0.0497
 7668SOL    HW134640   2.594   4.475   3.428  1.5025  1.1529  0.6946
 7668SOL    HW234641   2.631   4.566   3.315  0.6056 -0.9087  0.6896
 7669SOL     OW34642   2.280   0.221   9.497 -0.1539 -0.5452  0.2694
 7669SOL    HW134643   2.193   0.242   9.464 -0.1436  0.2509  0.7465
 7669SOL    HW234644   2.295   0.136   9.455 -0.6203 -0.4899 -0.0022
 7670SOL     OW34645   2.607   0.221  12.473 -0.1469 -0.2778 -0.0303
 7670SOL    HW134646   2.555   0.194  12.397 -2.1174 -1.1782  1.6202
 7670SOL    HW234647   2.562   0.164  12.537 -0.5371 -1.9368 -1.7772
 7671SOL     OW34648   4.051   4.168   1.374  0.1641  0.2263 -0.3223
 7671SOL    HW134649   3.998   4.101   1.415 -0.9889  1.5205  0.2843
 7671SOL    HW234650   3.984   4.222   1.332  0.7877 -0.6683 -2.4648
 7672SOL     OW34651   4.156   4.435   1.954  0.0455 -0.0045  0.0506
 7672SOL    HW134652   4.097   4.472   1.889 -1.8887 -1.7560  0.8243
 7672SOL    HW234653   4.122   4.445   2.043 -0.2092  0.4751 -0.1066
 7673SOL     OW34654   2.877   3.614   6.435  0.1608  0.2811  0.3150
 7673SOL    HW134655   2.903   3.526   6.408  0.9170  0.3245  0.8874
 7673SOL    HW234656   2.839   3.595   6.520 -1.1629  1.0816 -0.0982
 7674SOL     OW34657   0.786   0.117   5.098  0.5055 -0.6193 -0.4609
 7674SOL    HW134658   0.765   0.186   5.161  1.0077  2.3119 -3.5247
 7674SOL    HW234659   0.880   0.130   5.085  0.3111  0.4026 -0.8249
 7675SOL     OW34660   0.924   0.662   6.096  0.1838  0.1912  0.0376
 7675SOL    HW134661   0.889   0.595   6.037 -0.7517  0.3622  0.3911
 7675SOL    HW234662   0.887   0.632   6.179 -2.0021  3.5395  0.3144
 7676SOL     OW34663   0.152   2.554   6.564  0.4428 -0.4715 -0.2741
 7676SOL    HW134664   0.120   2.644   6.566  0.3177 -0.4964 -1.4268
 7676SOL    HW234665   0.197   2.543   6.648 -1.7677 -0.2103  0.9448
 7677SOL     OW34666   1.555   0.361   6.477  0.1793  0.3462 -0.1363
 7677SOL    HW134667   1.586   0.283   6.429  0.6865  0.5872 -0.2034
 7677SOL    HW234668   1.642   0.390   6.506  0.8148 -0.8545 -0.8156
 7678SOL     OW34669   0.486   2.425   8.901  0.5020  0.3208 -0.0298
 7678SOL    HW134670   0.464   2.438   8.809  0.0277 -1.0832 -0.0974
 7678SOL    HW234671   0.468   2.332   8.906 -1.6770  0.7525  0.1435
 7679SOL     OW34672   2.993   4.478  13.921  0.0714  0.1859 -0.0422
 7679SOL    HW134673   3.080   4.473  13.881 -0.7224  0.2399 -1.7974
 7679SOL    HW234674   2.949   4.502  13.839  0.5657 -1.6378 -0.8307
 7680SOL     OW34675   4.629   2.608   9.637  0.0911 -0.4180 -0.0218
 7680SOL    HW134676   4.698   2.633   9.699  0.9198  1.2037 -1.5872
 7680SOL    HW234677   4.596   2.696   9.616 -0.9623 -0.4492  1.4955
 7681SOL     OW34678   3.475   0.240  13.496 -0.2809  0.5036 -1.0666
 7681SOL    HW134679   3.400   0.188  13.465 -1.1125  0.9219  0.2512
 7681SOL    HW234680   3.434   0.310  13.548 -0.6726 -0.7072  0.2395
 7682SOL     OW34681   0.305   3.433   2.757  0.1585  0.1295 -0.1648
 7682SOL    HW134682   0.391   3.474   2.770  0.8786 -1.3504 -0.2826
 7682SOL    HW234683   0.257   3.515   2.747  0.5114  0.5480  1.5121
 7683SOL     OW34684   2.626   1.791   3.146  0.0472 -0.4771 -0.2448
 7683SOL    HW134685   2.662   1.781   3.058 -0.0628 -2.6881 -0.0549
 7683SOL    HW234686   2.543   1.743   3.142 -0.8940  1.2245 -0.9087
 7684SOL     OW34687   2.128   3.751   7.647  0.6515 -0.3059 -0.0845
 7684SOL    HW134688   2.206   3.723   7.599  0.8073 -0.3591  0.2006
 7684SOL    HW234689   2.161   3.828   7.693  1.3051 -0.0290 -1.0142
 7685SOL     OW34690   4.727   1.941   2.362  0.2560 -0.0439  0.4524
 7685SOL    HW134691   0.034   1.951   2.446  1.7090 -2.1006 -0.1115
 7685SOL    HW234692   4.640   1.918   2.395  1.3023 -1.1227  2.4447
 7686SOL     OW34693   2.444   1.677   4.978  0.0648  0.3553 -0.1498
 7686SOL    HW134694   2.430   1.590   4.941  1.4837 -0.5269  1.3813
 7686SOL    HW234695   2.359   1.703   5.015 -0.4187 -2.4131  0.6454
 7687SOL     OW34696   3.356   0.687   8.643  0.6047  0.4391 -0.3611
 7687SOL    HW134697   3.438   0.731   8.619  0.2097  0.8418 -0.9774
 7687SOL    HW234698   3.369   0.717   8.733 -3.0601 -0.6047  0.5235
 7688SOL     OW34699   3.439   0.824   6.109 -0.6563 -0.0010 -0.0555
 7688SOL    HW134700   3.502   0.797   6.043 -1.4638  2.2879 -1.7610
 7688SOL    HW234701   3.353   0.811   6.068 -1.4089  3.2743  0.4908
 7689SOL     OW34702   2.950   1.585   4.269  0.9538  0.2051  0.0236
 7689SOL    HW134703   2.908   1.553   4.349 -1.5536 -0.4531 -1.5522
 7689SOL    HW234704   2.898   1.662   4.247 -0.2639 -0.0770  1.8872
 7690SOL     OW34705   2.169   2.239  14.486 -0.1019  0.2221  0.1279
 7690SOL    HW134706   2.141   2.227  14.577 -1.0804  3.9287  0.3008
 7690SOL    HW234707   2.251   2.189  14.483 -0.0842  0.4261 -2.4838
 7691SOL     OW34708   1.832   3.545  14.096 -0.2426  0.7314 -0.1578
 7691SOL    HW134709   1.742   3.567  14.118 -0.6287 -2.7876  1.7063
 7691SOL    HW234710   1.845   3.462  14.142  0.8801  0.5527 -0.7919
 7692SOL     OW34711   1.909   0.825  15.525 -0.1836  0.6777  0.3894
 7692SOL    HW134712   1.886   0.745  15.477  0.6887  1.1523 -0.8295
 7692SOL    HW234713   1.865   0.805  15.607  1.4909  0.4594  1.2291
 7693SOL     OW34714   0.897   3.958  15.735  0.2363 -0.1209  0.2358
 7693SOL    HW134715   0.907   3.872  15.775  0.2036 -0.2847 -0.1140
 7693SOL    HW234716   0.907   4.007  15.817 -0.7404  1.3155 -0.5081
 7694SOL     OW34717   2.766   1.686  17.249  0.3530 -0.5107 -0.3070
 7694SOL    HW134718   2.679   1.722  17.232  1.2223  1.0286 -1.4376
 7694SOL    HW234719   2.818   1.759  17.283  0.7773 -0.1342 -1.7532
 7695SOL     OW34720   0.179   3.178   6.139 -0.2466  0.3890 -0.0368
 7695SOL    HW134721   0.135   3.248   6.188 -1.6903 -0.0901 -0.6539
 7695SOL    HW234722   0.105   3.120   6.119  1.4481 -2.0849  0.9973
 7696SOL     OW34723   2.946   2.409   8.128  0.0316 -0.0171  0.2436
 7696SOL    HW134724   3.034   2.410   8.091 -0.1296  1.7793 -0.1234
 7696SOL    HW234725   2.912   2.492   8.094  0.8070 -0.0567 -0.6049
 7697SOL     OW34726   0.358   4.139  11.681  0.1269 -0.0899 -0.5784
 7697SOL    HW134727   0.333   4.126  11.590  0.1978  2.1246 -0.9154
 7697SOL    HW234728   0.282   4.188  11.713  1.5061  1.5071  0.2828
 7698SOL     OW34729   3.278   3.306  15.598 -0.3747  0.2565 -0.6074
 7698SOL    HW134730   3.287   3.220  15.640 -1.4454  0.4743  0.0850
 7698SOL    HW234731   3.367   3.316  15.567  0.2867 -3.9078 -0.0802
 7699SOL     OW34732   1.788   1.574   4.742  1.1762  0.6198  0.3291
 7699SOL    HW134733   1.862   1.516   4.761  0.4660 -0.6925 -0.9444
 7699SOL    HW234734   1.803   1.641   4.809 -0.0451 -2.2013  3.4163
 7700SOL     OW34735   0.571   4.280   7.139 -0.0580  0.3796 -0.5348
 7700SOL    HW134736   0.598   4.326   7.060  0.2112  2.0553  0.5339
 7700SOL    HW234737   0.640   4.311   7.197 -1.0056  0.8869  0.3267
 7701SOL     OW34738   4.526   2.353  12.997  1.1162  0.1295 -0.5103
 7701SOL    HW134739   4.459   2.344  13.064  1.2456  1.6766 -0.1834
 7701SOL    HW234740   4.497   2.285  12.936 -1.5288  2.6446 -2.0352
 7702SOL     OW34741   1.841   0.473   6.499  0.1014  0.4486 -0.2197
 7702SOL    HW134742   1.898   0.403   6.468 -0.0037  0.4874 -0.5055
 7702SOL    HW234743   1.859   0.528   6.422 -1.7948 -1.4739 -2.0455
 7703SOL     OW34744   2.116   0.555   7.807  0.1466  0.2909 -0.1021
 7703SOL    HW134745   2.120   0.639   7.852  1.3420 -0.9695  2.1645
 7703SOL    HW234746   2.034   0.561   7.758 -0.2612  0.0074  0.5466
 7704SOL     OW34747   2.894   2.125   8.599 -0.5074  0.4460  0.1435
 7704SOL    HW134748   2.848   2.111   8.516 -0.5142  0.4763  0.1423
 7704SOL    HW234749   2.986   2.122   8.572 -0.2614  1.6919  0.8535
 7705SOL     OW34750   0.301   0.066   3.038 -0.1225 -0.2317 -0.0491
 7705SOL    HW134751   0.344   0.095   3.119 -2.0851  2.8103 -0.1076
 7705SOL    HW234752   0.382   0.062   2.987 -0.4094  2.3219 -0.7385
 7706SOL     OW34753   3.690   3.381  11.840 -0.7709  0.2466  0.2317
 7706SOL    HW134754   3.664   3.319  11.908 -0.6567  1.0805  1.0356
 7706SOL    HW234755   3.785   3.387  11.842 -0.7520  0.6118 -1.6623
 7707SOL     OW34756   1.333   2.890   2.754 -0.1294 -0.4844  0.2486
 7707SOL    HW134757   1.403   2.913   2.693 -0.9749  0.3702 -0.4151
 7707SOL    HW234758   1.293   2.811   2.718  1.5622 -0.1705 -2.3072
 7708SOL     OW34759   0.539   1.607   7.949 -0.3217  0.3790 -0.5062
 7708SOL    HW134760   0.520   1.649   8.033  0.7760 -1.1211  0.4959
 7708SOL    HW234761   0.633   1.618   7.934  0.3448 -1.3733  2.2553
 7709SOL     OW34762   4.415   0.495  17.443  0.4273  0.0556 -0.4631
 7709SOL    HW134763   4.428   0.400  17.448  1.6266  0.2825  0.6667
 7709SOL    HW234764   4.331   0.490  17.399 -1.9714 -1.2232  4.2808
 7710SOL     OW34765   3.343   3.384   2.986 -0.6796 -0.1513  0.8947
 7710SOL    HW134766   3.381   3.386   3.074 -0.3075  2.6232  0.6898
 7710SOL    HW234767   3.366   3.303   2.939  0.6246 -0.9136  2.8572
 7711SOL     OW34768   2.132   2.853   7.535 -0.0810 -0.5335 -0.2403
 7711SOL    HW134769   2.110   2.764   7.563 -0.0515 -0.6824 -0.6801
 7711SOL    HW234770   2.053   2.892   7.571  0.5417 -0.6479  1.2664
 7712SOL     OW34771   2.127   1.171   2.422 -0.2747  0.1778  0.1203
 7712SOL    HW134772   2.048   1.212   2.460  0.4614  0.5128  1.3149
 7712SOL    HW234773   2.120   1.089   2.470 -0.7718  1.4454  2.2544
 7713SOL     OW34774   3.960   0.347   2.585 -0.1149  0.2386  0.3352
 7713SOL    HW134775   3.950   0.410   2.514 -1.2329  0.3855  0.6167
 7713SOL    HW234776   3.945   0.268   2.534  0.5966  0.7669 -0.6862
 7714SOL     OW34777   3.946   0.834   8.587 -0.5121 -0.1994 -0.2208
 7714SOL    HW134778   4.034   0.799   8.598 -0.8661 -0.5150  1.7588
 7714SOL    HW234779   3.905   0.755   8.552  0.7220 -0.4129 -1.1411
 7715SOL     OW34780   4.299   0.351   2.606 -0.0204  0.1033 -0.3797
 7715SOL    HW134781   4.306   0.268   2.559  4.6661  1.8763 -2.8074
 7715SOL    HW234782   4.258   0.405   2.539  1.3421  0.5892 -0.8256
 7716SOL     OW34783   3.387   4.500   3.940  0.5385 -1.1504  0.6181
 7716SOL    HW134784   3.425   4.533   4.021 -0.1360  0.2485  0.3553
 7716SOL    HW234785   3.409   4.407   3.951  2.6632 -0.4513  2.1200
 7717SOL     OW34786   2.344   0.063  16.318 -0.2048  0.2565 -0.5907
 7717SOL    HW134787   2.290   4.723  16.304  1.5057 -0.9069 -0.7021
 7717SOL    HW234788   2.309   0.112  16.243 -2.5930 -2.1841 -1.0826
 7718SOL     OW34789   4.307   0.479   6.800  0.7720  0.2544  0.0867
 7718SOL    HW134790   4.273   0.421   6.732  2.9225  0.4434 -1.1516
 7718SOL    HW234791   4.282   0.434   6.881 -0.3844 -0.2068 -0.5258
 7719SOL     OW34792   4.513   1.599   3.740  0.4967  0.4075  0.2186
 7719SOL    HW134793   4.554   1.661   3.680  0.6897 -0.6329 -0.7211
 7719SOL    HW234794   4.524   1.640   3.826  1.1215  3.2739 -1.2216
 7720SOL     OW34795   1.150   3.225  14.576 -0.3276 -0.2444  0.5461
 7720SOL    HW134796   1.219   3.160  14.591 -0.0338  0.2575  1.3787
 7720SOL    HW234797   1.080   3.162  14.558 -2.5295  2.4835 -0.5997
 7721SOL     OW34798   3.235   3.554  16.629 -0.2167  0.2914 -0.3428
 7721SOL    HW134799   3.242   3.650  16.631  2.3202  0.1334 -1.5126
 7721SOL    HW234800   3.300   3.529  16.564  2.8639  1.1940  2.3826
 7722SOL     OW34801   4.618   1.048   7.054  0.3574 -0.1068  0.4602
 7722SOL    HW134802   4.662   1.060   6.969 -0.7302  1.8147  0.1732
 7722SOL    HW234803   4.602   1.141   7.068 -0.0555 -0.0546 -0.3569
 7723SOL     OW34804   0.406   0.442  16.726  0.0238  0.1359  0.0304
 7723SOL    HW134805   0.497   0.470  16.733 -0.1131 -0.1800  3.3268
 7723SOL    HW234806   0.370   0.496  16.797  2.2268  0.9261  0.5336
 7724SOL     OW34807   2.528   1.594   6.851  0.0645  0.7677 -0.0666
 7724SOL    HW134808   2.541   1.579   6.757  0.2825 -1.4218  0.3145
 7724SOL    HW234809   2.580   1.526   6.893 -1.3984 -0.0484  0.4393
 7725SOL     OW34810   4.420   2.144  15.380  0.4246  0.0488 -0.5915
 7725SOL    HW134811   4.434   2.235  15.404  2.5589 -0.4693  0.0967
 7725SOL    HW234812   4.338   2.122  15.425  0.8356 -0.6583 -0.1858
 7726SOL     OW34813   2.742   1.977   5.494  0.5035 -0.0650  0.0138
 7726SOL    HW134814   2.660   2.000   5.538  0.5403 -1.7862  0.9702
 7726SOL    HW234815   2.801   2.050   5.514  0.3057  0.2584 -0.5838
 7727SOL     OW34816   4.260   1.691   4.732  0.0075  0.4394 -0.4845
 7727SOL    HW134817   4.281   1.729   4.817  2.6603  0.0448 -0.9620
 7727SOL    HW234818   4.226   1.604   4.753 -0.0882  0.2493 -1.4116
 7728SOL     OW34819   2.951   0.147   4.490  0.0441  0.5922  0.7258
 7728SOL    HW134820   2.910   0.146   4.404 -1.5798 -1.0477  1.5303
 7728SOL    HW234821   2.937   0.238   4.517 -0.4454  1.6385 -2.9893
 7729SOL     OW34822   0.065   1.073   6.459 -0.0867 -0.1584  0.0018
 7729SOL    HW134823   0.052   1.087   6.365  2.2492 -0.4351 -0.3590
 7729SOL    HW234824   0.082   0.979   6.458 -1.1566 -0.3178 -2.3162
 7730SOL     OW34825   3.205   1.902   4.680  0.5475  0.2503  0.0244
 7730SOL    HW134826   3.158   1.905   4.764 -0.3211 -0.5025 -0.4304
 7730SOL    HW234827   3.242   1.989   4.669 -0.0626  0.5344  0.2009
 7731SOL     OW34828   1.507   0.799   1.352 -0.0463  0.1815 -0.1980
 7731SOL    HW134829   1.519   0.716   1.399 -0.4026  0.7258  0.8358
 7731SOL    HW234830   1.448   0.853   1.404  1.6608  0.7797  1.1129
 7732SOL     OW34831   0.915   2.718  17.177  0.1228 -0.1744  0.1708
 7732SOL    HW134832   0.846   2.763  17.226 -0.2014 -0.1993 -0.2586
 7732SOL    HW234833   0.993   2.769  17.198  1.7233 -1.9329 -1.4287
 7733SOL     OW34834   4.177   2.612   2.719 -0.0935  0.3831 -0.0930
 7733SOL    HW134835   4.258   2.637   2.674  0.9603  0.8329  2.0274
 7733SOL    HW234836   4.109   2.634   2.656  2.0155  0.1375 -2.4322
 7734SOL     OW34837   3.144   0.718   3.933 -0.6150 -0.1182  0.0558
 7734SOL    HW134838   3.206   0.791   3.943 -2.3457  1.2267  0.8972
 7734SOL    HW234839   3.197   0.671   3.868 -0.1544 -0.0320  0.3694
 7735SOL     OW34840   2.103   2.129   5.787 -0.0461  0.0591  0.2202
 7735SOL    HW134841   2.101   2.059   5.852 -0.5186 -0.2871 -0.1677
 7735SOL    HW234842   2.025   2.177   5.815 -0.0142  1.5838 -2.3584
 7736SOL     OW34843   3.824   4.414  11.414 -0.2142  0.0930 -0.1276
 7736SOL    HW134844   3.876   4.406  11.334  1.6303 -0.1378  1.0859
 7736SOL    HW234845   3.883   4.467  11.468 -0.1889 -0.8900  0.7990
 7737SOL     OW34846   3.270   4.257   8.230 -0.7712 -0.4845 -0.0399
 7737SOL    HW134847   3.277   4.204   8.310 -1.5055 -0.0227  0.3348
 7737SOL    HW234848   3.302   4.195   8.165 -1.2891 -1.2724  0.4528
 7738SOL     OW34849   0.964   2.700   0.793  0.1248  0.1323  0.3185
 7738SOL    HW134850   0.956   2.665   0.705 -1.4617 -1.5788  1.1180
 7738SOL    HW234851   1.059   2.708   0.793  0.2822 -1.6916  1.5598
 7739SOL     OW34852   0.808   4.492   4.650 -0.3430 -0.2486 -0.2095
 7739SOL    HW134853   0.793   4.564   4.588 -2.5575 -2.4006 -2.1863
 7739SOL    HW234854   0.815   4.415   4.594  2.0012 -0.6665  0.6923
 7740SOL     OW34855   3.613   2.799   5.345  0.5887  0.3359  0.3178
 7740SOL    HW134856   3.623   2.840   5.260 -1.5701  1.2141  0.4844
 7740SOL    HW234857   3.543   2.848   5.388 -0.0954  0.2416 -0.7053
 7741SOL     OW34858   4.545   3.369   2.946 -0.2059  0.4730 -0.2065
 7741SOL    HW134859   4.591   3.350   3.028 -1.0125  1.1872  0.4160
 7741SOL    HW234860   4.518   3.281   2.920 -1.9922  0.9039  0.1530
 7742SOL     OW34861   1.660   2.459   1.258 -0.2769 -0.2743 -0.4301
 7742SOL    HW134862   1.687   2.371   1.284 -1.0684 -0.2065  0.6021
 7742SOL    HW234863   1.581   2.443   1.205  0.8388 -3.3205 -1.2117
 7743SOL     OW34864   1.499   0.449   8.696  0.3555  0.0863  0.4513
 7743SOL    HW134865   1.488   0.452   8.791 -1.4329  4.6798  0.0997
 7743SOL    HW234866   1.494   0.544   8.680 -0.5532 -0.3196 -1.7512
 7744SOL     OW34867   3.682   1.106   7.314  0.1473  0.3624  0.0765
 7744SOL    HW134868   3.762   1.089   7.364  1.1411  0.8196 -1.3824
 7744SOL    HW234869   3.653   1.016   7.298  0.9583 -0.2129  1.7714
 7745SOL     OW34870   2.936   4.296   3.615  0.5358  0.0958 -0.0161
 7745SOL    HW134871   2.918   4.210   3.577 -0.8196  0.3005  0.1677
 7745SOL    HW234872   3.021   4.310   3.573  0.5203 -0.3775 -0.2048
 7746SOL     OW34873   2.695   1.071   2.604  0.4977  0.1374 -0.0874
 7746SOL    HW134874   2.730   1.132   2.669 -0.3756 -0.2873  0.7826
 7746SOL    HW234875   2.770   1.092   2.549  0.9684  0.6069  0.7238
 7747SOL     OW34876   1.769   3.981   5.182  0.2519 -0.5908  0.8990
 7747SOL    HW134877   1.759   3.946   5.270  0.6189 -1.3827  0.6326
 7747SOL    HW234878   1.842   4.040   5.199 -0.6058  0.2360  1.6841
 7748SOL     OW34879   4.539   2.268   8.640 -0.4520 -0.0977  0.1412
 7748SOL    HW134880   4.564   2.360   8.650  0.4818 -0.4343  0.8879
 7748SOL    HW234881   4.509   2.248   8.729 -0.2134 -1.2209 -0.0329
 7749SOL     OW34882   2.306   1.642   3.574 -0.0715  0.1906 -0.1676
 7749SOL    HW134883   2.256   1.593   3.509  3.8687 -1.0069 -2.2976
 7749SOL    HW234884   2.343   1.575   3.632 -1.1062 -0.0604  0.2027
 7750SOL     OW34885   0.730   1.247  17.203 -0.2281 -0.0404  0.2462
 7750SOL    HW134886   0.648   1.271  17.160 -1.4333 -3.6892  0.5277
 7750SOL    HW234887   0.741   1.319  17.265 -1.7319  0.3211  0.0934
 7751SOL     OW34888   4.735   4.066   7.136 -0.7364 -0.0899  0.5594
 7751SOL    HW134889   4.682   4.049   7.215 -0.8573 -0.1219  0.4716
 7751SOL    HW234890   0.082   4.052   7.176 -0.9743  0.3913  1.2601
 7752SOL     OW34891   1.791   4.457   2.112 -0.7627  1.5835 -0.8701
 7752SOL    HW134892   1.852   4.444   2.040 -0.6866  1.7609 -0.8377
 7752SOL    HW234893   1.715   4.438   2.057 -0.6472 -0.2990 -0.3810
 7753SOL     OW34894   2.678   0.854   9.810  0.0860 -0.0885  0.0845
 7753SOL    HW134895   2.605   0.796   9.792 -0.2726  0.3811  0.0261
 7753SOL    HW234896   2.751   0.796   9.832 -0.1449 -0.5189 -0.2910
 7754SOL     OW34897   3.035   1.680   3.457  0.5403 -0.2656  0.0060
 7754SOL    HW134898   2.947   1.717   3.447  0.1781 -1.0641  0.2519
 7754SOL    HW234899   3.034   1.667   3.552  0.4641  0.7904  0.1550
 7755SOL     OW34900   3.144   1.503  14.610  0.0704  0.2526 -0.0957
 7755SOL    HW134901   3.175   1.555  14.685  0.0022  0.0311  0.0857
 7755SOL    HW234902   3.225   1.464  14.577  0.6996 -0.1029  1.8716
 7756SOL     OW34903   0.934   3.466  11.212 -0.0197 -0.3478 -0.0115
 7756SOL    HW134904   0.881   3.544  11.196 -1.0020 -1.5776 -2.7761
 7756SOL    HW234905   0.977   3.493  11.293 -0.3936 -1.9825  0.7309
 7757SOL     OW34906   4.290   0.684   4.575 -0.6427 -0.0562 -0.0656
 7757SOL    HW134907   4.329   0.600   4.554  0.7849  1.0223 -1.8035
 7757SOL    HW234908   4.226   0.692   4.504 -0.2181  1.5989 -0.2734
 7758SOL     OW34909   3.473   1.858   8.511  0.0121 -0.1285 -0.0439
 7758SOL    HW134910   3.505   1.843   8.600  0.9801  1.2522 -0.1649
 7758SOL    HW234911   3.557   1.851   8.466 -0.2513  0.5863 -0.6362
 7759SOL     OW34912   2.984   3.393   6.323 -0.1721  0.6190 -0.5928
 7759SOL    HW134913   3.064   3.354   6.359  0.1625  0.9470 -0.9683
 7759SOL    HW234914   3.030   3.466   6.280  0.9045  0.2886 -0.0131
 7760SOL     OW34915   1.442   2.405   5.643 -0.1054  0.1553 -1.0134
 7760SOL    HW134916   1.521   2.427   5.594 -2.2285  3.1939 -3.1068
 7760SOL    HW234917   1.481   2.325   5.676 -0.9468  0.2934  0.3154
 7761SOL     OW34918   2.377   3.642  13.265 -0.5169  0.8742 -0.0281
 7761SOL    HW134919   2.394   3.548  13.255  0.5688  1.2217 -1.4525
 7761SOL    HW234920   2.282   3.636  13.252 -0.2664 -3.2384 -0.0566
 7762SOL     OW34921   2.371   2.325  13.672  0.0935  0.1382  0.4218
 7762SOL    HW134922   2.412   2.250  13.714 -0.0458  1.0824  2.2618
 7762SOL    HW234923   2.413   2.316  13.587 -1.1405 -2.8118  0.1383
 7763SOL     OW34924   4.326   3.880  14.924 -0.0362 -0.4719  0.1734
 7763SOL    HW134925   4.312   3.947  14.991  1.9659 -0.9304  1.0359
 7763SOL    HW234926   4.343   3.807  14.984 -1.2296  0.5496  1.7707
 7764SOL     OW34927   0.933   3.511   9.274  0.1960 -0.2277  0.6259
 7764SOL    HW134928   1.019   3.545   9.250  1.7147 -2.3430  3.0853
 7764SOL    HW234929   0.900   3.578   9.335 -0.3624  0.2374 -0.1931
 7765SOL     OW34930   1.919   2.443  13.601  0.1234  0.0617  0.3345
 7765SOL    HW134931   1.932   2.365  13.547  1.1851  2.1100 -2.3332
 7765SOL    HW234932   1.860   2.410  13.669  1.2785 -2.8988 -0.0757
 7766SOL     OW34933   2.525   4.568   7.754 -0.0451  0.2527 -0.3549
 7766SOL    HW134934   2.464   4.586   7.683 -1.0696 -0.7506  0.2856
 7766SOL    HW234935   2.558   4.656   7.775 -0.3844 -0.1624  1.8941
 7767SOL     OW34936   4.361   2.020   8.091  0.1380  0.2816  0.5146
 7767SOL    HW134937   4.407   2.094   8.051  0.5872 -0.0994  0.3205
 7767SOL    HW234938   4.363   2.054   8.180  0.5718  2.1724 -0.2104
 7768SOL     OW34939   2.053   4.086  10.212 -0.3446 -0.2446  0.2749
 7768SOL    HW134940   2.013   4.139  10.143  0.0155 -0.9892 -0.5044
 7768SOL    HW234941   2.048   4.145  10.287 -0.0592 -0.9683  0.8678
 7769SOL     OW34942   2.851   2.358  10.791  0.6405  0.6933 -0.1696
 7769SOL    HW134943   2.767   2.348  10.746  0.3327 -1.1046  0.8341
 7769SOL    HW234944   2.833   2.386  10.880  1.1706  0.5792 -0.0299
 7770SOL     OW34945   2.082   4.621  11.781 -0.5050  0.0877 -0.8437
 7770SOL    HW134946   2.172   4.613  11.811 -0.5772  3.0303  0.1293
 7770SOL    HW234947   2.041   4.611  11.867 -1.5085  1.8837 -1.1087
 7771SOL     OW34948   1.864   4.615   2.961  0.4101 -0.4296  0.3069
 7771SOL    HW134949   1.877   4.598   3.055  1.1440 -0.8889  0.1201
 7771SOL    HW234950   1.799   4.683   2.977  0.8131  0.0690 -0.2147
 7772SOL     OW34951   3.946   4.361   2.160 -0.4513  0.1155  0.0841
 7772SOL    HW134952   3.862   4.315   2.159  0.8285 -2.2129 -0.2463
 7772SOL    HW234953   4.010   4.296   2.188 -1.4537 -0.2792  1.4428
 7773SOL     OW34954   3.713   3.939   3.438  0.1768  0.0152  0.0435
 7773SOL    HW134955   3.747   3.891   3.362 -0.1564 -3.0678  1.8166
 7773SOL    HW234956   3.708   4.026   3.400  0.0811 -0.3966 -0.8927
 7774SOL     OW34957   2.401   1.983  12.298 -0.1465 -0.2338  0.1188
 7774SOL    HW134958   2.426   1.912  12.357  2.3624 -0.7616 -1.6067
 7774SOL    HW234959   2.477   1.971  12.240 -0.4575  1.9943 -0.7538
 7775SOL     OW34960   2.717   1.508  17.661  0.0064 -0.3061 -0.1912
 7775SOL    HW134961   2.629   1.535  17.635  0.1942  1.0054  0.5557
 7775SOL    HW234962   2.767   1.508  17.580 -0.9909 -0.1247 -0.8128
 7776SOL     OW34963   2.281   2.295   5.976 -0.2387 -0.1847  0.6658
 7776SOL    HW134964   2.343   2.242   6.026 -0.8774  0.1128  1.7710
 7776SOL    HW234965   2.241   2.232   5.916 -1.4678 -0.4474  1.7668
 7777SOL     OW34966   3.712   4.112   9.243 -0.4714 -0.0630 -0.2095
 7777SOL    HW134967   3.698   4.121   9.149  3.2607 -0.1490 -0.7432
 7777SOL    HW234968   3.804   4.089   9.250 -0.5326 -0.1859  0.2056
 7778SOL     OW34969   0.795   0.267   6.811 -0.2651  0.3198 -0.6988
 7778SOL    HW134970   0.845   0.349   6.811  2.2229 -1.2098  2.8026
 7778SOL    HW234971   0.815   0.241   6.901  2.3630  2.4190 -0.6414
 7779SOL     OW34972   4.062   2.973   8.192  0.3597 -0.3376  0.3026
 7779SOL    HW134973   4.071   3.021   8.274 -1.1370 -1.6564  1.2336
 7779SOL    HW234974   3.968   2.969   8.170  0.4235  0.4150 -0.1257
 7780SOL     OW34975   1.874   3.022   3.035  0.1650  0.6690 -0.0776
 7780SOL    HW134976   1.932   2.953   3.003 -2.4060 -2.0302  1.1019
 7780SOL    HW234977   1.809   3.042   2.968 -0.8766 -1.2054  0.3799
 7781SOL     OW34978   0.151   3.758   0.230 -0.1385 -0.1676 -0.0759
 7781SOL    HW134979   0.098   3.772   0.308 -1.0413 -1.7519 -0.4249
 7781SOL    HW234980   0.214   3.695   0.264  0.6963  0.5008 -0.3728
 7782SOL     OW34981   3.678   3.155  13.279  0.1902 -0.2447  0.3518
 7782SOL    HW134982   3.643   3.240  13.305  2.7571  0.9211 -0.0095
 7782SOL    HW234983   3.764   3.147  13.322  0.4165 -2.4691 -0.5178
 7783SOL     OW34984   3.834   3.084  16.878 -0.2073 -0.4553 -0.2506
 7783SOL    HW134985   3.832   3.134  16.959 -0.2058 -1.2282  0.2325
 7783SOL    HW234986   3.756   3.028  16.886  0.1257 -1.0476 -1.1651
 7784SOL     OW34987   2.125   1.629   6.220 -0.1198  0.1844 -0.6780
 7784SOL    HW134988   2.099   1.704   6.272  0.3060 -0.2871  0.2141
 7784SOL    HW234989   2.207   1.609   6.265 -1.6147 -2.6744  0.7688
 7785SOL     OW34990   4.532   3.425   8.809  0.3390 -0.7988 -0.2143
 7785SOL    HW134991   4.550   3.515   8.780  1.9608 -1.5848 -1.6028
 7785SOL    HW234992   4.444   3.417   8.772  0.9272 -2.1893 -1.3110
 7786SOL     OW34993   0.696   0.649  11.949 -0.1247 -0.5016  0.1485
 7786SOL    HW134994   0.728   0.705  11.878 -0.1172  2.1652  2.2502
 7786SOL    HW234995   0.671   0.567  11.908  1.9295 -2.0066  1.9450
 7787SOL     OW34996   3.699   0.955   6.803  0.3056  0.4329 -0.0531
 7787SOL    HW134997   3.738   0.958   6.890 -2.5916  1.4615  1.1832
 7787SOL    HW234998   3.681   0.862   6.796 -0.9200  0.7507 -1.2746
 7788SOL     OW34999   3.053   3.049   2.534  0.1731  0.1638  0.2281
 7788SOL    HW135000   3.124   2.991   2.505  1.6114  1.1279  1.7989
 7788SOL    HW235001   2.974   3.007   2.500 -0.1950  1.7045 -0.8283
 7789SOL     OW35002   4.307   3.831   8.633 -0.1240 -0.0363 -0.1837
 7789SOL    HW135003   4.284   3.917   8.667  2.2446 -0.0805  1.5584
 7789SOL    HW235004   4.234   3.823   8.572  0.5071  0.8705 -1.0677
 7790SOL     OW35005   4.245   3.331  13.178  0.0076  0.1546  0.0097
 7790SOL    HW135006   4.181   3.393  13.213  0.0793 -0.6650  1.5537
 7790SOL    HW235007   4.218   3.339  13.086  1.9312 -0.7837 -0.6388
 7791SOL     OW35008   3.860   0.877   7.046  0.7086  0.0182 -0.3966
 7791SOL    HW135009   3.948   0.839   7.036  0.8699 -0.0793  1.3934
 7791SOL    HW235010   3.873   0.938   7.118 -2.7043 -0.3589  0.5120
 7792SOL     OW35011   0.034   0.792   1.486 -0.1761 -0.1588  0.2639
 7792SOL    HW135012   0.033   0.878   1.443 -1.1464  0.0718  0.7570
 7792SOL    HW235013   0.013   0.818   1.576  1.4454  0.1165  0.5744
 7793SOL     OW35014   0.791   1.731   2.191 -0.1782  0.4079 -0.6758
 7793SOL    HW135015   0.710   1.736   2.240  0.0010 -1.6134 -0.1880
 7793SOL    HW235016   0.755   1.728   2.102  1.1803 -0.5296 -1.2072
 7794SOL     OW35017   0.304   0.559  11.817  0.1156 -0.0649  0.1667
 7794SOL    HW135018   0.248   0.557  11.895  0.4626  4.8297  0.5610
 7794SOL    HW235019   0.263   0.622  11.757  2.3699  0.6348 -0.6117
 7795SOL     OW35020   3.471   1.038   7.658 -0.1427  0.2132  0.4235
 7795SOL    HW135021   3.483   0.970   7.724 -0.3998 -0.1578  0.0852
 7795SOL    HW235022   3.377   1.027   7.645 -0.0787 -0.9850  1.0422
 7796SOL     OW35023   2.829   0.698   9.306  0.1833  0.8393  0.2685
 7796SOL    HW135024   2.825   0.622   9.363 -2.7073  1.5698  1.0009
 7796SOL    HW235025   2.843   0.652   9.223 -2.0807 -0.8664  0.8370
 7797SOL     OW35026   4.432   2.624   7.391 -0.1762  0.1888 -0.1978
 7797SOL    HW135027   4.466   2.607   7.478 -1.7792 -0.6436  0.2765
 7797SOL    HW235028   4.451   2.547   7.337 -2.0699  1.1003 -2.1778
 7798SOL     OW35029   4.492   3.686   3.641  0.0621 -0.2798  0.5565
 7798SOL    HW135030   4.525   3.770   3.612 -0.0236 -0.6538 -0.6041
 7798SOL    HW235031   4.537   3.633   3.576 -0.4023  1.4988 -1.1835
 7799SOL     OW35032   4.314   1.754   4.991 -0.2464 -0.2518  0.1533
 7799SOL    HW135033   4.289   1.697   5.064  0.6611 -0.7681  0.0722
 7799SOL    HW235034   4.305   1.843   5.023  1.0090 -0.1335  0.1644
 7800SOL     OW35035   1.448   2.882   3.532 -0.4658  0.2174 -0.6489
 7800SOL    HW135036   1.426   2.793   3.558  1.3074  0.1514  0.6343
 7800SOL    HW235037   1.406   2.935   3.600 -1.9058  0.8070 -2.0108
 7801SOL     OW35038   0.807   4.347   9.153 -0.1592 -0.8916 -0.1303
 7801SOL    HW135039   0.729   4.326   9.102 -1.0941 -0.4706  1.1324
 7801SOL    HW235040   0.788   4.290   9.227  0.7603 -3.1738 -1.6334
 7802SOL     OW35041   1.941   3.050   6.546 -0.6204  0.3982  0.3999
 7802SOL    HW135042   1.956   2.991   6.472  0.8652  0.4454  0.6757
 7802SOL    HW235043   1.893   3.123   6.508 -0.5132 -0.0711 -0.6328
 7803SOL     OW35044   0.301   3.367   6.959 -0.1680  0.3853  0.6529
 7803SOL    HW135045   0.374   3.352   7.020  1.2396  0.8453 -0.9097
 7803SOL    HW235046   0.229   3.330   7.008 -1.1403  3.2099  1.3836
 7804SOL     OW35047   3.738   2.160   4.229  0.1008  0.0524 -0.5836
 7804SOL    HW135048   3.756   2.236   4.285 -1.2740  1.2852 -1.8309
 7804SOL    HW235049   3.643   2.161   4.224  0.2729  0.8722 -3.4369
 7805SOL     OW35050   2.445   3.504   5.511  0.4838 -0.1196  0.1631
 7805SOL    HW135051   2.371   3.464   5.558 -0.3801 -0.7575 -1.7174
 7805SOL    HW235052   2.490   3.428   5.473 -0.4191 -2.1834  3.1676
 7806SOL     OW35053   2.234   2.582   6.928 -0.0866  0.2467  0.2701
 7806SOL    HW135054   2.177   2.659   6.925 -2.1411 -1.2755  0.3428
 7806SOL    HW235055   2.268   2.611   6.843  0.7901  1.1605  0.9375
 7807SOL     OW35056   2.077   3.888  15.580 -0.1915 -0.6499 -0.2187
 7807SOL    HW135057   2.068   3.793  15.579  1.6016 -0.8414  0.9937
 7807SOL    HW235058   2.173   3.891  15.580 -0.2353  1.1485 -1.4195
 7808SOL     OW35059   4.645   2.523  10.446 -0.0833 -0.4231  0.4355
 7808SOL    HW135060   4.559   2.560  10.424  0.2887 -1.0482 -2.0861
 7808SOL    HW235061   4.655   2.549  10.538  1.3146  0.7505 -0.0435
 7809SOL     OW35062   3.096   0.537   2.793  0.0331 -0.5478 -0.2531
 7809SOL    HW135063   3.039   0.463   2.770 -0.6513  0.0588 -0.5144
 7809SOL    HW235064   3.094   0.528   2.888 -0.3154  0.8621 -0.1278
 7810SOL     OW35065   2.900   1.730  11.589  0.3249 -0.4948  0.1226
 7810SOL    HW135066   2.818   1.685  11.568 -0.7626  0.6968  1.7494
 7810SOL    HW235067   2.876   1.821  11.571 -1.7645 -0.7874  1.5031
 7811SOL     OW35068   3.858   4.367   3.429  0.2523  0.1428 -0.0908
 7811SOL    HW135069   3.926   4.434   3.419  1.3477 -0.9978 -0.3349
 7811SOL    HW235070   3.912   4.294   3.458  0.1132  0.7882  1.7653
 7812SOL     OW35071   1.426   1.801  13.666 -0.5329  0.4904 -0.0780
 7812SOL    HW135072   1.515   1.835  13.676 -0.0389  0.0131 -2.6536
 7812SOL    HW235073   1.415   1.776  13.758  2.4706  0.4631  0.2669
 7813SOL     OW35074   0.408   4.007  12.700 -0.0226 -0.0826  0.6461
 7813SOL    HW135075   0.442   3.948  12.632  1.1942 -3.4090  4.0860
 7813SOL    HW235076   0.472   4.078  12.700  0.9375 -0.9469  0.3653
 7814SOL     OW35077   0.525   1.892   9.026  0.1541  0.3528 -0.7281
 7814SOL    HW135078   0.514   1.824   9.092  2.6974  1.5330  0.9211
 7814SOL    HW235079   0.448   1.949   9.038 -0.6576 -0.8817 -0.0326
 7815SOL     OW35080   0.816   1.585  15.339 -0.3733 -0.2060  0.4258
 7815SOL    HW135081   0.838   1.502  15.298  2.8999  0.5869  0.6225
 7815SOL    HW235082   0.850   1.570  15.428 -1.0787 -1.0940  0.5469
 7816SOL     OW35083   2.229   4.531   9.204 -0.2992  0.1651  0.3024
 7816SOL    HW135084   2.152   4.474   9.202 -0.4854  0.3984  0.6914
 7816SOL    HW235085   2.269   4.538   9.117 -2.4209  1.4709 -0.6014
 7817SOL     OW35086   1.528   1.099  11.580 -0.1696  0.4442 -0.3371
 7817SOL    HW135087   1.568   1.118  11.665  1.3833  0.2268 -1.0195
 7817SOL    HW235088   1.587   1.034  11.543  0.8810  1.0080  0.3354
 7818SOL     OW35089   0.771   4.717   2.029  0.0623 -0.2365  0.2770
 7818SOL    HW135090   0.676   4.713   2.045  0.3974 -3.6178  1.5668
 7818SOL    HW235091   0.791   4.661   1.954 -0.2216 -1.2441  0.9506
 7819SOL     OW35092   1.138   0.906   6.323 -0.1410  0.5046 -0.5422
 7819SOL    HW135093   1.219   0.933   6.366 -1.2500  1.3938  0.9650
 7819SOL    HW235094   1.081   0.889   6.397 -2.0636  1.2297 -1.8629
 7820SOL     OW35095   1.864   0.915   2.340 -0.5725 -0.3825 -0.4126
 7820SOL    HW135096   1.778   0.873   2.341 -1.7739  2.2441  4.4121
 7820SOL    HW235097   1.900   0.886   2.256  3.7543  0.7367  1.0529
 7821SOL     OW35098   2.562   0.090   4.003  0.1385 -0.3029 -0.3770
 7821SOL    HW135099   2.639   0.053   3.959  0.3823 -0.2486  0.0062
 7821SOL    HW235100   2.598   0.159   4.058 -1.0919 -0.2266  0.3185
 7822SOL     OW35101   1.423   2.381  15.959 -0.1353  0.6894 -0.0048
 7822SOL    HW135102   1.335   2.406  15.933  1.3099  2.9681 -2.7966
 7822SOL    HW235103   1.424   2.301  15.906  1.6364  0.1233  0.8529
 7823SOL     OW35104   4.642   4.117  13.935  0.6542  0.2250  0.4713
 7823SOL    HW135105   4.618   4.164  13.855  1.5055  0.8747  0.5923
 7823SOL    HW235106   4.561   4.094  13.979  0.3537 -0.9911 -0.6983
 7824SOL     OW35107   1.792   4.329   5.878  0.7239 -0.2288  0.2163
 7824SOL    HW135108   1.722   4.271   5.848  3.1680 -2.3821 -1.3921
 7824SOL    HW235109   1.830   4.258   5.930  0.2655 -1.4799 -1.1507
 7825SOL     OW35110   3.943   0.365  13.337 -0.0135  0.3910 -0.4198
 7825SOL    HW135111   3.850   0.358  13.359  0.0995  0.2917  0.0337
 7825SOL    HW235112   3.991   0.347  13.418  0.7361  1.2637 -0.6753
 7826SOL     OW35113   3.397   1.399  14.638  0.3980 -0.0753 -0.4371
 7826SOL    HW135114   3.429   1.362  14.719  1.4653  1.1577 -0.2965
 7826SOL    HW235115   3.474   1.448  14.610  0.2690  0.7730  0.7072
 7827SOL     OW35116   2.005   0.956  12.149  0.1074 -0.2382  0.1836
 7827SOL    HW135117   2.100   0.957  12.152  0.0981  1.4859 -0.5741
 7827SOL    HW235118   2.000   0.915  12.063 -0.6324 -0.5091  0.3525
 7828SOL     OW35119   4.222   1.873  13.771  0.9495  0.2322 -0.5148
 7828SOL    HW135120   4.176   1.908  13.847  0.1102 -1.9636 -0.0073
 7828SOL    HW235121   4.158   1.887  13.701  0.1459 -2.7314 -0.3511
 7829SOL     OW35122   2.355   2.846  13.692 -0.2863 -0.6640 -0.3838
 7829SOL    HW135123   2.282   2.895  13.732 -0.7022 -1.2977 -0.3639
 7829SOL    HW235124   2.320   2.760  13.668  0.5076 -1.1386  0.1597
 7830SOL     OW35125   4.132   2.721   4.678 -0.2103  0.3596 -0.0168
 7830SOL    HW135126   4.196   2.681   4.619  0.1883  1.9235 -0.6482
 7830SOL    HW235127   4.086   2.779   4.617  0.2877 -0.9748 -1.6425
 7831SOL     OW35128   0.678   1.362   8.062 -0.5074 -0.4743 -0.4343
 7831SOL    HW135129   0.708   1.275   8.090  0.0680  0.1144  0.7811
 7831SOL    HW235130   0.585   1.341   8.054 -0.7045 -0.0119  0.6756
 7832SOL     OW35131   3.650   2.947  16.995  0.0919  0.2200  0.2396
 7832SOL    HW135132   3.567   2.901  17.006 -0.9188  1.7877 -0.7704
 7832SOL    HW235133   3.717   2.879  17.003  1.3336  1.4820  0.6978
 7833SOL     OW35134   3.110   1.427   4.630 -0.4678  0.3267  0.8404
 7833SOL    HW135135   3.155   1.470   4.557  0.4992 -1.4139  0.4206
 7833SOL    HW235136   3.110   1.501   4.691  1.2022  1.9839 -1.1735
 7834SOL     OW35137   3.818   2.144  13.733 -0.3148  0.1859 -0.2067
 7834SOL    HW135138   3.724   2.142  13.713 -0.2122  3.5462 -1.0374
 7834SOL    HW235139   3.859   2.135  13.647  0.5455 -0.7958  0.3145
 7835SOL     OW35140   0.038   2.845   3.406 -0.0790  0.6707 -0.5221
 7835SOL    HW135141   0.035   2.939   3.423  0.5630  0.7309 -0.7185
 7835SOL    HW235142   4.685   2.834   3.383 -0.4096  2.4231 -0.0613
 7836SOL     OW35143   1.688   1.002  10.035 -0.4281  0.1409  0.4135
 7836SOL    HW135144   1.598   1.034  10.045  0.6227  3.2430 -0.2298
 7836SOL    HW235145   1.736   1.071   9.990  1.3133  0.5590  2.8645
 7837SOL     OW35146   3.543   1.509   8.550  0.1067  0.3415  0.2993
 7837SOL    HW135147   3.462   1.491   8.503 -0.4146  1.5275  0.7496
 7837SOL    HW235148   3.556   1.421   8.587  1.6518  0.3455 -0.2512
 7838SOL     OW35149   1.987   0.459   2.018 -0.4090 -0.0652 -0.2658
 7838SOL    HW135150   1.991   0.402   2.094  1.9480  2.8299  1.7965
 7838SOL    HW235151   1.913   0.425   1.968  0.8654 -0.2740 -2.0209
 7839SOL     OW35152   3.277   4.415   3.476 -0.3008 -0.5796  0.2237
 7839SOL    HW135153   3.235   4.440   3.559 -0.1760 -0.9909  0.4127
 7839SOL    HW235154   3.253   4.323   3.476  0.1541 -0.6850 -1.8108
 7840SOL     OW35155   3.927   3.193   7.741 -0.1916 -0.0300 -0.0518
 7840SOL    HW135156   3.952   3.226   7.828 -0.3160  0.5271 -0.2288
 7840SOL    HW235157   3.983   3.116   7.735 -0.3098 -0.1218  0.0268
 7841SOL     OW35158   0.072   3.705   9.789 -0.5305 -0.5835 -0.4179
 7841SOL    HW135159   0.027   3.777   9.744  0.0630  0.4411  0.6339
 7841SOL    HW235160   0.087   3.744   9.875 -0.8719  0.9256 -1.0377
 7842SOL     OW35161   2.563   3.310  12.332 -0.6374 -0.0348 -0.5205
 7842SOL    HW135162   2.635   3.282  12.389 -0.4580  0.5910 -0.4380
 7842SOL    HW235163   2.582   3.403  12.345 -0.5251  0.1092 -1.7520
 7843SOL     OW35164   0.504   2.291   2.009 -0.2953 -0.3243  0.1821
 7843SOL    HW135165   0.546   2.360   1.958  0.6614 -0.2319  1.0743
 7843SOL    HW235166   0.459   2.347   2.073 -0.3325 -0.0384 -0.0924
 7844SOL     OW35167   0.985   4.543  12.753  0.5218  0.2036 -0.5792
 7844SOL    HW135168   1.015   4.601  12.823  2.0343 -1.7898  0.4351
 7844SOL    HW235169   1.023   4.579  12.673  0.0806  1.6273 -0.1339
 7845SOL     OW35170   1.177   0.313  11.628  0.3853  0.0290  0.5089
 7845SOL    HW135171   1.134   0.377  11.685 -2.4625 -1.8319  0.4425
 7845SOL    HW235172   1.265   0.348  11.639  0.6117 -0.8896  1.5773
 7846SOL     OW35173   1.073   1.230  15.083  0.8892 -0.2374  0.2987
 7846SOL    HW135174   1.132   1.304  15.071 -1.8119  1.5735 -1.6502
 7846SOL    HW235175   1.112   1.163  15.027 -0.5208  1.0003 -2.1405
 7847SOL     OW35176   1.517   0.774   7.732  0.3974  0.4345  0.0266
 7847SOL    HW135177   1.595   0.746   7.780  0.3178  0.5159  0.2049
 7847SOL    HW235178   1.531   0.869   7.742  0.1228  0.4797 -0.0021
 7848SOL     OW35179   1.042   2.812   4.949 -0.7122  0.2348  0.1660
 7848SOL    HW135180   1.035   2.882   4.884 -0.1582  3.8437  3.9961
 7848SOL    HW235181   1.006   2.853   5.028  0.1391  1.3175 -0.0080
 7849SOL     OW35182   2.800   4.110  15.192 -0.1150 -0.3903  0.0979
 7849SOL    HW135183   2.803   4.199  15.228 -0.2885 -0.4602  0.2847
 7849SOL    HW235184   2.859   4.115  15.117 -1.6713  0.9675 -1.0528
 7850SOL     OW35185   1.557   3.660  17.253  0.3626  0.4030 -0.6085
 7850SOL    HW135186   1.561   3.589  17.317 -1.1296  1.7629  0.9713
 7850SOL    HW235187   1.537   3.610  17.174 -1.5774 -0.1754  0.2569
 7851SOL     OW35188   4.056   3.332   7.283 -0.4245  0.1731 -0.0661
 7851SOL    HW135189   3.991   3.298   7.344 -0.0766 -0.3677  0.0002
 7851SOL    HW235190   4.130   3.334   7.344  0.6891 -1.1888 -1.3962
 7852SOL     OW35191   1.412   0.122   3.748  0.0125 -0.0864 -0.3173
 7852SOL    HW135192   1.333   0.076   3.720  1.7502 -2.1392 -1.8590
 7852SOL    HW235193   1.378   0.167   3.825  0.7906  0.9632 -0.5857
 7853SOL     OW35194   1.698   3.918   2.704 -0.2253 -0.5579 -0.4465
 7853SOL    HW135195   1.630   3.939   2.640 -1.4195  1.1362  1.3606
 7853SOL    HW235196   1.635   3.896   2.774 -0.4009 -1.2009 -0.8109
 7854SOL     OW35197   4.135   0.611  14.635  0.6966 -0.2326 -0.2590
 7854SOL    HW135198   4.067   0.677  14.619  0.1470 -0.7669 -0.1591
 7854SOL    HW235199   4.187   0.616  14.555  0.8359 -0.8874 -0.2121
 7855SOL     OW35200   2.837   1.074   8.737  0.3689 -0.2279  0.3910
 7855SOL    HW135201   2.845   1.139   8.667 -4.0576 -0.4975 -0.3341
 7855SOL    HW235202   2.806   1.002   8.682  0.2863  0.4027 -0.3913
 7856SOL     OW35203   4.583   3.256   6.599 -0.4077  0.9800 -0.2325
 7856SOL    HW135204   4.643   3.262   6.673 -1.5776 -0.5904  0.8637
 7856SOL    HW235205   4.625   3.313   6.536  2.2360 -0.6292  0.0706
 7857SOL     OW35206   1.631   2.717   8.590  0.8464 -0.4527  0.8805
 7857SOL    HW135207   1.607   2.795   8.640  0.3601 -0.9573  1.4260
 7857SOL    HW235208   1.548   2.670   8.586  0.3831  0.4832 -0.5651
 7858SOL     OW35209   0.011   2.638   1.784  0.5001 -0.1648  0.3514
 7858SOL    HW135210   4.713   2.564   1.832  0.5746 -0.4686 -0.0603
 7858SOL    HW235211   4.733   2.718   1.833  2.6920  1.0079 -0.8041
 7859SOL     OW35212   4.449   2.090   5.937  0.3219 -0.3248  0.0325
 7859SOL    HW135213   4.426   2.182   5.925 -2.4800 -0.7646  1.9141
 7859SOL    HW235214   4.543   2.082   5.924  0.6651  0.7771  1.8773
 7860SOL     OW35215   4.635   0.697  17.319 -0.1153  0.1129 -0.0705
 7860SOL    HW135216   4.669   0.765  17.377 -1.5156  0.3831  0.4332
 7860SOL    HW235217   4.543   0.697  17.342  0.3859 -0.0028  1.9410
 7861SOL     OW35218   2.011   4.623   4.664 -0.6125 -0.2554 -0.3874
 7861SOL    HW135219   1.926   4.637   4.621 -0.3959  3.7523  0.4801
 7861SOL    HW235220   1.995   4.669   4.746 -2.9899 -0.6261 -0.6169
 7862SOL     OW35221   4.314   1.321   3.028 -0.0807  0.4923  0.0422
 7862SOL    HW135222   4.370   1.272   2.968 -1.8666 -0.5328 -0.7885
 7862SOL    HW235223   4.374   1.322   3.103  0.8416 -0.4152 -0.6639
 7863SOL     OW35224   1.818   0.413   8.955  0.1049  0.5211  0.0917
 7863SOL    HW135225   1.822   0.440   8.863 -0.4365  1.7292  0.4292
 7863SOL    HW235226   1.896   0.455   8.990  1.3579 -0.5241 -1.4485
 7864SOL     OW35227   2.417   4.469  14.356 -0.1824  0.6821  0.4723
 7864SOL    HW135228   2.431   4.430  14.442 -2.5789 -1.3419 -0.0462
 7864SOL    HW235229   2.498   4.447  14.308  0.9269 -1.0664  3.1474
 7865SOL     OW35230   3.208   3.411   2.576  0.0874 -0.2118  0.6578
 7865SOL    HW135231   3.224   3.348   2.646 -0.4258 -1.8745 -0.7413
 7865SOL    HW235232   3.119   3.439   2.601 -0.0841 -0.3624  0.2129
 7866SOL     OW35233   0.965   3.325   1.237  0.7293 -0.2895  0.1518
 7866SOL    HW135234   0.932   3.235   1.229 -0.5010  0.2101 -0.4187
 7866SOL    HW235235   1.049   3.312   1.282  0.5760  0.6760  0.7204
 7867SOL     OW35236   1.501   0.423  15.890 -0.1993  0.0427 -0.0388
 7867SOL    HW135237   1.460   0.494  15.940  1.2933  1.6012 -1.0144
 7867SOL    HW235238   1.524   0.478  15.815 -0.6373 -0.9957 -0.9377
 7868SOL     OW35239   2.342   1.589   8.160  0.6666  0.2361  0.3377
 7868SOL    HW135240   2.370   1.526   8.094 -3.2891  1.0007 -2.0657
 7868SOL    HW235241   2.262   1.550   8.196  1.5324  0.9189  3.0163
 7869SOL     OW35242   3.868   0.765  16.024  0.4565 -0.3209  0.1523
 7869SOL    HW135243   3.840   0.813  15.946  0.7695 -0.0145  0.2262
 7869SOL    HW235244   3.878   0.676  15.992  3.2450 -0.5085  1.5419
 7870SOL     OW35245   0.548   0.660   4.162  0.5571  0.2988 -0.4695
 7870SOL    HW135246   0.554   0.687   4.070 -0.0546  1.9298 -0.0299
 7870SOL    HW235247   0.638   0.635   4.183 -0.0498 -2.6356 -1.2396
 7871SOL     OW35248   1.227   3.551   1.902 -0.0089  0.1000 -0.1683
 7871SOL    HW135249   1.252   3.541   1.994  1.4746  1.9217 -0.3719
 7871SOL    HW235250   1.216   3.461   1.874 -3.2247 -0.2097  2.1236
 7872SOL     OW35251   3.413   1.220  15.195  0.4374 -0.6038  0.4684
 7872SOL    HW135252   3.418   1.231  15.100 -0.3644 -1.1422  0.3648
 7872SOL    HW235253   3.319   1.220  15.213 -0.0971  1.7676 -2.3855
 7873SOL     OW35254   0.867   3.965   7.262 -0.1959  0.2306  0.2333
 7873SOL    HW135255   0.848   3.883   7.218 -1.7576  1.0469 -0.6145
 7873SOL    HW235256   0.824   3.956   7.347  0.9153 -1.5088  0.6072
 7874SOL     OW35257   1.125   2.142   4.593  0.2257 -0.2549  0.1835
 7874SOL    HW135258   1.154   2.102   4.674 -0.3931  2.2760  1.6496
 7874SOL    HW235259   1.031   2.152   4.604 -0.2194  0.0816 -3.8575
 7875SOL     OW35260   3.062   1.207   5.697 -0.2766 -0.1254  0.4528
 7875SOL    HW135261   2.996   1.174   5.636 -0.2433  0.2032  0.2410
 7875SOL    HW235262   3.091   1.287   5.654 -1.1990  0.2484  0.5151
 7876SOL     OW35263   0.590   2.078   5.166 -0.0222  0.0023 -0.6530
 7876SOL    HW135264   0.534   2.002   5.180  0.4421 -0.0703  0.7989
 7876SOL    HW235265   0.553   2.141   5.228  0.1538 -0.9253  0.3939
 7877SOL     OW35266   3.005   0.657   4.562 -0.6140 -0.3948 -0.3615
 7877SOL    HW135267   3.078   0.628   4.617 -0.6783 -0.9843 -0.5899
 7877SOL    HW235268   3.027   0.750   4.555 -1.5880 -0.2735 -1.9176
 7878SOL     OW35269   1.784   1.285   1.988 -0.5361 -0.1752 -0.0583
 7878SOL    HW135270   1.827   1.230   2.053  0.2575  2.5850  1.7555
 7878SOL    HW235271   1.703   1.238   1.970 -0.7082  0.0386  0.1545
 7879SOL     OW35272   1.565   3.914   3.774  0.5593  0.0884 -0.2241
 7879SOL    HW135273   1.516   3.984   3.816 -0.2600  0.7592 -2.3002
 7879SOL    HW235274   1.594   3.867   3.852 -0.7843  1.2889  0.9959
 7880SOL     OW35275   0.694   1.097   8.120 -0.0467 -0.3525  0.1886
 7880SOL    HW135276   0.666   1.061   8.036  1.9281  0.4604 -0.8254
 7880SOL    HW235277   0.631   1.059   8.181  1.3362  0.9997  2.4498
 7881SOL     OW35278   0.130   0.785   9.850 -0.0781  0.6523 -0.0330
 7881SOL    HW135279   0.202   0.741   9.895 -0.6348 -0.7405 -0.5025
 7881SOL    HW235280   0.172   0.871   9.849  1.1826  0.0871  2.3539
 7882SOL     OW35281   1.361   2.747   5.551  0.4878  0.4311 -0.1088
 7882SOL    HW135282   1.282   2.776   5.505  0.8394  0.1535 -0.8845
 7882SOL    HW235283   1.329   2.689   5.620  2.5744 -0.4467  0.1085
 7883SOL     OW35284   0.751   2.234   7.921 -0.4833  0.5329 -0.4091
 7883SOL    HW135285   0.663   2.206   7.947 -0.3444 -1.7110 -2.2893
 7883SOL    HW235286   0.792   2.217   8.005  1.4046  1.9525 -1.0467
 7884SOL     OW35287   3.807   4.326  11.720  0.1642 -0.3824  0.4462
 7884SOL    HW135288   3.824   4.233  11.705  0.8697 -0.1684 -0.0514
 7884SOL    HW235289   3.802   4.366  11.634  1.7799  0.3062  0.6790
 7885SOL     OW35290   3.472   3.500   8.910  0.4019 -0.1835  0.2983
 7885SOL    HW135291   3.526   3.522   8.986 -1.2047 -1.3567  1.7933
 7885SOL    HW235292   3.385   3.517   8.947  0.4079 -0.6439  0.5228
 7886SOL     OW35293   0.871   3.125   2.882 -0.3362 -0.2235  0.0725
 7886SOL    HW135294   0.889   3.216   2.858  0.5608 -0.2324  0.7197
 7886SOL    HW235295   0.788   3.110   2.838  0.4907 -1.0586 -1.2339
 7887SOL     OW35296   3.545   1.190   4.004 -0.0521  0.4285 -0.2039
 7887SOL    HW135297   3.596   1.123   4.049 -3.1907 -0.9570  1.3075
 7887SOL    HW235298   3.488   1.227   4.072 -1.1642 -0.9461 -0.3636
 7888SOL     OW35299   2.585   2.271   6.939 -0.6060  0.4794  0.4944
 7888SOL    HW135300   2.649   2.224   6.993 -0.7390 -0.0114  0.2156
 7888SOL    HW235301   2.627   2.357   6.938  1.5987 -0.6225 -0.7707
 7889SOL     OW35302   2.410   3.514   9.132  0.0820 -0.2303 -0.2269
 7889SOL    HW135303   2.479   3.455   9.102 -0.3652 -0.7294 -0.2846
 7889SOL    HW235304   2.461   3.595   9.134  1.1364 -0.8213 -2.2281
 7890SOL     OW35305   4.026   4.172  14.655 -0.0618 -0.1564  0.0391
 7890SOL    HW135306   4.096   4.233  14.629  1.4016 -1.6337  0.5133
 7890SOL    HW235307   4.092   4.109  14.684  0.9877  0.8198 -0.2214
 7891SOL     OW35308   0.647   2.482   7.596  0.0789  0.7536  0.1158
 7891SOL    HW135309   0.706   2.408   7.610 -0.4708  0.0120 -1.4668
 7891SOL    HW235310   0.653   2.481   7.500  0.5900 -1.5744  0.1765
 7892SOL     OW35311   1.128   2.169   4.957  0.1113 -0.0812 -0.1787
 7892SOL    HW135312   1.201   2.230   4.962  0.8688 -1.2236  2.3307
 7892SOL    HW235313   1.170   2.085   4.938  2.1378  0.4117  2.0675
 7893SOL     OW35314   2.529   1.876   4.108  0.2665  0.1902  0.7784
 7893SOL    HW135315   2.452   1.857   4.053  0.0345  0.2763  1.0734
 7893SOL    HW235316   2.566   1.789   4.118  0.1681  0.1800  1.0517
 7894SOL     OW35317   2.246   1.940   4.212 -0.5745  0.2474  0.3107
 7894SOL    HW135318   2.167   1.887   4.206  0.3767 -1.1435  0.0331
 7894SOL    HW235319   2.278   1.937   4.122  1.9543  0.2454  1.2006
 7895SOL     OW35320   4.689   1.122  13.520 -0.1675 -0.1479  0.3200
 7895SOL    HW135321   4.702   1.190  13.586  1.6191  0.3534 -0.5623
 7895SOL    HW235322   4.593   1.123  13.514 -0.1264 -2.7653 -0.8760
 7896SOL     OW35323   2.492   4.327   7.871 -0.3707 -0.0317 -0.4239
 7896SOL    HW135324   2.534   4.340   7.957  0.7311 -0.8246 -0.8480
 7896SOL    HW235325   2.501   4.408   7.820  2.5116 -0.0580  0.0246
 7897SOL     OW35326   0.852   3.083   7.392 -0.2798  0.5756 -0.0639
 7897SOL    HW135327   0.807   2.998   7.395 -1.1495  1.0561  0.6093
 7897SOL    HW235328   0.905   3.084   7.312 -0.0734  1.1620  0.0894
 7898SOL     OW35329   1.544   2.515   1.674 -0.0971 -0.1253 -0.0200
 7898SOL    HW135330   1.581   2.521   1.585 -2.1475 -0.7218 -0.9152
 7898SOL    HW235331   1.600   2.458   1.726 -1.4292  0.0416  1.5608
 7899SOL     OW35332   2.258   1.717   2.540  0.6792 -0.5783  0.2047
 7899SOL    HW135333   2.300   1.654   2.481  0.9959 -1.0898  0.9781
 7899SOL    HW235334   2.305   1.794   2.508 -0.3999 -1.3350 -3.1631
 7900SOL     OW35335   0.474   2.039   4.354  0.8175  0.1917 -0.1147
 7900SOL    HW135336   0.523   1.984   4.292  1.9514  0.8668  0.1881
 7900SOL    HW235337   0.533   2.113   4.368  1.6729  0.1299 -3.3224
 7901SOL     OW35338   2.993   2.631   5.553 -0.2811 -0.1793  0.3993
 7901SOL    HW135339   3.044   2.594   5.481  0.0666 -1.9885  1.5644
 7901SOL    HW235340   3.056   2.683   5.602 -0.1070 -1.3702  1.4616
 7902SOL     OW35341   1.691   3.783   4.818 -0.1749 -0.4478 -0.0798
 7902SOL    HW135342   1.696   3.809   4.726  1.2634  0.3917  0.2433
 7902SOL    HW235343   1.599   3.757   4.817 -0.1278 -0.6188  0.1388
 7903SOL     OW35344   3.616   4.397   8.634  0.7108  0.0389 -0.0962
 7903SOL    HW135345   3.691   4.340   8.624 -0.1738 -1.4736  2.0634
 7903SOL    HW235346   3.631   4.418   8.726 -0.7563 -0.9267  0.3591
 7904SOL     OW35347   4.425   3.625   1.190  0.1444 -0.2330  0.4156
 7904SOL    HW135348   4.415   3.548   1.134 -1.6798  0.1897  0.1743
 7904SOL    HW235349   4.352   3.677   1.156 -0.6530 -0.2773  2.0838
 7905SOL     OW35350   1.929   2.762   8.174  0.0865 -0.3202  0.5496
 7905SOL    HW135351   2.005   2.821   8.174 -1.5504  1.7702  0.2106
 7905SOL    HW235352   1.869   2.791   8.242  0.4630  1.2523  0.2316
 7906SOL     OW35353   0.775   4.401  12.833  0.0828  0.0920 -0.4859
 7906SOL    HW135354   0.725   4.477  12.862  1.3824  0.0186  1.9949
 7906SOL    HW235355   0.851   4.447  12.799  2.1328 -1.5996  1.8630
 7907SOL     OW35356   2.577   2.316   6.595  0.5653  0.0251 -0.5262
 7907SOL    HW135357   2.598   2.405   6.623  1.4708 -0.6778  0.9965
 7907SOL    HW235358   2.646   2.274   6.645  1.2764  3.2410  1.1909
 7908SOL     OW35359   2.902   0.907  13.961 -0.0022  0.0825  0.0688
 7908SOL    HW135360   2.972   0.962  13.995  0.5910 -0.2337 -0.6417
 7908SOL    HW235361   2.863   0.887  14.047 -1.8990  0.3278 -0.7238
 7909SOL     OW35362   0.939   4.404   7.922 -0.2153 -0.0341 -0.3281
 7909SOL    HW135363   0.982   4.436   8.001 -0.9085 -0.6734  0.3068
 7909SOL    HW235364   0.918   4.317   7.954 -1.6180 -0.5022 -2.5166
 7910SOL     OW35365   4.159   4.369   2.957  0.3382  0.7175  0.3620
 7910SOL    HW135366   4.206   4.343   3.036  0.1875 -0.2945  0.1249
 7910SOL    HW235367   4.227   4.345   2.894 -0.1268 -0.3201  0.2572
 7911SOL     OW35368   0.429   0.503   9.374  0.7107  0.3091 -0.1787
 7911SOL    HW135369   0.403   0.421   9.331 -1.0826  0.7448  0.0480
 7911SOL    HW235370   0.373   0.495   9.451 -1.1226  0.6587 -1.4630
 7912SOL     OW35371   1.698   2.637   3.260  0.7625 -0.2224  0.1761
 7912SOL    HW135372   1.663   2.723   3.236  0.1176  0.0768  2.1757
 7912SOL    HW235373   1.786   2.649   3.295  1.2794 -1.9740 -0.5312
 7913SOL     OW35374   4.573   1.221   4.762  0.1399 -0.2712 -0.4076
 7913SOL    HW135375   4.611   1.186   4.681  1.1778 -0.2178  0.0493
 7913SOL    HW235376   4.644   1.278   4.791 -1.4410  0.9708  1.0096
 7914SOL     OW35377   1.636   2.282   2.751  0.0089  0.4238 -0.0320
 7914SOL    HW135378   1.627   2.227   2.829 -1.6660  0.3597 -0.2611
 7914SOL    HW235379   1.542   2.296   2.736 -0.4042  1.1458  3.2874
 7915SOL     OW35380   3.134   1.632   4.083  0.2205  0.1699 -0.5690
 7915SOL    HW135381   3.078   1.617   4.160  2.7355  0.4438  1.2982
 7915SOL    HW235382   3.070   1.624   4.012 -0.2716 -2.2329  0.1557
 7916SOL     OW35383   4.371   0.086   8.238 -0.2802  0.0151 -0.0698
 7916SOL    HW135384   4.394   0.005   8.284 -1.0124 -0.8041 -1.1528
 7916SOL    HW235385   4.424   0.082   8.158 -0.3529  2.1715 -0.2269
 7917SOL     OW35386   3.591   2.531   7.329 -0.3588  0.1280 -0.1511
 7917SOL    HW135387   3.606   2.619   7.294 -0.0019  0.8777  1.8752
 7917SOL    HW235388   3.670   2.487   7.296 -1.9175 -2.0954 -0.9160
 7918SOL     OW35389   0.367   0.869   1.165 -0.4766  0.3986  0.2127
 7918SOL    HW135390   0.311   0.841   1.092  3.2091  0.0421 -2.4476
 7918SOL    HW235391   0.448   0.899   1.124 -0.7688 -1.4574 -1.7193
 7919SOL     OW35392   1.984   2.161   5.443 -0.1404 -0.1711 -0.6976
 7919SOL    HW135393   1.964   2.167   5.350 -0.4060 -0.4798 -0.6627
 7919SOL    HW235394   2.079   2.157   5.442 -0.1045  0.0914  1.7889
 7920SOL     OW35395   3.986   4.587  16.052  0.0096 -0.0945 -0.5233
 7920SOL    HW135396   3.941   4.588  15.967 -0.4428  0.5312 -0.2809
 7920SOL    HW235397   3.970   4.496  16.077 -1.4778  0.5945  1.1066
 7921SOL     OW35398   2.779   2.664   2.056 -0.5125  0.2659  0.1939
 7921SOL    HW135399   2.697   2.684   2.011 -1.1064  1.3735  1.7779
 7921SOL    HW235400   2.752   2.637   2.143 -0.6666 -1.9700 -0.5420
 7922SOL     OW35401   3.337   3.290  17.613  0.0877 -0.0622 -0.1367
 7922SOL    HW135402   3.391   3.267  17.537  1.9550 -0.6642  1.3732
 7922SOL    HW235403   3.281   3.357  17.575  1.7339 -0.2452 -2.8878
 7923SOL     OW35404   1.945   2.639  16.198  0.1714 -0.2648 -0.2150
 7923SOL    HW135405   1.975   2.691  16.123 -0.8640 -0.9176 -1.0706
 7923SOL    HW235406   1.887   2.576  16.155 -1.0008  0.7925 -0.1747
 7924SOL     OW35407   3.249   2.767  17.390 -0.0639  0.3778  0.3048
 7924SOL    HW135408   3.230   2.854  17.425 -0.9812  0.9140 -1.5219
 7924SOL    HW235409   3.337   2.788  17.358 -1.1132  2.4947 -1.1844
 7925SOL     OW35410   2.162   2.501   3.639 -0.4518 -0.3710  0.3186
 7925SOL    HW135411   2.136   2.587   3.605  0.6848 -0.1655 -0.0168
 7925SOL    HW235412   2.085   2.486   3.695 -0.4444  0.4701  0.5591
 7926SOL     OW35413   0.265   1.222   3.269 -0.5715  0.0924  0.4316
 7926SOL    HW135414   0.353   1.255   3.288 -0.1264 -1.4937  1.0924
 7926SOL    HW235415   0.212   1.300   3.286 -0.3382  0.5410 -0.8579
 7927SOL     OW35416   0.556   3.214   4.246 -0.5109  0.2504 -0.0782
 7927SOL    HW135417   0.596   3.240   4.328 -2.5573  1.1443  0.6301
 7927SOL    HW235418   0.632   3.218   4.187  0.4535  2.8664  1.3900
 7928SOL     OW35419   2.146   3.886   9.219 -0.4543 -0.2965  0.3406
 7928SOL    HW135420   2.077   3.895   9.285 -0.8931  0.5742 -0.2462
 7928SOL    HW235421   2.205   3.825   9.263  0.9536 -0.3559 -1.6380
 7929SOL     OW35422   3.361   2.366  11.168  0.1627  0.5381 -0.1569
 7929SOL    HW135423   3.356   2.461  11.163 -1.9533  0.5622  2.4513
 7929SOL    HW235424   3.313   2.349  11.087 -1.1167  1.1148  0.4879
 7930SOL     OW35425   0.167   0.535   0.531 -0.0539 -0.0525  0.2479
 7930SOL    HW135426   0.103   0.522   0.460 -0.5066  1.2456  0.4198
 7930SOL    HW235427   0.230   0.598   0.496 -1.4123 -0.0933 -2.2976
 7931SOL     OW35428   0.545   0.321   5.265 -0.2889 -0.0915  0.1720
 7931SOL    HW135429   0.489   0.245   5.247 -0.9910  0.7444 -1.1109
 7931SOL    HW235430   0.605   0.299   5.337  0.8005 -0.0824 -0.7296
 7932SOL     OW35431   0.807   2.013   0.946 -0.1965  0.0706  0.7333
 7932SOL    HW135432   0.823   1.932   0.994  3.9696  1.7741  2.2198
 7932SOL    HW235433   0.768   1.975   0.868 -1.9318 -1.2524  2.2578
 7933SOL     OW35434   0.236   4.055   2.225 -0.3102  0.2995  0.2571
 7933SOL    HW135435   0.273   4.113   2.159 -0.6628 -1.1248 -1.1692
 7933SOL    HW235436   0.178   3.996   2.178  0.1019 -0.2379  0.4259
 7934SOL     OW35437   3.374   3.954   5.128 -0.0928  0.0952  0.3799
 7934SOL    HW135438   3.393   3.985   5.039 -0.1743 -1.0697 -0.0508
 7934SOL    HW235439   3.281   3.942   5.112 -0.1479  1.3560 -0.2244
 7935SOL     OW35440   1.877   3.913  11.746 -0.4089 -0.2569 -0.6251
 7935SOL    HW135441   1.969   3.917  11.770 -0.8695  2.0865  0.8280
 7935SOL    HW235442   1.874   3.866  11.664  2.0672 -1.9071  0.2542
 7936SOL     OW35443   1.084   4.452   8.149 -0.3355  0.1587 -0.2343
 7936SOL    HW135444   1.169   4.442   8.192  0.3419  1.1219 -1.3727
 7936SOL    HW235445   1.088   4.541   8.114 -0.6987  1.0822  2.0660
 7937SOL     OW35446   4.694   3.307  10.959 -0.2984  0.5840 -0.2604
 7937SOL    HW135447   0.023   3.348  10.906 -2.0465  1.3383 -1.9122
 7937SOL    HW235448   0.007   3.255  11.021  1.0896  0.0980 -1.8215
 7938SOL     OW35449   1.466   4.392   9.291  0.5643  0.5196 -0.5755
 7938SOL    HW135450   1.461   4.298   9.272  1.4634 -0.2607  2.9724
 7938SOL    HW235451   1.377   4.409   9.322 -0.0334 -0.7996 -1.5475
 7939SOL     OW35452   2.003   1.121  11.400 -0.0628 -0.1574 -0.0181
 7939SOL    HW135453   2.072   1.130  11.335  0.7988 -1.8562  0.6758
 7939SOL    HW235454   2.051   1.145  11.480 -0.9535  1.8440 -0.0856
 7940SOL     OW35455   1.960   4.413  14.691 -0.4042  0.1196  0.3157
 7940SOL    HW135456   1.907   4.337  14.712  0.4463 -0.7513 -0.6664
 7940SOL    HW235457   1.958   4.450  14.779 -0.2820 -2.7422  1.5111
 7941SOL     OW35458   4.516   4.656   4.179  0.7090 -0.0519 -0.0097
 7941SOL    HW135459   4.482   4.587   4.236  1.2541  1.6409  2.4165
 7941SOL    HW235460   4.562   4.602   4.115  2.0184  0.9316  0.0867
 7942SOL     OW35461   1.175   4.390   2.396  0.8702  0.2449 -0.4077
 7942SOL    HW135462   1.230   4.431   2.462 -0.4244  1.4954 -0.0975
 7942SOL    HW235463   1.099   4.448   2.394  2.4036  2.3288  1.6143
 7943SOL     OW35464   4.024   1.747   2.831  0.0495  0.0492 -0.2003
 7943SOL    HW135465   4.056   1.826   2.874  1.0048 -2.0097  2.8470
 7943SOL    HW235466   4.087   1.679   2.858 -0.6909 -1.3082 -1.8510
 7944SOL     OW35467   0.617   3.679  14.123 -0.1420 -0.6490  0.9349
 7944SOL    HW135468   0.646   3.701  14.034 -0.4463 -1.0518  0.7395
 7944SOL    HW235469   0.618   3.766  14.162 -0.8626  0.0310 -0.5750
 7945SOL     OW35470   1.252   2.905   9.183  0.4088 -0.6907  0.1996
 7945SOL    HW135471   1.311   2.881   9.254  1.6000  1.5030 -0.0436
 7945SOL    HW235472   1.309   2.891   9.107  2.0466  0.2088  1.2639
 7946SOL     OW35473   1.534   4.034  15.664 -0.2490  0.7993  0.1196
 7946SOL    HW135474   1.538   4.128  15.646  0.0004  0.5003 -1.3162
 7946SOL    HW235475   1.627   4.011  15.666 -0.4363  0.1089  0.9012
 7947SOL     OW35476   2.989   1.677   2.640  0.3835 -0.2279 -0.0394
 7947SOL    HW135477   3.053   1.728   2.690  0.0105  0.0558  0.1475
 7947SOL    HW235478   3.039   1.596   2.646 -0.1461 -0.5221  0.3759
 7948SOL     OW35479   4.588   4.306   5.220 -0.2391 -0.4333 -0.0548
 7948SOL    HW135480   4.654   4.256   5.172 -1.0487 -1.3274 -0.2398
 7948SOL    HW235481   4.528   4.338   5.153  1.5231  5.1257  1.0528
 7949SOL     OW35482   3.904   2.538   3.910  0.6323  0.1322  0.3003
 7949SOL    HW135483   3.875   2.502   3.993 -1.9019 -0.0555 -0.6733
 7949SOL    HW235484   3.822   2.582   3.885  1.4729  1.5346 -0.0136
 7950SOL     OW35485   3.959   1.341   2.864 -0.1777 -0.0939  0.1570
 7950SOL    HW135486   4.022   1.400   2.906  0.2670  0.2988 -1.0719
 7950SOL    HW235487   3.894   1.329   2.933 -0.1386  1.4017  0.4517
 7951SOL     OW35488   1.379   2.636   8.728 -0.3911 -0.0695 -0.7000
 7951SOL    HW135489   1.360   2.554   8.774 -1.4006  0.6431  0.1685
 7951SOL    HW235490   1.291   2.669   8.713 -0.5106  0.0828  0.2872
 7952SOL     OW35491   0.929   3.090   5.389 -0.0038  0.0414  0.6398
 7952SOL    HW135492   0.906   3.182   5.403  3.0962  1.4590 -3.7690
 7952SOL    HW235493   0.858   3.045   5.436 -1.5525  0.2658 -1.4847
 7953SOL     OW35494   4.494   0.613   9.558  0.0170 -0.1468 -0.1986
 7953SOL    HW135495   4.535   0.688   9.601  0.9106 -0.6079 -0.2535
 7953SOL    HW235496   4.521   0.549   9.623  1.1361 -1.1752 -1.6738
 7954SOL     OW35497   2.715   2.890   9.760 -0.3993 -0.0039  0.2858
 7954SOL    HW135498   2.737   2.933   9.843  1.2230 -1.3564  0.5522
 7954SOL    HW235499   2.672   2.813   9.796 -1.1364 -0.2822 -1.2070
 7955SOL     OW35500   1.498   2.261   2.366 -0.1800 -0.4977 -0.0497
 7955SOL    HW135501   1.534   2.319   2.433 -1.5112 -2.7724  2.6456
 7955SOL    HW235502   1.576   2.222   2.328 -1.0300 -1.3238 -0.9328
 7956SOL     OW35503   3.534   1.973   5.508 -0.4825  0.0926  0.4043
 7956SOL    HW135504   3.463   1.916   5.539  1.6224 -1.6047  2.1570
 7956SOL    HW235505   3.490   2.047   5.467  2.2355  1.6169  0.3025
 7957SOL     OW35506   3.735   4.120   5.678 -0.3904  0.1041  0.0515
 7957SOL    HW135507   3.742   4.121   5.583  2.7935 -0.0075  0.2853
 7957SOL    HW235508   3.644   4.093   5.689 -0.4974  0.9307  1.1721
 7958SOL     OW35509   0.293   2.252   9.425  0.6610  0.0395 -0.3302
 7958SOL    HW135510   0.251   2.179   9.380  0.9499  0.7346 -1.7214
 7958SOL    HW235511   0.224   2.276   9.486 -0.3492 -2.4818 -0.4709
 7959SOL     OW35512   1.391   2.235   7.590 -0.0838 -0.0674 -0.4242
 7959SOL    HW135513   1.336   2.158   7.605 -1.3280  0.7028 -1.0283
 7959SOL    HW235514   1.482   2.205   7.589  0.1302  0.5570  0.0816
 7960SOL     OW35515   4.067   3.029   7.155  0.3154  0.4629  0.6130
 7960SOL    HW135516   4.116   3.061   7.080  2.8677 -1.3748  1.4760
 7960SOL    HW235517   4.065   2.937   7.128 -2.0890  0.9523 -0.8304
 7961SOL     OW35518   1.837   1.604   4.430 -0.2882 -0.1603 -0.3442
 7961SOL    HW135519   1.774   1.622   4.360 -1.9103  0.2291  1.2207
 7961SOL    HW235520   1.809   1.522   4.470 -1.4387 -0.3272 -1.4794
 7962SOL     OW35521   2.775   1.085   9.988  0.0190 -0.2350 -0.1710
 7962SOL    HW135522   2.798   1.041  10.071  0.2512  2.9344  1.4358
 7962SOL    HW235523   2.753   1.012   9.931  0.3590  1.1781 -2.0865
 7963SOL     OW35524   3.400   1.417   7.025  0.7582 -0.4589 -0.1144
 7963SOL    HW135525   3.438   1.329   7.025  0.8215 -0.4218  0.8457
 7963SOL    HW235526   3.311   1.386   7.040  0.4210  0.7511  0.3618
 7964SOL     OW35527   1.776   4.010  12.396 -0.4677  0.0612  0.0248
 7964SOL    HW135528   1.857   3.979  12.435 -0.0975  0.5792 -0.3406
 7964SOL    HW235529   1.755   3.940  12.334  0.5966  0.3756 -0.6930
 7965SOL     OW35530   0.838   0.777   7.785  0.7602 -0.1262 -0.7281
 7965SOL    HW135531   0.748   0.789   7.756  1.3205 -0.8458 -2.7435
 7965SOL    HW235532   0.826   0.748   7.875 -1.8191  1.7912 -0.4807
 7966SOL     OW35533   0.800   3.573   1.631  0.2342 -0.3292  0.3732
 7966SOL    HW135534   0.800   3.663   1.663  0.6794  0.4020 -1.7099
 7966SOL    HW235535   0.839   3.577   1.544  1.0455 -0.2573  0.7326
 7967SOL     OW35536   1.506   1.042   5.016 -0.5862  0.1954  0.0776
 7967SOL    HW135537   1.452   1.031   5.094 -1.2341  0.3926 -0.3418
 7967SOL    HW235538   1.467   0.973   4.962 -1.2219  0.4085  0.2664
 7968SOL     OW35539   0.932   0.647   8.030 -0.7176  0.6377 -0.2317
 7968SOL    HW135540   1.004   0.584   8.026 -0.8968  0.2380  3.4867
 7968SOL    HW235541   0.955   0.699   8.107 -1.1883 -0.1104  0.4007
 7969SOL     OW35542   0.848   4.126   7.960 -0.2490 -0.3215  0.4261
 7969SOL    HW135543   0.797   4.144   8.039 -0.9173  0.4496 -0.1722
 7969SOL    HW235544   0.889   4.040   7.972 -1.5482 -0.8633  0.9390
 7970SOL     OW35545   3.200   0.778   6.032  0.5892 -0.4408 -0.7403
 7970SOL    HW135546   3.197   0.707   5.968 -0.3515  0.0492 -1.2312
 7970SOL    HW235547   3.107   0.774   6.057  0.2324  1.3966 -1.8062
 7971SOL     OW35548   4.450   4.470  14.011 -0.0100  0.0017  0.1034
 7971SOL    HW135549   4.409   4.556  14.020 -0.0301 -0.0632  0.6702
 7971SOL    HW235550   4.538   4.495  14.040  1.1099 -1.3649 -2.1129
 7972SOL     OW35551   1.385   2.488   7.700  0.0106  0.1001 -0.6072
 7972SOL    HW135552   1.385   2.562   7.639  1.7188  2.6244  2.4405
 7972SOL    HW235553   1.374   2.415   7.640 -0.6031 -0.7995  0.6085
 7973SOL     OW35554   0.424   1.681  12.258  0.1061  0.3669 -0.5789
 7973SOL    HW135555   0.426   1.679  12.354 -0.3608 -2.6897 -0.6510
 7973SOL    HW235556   0.487   1.615  12.232 -0.1256 -0.2397  0.4152
 7974SOL     OW35557   4.110   2.621  15.755  0.0960  0.4653  0.3192
 7974SOL    HW135558   4.157   2.686  15.808  0.6351  2.2175 -2.2848
 7974SOL    HW235559   4.140   2.647  15.668 -0.7824  0.6680  0.0675
 7975SOL     OW35560   4.525   1.959  16.990 -0.0939  0.0414 -0.7347
 7975SOL    HW135561   4.452   1.985  17.046  0.6671  1.8750 -0.5601
 7975SOL    HW235562   4.490   1.984  16.905  1.8257  0.0575 -1.5302
 7976SOL     OW35563   2.405   0.154   2.390 -0.2476  0.1230  0.4661
 7976SOL    HW135564   2.411   0.166   2.485  1.1802 -1.5597  0.5882
 7976SOL    HW235565   2.480   0.098   2.370  0.3074 -0.0850  3.0995
 7977SOL     OW35566   0.287   1.937   8.069  0.1062 -0.2443  0.1739
 7977SOL    HW135567   0.206   1.970   8.109  0.5473  0.4462  0.4991
 7977SOL    HW235568   0.235   1.899   7.998  1.1551 -1.9454  0.3295
 7978SOL     OW35569   4.358   4.203   2.768  0.3271  0.0470 -0.2060
 7978SOL    HW135570   4.416   4.255   2.824 -0.6791  1.4041 -0.4314
 7978SOL    HW235571   4.378   4.114   2.796  2.0151  0.9562  1.4679
 7979SOL     OW35572   1.945   1.910   5.357  0.1276  0.2603  0.7491
 7979SOL    HW135573   1.958   1.847   5.428  0.0968 -0.9277 -0.3163
 7979SOL    HW235574   1.970   1.985   5.411  0.7910  0.0309  0.7524
 7980SOL     OW35575   1.465   0.314   6.086  0.1221  0.2224 -0.0660
 7980SOL    HW135576   1.383   0.360   6.101 -0.5986 -1.0096 -0.1847
 7980SOL    HW235577   1.522   0.372   6.034 -0.0618 -0.1021 -0.6301
 7981SOL     OW35578   4.343   3.903  12.728  1.0911  0.7398 -0.1747
 7981SOL    HW135579   4.431   3.906  12.766  0.6602  2.2401  0.7029
 7981SOL    HW235580   4.357   3.835  12.662 -0.0048 -0.3895  0.7728
 7982SOL     OW35581   1.905   0.324  15.588 -0.2505 -0.2419  0.0667
 7982SOL    HW135582   1.919   0.247  15.533 -0.0411 -0.3331  0.2506
 7982SOL    HW235583   1.822   0.300  15.630 -0.8672 -1.8156 -2.0312
 7983SOL     OW35584   1.896   2.369  14.867  0.2223 -0.1722 -0.1536
 7983SOL    HW135585   1.817   2.315  14.867 -0.2423  0.4840  2.0778
 7983SOL    HW235586   1.858   2.450  14.833  0.3094  0.1637  0.5531
 7984SOL     OW35587   3.680   1.087   4.321 -0.5743 -0.8162  0.6303
 7984SOL    HW135588   3.703   1.039   4.241 -0.5848  1.0770 -0.5199
 7984SOL    HW235589   3.589   1.061   4.332 -1.7561  2.7279 -0.7138
 7985SOL     OW35590   4.485   0.788   7.602  0.3777 -0.4425  0.1097
 7985SOL    HW135591   4.476   0.883   7.599  2.1707 -0.2373  1.4988
 7985SOL    HW235592   4.463   0.767   7.693  1.7841  1.2380  0.8244
 7986SOL     OW35593   4.155   4.107   2.588  0.2952 -0.2761  0.1124
 7986SOL    HW135594   4.165   4.025   2.637  1.0472 -0.6605 -0.6866
 7986SOL    HW235595   4.226   4.158   2.627  0.5018 -0.5038  0.0323
 7987SOL     OW35596   2.524   3.722   2.486 -0.3404 -0.0047 -0.1666
 7987SOL    HW135597   2.535   3.804   2.439 -0.9261  0.3950  0.3871
 7987SOL    HW235598   2.515   3.658   2.416 -0.9891  0.8383 -0.8472
 7988SOL     OW35599   0.991   2.092   3.946 -0.3178  0.0504 -0.0445
 7988SOL    HW135600   0.954   2.086   3.857  0.3280  0.2681 -0.3270
 7988SOL    HW235601   1.007   2.186   3.938 -0.0507  0.0727  0.8405
 7989SOL     OW35602   3.839   2.483   7.215 -0.2989 -0.3691  0.0050
 7989SOL    HW135603   3.822   2.522   7.129 -1.2107 -0.9824 -0.0947
 7989SOL    HW235604   3.842   2.393   7.181  0.5290  0.2525 -1.5750
 7990SOL     OW35605   0.491   1.096   2.820 -0.1872 -0.3415 -0.2971
 7990SOL    HW135606   0.424   1.156   2.786 -1.1176 -1.0558  0.2763
 7990SOL    HW235607   0.515   1.139   2.902  1.4973  1.2280 -1.6098
 7991SOL     OW35608   0.878   3.366   6.704  0.3453 -0.5814 -0.2542
 7991SOL    HW135609   0.942   3.331   6.642 -1.2067 -0.2857 -2.0231
 7991SOL    HW235610   0.904   3.321   6.784 -0.6881 -0.0811  0.3654
 7992SOL     OW35611   4.128   0.034   2.835 -0.5423  0.1248  0.3002
 7992SOL    HW135612   4.062   0.064   2.898 -0.6557 -1.0239  0.7327
 7992SOL    HW235613   4.084   0.012   2.753  0.0689 -0.3491  0.1002
 7993SOL     OW35614   3.624   3.399  14.611 -0.7658  0.3454 -0.1510
 7993SOL    HW135615   3.719   3.397  14.600 -0.6200  0.8602  1.0346
 7993SOL    HW235616   3.601   3.315  14.651  2.1469 -0.4023 -0.0667
 7994SOL     OW35617   3.185   3.542   6.215  0.3119  0.0212  0.1138
 7994SOL    HW135618   3.231   3.484   6.275 -1.2828 -1.9483 -0.5718
 7994SOL    HW235619   3.259   3.576   6.165 -0.6079 -2.4984 -2.9561
 7995SOL     OW35620   3.046   1.191   3.896 -0.0247  0.1109  0.0105
 7995SOL    HW135621   2.975   1.250   3.921  2.2254  2.4681  0.8578
 7995SOL    HW235622   3.107   1.257   3.863 -1.3752  0.0242 -2.5941
 7996SOL     OW35623   1.784   1.616   0.214  0.1838  0.3794 -0.6831
 7996SOL    HW135624   1.703   1.667   0.211 -0.3143 -0.3481  0.0219
 7996SOL    HW235625   1.855   1.666   0.175  1.6067  0.2809  1.7832
 7997SOL     OW35626   4.006   0.125   1.848 -0.0194 -0.3201 -0.4282
 7997SOL    HW135627   4.027   0.064   1.777 -2.3819 -0.7969 -0.7042
 7997SOL    HW235628   3.916   0.100   1.867  0.2483 -0.6581  0.4090
 7998SOL     OW35629   0.332   2.466   2.779 -0.1160  0.7406  0.2966
 7998SOL    HW135630   0.333   2.511   2.694  1.4123 -1.7549 -0.9855
 7998SOL    HW235631   0.366   2.540   2.830  0.0546  0.8001  0.0981
 7999SOL     OW35632   0.308   3.693   7.142 -0.5352  0.1258  0.3185
 7999SOL    HW135633   0.378   3.639   7.103  1.3802  1.7268  1.5308
 7999SOL    HW235634   0.232   3.684   7.085  0.7548 -0.4906 -1.3220
 8000SOL     OW35635   2.736   0.026   9.511  0.1971  0.0154 -0.3311
 8000SOL    HW135636   2.696   4.679   9.527  0.9459  0.0561  1.7769
 8000SOL    HW235637   2.748   0.050   9.603 -0.3567  2.5573 -0.9325
 8001SOL     OW35638   0.997   0.804  12.183 -0.1598  0.7249 -0.0243
 8001SOL    HW135639   1.010   0.781  12.091 -0.3840 -2.1221  0.6481
 8001SOL    HW235640   1.068   0.866  12.197  0.9737 -0.7291  0.7464
 8002SOL     OW35641   2.551   4.125   9.550  0.0446  0.4611  0.0647
 8002SOL    HW135642   2.595   4.186   9.490  1.1304  2.0583  2.4882
 8002SOL    HW235643   2.629   4.084   9.587 -0.6159 -0.8480  0.0110
 8003SOL     OW35644   2.156   1.110   8.205  0.0596  0.3623 -0.1293
 8003SOL    HW135645   2.086   1.138   8.146  0.0902  3.3895  1.2844
 8003SOL    HW235646   2.226   1.085   8.145 -0.2398  1.2579 -0.8520
 8004SOL     OW35647   3.206   0.628   1.971 -0.0111  0.3764  0.4509
 8004SOL    HW135648   3.215   0.544   2.015 -1.1803 -0.1906 -0.4161
 8004SOL    HW235649   3.115   0.651   1.990 -0.5147 -1.1937 -0.0856
 8005SOL     OW35650   4.200   2.471  12.403 -0.1943  0.8324  0.2230
 8005SOL    HW135651   4.249   2.427  12.333  1.7065  0.1241  1.9923
 8005SOL    HW235652   4.130   2.414  12.436 -0.7504  1.4661  0.1371
 8006SOL     OW35653   3.057   1.983  13.467 -0.1895  0.4059  0.4411
 8006SOL    HW135654   3.119   1.943  13.407 -0.8463  1.1235 -0.7036
 8006SOL    HW235655   3.111   2.053  13.503  0.1098  0.7977 -0.8001
 8007SOL     OW35656   4.397   2.957  12.501 -0.2698  0.4359 -0.4858
 8007SOL    HW135657   4.487   2.942  12.472 -0.5465  0.0923 -1.1778
 8007SOL    HW235658   4.366   2.880  12.454  1.0706  0.5833 -1.6249
 8008SOL     OW35659   1.684   3.748  16.870 -0.3369 -0.3206 -0.0216
 8008SOL    HW135660   1.779   3.750  16.883 -0.2195  1.1053 -1.1935
 8008SOL    HW235661   1.668   3.842  16.876 -1.0519 -0.4283 -0.1894
 8009SOL     OW35662   4.724   1.008  13.934  0.1421  0.0509  0.0647
 8009SOL    HW135663   4.732   1.080  13.996  0.2730  0.1041 -0.0132
 8009SOL    HW235664   4.698   1.051  13.852  0.1013 -1.2180 -0.5916
 8010SOL     OW35665   2.324   2.935   8.901 -0.1756 -0.1957  0.5637
 8010SOL    HW135666   2.358   2.851   8.871 -2.1108 -1.0571  0.7829
 8010SOL    HW235667   2.234   2.920   8.928 -1.3551  1.3279 -2.4873
 8011SOL     OW35668   0.151   2.030   6.780 -0.4760 -0.1150 -0.3313
 8011SOL    HW135669   0.196   1.947   6.791  1.8022  1.1056 -0.5149
 8011SOL    HW235670   0.058   2.015   6.761 -0.1637 -0.7477 -1.3751
 8012SOL     OW35671   2.512   4.203   4.575  0.2153  0.5598  0.4043
 8012SOL    HW135672   2.569   4.267   4.617 -1.3048  1.8010  0.5610
 8012SOL    HW235673   2.484   4.143   4.644  0.7678 -0.7853 -0.5227
 8013SOL     OW35674   2.408   1.165   8.101 -0.0379 -0.1043 -0.5581
 8013SOL    HW135675   2.426   1.250   8.061  1.2591  0.8634  2.0449
 8013SOL    HW235676   2.457   1.112   8.038  2.9269 -0.9603  2.4540
 8014SOL     OW35677   2.064   2.607   7.623 -0.2270  0.3821 -0.6820
 8014SOL    HW135678   2.039   2.580   7.711 -1.1630  1.0474 -0.7400
 8014SOL    HW235679   2.024   2.539   7.569 -3.0578  1.6205 -0.1185
 8015SOL     OW35680   3.240   0.843   7.124  0.2435  0.3900  0.0330
 8015SOL    HW135681   3.247   0.843   7.028  0.2270  0.2567  0.0320
 8015SOL    HW235682   3.234   0.751   7.151 -1.5611  0.0582 -1.5300
 8016SOL     OW35683   1.241   1.960   4.810  0.4541  0.1194  0.2600
 8016SOL    HW135684   1.318   2.008   4.779  0.1942  1.2435  1.3340
 8016SOL    HW235685   1.281   1.887   4.857  0.7137  1.0511  1.4869
 8017SOL     OW35686   1.864   4.221   7.964 -0.5240  0.3489 -0.0274
 8017SOL    HW135687   1.948   4.262   7.986  0.3419 -0.3520 -2.0070
 8017SOL    HW235688   1.899   4.141   7.926  1.7184  0.0983  2.5531
 8018SOL     OW35689   0.655   1.243  14.375 -0.6273  0.2585 -0.2669
 8018SOL    HW135690   0.600   1.221  14.301 -2.5333 -2.1505  1.8803
 8018SOL    HW235691   0.593   1.215  14.442  1.0434  2.5702  2.2555
 8019SOL     OW35692   2.273   2.600   7.442  0.4938  0.0576  0.0154
 8019SOL    HW135693   2.207   2.620   7.508 -2.8410  0.3846 -3.4293
 8019SOL    HW235694   2.292   2.678   7.390  1.8764 -1.4690 -1.8004
 8020SOL     OW35695   0.344   2.238   6.009 -0.8772  0.3191 -0.3559
 8020SOL    HW135696   0.288   2.163   5.990 -1.1198  0.1218  1.1492
 8020SOL    HW235697   0.359   2.264   5.918  0.2336 -0.5418 -0.4219
 8021SOL     OW35698   3.486   0.066  14.204  0.5148  0.0464  0.2145
 8021SOL    HW135699   3.482   0.139  14.143  1.2552  0.3597  0.5332
 8021SOL    HW235700   3.395   0.043  14.224  0.7969 -0.9089  0.3816
 8022SOL     OW35701   4.612   2.466   8.921 -0.1335  0.1517 -0.5024
 8022SOL    HW135702   4.577   2.412   8.992  0.1251  2.0821  1.1057
 8022SOL    HW235703   4.707   2.463   8.934 -0.2964 -1.4168  0.4044
 8023SOL     OW35704   2.375   4.517   5.784 -0.0284  0.2802  0.4400
 8023SOL    HW135705   2.283   4.538   5.803  0.2881  1.5212  0.5332
 8023SOL    HW235706   2.414   4.602   5.767  0.4771 -0.8855 -4.1712
 8024SOL     OW35707   1.398   1.541   4.725  0.7099 -0.1429 -0.3331
 8024SOL    HW135708   1.407   1.523   4.818 -3.0784 -0.6353 -0.0600
 8024SOL    HW235709   1.487   1.515   4.704  1.1659  0.7106  0.5570
 8025SOL     OW35710   0.430   0.431   5.519  0.1304 -0.1558 -0.5121
 8025SOL    HW135711   0.354   0.377   5.498 -1.6842  2.9549 -1.9789
 8025SOL    HW235712   0.386   0.512   5.546  2.5487  0.9034  0.2162
 8026SOL     OW35713   2.186   0.044   7.725  0.8193 -0.4360  0.3435
 8026SOL    HW135714   2.154   4.695   7.706 -0.5601  0.0567  0.3426
 8026SOL    HW235715   2.110   0.100   7.744 -0.1908 -1.2341 -1.4160
 8027SOL     OW35716   4.450   0.974   0.773  0.1449 -0.2133 -0.4995
 8027SOL    HW135717   4.421   1.059   0.807  1.0404 -0.5566  1.1201
 8027SOL    HW235718   4.368   0.927   0.785 -0.0020  0.3145  0.6150
 8028SOL     OW35719   0.149   1.468   3.309  0.3029 -0.5537 -0.0172
 8028SOL    HW135720   0.159   1.553   3.352  1.0001 -0.8683  0.4492
 8028SOL    HW235721   0.074   1.431   3.357  0.3270  1.2414  1.4191
 8029SOL     OW35722   4.130   3.992  10.789  0.0175  0.7040  0.4632
 8029SOL    HW135723   4.198   4.031  10.734  0.5053  0.6701  1.0350
 8029SOL    HW235724   4.142   3.897  10.782  4.1762  1.1172  1.6573
 8030SOL     OW35725   3.871   1.741   7.244 -0.3059  0.0799 -0.5507
 8030SOL    HW135726   3.804   1.780   7.187 -1.1846 -1.5771 -0.6615
 8030SOL    HW235727   3.815   1.679   7.291  2.1772  0.8536  3.3523
 8031SOL     OW35728   4.100   4.038   6.780 -0.4251 -0.2447  0.3218
 8031SOL    HW135729   4.095   4.043   6.876  2.3602 -1.5060  0.5053
 8031SOL    HW235730   4.010   4.063   6.756  0.0556 -0.2627 -1.4738
 8032SOL     OW35731   2.652   0.440   6.966 -0.1763  0.4809  0.1347
 8032SOL    HW135732   2.629   0.406   7.052  0.4759 -1.0349 -0.2865
 8032SOL    HW235733   2.574   0.407   6.922 -0.0279  0.4643 -0.1134
 8033SOL     OW35734   3.084   2.375   2.805 -0.5477 -0.0112  0.4803
 8033SOL    HW135735   3.130   2.314   2.747  2.2650  1.7794  0.8646
 8033SOL    HW235736   3.158   2.421   2.843 -0.1889 -0.6679  0.5862
 8034SOL     OW35737   3.947   0.613   5.923 -0.0723 -0.0359 -0.7511
 8034SOL    HW135738   3.857   0.626   5.953 -0.2561 -0.2792 -1.1964
 8034SOL    HW235739   3.994   0.653   5.996  0.1441 -0.8245 -0.4584
 8035SOL     OW35740   1.776   1.293   7.858  0.0845  0.3877 -0.5501
 8035SOL    HW135741   1.690   1.314   7.821 -0.3892 -1.8986 -0.7168
 8035SOL    HW235742   1.825   1.294   7.776  0.5956 -0.4301 -0.2519
 8036SOL     OW35743   1.198   1.467   3.042  0.0392 -0.5174  0.2319
 8036SOL    HW135744   1.210   1.440   2.951 -0.5496  1.7588 -0.5229
 8036SOL    HW235745   1.180   1.381   3.080  0.4645  0.0840  1.8103
 8037SOL     OW35746   2.705   0.172  14.819 -0.0637 -0.0279  0.2522
 8037SOL    HW135747   2.708   0.090  14.868  1.2875 -0.4947 -0.6254
 8037SOL    HW235748   2.795   0.202  14.832 -0.8141  1.3401  2.3412
 8038SOL     OW35749   0.974   1.311   9.067  0.2761 -0.2791 -0.4899
 8038SOL    HW135750   0.956   1.292   9.159  0.7035  2.3823  0.1613
 8038SOL    HW235751   1.056   1.263   9.054  0.4256 -0.5227  1.4216
 8039SOL     OW35752   3.694   0.044  16.140  0.0904 -0.1506 -0.9635
 8039SOL    HW135753   3.762   0.071  16.202  0.5264 -0.3789 -1.3435
 8039SOL    HW235754   3.738   0.079  16.062 -0.0591 -1.2833 -1.5457
 8040SOL     OW35755   1.097   1.227   6.088  0.1829  0.1775 -0.8470
 8040SOL    HW135756   1.006   1.199   6.096  0.8188 -2.1343 -1.6500
 8040SOL    HW235757   1.148   1.151   6.117  0.0765 -0.1940 -1.6237
 8041SOL     OW35758   2.146   3.303   1.250 -0.2823 -0.3542  0.4248
 8041SOL    HW135759   2.079   3.358   1.210 -0.4207 -0.5087  0.4456
 8041SOL    HW235760   2.177   3.248   1.178 -0.5161 -0.0737  0.1111
 8042SOL     OW35761   0.657   2.882  14.363 -0.2122 -0.6304 -0.0221
 8042SOL    HW135762   0.645   2.959  14.306 -0.6552  0.6032  1.7363
 8042SOL    HW235763   0.674   2.917  14.450 -1.7640  0.8567 -0.3049
 8043SOL     OW35764   1.466   4.185   5.573 -0.3917 -0.0564 -0.7076
 8043SOL    HW135765   1.422   4.270   5.567  1.0658  0.7791  0.4382
 8043SOL    HW235766   1.504   4.186   5.485  2.0314 -0.8253  0.3309
 8044SOL     OW35767   0.736   2.836   0.023  0.0710 -0.3314 -0.0315
 8044SOL    HW135768   0.750   2.903   0.090  1.5017  1.1801 -1.8256
 8044SOL    HW235769   0.793   2.866  17.704 -0.1580  1.8836  0.7350
 8045SOL     OW35770   3.025   2.166   1.797 -0.1251  0.0394  0.1197
 8045SOL    HW135771   3.056   2.087   1.842  2.3742  2.1363  2.0882
 8045SOL    HW235772   3.110   2.194   1.763  0.3706 -3.8050 -1.8018
 8046SOL     OW35773   4.737   1.421   5.452  0.2922 -0.1139  0.2755
 8046SOL    HW135774   0.028   1.498   5.403  0.6352  0.6114  1.6267
 8046SOL    HW235775   4.674   1.387   5.388 -0.6446 -0.4099  1.3584
 8047SOL     OW35776   1.849   3.151  16.411 -0.6704  0.1436  0.1439
 8047SOL    HW135777   1.795   3.143  16.490 -3.0156 -0.7786 -1.5548
 8047SOL    HW235778   1.931   3.180  16.452 -0.9141 -0.8165  1.3092
 8048SOL     OW35779   3.918   1.243   2.628  0.3800 -0.3396 -0.2824
 8048SOL    HW135780   3.945   1.279   2.713  0.7667  0.7302 -0.8563
 8048SOL    HW235781   3.830   1.281   2.628  0.0409 -1.1253  0.0744
 8049SOL     OW35782   0.677   4.276   3.552  0.1386  0.2466 -0.1373
 8049SOL    HW135783   0.594   4.228   3.560 -0.2459  0.4857 -2.6673
 8049SOL    HW235784   0.691   4.276   3.647  1.4218 -0.3761 -0.3247
 8050SOL     OW35785   3.709   3.227  15.180 -0.2111  0.2313  0.7393
 8050SOL    HW135786   3.734   3.212  15.271  1.8863  0.9176  0.2573
 8050SOL    HW235787   3.779   3.187  15.128  1.7522 -0.1021  3.6850
 8051SOL     OW35788   1.854   0.874   5.687  0.4822  0.3563 -0.2738
 8051SOL    HW135789   1.762   0.894   5.705  0.1341 -0.2975 -1.3508
 8051SOL    HW235790   1.906   0.907   5.760  0.2542 -0.1425  0.1125
 8052SOL     OW35791   2.470   2.072   7.709  0.0437 -0.4201  0.4819
 8052SOL    HW135792   2.533   2.000   7.702  0.1242 -0.4250  1.2557
 8052SOL    HW235793   2.466   2.094   7.617 -1.8828 -1.3636  0.3331
 8053SOL     OW35794   0.987   0.232   5.796  0.2041  0.5375 -0.2998
 8053SOL    HW135795   0.897   0.262   5.796  0.4288  1.2172 -0.5383
 8053SOL    HW235796   0.973   0.175   5.872 -0.0707 -0.2070 -0.9149
 8054SOL     OW35797   0.262   2.757   4.424 -0.7721  0.1629 -0.2632
 8054SOL    HW135798   0.209   2.690   4.379 -0.0103  0.4963 -1.6474
 8054SOL    HW235799   0.215   2.836   4.397  0.6623  1.2758  0.5434
 8055SOL     OW35800   2.886   2.308  11.232  0.1460 -0.7171  0.1059
 8055SOL    HW135801   2.940   2.236  11.198 -0.5920 -1.2596  0.0596
 8055SOL    HW235802   2.858   2.267  11.313 -1.2127  1.5021  0.7523
 8056SOL     OW35803   2.561   1.693   9.723 -0.4753  0.4330  0.1685
 8056SOL    HW135804   2.488   1.754   9.737 -0.8017  0.1173 -0.1686
 8056SOL    HW235805   2.627   1.752   9.759  1.0611 -1.0808 -0.2156
 8057SOL     OW35806   0.947   1.235  15.649 -0.2016  0.0572  0.0493
 8057SOL    HW135807   0.895   1.310  15.675 -1.5974  0.2858 -3.3441
 8057SOL    HW235808   0.974   1.262  15.561 -0.7509 -0.7864 -0.3756
 8058SOL     OW35809   1.817   4.482   8.954  0.0736  0.0343  0.0217
 8058SOL    HW135810   1.907   4.514   8.955 -0.1128  0.5600 -0.0455
 8058SOL    HW235811   1.769   4.565   8.951 -0.7321 -0.4041  0.8062
 8059SOL     OW35812   0.619   2.658   9.713  0.0293  0.0673 -0.3014
 8059SOL    HW135813   0.557   2.598   9.672 -0.3522  1.0782 -1.2005
 8059SOL    HW235814   0.667   2.604   9.775 -1.3296  0.2480  0.9100
 8060SOL     OW35815   1.957   2.011   9.563  0.2726 -0.3024 -0.1693
 8060SOL    HW135816   1.987   2.010   9.653  0.9671  0.1845 -0.3970
 8060SOL    HW235817   2.028   1.972   9.511  0.8322 -0.8771  1.0460
 8061SOL     OW35818   0.459   0.295  11.902  0.5057 -0.1029 -0.2477
 8061SOL    HW135819   0.400   0.313  11.974  0.0013 -1.2577 -0.3696
 8061SOL    HW235820   0.527   0.234  11.933  1.2420  0.0680 -1.4990
 8062SOL     OW35821   1.779   0.204   0.643 -0.1084 -0.4445  0.1327
 8062SOL    HW135822   1.796   0.293   0.675  3.0548 -0.9371 -0.1237
 8062SOL    HW235823   1.693   0.226   0.608  0.7237 -0.0873 -1.6921
 8063SOL     OW35824   2.767   3.046  12.366 -0.5073  0.3485  0.0499
 8063SOL    HW135825   2.773   3.112  12.435 -0.0987  0.6141 -0.2392
 8063SOL    HW235826   2.772   3.098  12.286  0.0035  3.4860  2.1147
 8064SOL     OW35827   1.355   1.088   4.240  0.2120 -0.0074  0.2554
 8064SOL    HW135828   1.334   1.103   4.148 -3.2483 -1.8335  0.7693
 8064SOL    HW235829   1.395   1.175   4.249 -0.5977  0.3419  0.5159
 8065SOL     OW35830   0.696   1.974   9.764  0.2279  1.0782  0.2344
 8065SOL    HW135831   0.689   2.050   9.706 -0.6831  0.6991 -0.1621
 8065SOL    HW235832   0.738   1.917   9.699 -1.6153  1.5256 -1.3369
 8066SOL     OW35833   3.048   4.224   4.485  0.2721  0.2683  0.1767
 8066SOL    HW135834   3.030   4.279   4.561 -0.3166 -1.2226  1.1061
 8066SOL    HW235835   3.083   4.295   4.431  0.1841 -0.3660 -0.7145
 8067SOL     OW35836   3.495   0.985  10.703 -0.4075 -0.0296  0.9699
 8067SOL    HW135837   3.481   0.983  10.798 -0.6243 -0.9952  0.9175
 8067SOL    HW235838   3.530   1.073  10.691 -0.8267 -0.1983 -1.4178
 8068SOL     OW35839   3.684   3.946   4.076  0.3941  0.4764 -0.0845
 8068SOL    HW135840   3.683   4.003   4.153 -2.0200  1.3857 -0.7830
 8068SOL    HW235841   3.592   3.919   4.083  0.3572 -0.0123 -2.4027
 8069SOL     OW35842   3.800   0.601   8.533 -0.5549  0.4451 -0.3791
 8069SOL    HW135843   3.762   0.517   8.506 -3.2110  1.7424 -0.6035
 8069SOL    HW235844   3.798   0.601   8.629  1.2470  1.5880 -0.3420
 8070SOL     OW35845   0.029   2.935   6.134  0.0616 -0.7626  0.0316
 8070SOL    HW135846   0.042   2.845   6.105  0.0434 -0.3207 -1.3451
 8070SOL    HW235847   0.031   2.917   6.228  1.4297 -0.5120  0.0498
 8071SOL     OW35848   0.719   1.661   0.578 -0.3581 -0.2410 -0.0030
 8071SOL    HW135849   0.639   1.612   0.560  0.0401 -0.6581 -0.6195
 8071SOL    HW235850   0.736   1.621   0.664 -2.2317 -0.5530  0.2135
 8072SOL     OW35851   2.029   1.542  17.036  0.0513 -0.1918  0.0635
 8072SOL    HW135852   2.039   1.447  17.034  2.4600  0.1156 -3.0625
 8072SOL    HW235853   2.069   1.558  16.950 -0.4171 -0.6979 -0.2527
 8073SOL     OW35854   0.953   4.601  14.105  0.4468 -0.0987  0.0167
 8073SOL    HW135855   1.003   4.681  14.121  1.1386 -0.7900  1.3303
 8073SOL    HW235856   0.887   4.622  14.039 -0.5319  1.6564  1.5599
 8074SOL     OW35857   2.956   3.505   2.671 -0.1620 -0.0073  0.4595
 8074SOL    HW135858   2.929   3.589   2.706  0.5527 -0.3528  1.8405
 8074SOL    HW235859   2.881   3.482   2.616  1.0470 -1.8343 -0.4624
 8075SOL     OW35860   2.537   1.789   7.336  0.3653 -0.8047 -0.0139
 8075SOL    HW135861   2.485   1.709   7.322 -2.4123  0.3493  3.6230
 8075SOL    HW235862   2.620   1.750   7.366 -0.4874 -1.0272  2.0937
 8076SOL     OW35863   1.874   1.877  10.665  0.4368 -0.6667  0.5854
 8076SOL    HW135864   1.844   1.909  10.750 -1.5189  0.4124 -0.5288
 8076SOL    HW235865   1.955   1.834  10.693  0.1571 -0.7848  1.2178
 8077SOL     OW35866   1.111   1.958   8.647  0.1353  0.2974  0.2135
 8077SOL    HW135867   1.113   1.864   8.630 -0.7728  0.5918 -1.5282
 8077SOL    HW235868   1.181   1.963   8.713 -0.6031  3.9905  0.7003
 8078SOL     OW35869   0.325   3.433   8.144  0.3707  0.1042 -0.3156
 8078SOL    HW135870   0.330   3.350   8.191 -0.3224  0.1764 -0.1109
 8078SOL    HW235871   0.239   3.434   8.102  0.1396 -1.3208  0.1287
 8079SOL     OW35872   1.249   3.343   8.258  0.1954 -0.5840 -0.0319
 8079SOL    HW135873   1.299   3.344   8.176  0.2574 -0.6015  0.0065
 8079SOL    HW235874   1.235   3.249   8.268  0.7303 -0.9466 -2.5340
 8080SOL     OW35875   2.953   2.945   3.737 -0.0162  0.4719 -0.0572
 8080SOL    HW135876   3.039   2.903   3.727 -0.5664 -0.3314 -1.4910
 8080SOL    HW235877   2.927   2.886   3.807  1.6299  0.1420  0.2820
 8081SOL     OW35878   4.464   2.286   3.641 -0.0762 -0.3035 -0.6032
 8081SOL    HW135879   4.480   2.314   3.732 -1.6733  1.5501 -0.8861
 8081SOL    HW235880   4.434   2.196   3.649 -0.2092 -0.1245  1.0674
 8082SOL     OW35881   3.039   0.283   5.896  0.3229  0.1669 -0.5711
 8082SOL    HW135882   3.007   0.206   5.944 -0.0687  1.6387  1.5714
 8082SOL    HW235883   2.988   0.276   5.815 -0.3193  1.4315 -0.2833
 8083SOL     OW35884   0.996   2.010  11.440 -0.5397 -0.3130  0.5012
 8083SOL    HW135885   0.979   1.946  11.510 -2.9155 -0.0731  0.1320
 8083SOL    HW235886   0.908   2.024  11.406  0.8025  1.0240 -2.3892
 8084SOL     OW35887   1.867   3.027  11.976  0.5006  0.2044  0.3038
 8084SOL    HW135888   1.860   3.111  12.021 -0.7462 -0.3790  1.1990
 8084SOL    HW235889   1.802   2.972  12.020  0.9020 -0.9940 -0.6201
 8085SOL     OW35890   1.520   2.534   0.434 -0.0278 -0.4588 -0.9655
 8085SOL    HW135891   1.592   2.595   0.418  0.4063 -0.1796  1.9430
 8085SOL    HW235892   1.568   2.457   0.464  0.8037  0.3182 -0.2775
 8086SOL     OW35893   1.112   2.835  13.685 -0.1037 -0.2442 -0.2086
 8086SOL    HW135894   1.168   2.874  13.618  3.1215 -1.3949  1.8251
 8086SOL    HW235895   1.182   2.813  13.746 -1.5007  3.0915  2.5621
 8087SOL     OW35896   1.653   3.744   7.790 -0.6454  0.4249 -0.3649
 8087SOL    HW135897   1.654   3.838   7.772 -0.3918  0.7147  1.1492
 8087SOL    HW235898   1.683   3.739   7.881 -1.1258 -2.7907 -0.3761
 8088SOL     OW35899   2.055   1.912   7.685 -0.5563  0.0180  0.2105
 8088SOL    HW135900   2.000   1.874   7.617 -2.1262 -0.0558  1.5224
 8088SOL    HW235901   2.084   1.996   7.648  1.2486 -1.5701 -1.9386
 8089SOL     OW35902   4.178   2.176  13.518  0.2892  0.2577 -0.1531
 8089SOL    HW135903   4.220   2.255  13.552 -1.4245  0.8888  0.4865
 8089SOL    HW235904   4.092   2.199  13.552 -0.3681 -0.0680 -1.5966
 8090SOL     OW35905   3.877   4.372  12.250 -0.0074 -0.1918 -0.0497
 8090SOL    HW135906   3.782   4.363  12.256 -0.0289 -0.2229 -0.4758
 8090SOL    HW235907   3.893   4.415  12.334 -1.2330  0.5220 -0.1839
 8091SOL     OW35908   1.700   0.324   7.694 -0.2995 -0.1912 -0.1470
 8091SOL    HW135909   1.761   0.303   7.622 -0.3369  1.3851 -0.6450
 8091SOL    HW235910   1.681   0.415   7.671  0.5038 -0.1658 -0.7421
 8092SOL     OW35911   0.585   3.093   6.062 -0.1180 -0.2209  0.0754
 8092SOL    HW135912   0.595   3.185   6.038  1.5894 -0.9070 -1.7640
 8092SOL    HW235913   0.534   3.103   6.143  0.5987 -0.1731  0.5260
 8093SOL     OW35914   3.246   2.719   8.644 -0.0513  0.2757 -0.6488
 8093SOL    HW135915   3.305   2.764   8.705 -2.9038  1.0090  1.5259
 8093SOL    HW235916   3.294   2.636   8.641 -0.1886  0.0816  2.8124
 8094SOL     OW35917   2.002   4.524  11.519 -0.0490 -0.0307  0.1594
 8094SOL    HW135918   2.016   4.588  11.588 -1.0603  0.1426  0.2098
 8094SOL    HW235919   2.085   4.522  11.470  0.0546 -2.1907  0.4404
 8095SOL     OW35920   2.426   4.074   4.778 -0.6574  0.3700  0.2773
 8095SOL    HW135921   2.350   4.016   4.777 -1.8153  1.8843  0.8932
 8095SOL    HW235922   2.409   4.101   4.868 -1.1042 -2.5956  1.0710
 8096SOL     OW35923   0.859   3.960   1.039  0.0321 -0.3078  0.1165
 8096SOL    HW135924   0.865   4.018   1.115 -1.5432  1.8252 -1.4022
 8096SOL    HW235925   0.801   3.891   1.070  0.0244  0.7945  2.5868
 8097SOL     OW35926   4.106   4.174   8.498  0.2042 -0.1155 -0.0904
 8097SOL    HW135927   4.087   4.152   8.407  0.7873  0.6712 -0.4029
 8097SOL    HW235928   4.030   4.229   8.516 -0.3887 -0.9660 -0.0440
 8098SOL     OW35929   2.772   3.011   5.314  0.0577  0.2087  0.3381
 8098SOL    HW135930   2.845   2.948   5.315 -1.0471 -1.0583  0.0078
 8098SOL    HW235931   2.760   3.031   5.407  0.9902  0.8884  0.3175
 8099SOL     OW35932   2.402   2.724   3.666  0.5090 -0.0185  0.0900
 8099SOL    HW135933   2.308   2.720   3.686  0.2512 -0.4001 -1.2067
 8099SOL    HW235934   2.405   2.684   3.579  1.3930  1.5560 -0.6172
 8100SOL     OW35935   0.494   1.596   3.029 -0.0347 -0.5743  1.2485
 8100SOL    HW135936   0.464   1.671   2.977 -0.0732 -1.2919  0.2208
 8100SOL    HW235937   0.469   1.528   2.966 -1.2521 -0.7022  1.8701
 8101SOL     OW35938   3.928   1.564  16.923 -0.0350  0.1881 -0.2748
 8101SOL    HW135939   3.920   1.481  16.969 -2.2258  2.0097  2.6442
 8101SOL    HW235940   3.838   1.597  16.923 -0.6150 -1.3566 -2.1588
 8102SOL     OW35941   2.887   3.901   2.664  0.6099  0.0893  0.3973
 8102SOL    HW135942   2.846   3.841   2.726  0.1404  1.2571  1.2246
 8102SOL    HW235943   2.857   3.876   2.577  0.7157 -1.2719  0.7541
 8103SOL     OW35944   4.070   4.329   3.769 -0.2420  0.0598  0.0301
 8103SOL    HW135945   4.146   4.387   3.765 -1.0254  1.1178  0.6052
 8103SOL    HW235946   4.045   4.347   3.859  0.2901 -1.0959  0.4059
 8104SOL     OW35947   4.632   0.158   8.452  0.5716  0.1532 -0.2263
 8104SOL    HW135948   4.618   0.086   8.514 -1.2447  0.6239 -0.1071
 8104SOL    HW235949   4.648   0.114   8.369  0.7039  0.6795 -0.4797
 8105SOL     OW35950   2.505   2.373   4.796 -0.3356 -0.7349 -0.3741
 8105SOL    HW135951   2.596   2.350   4.781  0.1685  0.4973  0.7058
 8105SOL    HW235952   2.500   2.327   4.880  3.1855  0.8902  0.7395
 8106SOL     OW35953   2.409   4.110   0.673 -1.0502 -0.3298 -0.7549
 8106SOL    HW135954   2.474   4.175   0.646  0.6049 -1.8138 -0.3655
 8106SOL    HW235955   2.357   4.095   0.594  0.5817 -4.4866 -1.0617
 8107SOL     OW35956   2.381   0.026   7.234 -0.1729 -0.6861 -0.2281
 8107SOL    HW135957   2.315   0.066   7.290  1.1278 -0.0620  0.8407
 8107SOL    HW235958   2.414   0.106   7.193  1.5812 -0.1696  2.1761
 8108SOL     OW35959   0.737   0.774   5.259  0.2075 -0.4000  0.4031
 8108SOL    HW135960   0.739   0.723   5.341  0.8561 -2.3519 -0.8198
 8108SOL    HW235961   0.806   0.732   5.207  1.3776  1.7107  0.2465
 8109SOL     OW35962   4.090   3.554   6.468 -0.2703 -0.2119  0.2660
 8109SOL    HW135963   4.047   3.636   6.494 -0.2550  0.3273 -1.4097
 8109SOL    HW235964   4.161   3.588   6.414 -1.5081  0.2887 -1.0578
 8110SOL     OW35965   4.495   0.673   5.681 -0.1202  0.2719 -0.5994
 8110SOL    HW135966   4.422   0.626   5.640  0.2148  2.2954 -3.4959
 8110SOL    HW235967   4.534   0.719   5.607 -0.0887  1.4599  0.1563
 8111SOL     OW35968   1.649   2.612   2.987 -0.3638 -0.3398  0.5213
 8111SOL    HW135969   1.662   2.613   3.082  0.5680 -1.0459  0.3996
 8111SOL    HW235970   1.632   2.703   2.961 -0.0671 -0.1767  0.8965
 8112SOL     OW35971   0.798   0.138   9.677  0.2477 -0.5072 -0.0731
 8112SOL    HW135972   0.839   0.222   9.654  1.2764 -1.0736 -0.3332
 8112SOL    HW235973   0.876   0.084   9.663  0.8054 -0.4224  2.6222
 8113SOL     OW35974   1.967   3.752   4.580  0.3042 -0.1590  0.1131
 8113SOL    HW135975   2.041   3.809   4.562 -0.7309  0.7897 -1.1420
 8113SOL    HW235976   1.902   3.815   4.612  1.0840  0.7561 -0.1399
 8114SOL     OW35977   4.084   1.898   4.672  0.2127 -0.0177 -0.0533
 8114SOL    HW135978   4.158   1.840   4.689 -0.0773 -0.0041  1.2623
 8114SOL    HW235979   4.112   1.987   4.695 -2.0946  0.5795  0.4724
 8115SOL     OW35980   1.011   2.158   6.736 -0.1320  0.5963 -0.3837
 8115SOL    HW135981   0.932   2.168   6.789  1.2425 -2.7303  2.2359
 8115SOL    HW235982   0.975   2.166   6.647  0.5315  0.3739 -0.6748
 8116SOL     OW35983   1.858   3.945   3.396  0.5674 -0.0276 -0.2439
 8116SOL    HW135984   1.900   3.916   3.315 -0.9129 -3.1979  0.1519
 8116SOL    HW235985   1.935   3.956   3.451  0.1104  0.9023  0.2109
 8117SOL     OW35986   2.122   3.797   8.738  0.2377  0.4057 -0.0976
 8117SOL    HW135987   2.063   3.805   8.813  0.6678 -0.1373  0.3036
 8117SOL    HW235988   2.115   3.702   8.723 -0.6369  0.0499  2.4995
 8118SOL     OW35989   0.882   1.686   5.666  0.1236 -0.3517  0.0294
 8118SOL    HW135990   0.810   1.715   5.611 -0.9164 -0.2876  1.4155
 8118SOL    HW235991   0.886   1.752   5.735  2.4123 -1.2133  0.7479
 8119SOL     OW35992   1.341   4.019   5.315 -0.0908  0.2256  0.3792
 8119SOL    HW135993   1.360   4.008   5.408 -1.6580 -1.5320  0.4934
 8119SOL    HW235994   1.388   4.101   5.296  1.2740 -0.1940  1.8976
 8120SOL     OW35995   4.426   1.177   9.391  0.1345 -0.5236 -0.1095
 8120SOL    HW135996   4.468   1.252   9.350 -0.3956  0.3748  0.9883
 8120SOL    HW235997   4.453   1.181   9.483  1.9251  2.0847 -0.7382
 8121SOL     OW35998   0.825   2.892   6.063 -0.3989 -0.4558 -0.9321
 8121SOL    HW135999   0.826   2.840   6.143 -2.7487 -1.2855 -1.4337
 8121SOL    HW236000   0.767   2.961   6.096  0.3425  0.4410 -1.5076
 8122SOL     OW36001   0.108   0.615   2.627 -0.0232 -0.1353  0.1564
 8122SOL    HW136002   0.191   0.582   2.661 -3.2045 -2.8538  5.2461
 8122SOL    HW236003   0.047   0.613   2.701  0.8838 -1.1229  0.8683
 8123SOL     OW36004   0.937   0.364   8.947 -0.2058 -0.3307 -0.1419
 8123SOL    HW136005   0.901   0.380   8.860  2.0890  1.3883 -0.7908
 8123SOL    HW236006   1.029   0.363   8.920 -0.3387  3.4930 -0.8133
 8124SOL     OW36007   3.156   2.535   2.062  0.7965  0.0798 -0.7015
 8124SOL    HW136008   3.068   2.499   2.048  0.8707 -0.3111 -0.1632
 8124SOL    HW236009   3.146   2.625   2.032  3.9118  0.7823  0.3730
 8125SOL     OW36010   1.960   2.789  10.015  0.2161 -0.4827 -0.2836
 8125SOL    HW136011   1.994   2.725   9.952 -0.8669 -0.3389 -1.0223
 8125SOL    HW236012   1.991   2.869   9.972  0.7302 -1.1674 -1.2092
 8126SOL     OW36013   3.883   1.099   7.514 -0.1536 -0.7351  0.0929
 8126SOL    HW136014   3.878   1.120   7.607 -1.2827 -0.3435 -0.0613
 8126SOL    HW236015   3.964   1.144   7.490  0.5987 -3.0714 -1.6877
 8127SOL     OW36016   2.093   3.447   6.229 -0.4205 -0.4492 -0.7669
 8127SOL    HW136017   2.187   3.448   6.212 -0.5001  1.5274 -1.0303
 8127SOL    HW236018   2.078   3.356   6.204 -2.4376 -1.4007  3.9103
 8128SOL     OW36019   4.300   2.717   2.314  0.1947 -0.4120 -0.3534
 8128SOL    HW136020   4.236   2.779   2.348  0.6532  0.5708 -1.2675
 8128SOL    HW236021   4.284   2.746   2.224 -1.3999 -0.3059 -0.0341
 8129SOL     OW36022   1.542   2.501   5.380  0.0635  0.1281 -0.1072
 8129SOL    HW136023   1.505   2.413   5.385  1.1689 -0.3176  0.2215
 8129SOL    HW236024   1.524   2.530   5.290 -0.2482  0.7008  0.1401
 8130SOL     OW36025   3.444   2.539   5.287  0.1172 -0.0728 -0.2833
 8130SOL    HW136026   3.464   2.632   5.299 -0.1902  0.3466 -2.9382
 8130SOL    HW236027   3.360   2.529   5.332 -1.3187 -1.2427 -3.2001
 8131SOL     OW36028   2.574   3.282  14.058 -0.0678  0.0179 -0.4345
 8131SOL    HW136029   2.492   3.308  14.017  1.0033 -1.7168 -3.6931
 8131SOL    HW236030   2.546   3.219  14.125 -2.1537  0.8148 -0.5498
 8132SOL     OW36031   1.112   0.050  11.556  0.0396 -0.0582 -0.5076
 8132SOL    HW136032   1.039   0.058  11.494  0.7719  1.5744 -1.1507
 8132SOL    HW236033   1.153   0.136  11.559 -1.8580  0.8506 -0.3758
 8133SOL     OW36034   4.546   2.957   5.895 -0.1422  0.4786  0.6076
 8133SOL    HW136035   4.576   2.930   5.809  0.7381 -1.1839  1.4357
 8133SOL    HW236036   4.624   2.937   5.947 -0.1444  0.8860  0.7672
 8134SOL     OW36037   1.494   1.381   8.454  0.1716 -0.0275  0.0929
 8134SOL    HW136038   1.468   1.442   8.385 -1.4670  1.5367  2.1146
 8134SOL    HW236039   1.434   1.309   8.437 -0.5983  0.3557  1.2332
 8135SOL     OW36040   2.287   0.162  15.794 -0.0065 -0.1159  0.3344
 8135SOL    HW136041   2.288   0.236  15.854  1.5352  0.3124 -0.2442
 8135SOL    HW236042   2.346   0.099  15.834  2.5939  1.0410 -1.7284
 8136SOL     OW36043   2.263   0.431  14.656  0.3512 -0.3720 -0.2720
 8136SOL    HW136044   2.347   0.388  14.639  0.4782 -0.2007 -0.0676
 8136SOL    HW236045   2.212   0.387  14.588 -2.5344  0.2615  1.4925
 8137SOL     OW36046   3.206   1.054   1.969 -0.2093 -0.1519  0.0836
 8137SOL    HW136047   3.180   0.996   1.897 -3.7233  0.2429  1.0261
 8137SOL    HW236048   3.173   1.014   2.050  2.0361 -1.2828  0.4576
 8138SOL     OW36049   1.042   3.734   0.749  0.5968 -0.0056 -1.2300
 8138SOL    HW136050   1.022   3.827   0.756  1.2977  0.0265  0.3567
 8138SOL    HW236051   1.071   3.723   0.658  1.3098  0.3386 -1.0493
 8139SOL     OW36052   1.758   3.047   8.959 -0.6016  0.8058  0.2381
 8139SOL    HW136053   1.689   3.112   8.953 -0.1018  1.2232 -1.0923
 8139SOL    HW236054   1.709   2.966   8.948  3.2701 -1.8107  2.1394
 8140SOL     OW36055   4.232   3.984  12.998 -0.3389  0.2824  0.0825
 8140SOL    HW136056   4.292   3.958  13.068  0.8320 -2.2282 -1.8666
 8140SOL    HW236057   4.276   3.954  12.918 -0.3566 -0.7207  0.4500
 8141SOL     OW36058   0.536   3.627   5.446 -0.5707  0.3261 -0.4974
 8141SOL    HW136059   0.457   3.576   5.428 -0.4864  0.6874 -1.9215
 8141SOL    HW236060   0.535   3.613   5.541  1.7009 -1.3316 -0.7156
 8142SOL     OW36061   3.144   3.116   3.080  0.1153 -0.1666  0.0348
 8142SOL    HW136062   3.163   3.138   3.171  0.4524 -0.1947 -0.0283
 8142SOL    HW236063   3.150   3.020   3.084 -1.8761 -0.2915  0.1857
 8143SOL     OW36064   0.057   2.872   5.377 -0.5470  0.0917 -0.3508
 8143SOL    HW136065   0.106   2.920   5.310  1.7815 -1.4740  0.2170
 8143SOL    HW236066   4.722   2.836   5.327 -2.7933  1.8626  1.6896
 8144SOL     OW36067   3.136   2.395   4.535  0.5761  0.3926 -0.3922
 8144SOL    HW136068   3.071   2.438   4.590  0.1085  1.5683 -1.8887
 8144SOL    HW236069   3.122   2.448   4.457 -1.8617 -1.1816 -1.0311
 8145SOL     OW36070   3.884   0.835   4.920  0.3026 -0.0678 -0.7072
 8145SOL    HW136071   3.860   0.918   4.879 -0.5099  1.6750  3.3466
 8145SOL    HW236072   3.807   0.783   4.896  0.0466 -0.6190  1.2747
 8146SOL     OW36073   4.450   1.511   8.902  0.6514 -0.2405 -0.4740
 8146SOL    HW136074   4.414   1.529   8.989  0.6745 -0.2507 -0.4621
 8146SOL    HW236075   4.383   1.453   8.867  0.3040 -1.2486  1.8908
 8147SOL     OW36076   3.422   0.134   8.556 -0.0816 -0.1474 -0.0054
 8147SOL    HW136077   3.436   0.057   8.612  1.0492 -0.9770 -1.4486
 8147SOL    HW236078   3.472   0.098   8.483  1.9707 -0.6164  1.6249
 8148SOL     OW36079   4.678   0.315   5.222  0.2754  0.1326 -0.4794
 8148SOL    HW136080   4.687   0.405   5.191  0.7982 -0.5404 -2.2300
 8148SOL    HW236081   4.680   0.329   5.317 -0.4194  0.9427 -0.5837
 8149SOL     OW36082   0.537   2.708   4.804 -0.6263 -0.9699  0.0096
 8149SOL    HW136083   0.471   2.668   4.748 -1.9815  1.2338  0.0447
 8149SOL    HW236084   0.492   2.698   4.888 -0.6196  1.9097  0.3429
 8150SOL     OW36085   2.201   2.718   4.615  0.1450 -0.6620 -0.6785
 8150SOL    HW136086   2.131   2.769   4.574  0.6702  0.1005 -0.6071
 8150SOL    HW236087   2.143   2.679   4.680 -0.0485  1.5157  0.4456
 8151SOL     OW36088   1.149   2.419  14.222  0.2824 -0.1739  0.1427
 8151SOL    HW136089   1.190   2.352  14.277 -0.4589 -0.6521  0.1194
 8151SOL    HW236090   1.089   2.458  14.284  1.7354  0.0186  1.4268
 8152SOL     OW36091   3.569   3.010   3.115 -0.2658  0.1773  0.6851
 8152SOL    HW136092   3.517   3.016   3.195 -0.9024  1.7553  0.1443
 8152SOL    HW236093   3.520   3.057   3.049  1.1243  3.1536  1.7793
 8153SOL     OW36094   1.931   3.600   5.933  0.0706  0.7118  0.2466
 8153SOL    HW136095   1.946   3.592   5.838  2.8636 -2.8760  0.9814
 8153SOL    HW236096   1.876   3.678   5.936  0.7657  1.1689  0.9990
 8154SOL     OW36097   2.351   2.848   2.977 -0.1649 -0.2032 -0.4787
 8154SOL    HW136098   2.314   2.850   2.889 -0.0996 -1.0036 -0.5232
 8154SOL    HW236099   2.359   2.943   2.992  0.3116 -0.4465  0.7929
 8155SOL     OW36100   4.463   2.183   1.767  0.4433 -0.2940  0.0117
 8155SOL    HW136101   4.523   2.211   1.698  0.0832  1.7305  0.5202
 8155SOL    HW236102   4.526   2.124   1.809 -0.1881 -1.1272 -0.2248
 8156SOL     OW36103   2.069   0.943   1.955  0.0266  0.3475  0.0894
 8156SOL    HW136104   2.121   0.888   2.015 -0.0660  0.5545  0.3611
 8156SOL    HW236105   2.059   0.874   1.890 -0.1889 -1.4332  1.9999
 8157SOL     OW36106   4.554   0.052   1.903 -0.1751  0.2447  0.7783
 8157SOL    HW136107   4.620   4.731   1.868 -1.9635 -0.1345 -2.0274
 8157SOL    HW236108   4.615   0.115   1.942 -1.1855  0.9468  1.2402
 8158SOL     OW36109   0.165   4.400   4.707 -0.4394  0.0200  0.4264
 8158SOL    HW136110   0.126   4.428   4.790 -0.4818  0.2707  0.3239
 8158SOL    HW236111   0.237   4.462   4.692 -0.9835  0.6638  0.4287
 8159SOL     OW36112   1.485   3.344   2.750 -0.2318 -0.3662 -0.0843
 8159SOL    HW136113   1.405   3.297   2.774  0.4473 -2.6918 -2.3225
 8159SOL    HW236114   1.465   3.433   2.781  0.2585 -0.3705  0.2423
 8160SOL     OW36115   4.592   3.005   3.040  0.0686  0.0148 -0.1740
 8160SOL    HW136116   4.535   3.016   2.963  0.8357  3.7280 -0.2040
 8160SOL    HW236117   4.534   3.039   3.109 -0.0668  0.6412 -0.5926
 8161SOL     OW36118   1.962   1.710  14.246  0.1572  0.5636  0.1643
 8161SOL    HW136119   2.003   1.626  14.227 -0.3595  0.7431 -1.7114
 8161SOL    HW236120   2.024   1.756  14.303 -2.6931  0.6409  3.2065
 8162SOL     OW36121   0.071   3.350   3.625  0.3175  0.0989  0.3926
 8162SOL    HW136122   0.097   3.342   3.717  0.7571  1.0424  0.3509
 8162SOL    HW236123   0.159   3.366   3.591 -0.4022  0.9921 -1.0249
 8163SOL     OW36124   3.496   4.491   9.340  0.1604 -0.2488  0.0254
 8163SOL    HW136125   3.414   4.473   9.293  0.2012 -0.9550  0.2145
 8163SOL    HW236126   3.512   4.578   9.305  1.2813 -1.1306 -1.6695
 8164SOL     OW36127   1.610   1.492   9.203 -0.5157 -0.0671 -0.4255
 8164SOL    HW136128   1.607   1.586   9.186  0.9629  0.1530  0.6298
 8164SOL    HW236129   1.524   1.476   9.243  0.1279 -2.3182  0.0701
 8165SOL     OW36130   1.878   4.339   4.098 -0.0789 -0.6743  0.3083
 8165SOL    HW136131   1.804   4.384   4.138 -0.7951 -2.7622  1.3322
 8165SOL    HW236132   1.842   4.307   4.016  1.0886  0.3073 -0.5830
 8166SOL     OW36133   4.531   4.133   4.017  0.3054 -0.2823  0.7632
 8166SOL    HW136134   4.460   4.139   4.080  1.1072 -1.8314  1.8078
 8166SOL    HW236135   4.492   4.141   3.930 -0.3222 -2.5753  0.8416
 8167SOL     OW36136   1.569   2.218   6.339  0.1960 -0.4770 -0.3647
 8167SOL    HW136137   1.539   2.252   6.423  1.6646 -0.2765  0.0763
 8167SOL    HW236138   1.618   2.141   6.369 -1.8606 -0.9084  1.8666
 8168SOL     OW36139   3.031   4.299   8.091 -0.2531 -0.0979  0.1675
 8168SOL    HW136140   3.044   4.390   8.118  2.1635 -0.6896  1.0032
 8168SOL    HW236141   3.097   4.248   8.140 -2.0432 -3.2061 -0.6468
 8169SOL     OW36142   0.568   1.741   3.768 -0.0243  0.2893  1.1679
 8169SOL    HW136143   0.660   1.767   3.763  0.1794 -0.4615  0.9754
 8169SOL    HW236144   0.535   1.768   3.683  1.8646 -1.3117 -0.0753
 8170SOL     OW36145   0.393   0.873   6.285  0.1273 -1.0641  0.0357
 8170SOL    HW136146   0.331   0.878   6.212 -0.5514  0.4054  0.7249
 8170SOL    HW236147   0.444   0.954   6.278 -0.8548 -0.1968  3.2835
 8171SOL     OW36148   1.711   4.461   9.232 -0.3067  0.0150 -0.3430
 8171SOL    HW136149   1.708   4.557   9.225 -1.9041  0.0072  0.2869
 8171SOL    HW236150   1.624   4.436   9.264  0.1508  0.4480  1.2490
 8172SOL     OW36151   0.525   1.208   0.840  0.0425 -0.3686  0.4323
 8172SOL    HW136152   0.432   1.189   0.846 -0.4283  0.9243 -2.5749
 8172SOL    HW236153   0.569   1.179   0.920 -0.9330  1.9638  1.8250
 8173SOL     OW36154   1.226   2.626   0.824 -0.6170  0.0167  0.8145
 8173SOL    HW136155   1.309   2.595   0.859  1.0743  1.8583 -1.5244
 8173SOL    HW236156   1.249   2.671   0.742  0.6918 -1.8071  0.1818
 8174SOL     OW36157   3.575   4.305   4.153 -0.0461 -0.1723  0.2162
 8174SOL    HW136158   3.587   4.230   4.211 -2.2370  0.0792  0.9883
 8174SOL    HW236159   3.576   4.369   4.224 -1.5020  0.2512 -0.1397
 8175SOL     OW36160   0.307   4.362   9.477 -0.1758 -0.2921 -0.2666
 8175SOL    HW136161   0.298   4.361   9.573  3.7078 -0.6501  0.0786
 8175SOL    HW236162   0.336   4.273   9.460  1.4306  0.3032 -0.5939
 8176SOL     OW36163   3.424   0.371  14.144  0.3272  0.3389 -0.4232
 8176SOL    HW136164   3.498   0.402  14.197  0.9475 -0.5435 -0.7683
 8176SOL    HW236165   3.363   0.404  14.209 -0.6141 -0.0456 -1.1160
 8177SOL     OW36166   0.821   1.497   6.334 -0.2562  0.0772 -0.3691
 8177SOL    HW136167   0.903   1.483   6.287 -0.9459 -1.7471 -1.0370
 8177SOL    HW236168   0.865   1.541   6.407 -0.5903  1.0563 -0.7539
 8178SOL     OW36169   2.834   3.589   4.595 -0.1631 -0.0545  0.2569
 8178SOL    HW136170   2.770   3.660   4.601 -0.1219 -0.0609  0.7775
 8178SOL    HW236171   2.796   3.527   4.658 -1.8231  0.9560  0.2506
 8179SOL     OW36172   1.073   4.422   4.445 -0.2875  0.0745 -0.1544
 8179SOL    HW136173   1.137   4.481   4.405  2.0691 -1.1039  1.8676
 8179SOL    HW236174   1.085   4.445   4.537  1.5371  1.4910 -0.7437
 8180SOL     OW36175   1.096   0.284   8.302 -0.4627  0.3387  0.4731
 8180SOL    HW136176   1.163   0.351   8.315 -0.2966  0.5227 -1.3631
 8180SOL    HW236177   1.147   0.205   8.287  1.7318  1.8770 -0.1691
 8181SOL     OW36178   3.650   4.678   0.110 -0.2306  0.5357  0.7962
 8181SOL    HW136179   3.636   4.584   0.102  1.0465  0.4037  0.0779
 8181SOL    HW236180   3.559   4.707   0.111 -0.4226 -0.0377 -0.3702
 8182SOL     OW36181   1.443   3.778  12.373 -0.0969 -1.0019  0.0592
 8182SOL    HW136182   1.536   3.794  12.391 -1.0540  1.8103  2.5582
 8182SOL    HW236183   1.424   3.721  12.448 -0.1554  0.3903  1.1102
 8183SOL     OW36184   1.408   1.537   3.833 -0.1108  0.3864  1.0094
 8183SOL    HW136185   1.346   1.473   3.868  1.7550 -2.4272 -0.8714
 8183SOL    HW236186   1.364   1.617   3.861  1.4655  1.5822  0.0470
 8184SOL     OW36187   0.491   3.015  16.204 -0.2917 -0.1394  0.2723
 8184SOL    HW136188   0.586   3.028  16.206 -0.3396  0.2359  0.1667
 8184SOL    HW236189   0.464   3.037  16.293 -2.2263 -2.5260  0.2650
 8185SOL     OW36190   2.711   4.494   6.324 -0.1748 -0.3438 -0.4211
 8185SOL    HW136191   2.699   4.401   6.340 -0.5110 -0.4788 -1.4800
 8185SOL    HW236192   2.643   4.503   6.257 -1.4021  1.0177  1.0028
 8186SOL     OW36193   2.741   0.725   1.618  0.0881 -0.0668 -0.4431
 8186SOL    HW136194   2.694   0.655   1.573  1.2661  0.1549 -1.9912
 8186SOL    HW236195   2.702   0.799   1.569 -0.7688 -0.1853  0.0522
 8187SOL     OW36196   0.679   3.182   1.358  0.0544 -0.2437 -0.0741
 8187SOL    HW136197   0.726   3.240   1.417  2.0199 -1.0323 -0.8773
 8187SOL    HW236198   0.756   3.137   1.323 -0.1861 -1.6035  1.1968
 8188SOL     OW36199   2.237   1.189   5.196 -0.1415  0.2839 -0.5492
 8188SOL    HW136200   2.180   1.264   5.210  0.6845  0.9081 -0.5849
 8188SOL    HW236201   2.179   1.113   5.190 -0.2881  0.2943  0.7711
 8189SOL     OW36202   0.298   3.847   6.254  0.8077  1.0335  0.0009
 8189SOL    HW136203   0.351   3.780   6.211 -0.9281 -0.8726  0.8344
 8189SOL    HW236204   0.285   3.913   6.185 -0.0383  1.7954  0.8843
 8190SOL     OW36205   3.154   2.254   7.807 -0.4591  0.7792 -0.2510
 8190SOL    HW136206   3.125   2.284   7.721  2.4240 -0.1128 -1.5582
 8190SOL    HW236207   3.166   2.159   7.804  0.5646  0.8056  2.2521
 8191SOL     OW36208   2.934   1.116   1.108  0.3360  0.1988 -0.0359
 8191SOL    HW136209   3.000   1.086   1.170  2.9036  1.4218 -2.1301
 8191SOL    HW236210   2.913   1.200   1.149 -0.7444 -0.5409  0.8980
 8192SOL     OW36211   4.543   4.072   8.727  0.1183 -0.4787  0.1447
 8192SOL    HW136212   4.460   4.112   8.753  0.9180  0.9512  0.5424
 8192SOL    HW236213   4.548   4.062   8.632 -3.1125  3.1892 -0.4377
 8193SOL     OW36214   3.753   3.706   3.955 -0.4169  0.5209 -0.0301
 8193SOL    HW136215   3.782   3.774   3.895  0.3092 -1.0125 -1.4246
 8193SOL    HW236216   3.732   3.766   4.026  3.4066  1.9340 -0.0923
 8194SOL     OW36217   1.092   3.817   6.197 -0.0720  0.1636  0.2294
 8194SOL    HW136218   1.113   3.733   6.237 -1.1215 -0.6780 -0.9707
 8194SOL    HW236219   1.068   3.874   6.270 -0.6528 -2.4833  2.0674
 8195SOL     OW36220   1.846   1.008   6.244 -0.3619  0.5812 -0.3755
 8195SOL    HW136221   1.928   1.054   6.225 -0.9671  1.6762 -0.3406
 8195SOL    HW236222   1.804   1.016   6.158 -2.2239 -1.4347  0.3600
 8196SOL     OW36223   1.950   3.820  17.224 -0.1252  0.3419  0.7052
 8196SOL    HW136224   1.916   3.731  17.233 -0.4203  0.4670  0.8202
 8196SOL    HW236225   2.031   3.793  17.180 -0.3019 -0.1649  0.6873
 8197SOL     OW36226   0.435   2.375   8.054  0.0106 -0.0070  0.0280
 8197SOL    HW136227   0.373   2.404   8.121  0.4210 -1.2909  0.9611
 8197SOL    HW236228   0.445   2.456   8.004  0.8268 -1.4169 -2.0844
 8198SOL     OW36229   1.340   1.915   4.488  0.3306  0.2087  0.4489
 8198SOL    HW136230   1.361   1.923   4.581  0.7235 -1.6505  0.5230
 8198SOL    HW236231   1.387   1.992   4.455  0.4727 -0.5237 -1.0891
 8199SOL     OW36232   2.125   4.644   5.854  1.0558 -0.4467 -0.1020
 8199SOL    HW136233   2.149   4.715   5.914 -1.1264 -0.9460  1.3394
 8199SOL    HW236234   2.056   4.600   5.904  0.9897 -1.0785 -0.7528
 8200SOL     OW36235   2.550   4.341   2.588 -0.3472 -0.6024  0.4510
 8200SOL    HW136236   2.586   4.349   2.676 -0.2934  1.8450  0.2205
 8200SOL    HW236237   2.591   4.255   2.581 -0.7945 -0.8642  0.9839
 8201SOL     OW36238   1.134   0.600   1.940  0.2098  0.2721  0.2425
 8201SOL    HW136239   1.136   0.565   2.029 -1.8018  1.1442  0.6412
 8201SOL    HW236240   1.042   0.621   1.924  0.4659  0.6826 -0.6583
 8202SOL     OW36241   1.052   4.162   2.236 -0.2373  0.4146  0.3924
 8202SOL    HW136242   1.066   4.242   2.288  2.2471  1.8449 -2.4922
 8202SOL    HW236243   0.985   4.127   2.295  0.6025 -2.9124 -0.6477
 8203SOL     OW36244   2.708   1.058   4.454 -0.1784 -0.4781  0.6408
 8203SOL    HW136245   2.637   1.015   4.501 -0.7245 -1.2329 -0.9089
 8203SOL    HW236246   2.772   1.055   4.525  0.8632 -0.3376 -0.2838
 8204SOL     OW36247   4.455   2.328   6.200 -0.2877  0.4697  0.1436
 8204SOL    HW136248   4.476   2.314   6.108  0.3169 -0.6869  0.4624
 8204SOL    HW236249   4.365   2.294   6.196 -1.7311  4.4299 -0.4786
 8205SOL     OW36250   2.382   0.469   8.328  0.1877 -0.5969  0.4459
 8205SOL    HW136251   2.463   0.512   8.355 -0.3051  2.3963 -2.9370
 8205SOL    HW236252   2.346   0.433   8.409 -1.0293  1.3063  0.7394
 8206SOL     OW36253   3.014   2.539  10.459  0.1312  0.3142  0.5983
 8206SOL    HW136254   3.073   2.498  10.397 -0.6917  3.0307 -1.9923
 8206SOL    HW236255   3.056   2.616  10.499 -2.0845  0.7986  2.0072
 8207SOL     OW36256   2.346   4.280   2.031 -0.6196  0.0137  0.3138
 8207SOL    HW136257   2.301   4.364   2.027 -1.0942 -0.3458 -2.0736
 8207SOL    HW236258   2.270   4.224   2.019  0.8096 -1.7470 -0.4668
 8208SOL     OW36259   3.146   0.919   1.752 -0.2441 -0.4155  0.0056
 8208SOL    HW136260   3.103   0.957   1.675 -1.9488  1.1304  1.7214
 8208SOL    HW236261   3.099   0.835   1.748  0.5206 -0.7491 -1.7977
 8209SOL     OW36262   3.603   4.397   6.629  0.1649  0.1240  0.1605
 8209SOL    HW136263   3.528   4.354   6.670  0.4632  0.4078  0.9994
 8209SOL    HW236264   3.642   4.317   6.593  0.2703  0.0484  0.4440
 8210SOL     OW36265   4.148   2.079  15.409  0.5575  0.7448  0.6115
 8210SOL    HW136266   4.077   2.044  15.464 -0.7193 -1.3399 -2.3422
 8210SOL    HW236267   4.116   2.148  15.351 -1.9763 -0.8086  0.1693
 8211SOL     OW36268   0.135   0.699  11.668  0.4680 -0.5424  0.0690
 8211SOL    HW136269   0.063   0.703  11.605  0.5005 -0.9361  0.0072
 8211SOL    HW236270   0.198   0.762  11.633  0.0392 -1.3969 -2.2563
 8212SOL     OW36271   0.035   1.337   2.972 -0.1723  0.1999  0.4846
 8212SOL    HW136272   0.028   1.241   2.978 -0.2925  0.1595 -0.3941
 8212SOL    HW236273   0.129   1.344   2.953 -0.1122 -1.5609  0.1404
 8213SOL     OW36274   3.006   0.581   6.298 -0.5446  0.0388  0.0002
 8213SOL    HW136275   3.096   0.570   6.328  0.3815  3.6387 -1.3865
 8213SOL    HW236276   2.972   0.662   6.337 -1.4832 -0.9813  1.2682
 8214SOL     OW36277   2.440   3.724   3.443 -0.1951 -0.0876 -0.1888
 8214SOL    HW136278   2.440   3.644   3.496  0.1803  0.3342  0.4417
 8214SOL    HW236279   2.533   3.747   3.453 -0.0611 -0.6677 -0.0784
 8215SOL     OW36280   1.506   2.288   6.615 -0.2808  0.3878 -0.1811
 8215SOL    HW136281   1.413   2.282   6.632  0.1852 -1.4096  1.7562
 8215SOL    HW236282   1.524   2.344   6.690  0.4597 -0.0158 -0.0555
 8216SOL     OW36283   0.726   0.118   7.648  0.1738  0.3230  0.1931
 8216SOL    HW136284   0.638   0.085   7.667 -0.1268  2.2646  2.1839
 8216SOL    HW236285   0.693   0.183   7.586 -0.8111  0.1343  0.5105
 8217SOL     OW36286   0.824   0.818   6.398 -0.2291  0.1027  0.9688
 8217SOL    HW136287   0.894   0.827   6.463  0.0239  1.5388  0.4944
 8217SOL    HW236288   0.749   0.843   6.451  1.1284  1.0535  2.4616
 8218SOL     OW36289   3.281   1.300   2.459  0.0701  0.3294  0.2474
 8218SOL    HW136290   3.344   1.370   2.480  0.1744  0.1207  0.6282
 8218SOL    HW236291   3.339   1.224   2.458 -0.3274  0.0427 -0.6209
 8219SOL     OW36292   3.502   4.492   4.415 -0.1571 -0.2926 -0.2513
 8219SOL    HW136293   3.572   4.506   4.480 -1.6321  1.3395  0.9854
 8219SOL    HW236294   3.458   4.432   4.476 -0.8700  0.3186 -0.1768
 8220SOL     OW36295   3.770   4.671   9.869 -0.5323  0.6994 -0.1707
 8220SOL    HW136296   3.820   4.633   9.942  1.3238 -0.7871 -2.1942
 8220SOL    HW236297   3.789   0.026   9.870  0.9018  0.4016  0.5666
 8221SOL     OW36298   3.969   3.736   5.633  0.3083 -0.7301  0.7050
 8221SOL    HW136299   3.897   3.736   5.570  0.7694  2.6251  0.1998
 8221SOL    HW236300   3.937   3.797   5.700  1.9869  0.0343  0.8094
 8222SOL     OW36301   3.982   2.483  11.384  0.0138  0.4519 -0.1269
 8222SOL    HW136302   3.887   2.487  11.397  0.0964  2.4081 -0.1305
 8222SOL    HW236303   4.006   2.546  11.317  0.2939 -1.2765 -1.6633
 8223SOL     OW36304   3.820   3.743   2.537 -0.3192  0.1121  0.2746
 8223SOL    HW136305   3.732   3.739   2.499  0.8521 -0.7672 -2.3412
 8223SOL    HW236306   3.860   3.804   2.474 -0.4671  0.4145  0.4758
 8224SOL     OW36307   2.225   1.219  13.152  0.5856  0.0051  0.7531
 8224SOL    HW136308   2.291   1.215  13.222 -0.6346 -0.1357  1.8848
 8224SOL    HW236309   2.153   1.270  13.189 -0.7510 -1.6543  0.4002
 8225SOL     OW36310   4.015   3.750   3.517  0.3763 -0.2109  0.3660
 8225SOL    HW136311   4.063   3.726   3.437 -0.9150 -0.5287 -0.3076
 8225SOL    HW236312   3.936   3.698   3.502  0.8545 -1.1269  1.0440
 8226SOL     OW36313   2.822   4.066  11.132 -0.5980 -0.2404 -0.3292
 8226SOL    HW136314   2.797   4.158  11.140  2.8094  0.5500  0.7519
 8226SOL    HW236315   2.754   4.023  11.183 -0.3808  2.2615  2.0702
 8227SOL     OW36316   4.309   2.463   5.294  0.3316  0.2223  0.0055
 8227SOL    HW136317   4.317   2.534   5.231 -0.4716  0.1322 -0.1944
 8227SOL    HW236318   4.237   2.498   5.346  1.0960  1.5598  0.1858
 8228SOL     OW36319   0.041   0.024   4.212  0.4675 -0.7030  0.5972
 8228SOL    HW136320   4.687   0.045   4.203  0.5091 -0.4029  0.8788
 8228SOL    HW236321   0.066   0.074   4.290 -0.5204  0.4491  0.1823
 8229SOL     OW36322   2.803   3.457  12.170  0.1446 -0.1211  0.2141
 8229SOL    HW136323   2.752   3.485  12.245  0.7371 -0.0427  0.5851
 8229SOL    HW236324   2.842   3.540  12.142 -0.4626  0.4614  1.1050
 8230SOL     OW36325   0.118   1.747   4.465 -0.1939 -0.5551  0.1027
 8230SOL    HW136326   0.150   1.725   4.378  1.5023  0.8060  0.3869
 8230SOL    HW236327   0.191   1.787   4.513 -0.5443  1.4501 -1.0297
 8231SOL     OW36328   3.918   2.067   6.760  0.1285  0.3241 -0.0393
 8231SOL    HW136329   3.894   2.014   6.836 -1.3429  2.2034  0.8039
 8231SOL    HW236330   4.007   2.085   6.791  1.3543  0.4223 -3.5675
 8232SOL     OW36331   1.970   0.140  14.453 -0.1892  0.2209 -0.3807
 8232SOL    HW136332   1.948   0.054  14.490  1.1674 -1.1933 -2.8009
 8232SOL    HW236333   2.047   0.182  14.492  0.3368 -1.4594  0.4208
 8233SOL     OW36334   3.506   0.927  15.758  0.0809  0.0097 -0.7574
 8233SOL    HW136335   3.461   0.885  15.831  0.2990 -0.5151 -0.9282
 8233SOL    HW236336   3.435   0.951  15.697  0.1729  1.6125 -0.2453
 8234SOL     OW36337   0.513   0.920   4.254 -0.4964 -0.2691 -0.4109
 8234SOL    HW136338   0.424   0.932   4.287  0.2152  0.3299  1.2922
 8234SOL    HW236339   0.494   0.837   4.211  1.8366 -2.0347  2.0022
 8235SOL     OW36340   0.844   3.489   6.055 -0.6301 -0.1477  0.2173
 8235SOL    HW136341   0.859   3.579   6.082  0.5058 -0.4792  0.7083
 8235SOL    HW236342   0.870   3.484   5.963  0.2041 -0.9948  0.4941
 8236SOL     OW36343   4.094   3.207   5.474  0.0574 -0.1129 -0.0256
 8236SOL    HW136344   4.154   3.175   5.542 -0.5059  0.0526  0.5509
 8236SOL    HW236345   4.121   3.142   5.409  4.0297  1.6043 -0.0800
 8237SOL     OW36346   0.486   4.194   3.287 -0.5017  0.1134  0.0640
 8237SOL    HW136347   0.397   4.159   3.293 -1.0503  1.0595 -2.4643
 8237SOL    HW236348   0.480   4.283   3.322 -2.0600  0.5578 -1.2980
 8238SOL     OW36349   1.656   2.523   6.598 -0.0794  0.6507 -0.6943
 8238SOL    HW136350   1.744   2.489   6.606 -1.3869 -2.1591  1.7739
 8238SOL    HW236351   1.639   2.542   6.506 -0.0617  1.1686 -0.5921
 8239SOL     OW36352   0.259   1.116  15.328  0.3319 -0.1404  0.0097
 8239SOL    HW136353   0.215   1.113  15.243 -1.3592 -2.8554  0.9946
 8239SOL    HW236354   0.193   1.068  15.377  1.3458  0.9674  2.4611
 8240SOL     OW36355   4.394   1.766  11.869 -0.2104 -0.0586 -0.0220
 8240SOL    HW136356   4.424   1.851  11.901 -1.0142  0.7814 -1.4941
 8240SOL    HW236357   4.478   1.738  11.833  0.8598 -0.5708  2.8979
 8241SOL     OW36358   4.619   0.116   9.421 -0.9576  0.6482 -0.7125
 8241SOL    HW136359   4.553   0.145   9.484 -1.4956  0.8346 -1.3599
 8241SOL    HW236360   4.683   0.186   9.438 -1.5954  0.7837  1.0820
 8242SOL     OW36361   1.969   1.027   3.344  0.0758  0.2099  0.6055
 8242SOL    HW136362   2.055   0.988   3.327 -0.1039  0.4619 -0.8732
 8242SOL    HW236363   1.992   1.082   3.419 -0.6116  0.4024  0.6748
 8243SOL     OW36364   2.999   2.550   3.486 -0.0637  0.0305  0.2456
 8243SOL    HW136365   2.999   2.522   3.577  2.4340 -1.1686 -0.1123
 8243SOL    HW236366   3.026   2.471   3.439  1.7452  0.4066  0.6466
 8244SOL     OW36367   2.318   3.186   2.627 -0.1163 -0.0606  0.7551
 8244SOL    HW136368   2.294   3.187   2.535  0.4535  0.7761  0.6165
 8244SOL    HW236369   2.396   3.129   2.622  0.2227  0.2450  2.4405
 8245SOL     OW36370   0.325   2.544   2.504  0.2347  0.3835  0.3256
 8245SOL    HW136371   0.371   2.628   2.507 -1.3638  1.3022 -1.0413
 8245SOL    HW236372   0.233   2.571   2.510 -0.0053 -0.4111  0.2802
 8246SOL     OW36373   0.260   2.164   1.903  0.0846 -0.1140 -0.0647
 8246SOL    HW136374   0.339   2.206   1.937 -0.5777 -0.4190  1.8398
 8246SOL    HW236375   0.199   2.238   1.913 -1.1794 -1.7026  4.2907
 8247SOL     OW36376   2.460   3.370   4.868  0.2038  0.3597  0.3851
 8247SOL    HW136377   2.437   3.362   4.960 -0.4523  2.6806  0.4139
 8247SOL    HW236378   2.374   3.390   4.831  0.7776  1.4503 -0.3502
 8248SOL     OW36379   1.615   3.051   5.067  0.3525 -0.5019  0.1598
 8248SOL    HW136380   1.567   3.019   5.144  1.0392  1.7210  1.4967
 8248SOL    HW236381   1.642   3.136   5.100 -1.7630  0.3829 -0.3581
 8249SOL     OW36382   0.840   0.239  17.530  0.2253  0.4524 -0.5779
 8249SOL    HW136383   0.818   0.332  17.529  1.1732  0.6720 -1.3810
 8249SOL    HW236384   0.869   0.222  17.619  2.0020  1.3106 -0.9926
 8250SOL     OW36385   0.833   0.919   0.075 -0.1891 -1.1812  0.1547
 8250SOL    HW136386   0.803   1.008   0.094  0.6794 -1.5650  3.4307
 8250SOL    HW236387   0.884   0.936  17.748  0.8921  0.8085  1.2660
 8251SOL     OW36388   0.875   2.979   4.782  0.5451 -0.3495  0.3517
 8251SOL    HW136389   0.876   2.900   4.727  1.0786 -0.6512  0.7984
 8251SOL    HW236390   0.915   3.040   4.720 -0.8044 -0.4276 -0.6146
 8252SOL     OW36391   0.531   2.093   8.275  0.1635 -0.3294 -0.2527
 8252SOL    HW136392   0.471   2.106   8.348  1.2941 -0.0388  0.6253
 8252SOL    HW236393   0.486   2.041   8.209 -1.7152  0.8858  0.0920
 8253SOL     OW36394   0.653   3.110  15.890  0.6337  0.8089  0.1326
 8253SOL    HW136395   0.696   3.122  15.975  1.0633  0.0850  0.0164
 8253SOL    HW236396   0.718   3.140  15.826  0.3787  0.6717 -0.1875
 8254SOL     OW36397   1.625   2.899  15.079  0.2966  0.1164  0.2827
 8254SOL    HW136398   1.627   2.944  15.163  1.8093  0.3966  0.1057
 8254SOL    HW236399   1.536   2.863  15.078  0.4739 -0.2144 -2.4573
 8255SOL     OW36400   4.491   3.047   6.461  0.3611 -0.1513 -0.2249
 8255SOL    HW136401   4.501   3.133   6.502 -0.8018  0.1786 -0.6359
 8255SOL    HW236402   4.582   3.018   6.451 -0.1151 -1.5832 -0.3362
 8256SOL     OW36403   0.164   3.029  16.591  0.5188 -0.0750  0.3278
 8256SOL    HW136404   0.096   2.961  16.594  1.0150 -0.6009 -0.3157
 8256SOL    HW236405   0.152   3.081  16.670  1.2933  1.0864 -0.3168
 8257SOL     OW36406   0.100   3.237  13.719  0.3022 -0.0066  0.1561
 8257SOL    HW136407   0.019   3.234  13.770  0.8188 -0.8607  0.9215
 8257SOL    HW236408   0.122   3.324  13.750 -0.3080  0.5346 -0.9349
 8258SOL     OW36409   3.288   3.699   7.050  0.3498 -0.0240  0.1929
 8258SOL    HW136410   3.205   3.744   7.037  0.4854  0.6491  1.5763
 8258SOL    HW236411   3.349   3.773   7.056  0.2883 -0.2022  2.9207
 8259SOL     OW36412   0.671   1.867  16.544 -0.1847  0.5150  0.2422
 8259SOL    HW136413   0.704   1.924  16.474 -0.6639  1.4565  0.7722
 8259SOL    HW236414   0.609   1.922  16.593 -0.9544  1.2673 -1.5719
 8260SOL     OW36415   0.412   3.073  16.466 -0.3957  0.0054  0.3364
 8260SOL    HW136416   0.422   2.981  16.491  2.2436  0.2294  0.1349
 8260SOL    HW236417   0.324   3.075  16.503 -0.6639  2.6852 -0.4592
 8261SOL     OW36418   0.461   0.883   2.669  0.0303  0.1294  0.0547
 8261SOL    HW136419   0.451   0.946   2.597 -0.2949 -0.1527 -0.1438
 8261SOL    HW236420   0.480   0.938   2.745  2.5919  1.1682 -1.3549
 8262SOL     OW36421   3.014   0.015   4.048  0.0641  0.9191  0.9974
 8262SOL    HW136422   3.025   0.098   4.000 -4.5083  0.1794 -1.4186
 8262SOL    HW236423   3.064   4.693   3.994 -2.9817  1.0678 -2.0753
 8263SOL     OW36424   0.662   2.145   2.568  0.5152  0.1663  0.0381
 8263SOL    HW136425   0.605   2.203   2.618 -1.9860 -0.2904 -2.2940
 8263SOL    HW236426   0.673   2.203   2.493 -3.0656  1.0079  0.1883
 8264SOL     OW36427   3.344   2.514   4.733  0.1013  0.6630  0.4761
 8264SOL    HW136428   3.306   2.510   4.821  1.0252  0.6025  0.8776
 8264SOL    HW236429   3.283   2.478   4.669  1.6847  1.4201 -1.4734
 8265SOL     OW36430   3.694   4.224   2.204  0.4654  0.5343 -0.4412
 8265SOL    HW136431   3.692   4.151   2.142 -0.8762  1.2465 -1.2310
 8265SOL    HW236432   3.645   4.188   2.277 -0.0005 -1.6135 -1.8087
 8266SOL     OW36433   2.979   1.289   5.262 -0.5517 -0.1639  0.5339
 8266SOL    HW136434   3.059   1.267   5.310 -0.0887 -0.2796 -0.3001
 8266SOL    HW236435   3.016   1.359   5.208 -0.0948 -1.9247 -1.4304
 8267SOL     OW36436   4.378   3.389   5.394 -0.7073  0.2492 -0.2764
 8267SOL    HW136437   4.286   3.401   5.370 -0.2650  1.5292 -1.3711
 8267SOL    HW236438   4.377   3.411   5.488 -0.1523 -1.4791  0.1225
 8268SOL     OW36439   2.068   1.252  10.175 -0.4185 -0.6696  0.0084
 8268SOL    HW136440   1.973   1.252  10.183 -0.4354  1.4718 -0.3037
 8268SOL    HW236441   2.068   1.300  10.093  1.1301  0.4136  0.6376
 8269SOL     OW36442   0.828   1.355   1.008 -0.6019 -0.2587 -0.1188
 8269SOL    HW136443   0.820   1.329   0.916 -0.3723  3.0006 -1.0826
 8269SOL    HW236444   0.866   1.275   1.044  1.3125 -0.0181 -1.5885
 8270SOL     OW36445   1.349   3.642   7.468  0.8643  0.0188  0.7046
 8270SOL    HW136446   1.387   3.554   7.470  3.5881  1.2269  1.7120
 8270SOL    HW236447   1.366   3.682   7.553  2.7886 -0.0667  0.3775
 8271SOL     OW36448   2.802   2.837  16.829 -0.4252 -0.1241 -0.6655
 8271SOL    HW136449   2.724   2.782  16.823  0.0413 -0.9792  0.9798
 8271SOL    HW236450   2.785   2.891  16.752 -1.7195  0.1439 -0.2007
 8272SOL     OW36451   1.933   2.840  15.968 -0.3075  0.3960 -0.1796
 8272SOL    HW136452   1.841   2.833  15.990  0.4053 -2.7592  1.7941
 8272SOL    HW236453   1.920   2.846  15.873 -1.9865  1.1165  0.1057
 8273SOL     OW36454   0.272   3.735   7.461  0.4126  0.4192  0.1276
 8273SOL    HW136455   0.365   3.720   7.446  0.9518  2.3744  1.4285
 8273SOL    HW236456   0.232   3.703   7.380 -1.0787 -1.2207  1.5048
 8274SOL     OW36457   2.754   3.788   7.605  0.0035  0.6728  0.2076
 8274SOL    HW136458   2.831   3.805   7.659  0.2361  1.2439 -0.3111
 8274SOL    HW236459   2.722   3.716   7.660  1.7268 -0.2627  0.0002
 8275SOL     OW36460   0.678   2.755   7.711 -0.0616 -0.3146 -0.2463
 8275SOL    HW136461   0.673   2.660   7.700 -0.7291 -0.1411 -1.4420
 8275SOL    HW236462   0.594   2.769   7.754 -0.6284  2.2769 -2.1406
 8276SOL     OW36463   3.959   4.095   4.405  0.3677  0.6734 -0.5105
 8276SOL    HW136464   4.033   4.149   4.377  1.1844  0.3746  1.0877
 8276SOL    HW236465   3.986   4.006   4.379 -0.8373  0.0190  0.4688
 8277SOL     OW36466   0.600   4.173   1.596 -0.0125 -0.2425 -0.2179
 8277SOL    HW136467   0.675   4.225   1.567  1.6071 -2.1331  0.5917
 8277SOL    HW236468   0.612   4.087   1.556 -0.0162 -0.5310  0.4165
 8278SOL     OW36469   3.460   1.469   2.568  0.0510 -0.5316  0.0145
 8278SOL    HW136470   3.435   1.547   2.617  1.4914 -0.7992  1.1557
 8278SOL    HW236471   3.541   1.443   2.612  1.1122  1.0977 -0.9602
 8279SOL     OW36472   4.246   3.211   8.750  0.0263  0.0786 -0.0714
 8279SOL    HW136473   4.261   3.290   8.698 -1.4141  0.2397 -0.2375
 8279SOL    HW236474   4.196   3.158   8.688 -2.8500  2.2626  0.4183
 8280SOL     OW36475   3.966   1.296   5.672  0.7059 -0.2666  0.4280
 8280SOL    HW136476   3.907   1.371   5.677  2.6703  1.2499  0.5366
 8280SOL    HW236477   4.004   1.292   5.759  0.4813 -0.7792  0.5025
 8281SOL     OW36478   3.932   1.422   9.543 -0.6974 -0.1881 -0.9364
 8281SOL    HW136479   3.857   1.416   9.484 -2.5410  0.5724  1.3180
 8281SOL    HW236480   4.008   1.406   9.487  1.3887  3.4563  0.8094
 8282SOL     OW36481   2.269   2.437   6.257  0.1091 -0.0789 -0.2320
 8282SOL    HW136482   2.271   2.445   6.162  2.3167 -0.3099 -0.2137
 8282SOL    HW236483   2.216   2.358   6.268 -0.4534  0.0595 -1.9701
 8283SOL     OW36484   3.603   2.253   8.617 -0.2528  0.1371 -0.2707
 8283SOL    HW136485   3.555   2.248   8.534 -1.0770 -0.0302  0.2153
 8283SOL    HW236486   3.536   2.223   8.678 -0.9301 -1.1353 -1.6325
 8284SOL     OW36487   4.316   1.741  16.856  0.4305  0.3832  0.1026
 8284SOL    HW136488   4.378   1.691  16.802  0.0767 -0.5798  0.5787
 8284SOL    HW236489   4.277   1.811  16.804  1.3200 -1.6791 -3.3103
 8285SOL     OW36490   0.990   0.568   1.020 -0.2542  0.5337  0.3048
 8285SOL    HW136491   1.060   0.515   1.060  0.7199  1.8086  0.2684
 8285SOL    HW236492   0.953   0.499   0.965 -0.9151  0.2862  1.0596
 8286SOL     OW36493   3.276   4.261   5.307 -0.4209 -0.4948 -0.0325
 8286SOL    HW136494   3.186   4.261   5.275 -0.5089  2.5725  0.2499
 8286SOL    HW236495   3.254   4.204   5.380 -3.5753 -1.0688 -1.3991
 8287SOL     OW36496   3.994   4.635   2.622  0.1218  0.4405  0.5506
 8287SOL    HW136497   4.027   4.550   2.593  0.3845  0.5513  0.5201
 8287SOL    HW236498   3.953   4.617   2.707 -1.3553 -3.7138 -1.0765
 8288SOL     OW36499   0.179   2.587  13.325 -0.2688  0.3818  0.3581
 8288SOL    HW136500   0.156   2.494  13.322 -1.1940  0.6693 -1.7359
 8288SOL    HW236501   0.223   2.596  13.409  1.9319  0.7813 -0.8194
 8289SOL     OW36502   0.121   4.717  12.183 -0.1817  0.0764  0.1451
 8289SOL    HW136503   0.083   0.038  12.118  0.4785 -0.9028 -1.1447
 8289SOL    HW236504   0.045   4.660  12.194 -0.9210  0.6543 -2.0110
 8290SOL     OW36505   0.107   3.812   0.726 -0.0230 -0.3380 -0.1634
 8290SOL    HW136506   0.017   3.782   0.740 -0.9251  1.8037 -1.3551
 8290SOL    HW236507   0.149   3.730   0.752 -0.7917 -0.8226 -0.4545
 8291SOL     OW36508   0.859   3.936   5.555  0.0132  0.2041 -0.0000
 8291SOL    HW136509   0.899   3.850   5.545  1.3842  0.8055  0.2808
 8291SOL    HW236510   0.852   3.951   5.650  2.1035 -3.1446  0.6863
 8292SOL     OW36511   2.522   2.024   7.205  0.4131  0.4760  0.2973
 8292SOL    HW136512   2.460   2.004   7.134 -1.2298  2.5178  1.1605
 8292SOL    HW236513   2.530   1.942   7.254  3.2151 -0.3862 -1.5645
 8293SOL     OW36514   2.700   4.634   1.944 -0.1112  0.0445 -0.0998
 8293SOL    HW136515   2.779   4.582   1.960 -1.1188 -1.8936 -1.4912
 8293SOL    HW236516   2.718   4.671   1.858  1.4982 -2.3723 -0.7845
 8294SOL     OW36517   1.315   3.163  17.333 -0.1505 -0.2995  0.3942
 8294SOL    HW136518   1.258   3.238  17.349 -2.1679 -2.2133  2.2942
 8294SOL    HW236519   1.291   3.145  17.242 -0.4676 -0.4456  0.5036
 8295SOL     OW36520   0.110   0.780   8.810 -0.3646 -0.3542 -0.2464
 8295SOL    HW136521   0.019   0.809   8.813 -0.7230 -1.5655  0.5382
 8295SOL    HW236522   0.100   0.688   8.784  1.7304 -0.3526 -1.0320
 8296SOL     OW36523   4.200   1.829   6.324 -0.3131  0.1100  0.0737
 8296SOL    HW136524   4.171   1.784   6.245 -0.1706 -1.5788  0.9913
 8296SOL    HW236525   4.151   1.781   6.391  0.6465 -0.9939 -0.0071
 8297SOL     OW36526   4.013   0.662   6.716  0.0125 -0.0500  0.2871
 8297SOL    HW136527   4.036   0.580   6.672 -1.9851 -0.5129  0.1225
 8297SOL    HW236528   4.006   0.726   6.645 -0.5520 -0.6942 -0.2253
 8298SOL     OW36529   3.425   1.488  15.941 -0.3534  0.4653 -0.3074
 8298SOL    HW136530   3.503   1.437  15.919 -2.6928 -2.1424 -2.6633
 8298SOL    HW236531   3.415   1.492  16.036  1.4315 -0.4927 -0.0725
 8299SOL     OW36532   2.219   3.318   6.759  0.3511 -0.0081  0.1288
 8299SOL    HW136533   2.229   3.223   6.750 -1.3189 -0.2020  0.2349
 8299SOL    HW236534   2.139   3.332   6.707 -0.3733 -2.4933  0.5569
 8300SOL     OW36535   1.766   4.238   3.186  0.1701  0.1097 -0.3814
 8300SOL    HW136536   1.776   4.330   3.161 -1.4084  0.7182  1.2897
 8300SOL    HW236537   1.850   4.223   3.230  0.0102  1.7945  0.4730
 8301SOL     OW36538   4.607   0.900   8.749 -0.0554 -0.3123  0.4812
 8301SOL    HW136539   4.536   0.884   8.687 -1.4737 -1.9804  2.5795
 8301SOL    HW236540   4.578   0.983   8.786 -0.0910 -0.7828  1.5044
 8302SOL     OW36541   0.950   0.087   6.037  0.1450  0.4336  0.4389
 8302SOL    HW136542   0.869   0.039   6.054 -0.4993  0.4590 -2.6962
 8302SOL    HW236543   0.975   0.109   6.127  2.8784  0.7936 -0.4012
 8303SOL     OW36544   2.404   3.467   6.909 -0.1381  0.5099  0.1000
 8303SOL    HW136545   2.355   3.446   6.988  1.5702  1.0049  1.2805
 8303SOL    HW236546   2.360   3.415   6.841  1.1732 -0.6652  0.1561
 8304SOL     OW36547   2.589   2.341  17.629  0.5243 -0.0042 -0.1478
 8304SOL    HW136548   2.663   2.297  17.672  1.2708  0.1434 -1.3126
 8304SOL    HW236549   2.649   2.398  17.582  1.8325 -2.9381 -2.0439
 8305SOL     OW36550   0.645   2.204   7.063 -0.3304 -0.2163 -0.3383
 8305SOL    HW136551   0.565   2.241   7.027  1.0455  1.3976 -1.7518
 8305SOL    HW236552   0.618   2.125   7.110  0.7745 -0.9374 -0.9209
 8306SOL     OW36553   3.981   1.061   4.334  0.3689  0.2532  0.5072
 8306SOL    HW136554   4.011   0.971   4.320 -0.4502 -0.1355  1.2642
 8306SOL    HW236555   3.886   1.052   4.345  0.7543 -1.6673  2.1684
 8307SOL     OW36556   3.205   2.293   8.336 -0.4383  0.2400  0.7679
 8307SOL    HW136557   3.155   2.243   8.271  1.5105 -0.5367 -0.1225
 8307SOL    HW236558   3.210   2.369   8.278 -1.0042 -0.7755 -0.6272
 8308SOL     OW36559   3.307   1.645  10.492 -0.2291 -0.1156  0.3157
 8308SOL    HW136560   3.311   1.664  10.398 -1.2814 -3.4853 -0.4044
 8308SOL    HW236561   3.391   1.605  10.513  0.0417  0.2849 -0.0105
 8309SOL     OW36562   4.608   2.288  14.891  0.2151  0.0480  0.5549
 8309SOL    HW136563   4.604   2.248  14.978 -2.1673  0.7014  0.7407
 8309SOL    HW236564   4.533   2.252  14.844  0.0422  0.1563  0.7480
 8310SOL     OW36565   1.999   4.616  14.503  0.2134 -0.1622  0.3286
 8310SOL    HW136566   1.985   4.536  14.553 -0.7323 -0.3592 -0.2443
 8310SOL    HW236567   1.965   4.589  14.417  0.0663 -3.1900  1.3324
 8311SOL     OW36568   3.263   3.129   4.417 -0.9056 -0.1066 -0.0462
 8311SOL    HW136569   3.174   3.167   4.416 -0.3952  1.0780 -0.6990
 8311SOL    HW236570   3.273   3.096   4.327  1.1412  2.1671 -0.6497
 8312SOL     OW36571   0.525   2.931   3.031  0.1408 -0.5944 -0.4147
 8312SOL    HW136572   0.595   2.932   2.965  1.4744  1.1391  1.0024
 8312SOL    HW236573   0.517   3.025   3.048  0.3687 -0.4736 -0.9935
 8313SOL     OW36574   4.533   2.950  14.744 -0.7610  0.5802 -0.1371
 8313SOL    HW136575   4.611   2.982  14.789 -0.9251 -0.0203  0.5760
 8313SOL    HW236576   4.564   2.962  14.655  1.7287  1.7368  0.8892
 8314SOL     OW36577   1.072   3.330   6.157  0.2387  0.1385  0.2128
 8314SOL    HW136578   1.031   3.387   6.092 -1.6376 -1.0711  0.3263
 8314SOL    HW236579   1.043   3.249   6.115 -1.3524  1.2383 -0.7914
 8315SOL     OW36580   0.970   1.418   6.737 -0.7249 -0.1435 -0.5608
 8315SOL    HW136581   0.928   1.433   6.822  1.4321 -1.1221  0.7001
 8315SOL    HW236582   0.915   1.477   6.686 -1.1884 -1.6793 -1.8459
 8316SOL     OW36583   3.853   3.524   7.536  0.0362  0.0785  0.2919
 8316SOL    HW136584   3.869   3.541   7.443 -1.5639 -1.4310 -0.2711
 8316SOL    HW236585   3.807   3.441   7.527  0.2936  0.1549 -1.7539
 8317SOL     OW36586   0.681   4.678   3.686  0.3494  0.3616 -0.0917
 8317SOL    HW136587   0.722   4.603   3.729 -1.0909 -0.9996 -1.1079
 8317SOL    HW236588   0.726   4.686   3.602  0.5467 -1.5726 -0.1748
 8318SOL     OW36589   2.568   4.520   5.502 -0.2528 -0.0716 -0.2637
 8318SOL    HW136590   2.620   4.506   5.582  1.3116  0.3272 -1.2189
 8318SOL    HW236591   2.553   4.431   5.469  2.3508 -0.7180  0.2622
 8319SOL     OW36592   1.295   2.034   8.820  0.0686  0.1301  0.1528
 8319SOL    HW136593   1.340   2.107   8.777  1.3544 -0.0230  1.2423
 8319SOL    HW236594   1.358   2.014   8.889 -1.7898 -0.0308  1.7851
 8320SOL     OW36595   1.535   2.732   8.023  0.3823  0.1108 -0.1874
 8320SOL    HW136596   1.469   2.664   8.035  0.5465 -0.3442 -1.8098
 8320SOL    HW236597   1.607   2.672   8.040 -0.5489 -0.4290  1.7534
 8321SOL     OW36598   2.575   2.072   8.938 -0.3165  0.1113  0.2617
 8321SOL    HW136599   2.533   2.035   9.015 -1.3979  2.5394  0.8311
 8321SOL    HW236600   2.600   2.160   8.967 -0.1116 -0.0847  0.6734
 8322SOL     OW36601   1.703   2.942  10.587  0.1376 -0.2871  0.2407
 8322SOL    HW136602   1.679   2.983  10.670  1.7187 -1.5186  1.3024
 8322SOL    HW236603   1.685   2.855  10.623 -0.3489 -0.2155  0.1744
 8323SOL     OW36604   0.424   1.637   8.669  0.6908  0.2035 -0.7608
 8323SOL    HW136605   0.499   1.696   8.668  0.4970  0.4511 -0.7144
 8323SOL    HW236606   0.477   1.558   8.682 -0.1906 -0.3597 -0.5113
 8324SOL     OW36607   4.018   2.936  13.228 -0.6616  0.4929 -0.8326
 8324SOL    HW136608   3.969   2.898  13.301  1.6413 -0.7483  0.0957
 8324SOL    HW236609   4.015   3.029  13.254 -1.3652  0.3930 -0.5425
 8325SOL     OW36610   3.406   4.551   8.529  0.6327  0.1601  0.1256
 8325SOL    HW136611   3.472   4.500   8.576  0.5458 -0.4109 -0.3839
 8325SOL    HW236612   3.323   4.531   8.572  1.6112  1.0589  2.4511
 8326SOL     OW36613   1.621   4.021   3.513 -0.0391  0.8199  0.0901
 8326SOL    HW136614   1.711   4.009   3.482 -0.5509 -1.3759 -0.5218
 8326SOL    HW236615   1.613   3.995   3.605 -0.0328 -0.0485 -0.1612
 8327SOL     OW36616   3.730   2.000   7.144 -0.5913 -0.4423 -0.5947
 8327SOL    HW136617   3.700   2.076   7.094 -0.4562 -1.4640 -2.2550
 8327SOL    HW236618   3.779   2.050   7.208  0.4250  0.4344 -2.0485
 8328SOL     OW36619   0.042   1.238  12.216  0.4789  0.0295  0.4161
 8328SOL    HW136620   4.719   1.205  12.281  0.7816  1.0361  1.2059
 8328SOL    HW236621   0.074   1.155  12.179  1.2555  1.6701 -2.6152
 8329SOL     OW36622   1.499   0.069  15.232 -0.3044 -0.6405 -1.0385
 8329SOL    HW136623   1.542   0.048  15.148 -1.2751 -0.2830 -1.6221
 8329SOL    HW236624   1.569   0.126  15.264  0.8679 -2.6607  0.0202
 8330SOL     OW36625   2.854   0.635  17.228  0.2794  0.2398 -0.0137
 8330SOL    HW136626   2.909   0.630  17.306  2.3305  0.2884 -1.4602
 8330SOL    HW236627   2.890   0.717  17.193 -1.3485  0.8885 -0.1765
 8331SOL     OW36628   2.761   0.625   6.778 -0.7582  0.3803  0.4301
 8331SOL    HW136629   2.726   0.558   6.837  0.1154 -0.2476  0.2463
 8331SOL    HW236630   2.820   0.571   6.726  1.2088  0.6211  2.4163
 8332SOL     OW36631   2.831   1.556   6.215 -0.1082  0.0728 -0.1636
 8332SOL    HW136632   2.910   1.515   6.250  0.8819  0.5509 -1.8110
 8332SOL    HW236633   2.821   1.483   6.154  2.7149 -0.2175 -0.2738
 8333SOL     OW36634   1.149   1.474  13.758 -0.2065 -0.0501 -0.3825
 8333SOL    HW136635   1.194   1.554  13.784 -2.0342  0.4898  1.1081
 8333SOL    HW236636   1.083   1.509  13.698  0.9991  0.6446 -1.3211
 8334SOL     OW36637   1.014   1.651  16.133 -0.1008  0.0705 -0.1315
 8334SOL    HW136638   0.970   1.606  16.205 -0.1903  0.0058 -0.2268
 8334SOL    HW236639   1.073   1.581  16.107  1.7957  1.4298  0.4556
 8335SOL     OW36640   4.078   1.351   9.321 -0.3158  0.2775  0.4092
 8335SOL    HW136641   4.162   1.342   9.275  0.1731 -1.5947  1.6779
 8335SOL    HW236642   4.034   1.278   9.277  4.5016 -2.1790 -0.3846
 8336SOL     OW36643   1.613   3.421   7.784 -0.3258 -0.0935  0.2315
 8336SOL    HW136644   1.643   3.512   7.787  1.7449 -0.7922  1.1196
 8336SOL    HW236645   1.663   3.384   7.856 -1.6029  0.3562  1.3466
 8337SOL     OW36646   0.313   1.104   1.250 -0.2710  0.4816  0.0796
 8337SOL    HW136647   0.310   1.011   1.229  5.0482  0.9323 -2.7804
 8337SOL    HW236648   0.260   1.099   1.329 -2.1631  1.5960 -1.1118
 8338SOL     OW36649   0.848   4.040   5.266 -0.1328  0.0421  0.3840
 8338SOL    HW136650   0.857   4.020   5.359 -2.7396  0.8047  0.7924
 8338SOL    HW236651   0.920   3.989   5.227 -1.6286 -0.3665 -1.8381
 8339SOL     OW36652   1.088   3.133   4.595  0.4657  0.7012 -0.0927
 8339SOL    HW136653   1.120   3.050   4.632  2.9299  1.8067  0.2968
 8339SOL    HW236654   1.151   3.152   4.525 -1.7532  2.2315 -1.6541
 8340SOL     OW36655   0.898   3.266   4.461  0.3618 -0.0720 -0.3306
 8340SOL    HW136656   0.967   3.247   4.525  0.7092 -0.7074 -0.8956
 8340SOL    HW236657   0.944   3.278   4.378 -2.2547 -0.4824 -1.8151
 8341SOL     OW36658   0.001   2.390   2.259  0.2521  0.1908  0.5324
 8341SOL    HW136659   4.694   2.442   2.326 -0.1323  1.4394 -0.6933
 8341SOL    HW236660   4.725   2.441   2.179 -1.2882  1.5281  1.6537
 8342SOL     OW36661   2.113   0.888   6.838  0.2227  0.6468  0.1276
 8342SOL    HW136662   2.075   0.861   6.922 -1.2705 -1.7973 -1.3648
 8342SOL    HW236663   2.062   0.968   6.828 -0.9683 -0.0725  0.4220
 8343SOL     OW36664   2.022   1.833   7.184 -0.1895  0.0396  0.0205
 8343SOL    HW136665   2.113   1.821   7.158 -0.5954 -1.5785 -0.6937
 8343SOL    HW236666   2.022   1.909   7.242 -2.4408  0.5706 -0.6828
 8344SOL     OW36667   2.978   4.630   1.653 -0.8786  0.1524  0.5760
 8344SOL    HW136668   3.021   4.651   1.736  0.3284  1.2208 -0.3249
 8344SOL    HW236669   3.031   4.685   1.595 -1.0700 -0.0507  0.2055
 8345SOL     OW36670   2.273   1.070  15.150 -0.0289  0.5745  0.0490
 8345SOL    HW136671   2.335   1.014  15.103  0.7352  1.6141 -0.1746
 8345SOL    HW236672   2.289   1.027  15.234 -1.3894 -0.1694 -0.0657
 8346SOL     OW36673   3.969   0.016   4.086  0.5496 -0.3968 -0.1120
 8346SOL    HW136674   4.003   0.105   4.075 -0.7337 -0.1205 -1.6496
 8346SOL    HW236675   3.923   0.031   4.169  1.6414  0.4989  0.3311
 8347SOL     OW36676   1.484   2.611   0.848  0.3617 -0.2677  0.4829
 8347SOL    HW136677   1.557   2.566   0.806  2.2668  1.3315  2.1137
 8347SOL    HW236678   1.537   2.689   0.864 -0.7834  0.5429  0.3668
 8348SOL     OW36679   4.366   4.395   5.488 -0.3881  0.0235  0.2221
 8348SOL    HW136680   4.350   4.326   5.423 -0.7073 -0.2644  0.6068
 8348SOL    HW236681   4.351   4.350   5.571 -0.4892 -0.9589 -0.3152
 8349SOL     OW36682   2.150   1.775   0.437  0.1185  0.1077  0.7620
 8349SOL    HW136683   2.221   1.713   0.419 -0.2607 -0.0792 -0.1026
 8349SOL    HW236684   2.113   1.725   0.510  0.7119 -0.7557  0.4804
 8350SOL     OW36685   1.932   4.216  11.366 -0.3034  0.2768 -0.2840
 8350SOL    HW136686   1.883   4.225  11.448 -2.7493  2.1406 -1.9312
 8350SOL    HW236687   2.004   4.162  11.397 -0.6757 -1.7109 -2.9142
 8351SOL     OW36688   2.207   3.177   8.654  0.4830 -0.2134 -0.8307
 8351SOL    HW136689   2.283   3.132   8.617 -0.4943 -1.2854 -1.5657
 8351SOL    HW236690   2.243   3.203   8.738  0.9786 -1.0084 -0.7975
 8352SOL     OW36691   1.851   4.057  14.744 -0.2492  0.0209  0.2033
 8352SOL    HW136692   1.805   4.133  14.709 -0.2663 -0.3438 -0.5554
 8352SOL    HW236693   1.793   3.998  14.696  0.2070 -0.0094 -0.3115
 8353SOL     OW36694   0.661   1.175   6.862  0.0292  0.3074  0.8760
 8353SOL    HW136695   0.693   1.264   6.848  3.5587 -1.1810 -0.4502
 8353SOL    HW236696   0.584   1.185   6.918  0.1899  0.3244  1.0943
 8354SOL     OW36697   4.190   4.196   6.198 -0.1070 -0.3614  0.0317
 8354SOL    HW136698   4.280   4.189   6.166 -0.6622  0.2661 -1.7021
 8354SOL    HW236699   4.196   4.269   6.259  0.1861 -0.8461  0.5813
 8355SOL     OW36700   0.391   3.001   7.038 -0.2636 -0.0120  0.7821
 8355SOL    HW136701   0.442   3.010   7.118 -0.9678 -0.4442  1.2843
 8355SOL    HW236702   0.303   3.004   7.076 -0.7729  1.1066 -0.4945
 8356SOL     OW36703   0.854   0.063   3.922 -0.3171 -0.3874 -0.2894
 8356SOL    HW136704   0.906   0.116   3.863 -1.8709 -0.4650 -1.7107
 8356SOL    HW236705   0.774   0.045   3.873 -2.5516 -0.2175  3.2618
 8357SOL     OW36706   1.161   3.020   1.385 -0.2582 -0.0370 -0.0563
 8357SOL    HW136707   1.072   3.054   1.378 -0.2199  0.0668 -0.0447
 8357SOL    HW236708   1.189   3.061   1.467 -1.8772  0.9576 -0.0148
 8358SOL     OW36709   4.510   4.398   2.881 -0.0432 -0.3323 -0.1861
 8358SOL    HW136710   4.454   4.476   2.874 -0.4652 -0.7181 -1.1912
 8358SOL    HW236711   4.599   4.432   2.885  0.1135 -1.0865  2.9364
 8359SOL     OW36712   1.501   1.322   4.117  0.4496 -0.0374 -0.5281
 8359SOL    HW136713   1.534   1.399   4.070 -1.4328  0.6868 -0.6381
 8359SOL    HW236714   1.413   1.351   4.141  0.9932  2.3972 -1.4842
 8360SOL     OW36715   3.258   3.869   1.015 -0.0736 -0.3110 -0.1238
 8360SOL    HW136716   3.283   3.869   1.108 -0.4035 -2.5051 -0.0333
 8360SOL    HW236717   3.311   3.943   0.984 -2.9841  2.5685  1.8470
 8361SOL     OW36718   4.474   4.568   6.696  0.2122  0.2365  0.9462
 8361SOL    HW136719   4.509   4.538   6.780 -0.9963  0.1480  1.4206
 8361SOL    HW236720   4.547   4.548   6.637 -1.5113 -1.7171 -0.5490
 8362SOL     OW36721   4.339   1.384   4.525 -0.0331 -0.6368  0.0672
 8362SOL    HW136722   4.381   1.350   4.604  1.1865  2.4351  0.7485
 8362SOL    HW236723   4.275   1.316   4.503 -1.8938  1.5109 -1.0433
 8363SOL     OW36724   2.106   0.944   8.580  0.1187 -0.0658  0.1550
 8363SOL    HW136725   2.145   0.936   8.493 -0.6821  1.2612 -0.3235
 8363SOL    HW236726   2.147   1.016   8.627  1.7204 -0.2028 -1.0359
 8364SOL     OW36727   1.600   4.220  12.246 -0.4742  0.0522  0.4941
 8364SOL    HW136728   1.630   4.153  12.307  0.2796 -0.2854 -0.2478
 8364SOL    HW236729   1.610   4.303  12.292 -1.9375 -0.1549  1.1977
 8365SOL     OW36730   1.436   0.470  10.808 -0.5691  0.0649 -0.2987
 8365SOL    HW136731   1.500   0.478  10.738 -0.3456 -0.7773 -0.1896
 8365SOL    HW236732   1.408   0.561  10.820 -1.9240 -0.4250  0.3693
 8366SOL     OW36733   2.755   3.050   5.585 -0.3720 -0.0389  0.1319
 8366SOL    HW136734   2.709   3.010   5.659 -0.9084  0.1833 -0.0796
 8366SOL    HW236735   2.844   3.066   5.614 -0.3292  1.0619 -0.6158
 8367SOL     OW36736   4.111   3.141   0.509 -0.0755  0.1923  0.6920
 8367SOL    HW136737   4.197   3.175   0.484 -0.2208 -0.3696 -0.5995
 8367SOL    HW236738   4.132   3.050   0.489  2.6805  0.3067  3.0752
 8368SOL     OW36739   3.396   1.066   2.500  0.0297 -0.3531  0.0860
 8368SOL    HW136740   3.397   0.974   2.527 -2.5867  0.1976  1.9663
 8368SOL    HW236741   3.432   1.110   2.577  0.1851 -1.0404  0.4006
 8369SOL     OW36742   0.285   1.779   4.241  0.4511 -0.3026  0.0444
 8369SOL    HW136743   0.320   1.867   4.251 -1.7307  0.5256  0.3075
 8369SOL    HW236744   0.358   1.718   4.257  0.6449 -0.2418 -0.6079
 8370SOL     OW36745   1.116   4.525   7.774  0.5761 -0.1975 -0.1935
 8370SOL    HW136746   1.057   4.462   7.816 -1.8568  0.6747 -2.2816
 8370SOL    HW236747   1.071   4.608   7.757  0.5604  0.0090  0.8416
 8371SOL     OW36748   0.602   2.233  16.952 -0.0121 -0.3377  0.1898
 8371SOL    HW136749   0.514   2.197  16.958  0.6765 -1.6558  2.2183
 8371SOL    HW236750   0.579   2.324  16.975  0.2578 -0.2559  0.1354
 8372SOL     OW36751   4.372   0.273   5.158 -0.3915 -0.3331  0.0070
 8372SOL    HW136752   4.436   0.329   5.114 -1.8969 -0.7987 -2.7555
 8372SOL    HW236753   4.404   0.193   5.116 -1.3443 -2.0960  2.6767
 8373SOL     OW36754   2.909   1.796   8.507 -0.9250  0.8831  0.3051
 8373SOL    HW136755   2.855   1.719   8.524 -0.7135  1.1503  2.2022
 8373SOL    HW236756   2.963   1.811   8.585  1.9192 -0.3851 -1.4157
 8374SOL     OW36757   0.817   1.263   5.081 -0.0956  0.5570 -0.1744
 8374SOL    HW136758   0.763   1.317   5.139 -0.3020 -0.4161  0.5186
 8374SOL    HW236759   0.847   1.193   5.138  1.8486  1.4752 -0.0571
 8375SOL     OW36760   0.223   1.953   9.322  0.5684 -0.3806 -0.3970
 8375SOL    HW136761   0.250   1.967   9.413  1.0592 -2.5289 -0.2008
 8375SOL    HW236762   0.138   1.915   9.346 -0.2719  0.4714 -2.0113
 8376SOL     OW36763   3.675   2.066  12.273  0.0485  0.9539  0.2099
 8376SOL    HW136764   3.611   1.995  12.276  0.4649  0.6381  2.1315
 8376SOL    HW236765   3.730   2.049  12.350 -1.2117 -0.4601  0.7991
 8377SOL     OW36766   0.166   2.007   5.952 -0.5926  0.3844  0.3772
 8377SOL    HW136767   0.091   1.951   5.933 -1.1571  0.6413  1.8541
 8377SOL    HW236768   0.215   1.943   6.004 -1.6051  0.7103  1.7520
 8378SOL     OW36769   3.594   2.491  11.579  0.0949 -0.3641 -0.8320
 8378SOL    HW136770   3.642   2.471  11.499  1.2393 -1.7289  0.1715
 8378SOL    HW236771   3.511   2.472  11.536  0.3833  0.9465 -1.9679
 8379SOL     OW36772   0.881   2.432  10.719  0.1315  0.7649  0.3731
 8379SOL    HW136773   0.941   2.429  10.645 -0.9923  1.1833 -0.5496
 8379SOL    HW236774   0.796   2.431  10.676  0.1739 -0.3707  0.3214
 8380SOL     OW36775   2.023   0.420   1.451 -0.4053  0.0545 -0.4550
 8380SOL    HW136776   2.005   0.338   1.498 -0.9637 -0.0740 -0.8985
 8380SOL    HW236777   1.940   0.459   1.478 -0.5660  0.7654 -1.9977
 8381SOL     OW36778   4.722   3.436   2.742  0.4599  0.3083  0.0627
 8381SOL    HW136779   0.055   3.375   2.759 -0.3652 -0.3656  1.1231
 8381SOL    HW236780   4.640   3.398   2.773 -0.1197  0.2638 -1.4910
 8382SOL     OW36781   3.729   4.426  12.667  0.3206  0.1209  0.0095
 8382SOL    HW136782   3.671   4.497  12.695 -2.7541 -1.8471 -1.3440
 8382SOL    HW236783   3.753   4.392  12.753  1.5000  1.0449  0.0491
 8383SOL     OW36784   1.718   4.376   5.483 -0.4709  0.3324  0.0120
 8383SOL    HW136785   1.634   4.376   5.529 -1.0873  1.5725 -1.1032
 8383SOL    HW236786   1.689   4.401   5.395  0.3829  2.2234  0.2611
 8384SOL     OW36787   0.840   1.019   5.233 -0.3952 -0.0395 -0.2747
 8384SOL    HW136788   0.795   0.936   5.242  0.1907 -0.4551 -1.1808
 8384SOL    HW236789   0.896   1.012   5.311 -0.3457 -1.1720 -0.4157
 8385SOL     OW36790   4.422   3.354   6.277  0.2737  0.2652  0.5696
 8385SOL    HW136791   4.365   3.289   6.234  1.3476  0.9832 -1.9563
 8385SOL    HW236792   4.360   3.426   6.291 -2.1680 -2.0407  1.7297
 8386SOL     OW36793   3.254   3.465  13.066  0.5510 -0.3914 -0.1058
 8386SOL    HW136794   3.316   3.488  13.136 -0.4745  0.3753  0.5473
 8386SOL    HW236795   3.176   3.506  13.103  0.2527  0.7603 -2.0316
 8387SOL     OW36796   1.482   2.015   9.038  0.4240 -0.2500  0.5411
 8387SOL    HW136797   1.523   1.946   9.092 -0.8611  1.8496  4.2177
 8387SOL    HW236798   1.471   2.082   9.106  0.5437  0.5373 -0.2167
 8388SOL     OW36799   4.050   2.784   3.889  0.7869  0.2675  0.0964
 8388SOL    HW136800   4.016   2.697   3.868 -0.7934  0.7772  0.5414
 8388SOL    HW236801   4.003   2.845   3.833  0.7658  1.6597  1.6217
 8389SOL     OW36802   1.972   2.362  10.606 -0.7861  0.0915 -0.0414
 8389SOL    HW136803   1.879   2.353  10.625 -0.8431 -0.2021 -0.4649
 8389SOL    HW236804   1.976   2.418  10.528 -1.7383  1.7113  1.0800
 8390SOL     OW36805   2.505   2.991   3.691 -0.1326 -0.1782 -0.4064
 8390SOL    HW136806   2.482   3.019   3.780  1.3844  0.0039 -0.0667
 8390SOL    HW236807   2.472   2.901   3.692 -1.1182  0.1560 -3.4506
 8391SOL     OW36808   2.482   2.715   6.461  0.1429 -0.2300  0.1674
 8391SOL    HW136809   2.462   2.737   6.370  0.9862  1.0021  0.2818
 8391SOL    HW236810   2.542   2.642   6.447  3.0255  2.0426  0.6006
 8392SOL     OW36811   3.352   1.032  10.952 -0.0437 -0.1881  0.7086
 8392SOL    HW136812   3.438   1.069  10.970  0.6339 -1.2981 -0.3150
 8392SOL    HW236813   3.348   0.961  11.015  0.0423 -0.2303  0.6663
 8393SOL     OW36814   1.648   2.880  14.796 -0.1330 -0.4895 -0.3837
 8393SOL    HW136815   1.655   2.883  14.892  0.1582  1.3825 -0.4719
 8393SOL    HW236816   1.560   2.907  14.770  0.2081 -0.5173 -1.5503
 8394SOL     OW36817   1.516   0.907   9.123  0.7726  0.3695 -0.4959
 8394SOL    HW136818   1.490   0.859   9.043 -0.0709  0.0051 -0.0026
 8394SOL    HW236819   1.453   0.880   9.189 -0.1339 -1.5012 -2.1126
 8395SOL     OW36820   4.181   4.710   7.617 -0.0815 -0.0968 -0.1846
 8395SOL    HW136821   4.174   4.620   7.651  0.0748  0.1964  0.6340
 8395SOL    HW236822   4.089   4.719   7.592  0.4814  2.5741 -1.2569
 8396SOL     OW36823   0.960   1.691  12.862 -0.3837 -0.6290  0.0228
 8396SOL    HW136824   0.953   1.642  12.944  0.9400 -2.9354 -1.2249
 8396SOL    HW236825   1.046   1.732  12.872 -1.3361  1.5727 -0.9664
 8397SOL     OW36826   2.048   0.102   5.374 -0.0097  0.3327  0.2128
 8397SOL    HW136827   2.103   0.035   5.415 -2.0549 -3.3371 -3.0542
 8397SOL    HW236828   2.080   0.182   5.416  0.0121  0.3687  0.1254
 8398SOL     OW36829   3.762   4.692   3.932 -0.2592  0.1775  0.0519
 8398SOL    HW136830   3.835   4.711   3.990  0.4139 -2.2612  0.0118
 8398SOL    HW236831   3.813   4.647   3.864 -1.9020 -2.1754  0.4006
 8399SOL     OW36832   2.838   2.596  12.242 -0.4018 -0.0499 -0.0597
 8399SOL    HW136833   2.798   2.509  12.243 -2.9421  1.1104 -0.3512
 8399SOL    HW236834   2.932   2.581  12.252 -1.0792 -1.8982  3.6110
 8400SOL     OW36835   4.600   0.873  16.308  0.0096 -0.1726  0.1875
 8400SOL    HW136836   4.571   0.819  16.234  2.1749  0.9507 -1.4688
 8400SOL    HW236837   4.656   0.808  16.351  2.2867  1.6488 -0.0418
 8401SOL     OW36838   4.490   4.402   8.292 -0.5077  0.0023 -0.5467
 8401SOL    HW136839   4.447   4.361   8.367  0.0766 -0.1912 -0.3198
 8401SOL    HW236840   4.578   4.417   8.326 -0.6178  0.2815 -0.3802
 8402SOL     OW36841   2.980   0.744  11.096 -0.2372  0.6860  0.3015
 8402SOL    HW136842   3.006   0.693  11.020  1.3309  1.1751  0.5101
 8402SOL    HW236843   2.886   0.758  11.081 -0.7800 -1.3577  1.8353
 8403SOL     OW36844   2.855   4.648  15.318 -0.1708 -0.1861  0.6229
 8403SOL    HW136845   2.826   4.685  15.234 -2.3745 -2.5556  0.3454
 8403SOL    HW236846   2.878   4.728  15.366  2.3038  0.3553 -1.4243
 8404SOL     OW36847   4.614   1.424   6.577  0.1554 -0.0894 -0.2574
 8404SOL    HW136848   4.618   1.453   6.668  0.0783 -0.1096 -0.2473
 8404SOL    HW236849   4.521   1.425   6.554  0.1587  0.5584 -0.2457
 8405SOL     OW36850   2.869   3.433   5.324 -0.0884  0.1197 -0.9734
 8405SOL    HW136851   2.900   3.345   5.301 -1.5828  0.0611 -2.7414
 8405SOL    HW236852   2.866   3.456   5.231 -0.1412  1.1961 -0.7113
 8406SOL     OW36853   3.907   3.484   7.935  0.0496  0.4322 -0.3532
 8406SOL    HW136854   3.903   3.538   8.014 -0.5407 -2.7310  1.8003
 8406SOL    HW236855   3.831   3.522   7.891  0.7349 -0.3034 -2.1837
 8407SOL     OW36856   2.032   1.768   3.289  0.1997  0.5655 -0.1651
 8407SOL    HW136857   1.956   1.745   3.237 -0.6286  1.5568  0.6013
 8407SOL    HW236858   2.059   1.829   3.220  0.3768 -0.5913 -1.1031
 8408SOL     OW36859   0.325   1.705   6.427 -0.3662  0.7323  0.7300
 8408SOL    HW136860   0.236   1.733   6.407 -0.5145 -0.1110  0.2299
 8408SOL    HW236861   0.332   1.621   6.381 -1.2025  0.4645  1.0973
 8409SOL     OW36862   2.049   3.328  10.221 -0.1683 -0.2855 -0.6979
 8409SOL    HW136863   1.998   3.392  10.172  0.3758  1.3617  0.8603
 8409SOL    HW236864   2.094   3.386  10.282 -0.0397 -1.2881  0.1682
 8410SOL     OW36865   3.419   4.511   8.256 -0.0118  0.4029 -0.0743
 8410SOL    HW136866   3.409   4.493   8.350 -0.1649  1.8651  0.1898
 8410SOL    HW236867   3.348   4.451   8.236 -0.8334  1.4200 -0.1971
 8411SOL     OW36868   2.720   3.296   8.345 -0.2731  0.7449 -0.1839
 8411SOL    HW136869   2.737   3.203   8.329 -0.4487  0.6533  0.1528
 8411SOL    HW236870   2.806   3.328   8.319  1.6191 -1.9476  2.8579
 8412SOL     OW36871   3.867   0.133  15.675 -0.2542  0.1314  0.0316
 8412SOL    HW136872   3.910   0.060  15.629  1.0665  1.1856 -0.4011
 8412SOL    HW236873   3.811   0.175  15.609  0.1691 -1.9782 -1.6727
 8413SOL     OW36874   3.590   0.450   8.232 -0.0436  0.2375  0.1393
 8413SOL    HW136875   3.592   0.404   8.316  3.2976 -2.3505 -1.3277
 8413SOL    HW236876   3.668   0.505   8.242  0.7956 -0.7913 -0.7409
 8414SOL     OW36877   4.408   1.510   7.795  0.1928  0.2376 -0.3236
 8414SOL    HW136878   4.349   1.447   7.753 -0.4385  0.5256  0.1398
 8414SOL    HW236879   4.344   1.580   7.805 -0.4340 -0.3011 -0.5354
 8415SOL     OW36880   2.784   3.189   2.189 -0.0228 -0.3707 -0.3546
 8415SOL    HW136881   2.770   3.188   2.095 -1.0906 -2.0681 -0.1814
 8415SOL    HW236882   2.879   3.180   2.198 -0.6870 -2.5934  4.4471
 8416SOL     OW36883   1.113   1.237  15.417  0.1316 -0.0015 -0.1335
 8416SOL    HW136884   1.151   1.242  15.329  1.9329 -0.5970  0.6047
 8416SOL    HW236885   1.188   1.203  15.466  0.9183  0.6114 -0.9000
 8417SOL     OW36886   4.069   0.102  16.052  0.3479  0.0907  0.1121
 8417SOL    HW136887   3.985   0.125  16.014  0.1251  1.9868  1.7627
 8417SOL    HW236888   4.053   0.008  16.064 -0.9221  0.1745 -0.9945
 8418SOL     OW36889   2.547   2.388  13.027  0.1653  0.2549 -0.1372
 8418SOL    HW136890   2.638   2.373  13.053 -1.3394 -4.4476  2.3839
 8418SOL    HW236891   2.557   2.463  12.968 -0.2046 -0.6215 -1.3240
 8419SOL     OW36892   1.144   3.629   3.010 -0.1790  0.0501  0.6244
 8419SOL    HW136893   1.216   3.603   2.952 -0.6690 -0.0222  0.0498
 8419SOL    HW236894   1.137   3.723   2.996 -2.5812 -0.2451 -0.1796
 8420SOL     OW36895   1.247   2.278   6.701 -0.9458 -0.6016 -0.0776
 8420SOL    HW136896   1.169   2.267   6.648 -1.2311  0.0393  0.2119
 8420SOL    HW236897   1.242   2.196   6.750 -1.9188 -1.4467 -1.5906
 8421SOL     OW36898   0.848   0.552   9.931  0.0551  0.2615 -0.4382
 8421SOL    HW136899   0.786   0.567   9.860  0.2491 -2.2217 -1.1188
 8421SOL    HW236900   0.822   0.471   9.974  0.5017 -0.1044 -0.8495
 8422SOL     OW36901   4.346   0.280   7.778  0.1439 -0.1462 -0.5532
 8422SOL    HW136902   4.253   0.304   7.777 -0.1077 -1.0996 -0.2339
 8422SOL    HW236903   4.345   0.186   7.760 -0.1283 -0.1876 -0.3283
 8423SOL     OW36904   3.439   2.008   9.231 -0.3654  0.1142  0.3964
 8423SOL    HW136905   3.491   1.932   9.258  0.2233 -0.0834 -1.2551
 8423SOL    HW236906   3.377   1.961   9.175 -0.2804  1.8823 -1.1695
 8424SOL     OW36907   3.190   3.173   9.261 -0.4277  0.0492  0.4501
 8424SOL    HW136908   3.244   3.247   9.287 -1.9506  1.0642  0.6800
 8424SOL    HW236909   3.105   3.203   9.290  0.4323  0.2882  2.7325
 8425SOL     OW36910   3.610   1.420   5.940 -0.1437 -0.1632 -0.1918
 8425SOL    HW136911   3.660   1.375   6.008  0.7749  0.4678 -0.4428
 8425SOL    HW236912   3.603   1.354   5.872 -1.2649  0.8890 -1.1006
 8426SOL     OW36913   0.324   3.798   2.326 -0.4628  0.6753 -0.0127
 8426SOL    HW136914   0.321   3.893   2.310 -3.3976  0.4945 -0.3869
 8426SOL    HW236915   0.412   3.774   2.295 -0.0453  1.8158  0.2634
 8427SOL     OW36916   3.053   2.146  10.827 -0.0314 -0.8341  0.2319
 8427SOL    HW136917   3.057   2.118  10.919  1.2473  0.7310  0.6392
 8427SOL    HW236918   2.964   2.183  10.826  0.3228 -0.0026 -0.2864
 8428SOL     OW36919   4.151   1.177   2.519 -0.2154 -0.1011  0.6327
 8428SOL    HW136920   4.119   1.129   2.442  0.4100  0.0685  0.2671
 8428SOL    HW236921   4.069   1.203   2.562 -0.1244  1.0807  0.1034
 8429SOL     OW36922   0.845   0.213   7.407  0.0215  0.6389  0.8588
 8429SOL    HW136923   0.897   0.136   7.431 -1.6213 -1.2004 -1.5827
 8429SOL    HW236924   0.867   0.277   7.475 -1.5626  1.4873  0.5555
 8430SOL     OW36925   2.774   4.159   8.546 -0.4020  0.0394 -0.1777
 8430SOL    HW136926   2.848   4.207   8.583  0.0888 -1.8208  1.2182
 8430SOL    HW236927   2.754   4.108   8.624 -1.2594 -2.2604 -1.9055
 8431SOL     OW36928   1.664   0.253   5.497  0.1862 -0.6698 -0.7961
 8431SOL    HW136929   1.579   0.243   5.456 -0.4937  0.0764  0.4209
 8431SOL    HW236930   1.690   0.342   5.474  0.1689 -0.6191 -0.6249
 8432SOL     OW36931   0.474   1.946   4.014 -0.0102 -0.2285  0.5095
 8432SOL    HW136932   0.467   2.033   3.975  0.9350 -0.6216 -0.5613
 8432SOL    HW236933   0.445   1.897   3.937  0.8115  1.0234 -0.5910
 8433SOL     OW36934   0.472   0.952   1.661 -0.6553 -0.4777  0.4170
 8433SOL    HW136935   0.381   0.983   1.660 -0.8783 -1.1294  0.1748
 8433SOL    HW236936   0.491   0.982   1.750 -1.2640  0.5978  0.1794
 8434SOL     OW36937   0.778   0.878   1.665 -0.2328 -0.0976  0.3885
 8434SOL    HW136938   0.799   0.958   1.714 -1.8557  1.5684 -1.6765
 8434SOL    HW236939   0.720   0.831   1.724 -0.5139 -0.1916  0.0345
 8435SOL     OW36940   0.284   0.346   4.690 -0.0821 -0.0541  0.1155
 8435SOL    HW136941   0.234   0.349   4.772 -0.8291 -0.2252 -0.3374
 8435SOL    HW236942   0.375   0.342   4.721 -0.3177  0.2632  0.8511
 8436SOL     OW36943   0.502   2.714   7.342  0.1217 -0.7214 -0.6692
 8436SOL    HW136944   0.415   2.748   7.324  0.6639  0.8038 -0.4036
 8436SOL    HW236945   0.486   2.620   7.330  2.0720 -0.7749 -2.9303
 8437SOL     OW36946   4.422   2.631  10.369 -0.2534  0.5926 -0.6136
 8437SOL    HW136947   4.423   2.725  10.390 -1.5856  1.1698 -3.0386
 8437SOL    HW236948   4.415   2.631  10.273 -1.0760  0.9161 -0.5576
 8438SOL     OW36949   4.403   1.595   3.129 -0.3330  0.1557  0.7418
 8438SOL    HW136950   4.481   1.540   3.140  2.1944  3.7753  0.8387
 8438SOL    HW236951   4.392   1.622   3.220 -1.4041 -0.4076  0.7782
 8439SOL     OW36952   2.631   4.166   8.912  0.4020  0.5752  0.6838
 8439SOL    HW136953   2.676   4.107   8.852 -0.2478 -1.2235  1.9418
 8439SOL    HW236954   2.572   4.106   8.958  1.8705 -3.3885 -2.6324
 8440SOL     OW36955   0.200   1.638   2.853  0.4887 -0.1860  0.0466
 8440SOL    HW136956   0.251   1.576   2.800  0.1387 -0.2262 -0.2396
 8440SOL    HW236957   0.124   1.638   2.795 -1.8798  0.4509  3.1863
 8441SOL     OW36958   4.338   2.140  14.240 -0.3945 -0.7157  0.4430
 8441SOL    HW136959   4.261   2.095  14.207  0.3232 -0.4855 -1.5326
 8441SOL    HW236960   4.394   2.151  14.163  0.2021  1.2028  1.1431
 8442SOL     OW36961   4.514   2.144   6.932 -0.2801 -0.0401  0.1614
 8442SOL    HW136962   4.562   2.226   6.944 -1.9139  0.9001  0.2404
 8442SOL    HW236963   4.426   2.171   6.905  0.1286  0.5350 -0.6034
 8443SOL     OW36964   2.241   0.424  12.959 -0.1856  0.1909 -0.0873
 8443SOL    HW136965   2.300   0.373  12.904 -1.0113 -0.2943 -0.5228
 8443SOL    HW236966   2.293   0.504  12.969  2.3279 -1.2547 -1.4427
 8444SOL     OW36967   4.628   1.377   5.203 -0.8166  0.1746  0.2711
 8444SOL    HW136968   4.657   1.454   5.153  0.3972 -0.5148 -0.0673
 8444SOL    HW236969   4.619   1.306   5.140  0.4977  0.2225  0.0451
 8445SOL     OW36970   0.100   1.528   6.991  0.1154 -0.2534  0.7125
 8445SOL    HW136971   0.123   1.587   7.063 -1.3089  0.2404  0.7576
 8445SOL    HW236972   0.045   1.584   6.937  1.6370  1.1148  0.5811
 8446SOL     OW36973   0.108   3.915   2.969 -0.1650 -0.1398  0.5252
 8446SOL    HW136974   0.055   3.835   2.970  0.1875 -0.4331 -2.9458
 8446SOL    HW236975   0.162   3.908   3.048 -0.9141 -0.8163  0.9795
 8447SOL     OW36976   2.362   4.635   8.269 -0.0265  0.1625 -0.7399
 8447SOL    HW136977   2.371   4.711   8.326 -0.1212  0.4777 -1.1442
 8447SOL    HW236978   2.294   4.659   8.206  1.6114  3.4510 -1.2468
 8448SOL     OW36979   4.649   3.089   6.838  0.2424 -0.0850 -0.2952
 8448SOL    HW136980   4.719   3.026   6.818 -0.0823 -0.0645 -1.4541
 8448SOL    HW236981   4.572   3.035   6.821  1.6542 -2.1177 -0.2355
 8449SOL     OW36982   2.370   0.582   7.617 -0.1057 -0.5179 -0.3491
 8449SOL    HW136983   2.343   0.658   7.566 -2.3394 -0.7919  0.4023
 8449SOL    HW236984   2.287   0.550   7.653  0.1814 -1.2915 -0.3602
 8450SOL     OW36985   3.166   2.939  17.606  0.3232 -0.8447  0.1490
 8450SOL    HW136986   3.214   3.007  17.655  0.5295 -0.8148 -0.0930
 8450SOL    HW236987   3.175   2.861  17.661  0.2022 -0.8184  0.2053
 8451SOL     OW36988   2.942   0.835  12.917 -0.3319  0.4485 -0.0279
 8451SOL    HW136989   3.014   0.787  12.956  0.6020  2.2998  0.5208
 8451SOL    HW236990   2.986   0.920  12.915  1.7308 -0.6001  0.9868
 8452SOL     OW36991   3.140   1.323   2.907  0.2223 -0.1411 -0.1701
 8452SOL    HW136992   3.068   1.312   2.969  1.2998 -0.9107  0.9480
 8452SOL    HW236993   3.153   1.231   2.881  0.5317 -0.1112 -0.1250
 8453SOL     OW36994   2.019   2.553   9.849 -0.7033  0.7785 -0.1632
 8453SOL    HW136995   2.056   2.581   9.765  3.0850 -0.8526  0.9688
 8453SOL    HW236996   2.075   2.477   9.865 -0.3373  1.1421  0.2897
 8454SOL     OW36997   0.640   4.329   0.461  0.2338 -0.1220  0.2603
 8454SOL    HW136998   0.699   4.258   0.435  0.5446  0.1228  0.2936
 8454SOL    HW236999   0.675   4.350   0.548  0.6264 -1.3514  0.4023
 8455SOL     OW37000   2.150   4.227   9.214  0.0197  0.0567 -0.1400
 8455SOL    HW137001   2.082   4.277   9.259 -0.4677 -0.0266 -0.7883
 8455SOL    HW237002   2.179   4.175   9.290 -0.9774  0.5294  0.5664
 8456SOL     OW37003   1.790   1.538   6.007  0.3172 -0.5227  0.0316
 8456SOL    HW137004   1.825   1.523   6.094 -0.2289  1.3967  0.5853
 8456SOL    HW237005   1.697   1.526   6.024  0.8852 -1.4169  2.4689
 8457SOL     OW37006   3.513   1.847   4.030  0.2512 -0.5283  0.2987
 8457SOL    HW137007   3.543   1.883   3.947 -0.4400 -0.4395  0.0931
 8457SOL    HW237008   3.586   1.860   4.091  1.2176 -2.2646 -0.5158
 8458SOL     OW37009   1.073   2.852   6.668 -0.0825 -0.2294 -0.1637
 8458SOL    HW137010   1.104   2.939   6.642 -0.1669 -0.8404 -2.3095
 8458SOL    HW237011   0.980   2.838   6.648  0.3582 -0.9909 -1.6603
 8459SOL     OW37012   2.618   3.172   2.432  0.0210  0.1751 -0.6588
 8459SOL    HW137013   2.530   3.182   2.397 -0.7961 -1.8700  0.8404
 8459SOL    HW237014   2.672   3.172   2.353 -0.0111 -0.1860 -0.6799
 8460SOL     OW37015   1.098   1.707   6.659 -0.1226  0.3580 -0.0650
 8460SOL    HW137016   1.012   1.688   6.620 -0.5716  1.1110  0.5634
 8460SOL    HW237017   1.112   1.788   6.610  2.8235 -0.2375 -0.1997
 8461SOL     OW37018   1.696   3.176  10.263 -0.1814  0.0058 -0.0180
 8461SOL    HW137019   1.607   3.141  10.269 -0.2911  0.0319 -1.3529
 8461SOL    HW237020   1.750   3.105  10.297 -0.2505  0.7227  1.5758
 8462SOL     OW37021   3.544   0.546  11.216 -0.5546 -0.3561  0.4099
 8462SOL    HW137022   3.536   0.622  11.158  0.7735 -0.7708 -0.3142
 8462SOL    HW237023   3.478   0.490  11.175  0.3013 -1.2015  0.1921
 8463SOL     OW37024   2.855   2.537   5.991  0.2722  0.2091 -0.5807
 8463SOL    HW137025   2.847   2.622   5.948  1.2725  0.3930 -0.3984
 8463SOL    HW237026   2.794   2.555   6.063  1.5348 -0.7065  0.7187
 8464SOL     OW37027   2.635   1.092  16.385 -0.0369 -0.1767  0.4710
 8464SOL    HW137028   2.716   1.079  16.435 -1.9762 -0.5759  3.5448
 8464SOL    HW237029   2.580   1.134  16.451  0.5518 -0.5415  1.1917
 8465SOL     OW37030   1.456   2.348   3.760  0.0835 -0.5338 -0.1003
 8465SOL    HW137031   1.431   2.303   3.840 -1.2018 -0.4022 -0.4290
 8465SOL    HW237032   1.378   2.345   3.705 -0.2648  1.2035  0.2728
 8466SOL     OW37033   0.048   3.946   3.349  0.3856 -0.6802  0.1967
 8466SOL    HW137034   0.138   3.916   3.338  0.5783  1.0926 -3.0799
 8466SOL    HW237035   4.737   3.877   3.305  2.5530 -1.2209 -1.3995
 8467SOL     OW37036   0.314   3.353   4.116  0.5717  0.5405  0.3761
 8467SOL    HW137037   0.389   3.321   4.166  1.9651  1.8183 -0.9069
 8467SOL    HW237038   0.341   3.444   4.103  2.5187 -0.3759 -1.9658
 8468SOL     OW37039   1.953   3.375   6.950 -0.3861 -0.0000 -0.1093
 8468SOL    HW137040   2.041   3.389   6.913 -1.4299  0.1240 -2.5789
 8468SOL    HW237041   1.904   3.390   6.869 -0.1256 -2.1012 -0.6444
 8469SOL     OW37042   0.083   1.263   6.642 -0.1090  0.2953  0.0892
 8469SOL    HW137043   4.733   1.299   6.636 -0.3597 -0.1420  1.1346
 8469SOL    HW237044   0.083   1.203   6.568 -0.7103 -0.6936  0.8945
 8470SOL     OW37045   2.824   3.594   3.110 -0.9920  0.2655  0.2833
 8470SOL    HW137046   2.775   3.571   3.189  0.2630  1.3428  1.3768
 8470SOL    HW237047   2.859   3.509   3.085 -0.9616  0.4127 -0.1846
 8471SOL     OW37048   1.238   0.932  12.224  0.0026  0.6482 -0.1102
 8471SOL    HW137049   1.272   0.994  12.290 -1.0621  0.0042  1.0513
 8471SOL    HW237050   1.306   0.942  12.157 -1.4063  0.2118 -1.5892
 8472SOL     OW37051   2.502   1.155  12.051  0.6466  0.0010  0.7040
 8472SOL    HW137052   2.542   1.091  11.992 -0.2412 -0.0024  0.1154
 8472SOL    HW237053   2.569   1.177  12.117  1.8679 -1.4344 -0.0586
 8473SOL     OW37054   0.375   0.050  17.130 -0.3830  0.2191 -0.3537
 8473SOL    HW137055   0.462   0.052  17.091 -0.9141 -2.3866 -1.7168
 8473SOL    HW237056   0.342   0.140  17.124  1.3096  0.8042 -0.9190
 8474SOL     OW37057   3.525   2.952   4.765 -0.3291 -0.0466  0.6743
 8474SOL    HW137058   3.449   2.989   4.810 -1.4227 -1.1629 -0.2578
 8474SOL    HW237059   3.531   3.010   4.688 -0.6774  2.0387  2.2125
 8475SOL     OW37060   3.539   3.064   3.924  0.0910 -0.1711 -0.2315
 8475SOL    HW137061   3.587   3.097   4.000  1.6595  0.1313 -1.3409
 8475SOL    HW237062   3.523   2.974   3.953  0.0142 -0.2403 -0.4894
 8476SOL     OW37063   3.990   3.225  13.333  0.2531 -0.0519 -0.1752
 8476SOL    HW137064   4.034   3.308  13.320  2.6592 -1.5365 -1.5209
 8476SOL    HW237065   3.996   3.219  13.428 -1.2566 -2.3681 -0.1963
 8477SOL     OW37066   4.014   1.529   0.389  0.3435 -0.7210  0.3149
 8477SOL    HW137067   3.937   1.585   0.389  0.4740 -0.5501  1.8039
 8477SOL    HW237068   3.992   1.465   0.457  1.7627 -1.8537 -0.2811
 8478SOL     OW37069   4.123   1.789   7.324 -0.0904 -0.6861 -0.0806
 8478SOL    HW137070   4.150   1.704   7.359  3.2757  0.6779  0.6270
 8478SOL    HW237071   4.042   1.767   7.278 -1.4138 -1.1034  2.4018
 8479SOL     OW37072   4.259   1.360   5.556 -0.2261 -0.4418 -0.3336
 8479SOL    HW137073   4.275   1.439   5.608 -2.2862  0.4990 -1.1031
 8479SOL    HW237074   4.189   1.391   5.498 -1.1698 -1.2002  0.3988
 8480SOL     OW37075   3.281   2.296  10.832  0.8994 -0.6345  0.0817
 8480SOL    HW137076   3.303   2.289  10.739 -1.4146  0.7573 -0.5801
 8480SOL    HW237077   3.208   2.236  10.844  1.6615 -1.6308 -0.3308
 8481SOL     OW37078   4.288   2.754  12.365  0.2538 -0.9945  0.1973
 8481SOL    HW137079   4.220   2.689  12.381 -2.5802  2.3405  1.4613
 8481SOL    HW237080   4.309   2.725  12.276  0.0755  2.4729 -0.9661
 8482SOL     OW37081   1.232   0.845   6.767 -0.5702  0.3373 -0.2581
 8482SOL    HW137082   1.230   0.941   6.773 -0.8743  0.2497  1.1302
 8482SOL    HW237083   1.234   0.832   6.862  0.5336 -1.7799 -0.5914
 8483SOL     OW37084   3.415   1.331  15.659 -0.2441  0.0278  0.4566
 8483SOL    HW137085   3.410   1.387  15.737  1.3061 -1.7369  1.8231
 8483SOL    HW237086   3.357   1.388  15.607 -1.1357 -1.7455 -0.4735
 8484SOL     OW37087   0.254   0.676   4.842 -1.1399 -0.0821 -0.1965
 8484SOL    HW137088   0.251   0.770   4.826  0.9553 -0.2136 -1.4203
 8484SOL    HW237089   0.313   0.645   4.774 -0.2437 -1.3676  1.1595
 8485SOL     OW37090   4.018   0.119   5.436  0.6112 -0.2819 -0.0865
 8485SOL    HW137091   4.047   0.029   5.450 -2.6957 -1.0723  1.7335
 8485SOL    HW237092   4.043   0.135   5.345 -1.3593 -1.8431 -0.9136
 8486SOL     OW37093   1.483   2.600   7.236  0.2168  0.1502  0.7625
 8486SOL    HW137094   1.504   2.593   7.329 -1.0054  0.7976  1.0858
 8486SOL    HW237095   1.544   2.660   7.193 -0.2256 -0.4681 -0.7230
 8487SOL     OW37096   0.952   3.441  17.651 -0.1500  0.1449  0.2966
 8487SOL    HW137097   0.936   3.387  17.574 -2.4813  0.2282  0.7252
 8487SOL    HW237098   1.025   3.405  17.702 -1.6674 -0.5351  1.9587
 8488SOL     OW37099   4.571   0.614  10.297  0.1640  0.5594 -0.5793
 8488SOL    HW137100   4.630   0.688  10.286  0.7142  0.1502 -0.3426
 8488SOL    HW237101   4.605   0.590  10.383 -1.5519  0.4623  0.0746
 8489SOL     OW37102   1.344   0.724  10.123 -0.5538 -0.2030  0.2619
 8489SOL    HW137103   1.255   0.714  10.090 -0.9395  0.5497  1.0724
 8489SOL    HW237104   1.382   0.649  10.076 -2.3414 -0.8351 -0.1928
 8490SOL     OW37105   2.452   1.528  14.637  0.2967 -0.2894 -0.1730
 8490SOL    HW137106   2.521   1.594  14.642  1.2202 -1.2931  0.4031
 8490SOL    HW237107   2.444   1.512  14.731 -0.2823  0.6566 -0.0672
 8491SOL     OW37108   4.017   0.816   5.461 -0.1243  0.3967 -0.1049
 8491SOL    HW137109   4.094   0.870   5.480  0.3958 -1.2445  2.4333
 8491SOL    HW237110   4.018   0.767   5.543 -0.0351  2.8196  1.3286
 8492SOL     OW37111   3.113   4.244  15.362 -0.1662 -0.6037  0.8292
 8492SOL    HW137112   3.083   4.241  15.453  1.6485 -1.5617  1.3925
 8492SOL    HW237113   3.034   4.272  15.316  0.2195  0.5681  0.8933
 8493SOL     OW37114   4.134   3.778  17.206 -0.1808  0.3488 -0.2971
 8493SOL    HW137115   4.190   3.740  17.274  0.2444 -0.1600 -0.9233
 8493SOL    HW237116   4.063   3.819  17.255 -0.7661 -3.2292  1.8556
 8494SOL     OW37117   2.883   3.541  10.512 -0.2170 -0.1989  0.1089
 8494SOL    HW137118   2.835   3.467  10.548 -0.3190 -0.2768 -0.1940
 8494SOL    HW237119   2.863   3.537  10.419  0.2766  0.5219 -0.0326
 8495SOL     OW37120   3.687   0.851   3.162 -0.2337  0.2289  0.0710
 8495SOL    HW137121   3.649   0.769   3.130  2.7346 -0.4566 -1.6850
 8495SOL    HW237122   3.732   0.823   3.242 -0.4520 -2.1400 -0.6465
 8496SOL     OW37123   1.217   4.547   5.322 -0.0440  0.3359 -0.8825
 8496SOL    HW137124   1.141   4.489   5.323 -0.2236  0.5606 -2.0936
 8496SOL    HW237125   1.178   4.625   5.361  0.1601 -2.3427  4.7288
 8497SOL     OW37126   1.900   2.376   7.613 -0.3611 -0.4984 -0.3245
 8497SOL    HW137127   1.925   2.390   7.704  2.5508 -1.9806 -0.8805
 8497SOL    HW237128   1.961   2.305   7.594 -1.0423 -1.7352  2.1873
 8498SOL     OW37129   1.934   4.656   8.590  0.5873  0.0152  0.2320
 8498SOL    HW137130   1.986   4.577   8.599  0.2298 -0.0341  1.8539
 8498SOL    HW237131   2.001   4.718   8.619  1.1747 -1.1225  1.2968
 8499SOL     OW37132   3.429   1.130   2.763  0.0824  0.2274 -0.1812
 8499SOL    HW137133   3.355   1.119   2.823  1.3580 -1.5718  1.0564
 8499SOL    HW237134   3.488   1.070   2.808  0.5786 -0.6861 -2.0445
 8500SOL     OW37135   1.047   4.287   6.907  0.9228  0.1808  0.1717
 8500SOL    HW137136   1.019   4.244   6.826  0.0064  0.9337  0.0827
 8500SOL    HW237137   0.974   4.265   6.966  0.2470 -0.3245 -0.8558
 8501SOL     OW37138   4.075   2.276   7.904 -0.5397  0.0545  0.5663
 8501SOL    HW137139   4.079   2.343   7.835 -0.6259 -2.6206 -2.0427
 8501SOL    HW237140   4.054   2.202   7.846 -1.7323 -0.2061  1.3285
 8502SOL     OW37141   4.238   0.389   8.037 -0.2894  0.5953  0.1211
 8502SOL    HW137142   4.158   0.440   8.037 -1.2816 -0.9316  1.9715
 8502SOL    HW237143   4.230   0.345   7.952  0.7834  1.7912 -0.5971
 8503SOL     OW37144   0.017   2.386  11.420 -0.1651  0.1208 -0.3893
 8503SOL    HW137145   0.015   2.311  11.361  0.3150 -1.9066  2.1609
 8503SOL    HW237146   0.065   2.447  11.365 -0.7579 -0.2703 -1.3264
 8504SOL     OW37147   3.899   3.659   4.212  0.5431 -0.4902 -0.6848
 8504SOL    HW137148   3.869   3.649   4.121  1.8918 -0.1243 -1.1618
 8504SOL    HW237149   3.990   3.636   4.192  1.1887  1.6988 -0.2503
 8505SOL     OW37150   0.172   2.167   5.754  0.4102  0.5411 -0.1832
 8505SOL    HW137151   0.190   2.104   5.684 -0.3357  1.8405 -1.5351
 8505SOL    HW237152   0.178   2.112   5.832  2.1809 -2.3000 -2.3086
 8506SOL     OW37153   0.967   3.025   3.835 -0.1322 -0.2030 -0.2571
 8506SOL    HW137154   0.944   2.943   3.793 -1.2197 -0.3611  0.6487
 8506SOL    HW237155   0.908   3.012   3.910  2.5339  0.9754  2.0736
 8507SOL     OW37156   2.682   2.656   9.511  0.0256  0.5106  0.4481
 8507SOL    HW137157   2.749   2.720   9.536  2.4288 -1.7898 -0.0429
 8507SOL    HW237158   2.711   2.570   9.543  0.2953  1.4487  2.6519
 8508SOL     OW37159   0.852   2.817   3.660  0.1554  0.2624  0.3583
 8508SOL    HW137160   0.842   2.839   3.567  4.1038  2.1262  0.3465
 8508SOL    HW237161   0.789   2.746   3.668  0.6618 -0.0948  1.1410
 8509SOL     OW37162   0.303   1.686   8.953  0.4489  0.1037  0.2070
 8509SOL    HW137163   0.341   1.614   9.004  0.9675 -0.3637 -0.8519
 8509SOL    HW237164   0.339   1.662   8.868 -0.6813  2.2040 -0.8640
 8510SOL     OW37165   1.131   4.054   7.177  0.3028  0.5345 -0.2094
 8510SOL    HW137166   1.046   4.015   7.198  0.6387 -0.3702 -0.5449
 8510SOL    HW237167   1.176   4.033   7.258  1.9869  0.7930 -1.0728
 8511SOL     OW37168   3.165   2.055   5.396 -0.3463 -0.2289 -0.0064
 8511SOL    HW137169   3.135   1.965   5.387  1.4392 -0.7412 -0.7263
 8511SOL    HW237170   3.177   2.073   5.303 -0.2762 -0.2240  0.0033
 8512SOL     OW37171   4.296   4.283   2.201  0.3181 -0.4579 -0.1478
 8512SOL    HW137172   4.308   4.300   2.107 -3.2628  0.3001 -0.4868
 8512SOL    HW237173   4.338   4.366   2.223 -1.0324  0.4923 -1.1399
 8513SOL     OW37174   0.294   1.776   5.378 -0.2374 -0.1414 -0.9453
 8513SOL    HW137175   0.326   1.802   5.292  2.0626 -1.9407 -0.6394
 8513SOL    HW237176   0.379   1.774   5.421 -2.0420  0.3759  2.6773
 8514SOL     OW37177   4.434   4.098   4.947  0.0844 -0.6947 -0.2346
 8514SOL    HW137178   4.442   4.091   5.043  0.6296  2.1561 -0.0622
 8514SOL    HW237179   4.344   4.128   4.938 -0.2828 -1.6867  0.1232
 8515SOL     OW37180   0.895   0.019   8.506  0.2094  0.2373  0.2877
 8515SOL    HW137181   0.814   0.000   8.554  0.9499 -1.7613  0.7503
 8515SOL    HW237182   0.951   4.689   8.543  0.9279  1.6455  1.7784
 8516SOL     OW37183   3.401   2.126   4.641 -0.2506  0.6541 -0.0318
 8516SOL    HW137184   3.482   2.080   4.617 -0.5208  0.2321 -0.1483
 8516SOL    HW237185   3.356   2.139   4.558 -1.3967  0.3696  0.5314
 8517SOL     OW37186   1.107   0.541  17.588  0.2730  0.8458 -0.4976
 8517SOL    HW137187   1.187   0.534  17.640 -0.0583 -2.2121 -0.4013
 8517SOL    HW237188   1.147   0.518  17.504  1.6963  1.5821 -0.0157
 8518SOL     OW37189   3.338   2.382   3.921 -0.4089 -0.3479 -0.1281
 8518SOL    HW137190   3.400   2.423   3.981 -0.3767 -1.4736  0.5998
 8518SOL    HW237191   3.385   2.299   3.917 -1.3721 -0.9229  0.7186
 8519SOL     OW37192   3.067   1.111   1.553  0.1086  0.0263  0.3825
 8519SOL    HW137193   3.100   1.136   1.467 -0.8895 -1.1106 -0.3409
 8519SOL    HW237194   3.122   1.158   1.615  1.5358  0.7057 -1.4110
 8520SOL     OW37195   1.396   0.270  13.179  0.3028  0.1376 -0.4712
 8520SOL    HW137196   1.318   0.273  13.235  1.0598 -0.9678  0.6516
 8520SOL    HW237197   1.459   0.242  13.245  0.8355  0.6407 -0.7581
 8521SOL     OW37198   3.999   4.327   9.215  0.1871 -0.3932 -0.3442
 8521SOL    HW137199   3.906   4.345   9.204  0.5670  2.1762  0.6610
 8521SOL    HW237200   3.993   4.232   9.223  1.0260 -0.3360  0.9461
 8522SOL     OW37201   2.361   4.217   6.224 -0.3014 -0.1400 -0.5048
 8522SOL    HW137202   2.340   4.293   6.169 -0.2025 -0.9480 -1.6358
 8522SOL    HW237203   2.332   4.149   6.164  1.2754 -1.8919  0.7082
 8523SOL     OW37204   3.028   2.335   6.035 -0.1303 -0.4350 -0.6351
 8523SOL    HW137205   2.966   2.404   6.056 -1.3003 -1.5026 -0.6075
 8523SOL    HW237206   2.967   2.268   6.005 -0.9668  0.1028 -0.1237
 8524SOL     OW37207   0.591   2.154   1.578 -0.1832  0.7961  0.0706
 8524SOL    HW137208   0.642   2.212   1.635  0.6866 -1.0045  1.1437
 8524SOL    HW237209   0.657   2.104   1.530 -1.3523 -0.3137 -0.3496
 8525SOL     OW37210   3.448   0.383   2.777  0.0253 -0.0874  0.3638
 8525SOL    HW137211   3.410   0.389   2.689 -0.1944 -1.7000  0.3613
 8525SOL    HW237212   3.476   0.475   2.773  1.0177 -0.4311 -0.4058
 8526SOL     OW37213   2.303   1.278  12.889 -0.0691  0.3212  0.9569
 8526SOL    HW137214   2.393   1.245  12.881 -0.5487 -0.4542 -1.2562
 8526SOL    HW237215   2.277   1.255  12.978  0.4016 -1.5499  0.6106
 8527SOL     OW37216   3.126   0.580  15.787  0.4827 -0.8679  0.1729
 8527SOL    HW137217   3.128   0.568  15.882  1.0619  0.0490  0.2810
 8527SOL    HW237218   3.221   0.582  15.773  0.3090 -1.5275 -1.0348
 8528SOL     OW37219   0.330   3.026   6.299 -0.0940  0.3870  0.3964
 8528SOL    HW137220   0.330   3.050   6.391  2.1474 -0.1061  0.5397
 8528SOL    HW237221   0.289   3.101   6.255  0.2742  0.4272  0.1153
 8529SOL     OW37222   2.337   1.107   4.404 -0.0672  0.3675  0.1738
 8529SOL    HW137223   2.364   1.094   4.313 -0.7340 -2.1341  0.3426
 8529SOL    HW237224   2.389   1.044   4.453  2.2253 -0.1204 -2.8372
 8530SOL     OW37225   4.510   1.143   8.377  0.0858  0.6115 -0.0668
 8530SOL    HW137226   4.574   1.104   8.436  0.7364  0.3783 -0.9370
 8530SOL    HW237227   4.539   1.106   8.294  0.9617  0.6522  0.2249
 8531SOL     OW37228   1.203   2.565  16.231  0.2227 -0.4258 -0.3036
 8531SOL    HW137229   1.224   2.538  16.142  3.0689 -0.3259  0.3321
 8531SOL    HW237230   1.291   2.591  16.257  0.3181 -2.8613  1.8538
 8532SOL     OW37231   2.481   3.663  17.242 -0.8264  0.2141  0.2848
 8532SOL    HW137232   2.504   3.745  17.198  1.5878 -0.5982  0.0374
 8532SOL    HW237233   2.486   3.702  17.329  0.8924  2.3345 -0.7278
 8533SOL     OW37234   4.022   2.160   4.246  0.3410  0.2951  0.0492
 8533SOL    HW137235   4.047   2.177   4.155 -0.2916  4.4860  0.6758
 8533SOL    HW237236   3.934   2.125   4.230 -0.7339  3.4805 -1.0657
 8534SOL     OW37237   3.629   0.441   2.375 -0.1046 -0.2820  0.3688
 8534SOL    HW137238   3.640   0.376   2.444 -1.5103 -0.4602  0.4252
 8534SOL    HW237239   3.555   0.488   2.413 -0.0961 -0.2404  0.3337
 8535SOL     OW37240   1.653   3.954   6.822  0.0832  0.3118  0.2343
 8535SOL    HW137241   1.646   3.863   6.852  1.3289 -0.2169 -1.0700
 8535SOL    HW237242   1.734   3.985   6.862  0.4893 -0.8099  0.2847
 8536SOL     OW37243   2.489   0.037   5.687  0.7042  0.0300 -0.0759
 8536SOL    HW137244   2.415   0.098   5.689  0.7851 -0.0078  3.5244
 8536SOL    HW237245   2.513   0.047   5.595  0.3074  1.4438 -0.0177
 8537SOL     OW37246   3.465   1.595   3.495 -0.4303 -0.1429  0.3611
 8537SOL    HW137247   3.441   1.516   3.446  0.1938 -0.6655  0.8940
 8537SOL    HW237248   3.541   1.632   3.449 -2.5922  1.7988 -1.6368
 8538SOL     OW37249   0.632   0.392   7.309  0.1396  0.7565  0.1987
 8538SOL    HW137250   0.706   0.333   7.323  0.2412  1.1806  1.4173
 8538SOL    HW237251   0.563   0.365   7.371  1.0873  0.3731  1.0827
 8539SOL     OW37252   2.367   4.136   5.128 -0.0719 -0.0580  0.8492
 8539SOL    HW137253   2.283   4.172   5.100  0.6664  1.6077  0.7562
 8539SOL    HW237254   2.426   4.171   5.061 -0.9528  0.4891  0.3609
 8540SOL     OW37255   0.430   3.904   6.488  0.1751  0.6896  0.0926
 8540SOL    HW137256   0.369   3.884   6.417  1.2645 -1.4387 -0.2517
 8540SOL    HW237257   0.362   3.921   6.552  0.1936  0.6714  0.1172
 8541SOL     OW37258   4.015   2.907   5.964 -0.2524  0.6970  0.4010
 8541SOL    HW137259   4.073   2.846   6.008  0.9249 -1.4346 -4.0982
 8541SOL    HW237260   4.060   2.914   5.880 -2.9279  0.6042 -1.0502
 8542SOL     OW37261   0.047   4.495   5.016  0.2560  0.3061 -0.5391
 8542SOL    HW137262   0.119   4.433   5.023 -1.9513 -2.1952  0.0615
 8542SOL    HW237263   4.723   4.451   5.074  1.3055 -1.0425 -0.4293
 8543SOL     OW37264   2.714   0.374   7.683 -0.0381 -0.0515 -0.4115
 8543SOL    HW137265   2.771   0.297   7.690  1.3374  1.2436  2.9680
 8543SOL    HW237266   2.657   0.367   7.760  0.7317  0.3760  0.2043
 8544SOL     OW37267   1.344   2.467   3.015  0.7918  0.1438  0.6374
 8544SOL    HW137268   1.413   2.531   3.000  1.5155 -0.5544  1.0072
 8544SOL    HW237269   1.284   2.513   3.074 -0.3674  0.3393 -0.6972
 8545SOL     OW37270   1.230   1.102   3.472  0.8313 -0.4329 -0.3563
 8545SOL    HW137271   1.320   1.119   3.444  0.5868  0.5309 -0.5339
 8545SOL    HW237272   1.202   1.186   3.508 -1.1353 -1.4616  0.5161
 8546SOL     OW37273   2.202   2.109   8.446  0.2750  0.3892 -0.0571
 8546SOL    HW137274   2.227   2.104   8.538 -0.9668  1.1809  0.3237
 8546SOL    HW237275   2.120   2.058   8.444  1.2875 -1.2010 -0.8977
 8547SOL     OW37276   4.066   3.641   3.260 -0.5883  0.5033 -0.3731
 8547SOL    HW137277   4.026   3.714   3.212  0.1023  0.4160 -1.0777
 8547SOL    HW237278   4.003   3.570   3.273 -0.7387  0.6400 -0.3443
 8548SOL     OW37279   0.300   1.448   6.332 -0.8644  0.7931  0.2628
 8548SOL    HW137280   0.344   1.389   6.393 -1.3950  0.5538  0.4074
 8548SOL    HW237281   0.209   1.418   6.330 -0.6819  0.3439 -1.0080
 8549SOL     OW37282   2.687   1.567  10.720 -0.1830  0.4585 -0.6243
 8549SOL    HW137283   2.725   1.639  10.669 -1.7131  1.1815 -0.7468
 8549SOL    HW237284   2.689   1.602  10.809  1.4422  0.3643 -0.6286
 8550SOL     OW37285   4.180   4.578   8.333 -0.2982  0.6051 -0.3183
 8550SOL    HW137286   4.198   4.645   8.266 -2.3684  0.3217 -1.1691
 8550SOL    HW237287   4.224   4.617   8.408  1.7307  0.5105 -1.4437
 8551SOL     OW37288   3.374   3.755   5.319 -0.1987  0.2591  0.7967
 8551SOL    HW137289   3.456   3.714   5.346 -0.3366  1.1543  2.5928
 8551SOL    HW237290   3.400   3.821   5.255 -2.2562 -0.8034 -1.1065
 8552SOL     OW37291   4.138   0.103   7.038 -0.8290  0.3154 -0.0645
 8552SOL    HW137292   4.081   0.159   6.985 -0.3835 -0.0125 -0.8775
 8552SOL    HW237293   4.189   0.171   7.083 -2.5509  0.2407  2.0268
 8553SOL     OW37294   4.734   3.730   5.026 -0.1882  0.7405  0.1467
 8553SOL    HW137295   0.081   3.746   5.065 -0.5584  0.8812  0.9091
 8553SOL    HW237296   4.674   3.780   5.082  0.0464  0.0524  1.0133
 8554SOL     OW37297   4.572   2.132  13.749  0.1559  0.1286 -0.3892
 8554SOL    HW137298   4.493   2.106  13.702  1.0984 -0.3420 -1.7423
 8554SOL    HW237299   4.621   2.170  13.676 -2.4031  0.7235 -1.7987
 8555SOL     OW37300   2.454   2.737   5.766  0.0462 -0.3555  0.0210
 8555SOL    HW137301   2.535   2.707   5.724  1.3441  3.4642 -0.2407
 8555SOL    HW237302   2.445   2.676   5.839  0.5167  0.5262  0.8150
 8556SOL     OW37303   3.942   2.294   9.118  0.2251 -0.0260 -0.5076
 8556SOL    HW137304   3.965   2.316   9.028  0.0073  0.4462 -0.4503
 8556SOL    HW237305   3.878   2.225   9.104 -0.4808  0.5618 -0.2153
 8557SOL     OW37306   1.226   1.399   2.777  0.6144 -0.5436 -0.0593
 8557SOL    HW137307   1.151   1.342   2.758  0.0575  1.0107 -2.5885
 8557SOL    HW237308   1.207   1.479   2.726 -1.4834 -1.3870 -0.6016
 8558SOL     OW37309   2.217   0.551   5.555  0.1266  0.2942 -0.1414
 8558SOL    HW137310   2.177   0.473   5.593  0.6416  0.4909  0.8049
 8558SOL    HW237311   2.167   0.550   5.473  0.5987 -0.1590 -0.4323
 8559SOL     OW37312   0.836   2.188  17.085 -0.2599 -0.8191  0.5695
 8559SOL    HW137313   0.855   2.282  17.084 -0.9097 -0.6455  2.6980
 8559SOL    HW237314   0.748   2.189  17.048 -0.4069  1.3092  0.9536
 8560SOL     OW37315   4.350   2.817   4.813 -0.7495  0.5191  0.0406
 8560SOL    HW137316   4.260   2.789   4.794 -0.0655  0.2021 -2.7912
 8560SOL    HW237317   4.393   2.803   4.729 -2.2002 -1.1942 -0.4039
 8561SOL     OW37318   0.785   1.414  10.399 -0.8028 -0.2348 -0.4416
 8561SOL    HW137319   0.709   1.473  10.398  0.1059  0.9578  0.7304
 8561SOL    HW237320   0.819   1.419  10.488 -2.6336 -1.6515  0.3341
 8562SOL     OW37321   4.292   1.957   2.090 -0.6429  0.1168 -0.8514
 8562SOL    HW137322   4.385   1.973   2.107  0.4869 -3.7604 -3.3091
 8562SOL    HW237323   4.255   1.997   2.169  3.4870  0.1080  1.1403
 8563SOL     OW37324   1.159   3.852   4.601  0.1031  0.7414 -0.1293
 8563SOL    HW137325   1.249   3.825   4.620 -0.8675 -1.9078  0.7292
 8563SOL    HW237326   1.173   3.916   4.531 -3.9957 -0.8547 -2.4079
 8564SOL     OW37327   3.404   3.707   4.650 -0.6518 -0.5519 -0.0783
 8564SOL    HW137328   3.385   3.623   4.609  1.2368 -0.5295 -1.0310
 8564SOL    HW237329   3.462   3.675   4.719  0.2219 -0.7358 -0.8991
 8565SOL     OW37330   1.216   4.590   3.032  0.0533 -0.7749  0.1842
 8565SOL    HW137331   1.140   4.633   2.993 -0.1009 -3.6739 -2.7025
 8565SOL    HW237332   1.288   4.650   3.010  0.9239 -1.8945 -0.0221
 8566SOL     OW37333   0.613   3.112  14.239  0.4195  0.1075 -0.5264
 8566SOL    HW137334   0.684   3.123  14.176  1.0748  0.5983  0.2941
 8566SOL    HW237335   0.621   3.195  14.286  0.5002  0.0178 -0.3804
 8567SOL     OW37336   4.041   0.571   8.211 -0.1581  0.1793 -0.1329
 8567SOL    HW137337   4.049   0.532   8.298  1.1415  0.8822  0.0663
 8567SOL    HW237338   4.041   0.664   8.237  1.3225  0.2636 -0.4500
 8568SOL     OW37339   3.379   4.300   7.084  0.1900 -0.3300 -0.5861
 8568SOL    HW137340   3.326   4.300   7.164  0.1563  1.7862 -0.6308
 8568SOL    HW237341   3.399   4.392   7.067 -0.8347  0.2041  1.0873
 8569SOL     OW37342   3.601   4.179   1.596  0.6183 -0.2162  0.7261
 8569SOL    HW137343   3.598   4.265   1.638 -1.6687 -0.2576  0.6425
 8569SOL    HW237344   3.681   4.153   1.643  0.3604 -0.7473  0.8644
 8570SOL     OW37345   1.419   4.282  13.554 -0.1579  0.5068 -0.1518
 8570SOL    HW137346   1.347   4.220  13.543  0.0190  0.1782  0.5891
 8570SOL    HW237347   1.497   4.229  13.570 -2.6033 -3.1386 -0.2271
 8571SOL     OW37348   4.305   1.605  17.094 -0.1132 -0.0007  0.5189
 8571SOL    HW137349   4.255   1.681  17.126  1.2164  0.1760  2.1604
 8571SOL    HW237350   4.330   1.644  17.011 -0.3797 -1.4005 -0.2186
 8572SOL     OW37351   1.737   0.454   0.735 -0.2290 -0.3481 -0.1337
 8572SOL    HW137352   1.804   0.503   0.782  0.2769 -0.0168 -1.1890
 8572SOL    HW237353   1.664   0.516   0.734  1.3320  1.4734 -0.7525
 8573SOL     OW37354   1.132   1.894   8.203 -0.0812 -0.4576  0.0136
 8573SOL    HW137355   1.184   1.885   8.123 -0.7295  0.4191 -0.5051
 8573SOL    HW237356   1.047   1.885   8.160 -0.4587 -0.9198  0.8512
 8574SOL     OW37357   0.647   1.042   8.932 -0.1444  0.2282  0.0619
 8574SOL    HW137358   0.646   0.990   9.012  0.5653  0.6138  0.3135
 8574SOL    HW237359   0.558   1.075   8.919  0.1388  0.6814 -0.7553
 8575SOL     OW37360   1.220   3.771   6.958  0.3358 -0.3657 -0.5315
 8575SOL    HW137361   1.239   3.771   7.052 -1.1830  3.2626 -0.2566
 8575SOL    HW237362   1.179   3.857   6.955 -1.2934 -1.1447 -0.0744
 8576SOL     OW37363   3.879   4.252   8.148 -0.1619 -0.1920  0.0818
 8576SOL    HW137364   3.943   4.253   8.077 -0.0718  0.2471  0.1703
 8576SOL    HW237365   3.859   4.346   8.149 -2.8014 -0.7506  0.0874
 8577SOL     OW37366   3.775   2.635   9.871 -0.2570  0.0991  0.0352
 8577SOL    HW137367   3.712   2.660   9.803  0.3300  2.9041  0.5457
 8577SOL    HW237368   3.859   2.635   9.827  0.2744  0.6681  1.0405
 8578SOL     OW37369   2.221   0.824   5.657 -0.5892 -0.0800  0.1106
 8578SOL    HW137370   2.217   0.730   5.638  2.2296 -0.1989  0.0652
 8578SOL    HW237371   2.182   0.859   5.577 -0.1222  1.5898  0.6164
 8579SOL     OW37372   0.938   3.854   6.508  0.3043 -0.3957 -0.5641
 8579SOL    HW137373   0.917   3.913   6.435  1.1429  1.3167  0.5758
 8579SOL    HW237374   0.853   3.819   6.534 -0.0869  0.4174 -0.7501
 8580SOL     OW37375   0.417   3.570   7.909  0.0210  0.3630  0.1268
 8580SOL    HW137376   0.493   3.537   7.957 -0.1800  2.1037  1.6443
 8580SOL    HW237377   0.353   3.507   7.942 -0.5232  0.0238 -1.5489
 8581SOL     OW37378   4.326   1.441   3.629 -1.0762 -0.9209 -0.0125
 8581SOL    HW137379   4.395   1.482   3.682 -1.9087 -0.9942  1.1217
 8581SOL    HW237380   4.271   1.430   3.707 -0.1330  0.3288  0.8352
 8582SOL     OW37381   1.252   0.588   8.356  0.2949  0.5975 -0.4176
 8582SOL    HW137382   1.186   0.657   8.354  0.9189  1.1296 -2.5812
 8582SOL    HW237383   1.304   0.628   8.426  0.4146 -0.8397  0.3241
 8583SOL     OW37384   1.150   3.670   5.469  0.1562 -0.1181  0.0191
 8583SOL    HW137385   1.131   3.607   5.399 -0.4982  0.6881 -0.5216
 8583SOL    HW237386   1.064   3.689   5.507  0.7458 -0.1685  1.3710
 8584SOL     OW37387   1.733   2.107   7.117  0.0648  0.5187  0.3049
 8584SOL    HW137388   1.671   2.159   7.167  0.5747 -0.3684  1.8441
 8584SOL    HW237389   1.793   2.076   7.185 -1.0833 -1.7779  0.2894
 8585SOL     OW37390   2.679   0.446  10.269 -0.3809  0.0038  0.6639
 8585SOL    HW137391   2.597   0.414  10.308  0.5877 -2.3877  0.7677
 8585SOL    HW237392   2.683   0.533  10.307  0.9313 -0.2308  1.0590
 8586SOL     OW37393   2.678   4.156  12.882 -0.6880  0.3025 -0.6031
 8586SOL    HW137394   2.772   4.168  12.888 -0.7687  0.6283 -0.0338
 8586SOL    HW237395   2.669   4.061  12.878  1.9878 -0.0301  1.4073
 8587SOL     OW37396   2.793   2.307   2.381 -0.8545 -0.1819  0.1442
 8587SOL    HW137397   2.809   2.247   2.454  0.1081 -0.1267 -0.0304
 8587SOL    HW237398   2.735   2.261   2.320 -0.4339 -0.4076 -0.0839
 8588SOL     OW37399   0.176   3.745   8.272  0.1481  0.4162  0.0438
 8588SOL    HW137400   0.221   3.770   8.191  1.2025  0.0970  0.5320
 8588SOL    HW237401   0.136   3.829   8.295  2.0016  2.3112 -3.6062
 8589SOL     OW37402   1.816   4.075   2.132  0.3709  0.1566 -1.2552
 8589SOL    HW137403   1.755   4.132   2.178  2.7873  1.7109 -0.0325
 8589SOL    HW237404   1.877   4.049   2.201  0.3717  1.4218 -0.7861
 8590SOL     OW37405   2.057   3.142   4.533 -0.3535  0.0187 -0.4480
 8590SOL    HW137406   1.962   3.132   4.533 -0.3032 -0.6451  1.8320
 8590SOL    HW237407   2.075   3.061   4.485  0.7781  0.8919 -1.4662
 8591SOL     OW37408   1.962   1.300   0.219  0.0270 -0.1081  0.5053
 8591SOL    HW137409   2.051   1.327   0.242  0.6400 -1.6956  0.0296
 8591SOL    HW237410   1.948   1.356   0.143  1.6150 -0.5633 -0.1140
 8592SOL     OW37411   2.617   4.499   8.638  0.7259 -1.0196 -0.0673
 8592SOL    HW137412   2.532   4.468   8.607  0.4640 -0.8006  0.4437
 8592SOL    HW237413   2.603   4.594   8.638 -2.8188 -1.5619  0.5977
 8593SOL     OW37414   1.928   3.937   9.881 -0.2453  0.3522  0.3221
 8593SOL    HW137415   1.871   3.864   9.861 -0.3829  0.9309 -1.4270
 8593SOL    HW237416   2.014   3.895   9.883  0.0707  0.8518 -2.4223
 8594SOL     OW37417   1.426   0.415  11.676 -0.2929  0.1662  0.3112
 8594SOL    HW137418   1.472   0.400  11.593  1.2017 -1.0288  1.3670
 8594SOL    HW237419   1.493   0.468  11.718  0.2766 -1.9715  2.0918
 8595SOL     OW37420   3.720   3.056   3.391  0.0589 -0.1465 -0.0341
 8595SOL    HW137421   3.672   3.094   3.317 -1.0789 -0.4751  0.5251
 8595SOL    HW237422   3.710   3.124   3.457 -0.6346 -0.5856  0.3168
 8596SOL     OW37423   3.805   1.173  11.783 -0.4476  0.3461  0.1529
 8596SOL    HW137424   3.882   1.116  11.772  1.9567  3.2051  2.1656
 8596SOL    HW237425   3.788   1.147  11.873  1.8597 -1.4200  0.1091
 8597SOL     OW37426   1.089   3.915   3.138 -0.3147 -0.5507  0.1938
 8597SOL    HW137427   1.170   3.897   3.185 -0.6883 -2.1001  0.2471
 8597SOL    HW237428   1.134   3.978   3.081 -1.6916  1.3141  1.1429
 8598SOL     OW37429   1.083   2.888   2.363 -0.1914 -0.0264  0.8076
 8598SOL    HW137430   1.036   2.843   2.433 -0.5461  0.3795  0.8349
 8598SOL    HW237431   1.078   2.820   2.296  1.6425  0.9718 -0.3473
 8599SOL     OW37432   3.312   1.529   7.969 -0.0398 -0.0728 -0.4301
 8599SOL    HW137433   3.367   1.453   7.993 -2.1289 -1.7152 -0.8354
 8599SOL    HW237434   3.317   1.584   8.047 -0.2416 -0.5597 -0.0724
 8600SOL     OW37435   4.411   3.504   7.257 -0.3437 -0.1030  0.2457
 8600SOL    HW137436   4.452   3.570   7.312  2.2605 -1.7908  0.3618
 8600SOL    HW237437   4.426   3.430   7.316  1.8007  0.3260  0.2169
 8601SOL     OW37438   4.424   2.023   3.592 -0.4681 -0.0553  0.2777
 8601SOL    HW137439   4.447   1.948   3.647  1.1784 -0.4091 -0.8994
 8601SOL    HW237440   4.429   1.998   3.500 -3.2151 -2.5253  0.7883
 8602SOL     OW37441   1.345   2.641   3.786  0.0136  0.2105 -0.2635
 8602SOL    HW137442   1.270   2.691   3.820  1.0446 -0.6686  3.3273
 8602SOL    HW237443   1.356   2.584   3.862  0.9083  1.9460  0.9133
 8603SOL     OW37444   3.677   2.888   9.699  0.5044  0.1743 -0.2481
 8603SOL    HW137445   3.606   2.841   9.656  0.2526 -0.7310  1.1531
 8603SOL    HW237446   3.742   2.833   9.655  1.7862 -0.6742  2.7146
 8604SOL     OW37447   3.492   1.827   7.652  0.2922  0.1212  0.5523
 8604SOL    HW137448   3.501   1.749   7.598 -0.2142 -0.6652  1.6052
 8604SOL    HW237449   3.446   1.886   7.593 -0.9740  0.1721  1.6065
 8605SOL     OW37450   1.847   0.755   5.432  0.0210 -0.0945 -0.7180
 8605SOL    HW137451   1.937   0.755   5.402  0.9029  2.8795  1.8955
 8605SOL    HW237452   1.856   0.808   5.511 -1.2509 -1.5878  0.4410
 8606SOL     OW37453   0.022   0.850   5.175 -0.4475 -0.3043 -0.0128
 8606SOL    HW137454   4.723   0.898   5.248 -1.6676 -0.2772 -0.6585
 8606SOL    HW237455   0.074   0.921   5.138 -0.2765  0.0798  0.9675
 8607SOL     OW37456   0.763   3.975   5.807 -0.1192 -0.7658 -0.5379
 8607SOL    HW137457   0.782   4.063   5.839 -1.3161 -0.9314  0.5985
 8607SOL    HW237458   0.821   3.920   5.859 -0.0319  1.4278  1.6839
 8608SOL     OW37459   0.442   2.490   2.200 -0.3861  1.1173  0.3535
 8608SOL    HW137460   0.397   2.570   2.228 -1.0422  0.7400  0.3659
 8608SOL    HW237461   0.376   2.427   2.228  0.1963  0.6676  0.7176
 8609SOL     OW37462   1.091   1.932   9.349  0.6175 -1.2793  0.1448
 8609SOL    HW137463   1.135   2.016   9.362  2.1227 -2.1425  0.4726
 8609SOL    HW237464   1.149   1.896   9.283  2.3175 -1.2199  1.6260
 8610SOL     OW37465   1.505   0.104   7.515 -0.1473  0.1293 -0.1219
 8610SOL    HW137466   1.576   0.039   7.516  1.0240  1.4307  1.3728
 8610SOL    HW237467   1.500   0.125   7.608  0.0939 -0.2701 -0.0188
 8611SOL     OW37468   1.858   2.335   6.797  0.6598 -0.6752 -0.3751
 8611SOL    HW137469   1.943   2.295   6.817  1.1701  0.8180  0.4258
 8611SOL    HW237470   1.809   2.258   6.767 -0.2459  0.0143 -0.6901
 8612SOL     OW37471   4.595   2.924   2.703  0.1875  0.0011  0.3267
 8612SOL    HW137472   4.507   2.887   2.712  0.9063 -1.5731  0.9836
 8612SOL    HW237473   4.603   2.907   2.609 -1.0950 -0.8394  0.3612
 8613SOL     OW37474   4.609   2.406   1.930 -0.2759 -0.1028  0.7466
 8613SOL    HW137475   4.542   2.400   1.999 -0.5123  1.2236  0.6334
 8613SOL    HW237476   4.570   2.371   1.850  2.9539 -1.4440 -0.2372
 8614SOL     OW37477   0.334   2.767  11.870 -0.2820 -0.5856  0.1459
 8614SOL    HW137478   0.398   2.727  11.811  1.4141 -0.6379  2.0299
 8614SOL    HW237479   0.362   2.857  11.853 -0.3418 -0.7666 -0.8651
 8615SOL     OW37480   1.969   2.410   4.185  0.2373 -0.1068  0.1067
 8615SOL    HW137481   1.914   2.376   4.115 -0.6576  0.7625  0.4009
 8615SOL    HW237482   1.923   2.490   4.210 -0.5668 -0.4541 -0.2939
 8616SOL     OW37483   2.929   2.651  12.922 -0.6278  0.1269 -0.0742
 8616SOL    HW137484   3.023   2.654  12.902 -1.0814 -0.4183 -2.2589
 8616SOL    HW237485   2.913   2.729  12.975  0.3163 -0.8524  1.6520
 8617SOL     OW37486   1.726   0.197   2.525 -0.1974  0.4539  0.4537
 8617SOL    HW137487   1.702   0.135   2.457 -0.4844 -0.5920  1.5031
 8617SOL    HW237488   1.645   0.191   2.575 -0.2048  0.4203  0.4378
 8618SOL     OW37489   4.402   0.702   8.871 -0.3150 -0.5890 -0.1018
 8618SOL    HW137490   4.485   0.746   8.853 -0.1483 -0.8562  0.0131
 8618SOL    HW237491   4.393   0.652   8.790 -0.5595  0.6080 -0.8025
 8619SOL     OW37492   2.247   1.979   9.595  0.2865 -0.0644 -0.0515
 8619SOL    HW137493   2.293   1.933   9.525 -2.6409 -1.0580 -1.3400
 8619SOL    HW237494   2.269   1.919   9.666 -0.6941 -2.0991 -1.4686
 8620SOL     OW37495   0.986   1.600   2.325  0.0355  0.2838  0.6501
 8620SOL    HW137496   0.912   1.643   2.284  0.0967  0.4323  0.6957
 8620SOL    HW237497   1.009   1.536   2.257  0.0286  0.0163  0.8974
 8621SOL     OW37498   3.874   0.781  14.233  0.3761 -0.5903  0.0101
 8621SOL    HW137499   3.959   0.823  14.245  0.4395 -0.7864  0.2623
 8621SOL    HW237500   3.814   0.854  14.244  2.5304  1.3242 -1.0063
 8622SOL     OW37501   3.012   2.443   5.137  0.4441 -0.0770 -0.2058
 8622SOL    HW137502   2.948   2.458   5.067  0.3918  3.3063  0.5270
 8622SOL    HW237503   3.061   2.378   5.087 -0.0911  1.1437 -2.3168
 8623SOL     OW37504   4.101   2.942  10.797  0.1734  0.2995  0.1262
 8623SOL    HW137505   4.079   2.934  10.704  3.4469  2.9424 -0.8972
 8623SOL    HW237506   4.032   2.885  10.830  0.1320 -0.0793 -0.6151
 8624SOL     OW37507   2.232   1.505   7.209  0.4401  0.0689  0.4113
 8624SOL    HW137508   2.264   1.543   7.291  3.2410 -0.1508 -0.5832
 8624SOL    HW237509   2.317   1.488   7.168  0.0292  0.6015 -0.6747
 8625SOL     OW37510   2.475   3.380   1.723  0.1781 -0.5731  0.0232
 8625SOL    HW137511   2.469   3.443   1.796 -0.2491 -1.8208  1.0544
 8625SOL    HW237512   2.442   3.445   1.661  3.2670  1.1188  0.1461
 8626SOL     OW37513   2.102   0.780   9.016 -0.2482 -0.1030  0.2109
 8626SOL    HW137514   2.100   0.765   8.921  2.0145  0.3636  0.0867
 8626SOL    HW237515   2.135   0.870   9.027  0.6268 -0.1915 -1.6589
 8627SOL     OW37516   0.121   1.057  13.111  0.1657 -0.1028 -0.2854
 8627SOL    HW137517   0.111   1.033  13.203 -0.0934  0.7149 -0.0947
 8627SOL    HW237518   0.039   1.102  13.094 -0.5533 -0.8033  1.3816
 8628SOL     OW37519   4.630   3.559  16.543 -0.1715 -0.0981 -0.5032
 8628SOL    HW137520   4.663   3.470  16.559 -0.5113  0.1975  1.8082
 8628SOL    HW237521   4.665   3.574  16.455 -0.7208  2.0550 -0.3342
 8629SOL     OW37522   3.465   1.215   8.740  0.4482  0.1319  0.0897
 8629SOL    HW137523   3.487   1.135   8.789  0.1565 -0.2563 -0.4115
 8629SOL    HW237524   3.377   1.232   8.772  0.6511  1.6368 -0.1891
 8630SOL     OW37525   3.361   2.887   8.830 -0.2640  0.1564  0.1307
 8630SOL    HW137526   3.355   2.875   8.925 -3.0643  0.1522 -0.0262
 8630SOL    HW237527   3.370   2.982   8.824  2.4347 -0.1642 -0.7907
 8631SOL     OW37528   2.874   2.773   3.906 -0.0978  0.7032  0.1190
 8631SOL    HW137529   2.795   2.751   3.856  0.2037 -0.0429 -0.0311
 8631SOL    HW237530   2.918   2.691   3.927 -0.2727  0.3468 -0.8794
 8632SOL     OW37531   2.042   4.206   8.721 -0.3570  0.5043 -0.5552
 8632SOL    HW137532   2.103   4.178   8.790  0.6200 -0.0656 -1.6334
 8632SOL    HW237533   2.060   4.136   8.658 -2.5354 -1.5253  1.0864
 8633SOL     OW37534   3.794   2.059   4.857 -0.0958  0.0104 -0.3646
 8633SOL    HW137535   3.724   2.017   4.807  0.6719  0.0269 -1.4557
 8633SOL    HW237536   3.866   1.997   4.847  0.5880  0.5015  1.5804
 8634SOL     OW37537   2.779   4.689   3.242 -0.1244 -0.3203  0.1467
 8634SOL    HW137538   2.727   0.027   3.217  0.6608 -0.0380 -0.6491
 8634SOL    HW237539   2.862   4.729   3.268  1.0609 -2.4515 -0.3841
 8635SOL     OW37540   0.482   2.691   3.648  0.0794 -0.3704  0.0188
 8635SOL    HW137541   0.530   2.774   3.644  1.0834 -1.0068 -1.0479
 8635SOL    HW237542   0.433   2.698   3.566  0.5168  0.8208 -0.1492
 8636SOL     OW37543   0.241   3.941   8.667  0.4252  0.1861  0.8345
 8636SOL    HW137544   0.236   4.022   8.616  1.1599 -0.4606 -0.2369
 8636SOL    HW237545   0.336   3.927   8.662  0.1609 -0.4279 -2.0756
 8637SOL     OW37546   1.342   4.408   2.900 -0.3691 -0.3877 -0.2699
 8637SOL    HW137547   1.273   4.459   2.943  0.4131 -0.6451  1.3121
 8637SOL    HW237548   1.415   4.445   2.949 -1.6570  2.2287 -0.3430
 8638SOL     OW37549   2.850   2.824   7.136  0.5659 -0.3403 -0.4224
 8638SOL    HW137550   2.865   2.855   7.225 -1.1758 -0.4722 -0.1015
 8638SOL    HW237551   2.799   2.743   7.138  1.1400 -0.6105  2.7810
 8639SOL     OW37552   3.585   2.319   3.247 -0.8454  0.1222 -0.1979
 8639SOL    HW137553   3.586   2.227   3.275 -0.3995  0.0375 -0.4954
 8639SOL    HW237554   3.524   2.346   3.316  1.9492 -0.6896  2.5540
 8640SOL     OW37555   0.040   0.196   7.758  0.6072  0.2021  0.4907
 8640SOL    HW137556   0.070   0.172   7.846  1.2175  1.3371  0.5873
 8640SOL    HW237557   0.115   0.245   7.724  0.5582 -0.3651 -0.4175
 8641SOL     OW37558   4.165   3.101  12.969 -0.1739  0.0941  0.4053
 8641SOL    HW137559   4.218   3.097  12.889  0.0766 -1.8061  0.6497
 8641SOL    HW237560   4.176   3.196  12.977 -4.1326  0.5240  0.4398
 8642SOL     OW37561   0.162   3.086   3.886  0.2008 -0.3881 -0.1741
 8642SOL    HW137562   0.075   3.081   3.846 -0.2809 -2.8592  1.1839
 8642SOL    HW237563   0.177   3.180   3.895  0.1829 -0.5012  1.0970
 8643SOL     OW37564   0.415   3.233  16.060  0.5972  0.5084 -0.1298
 8643SOL    HW137565   0.462   3.182  15.995 -0.0779  2.1758 -1.9533
 8643SOL    HW237566   0.443   3.185  16.137  0.1904  0.1905 -0.1775
 8644SOL     OW37567   0.249   1.690   3.152  0.4200 -0.4333  0.3991
 8644SOL    HW137568   0.284   1.680   3.063  3.1984  0.7150  1.3555
 8644SOL    HW237569   0.220   1.601   3.172 -4.8253  1.4199  1.1483
 8645SOL     OW37570   0.363   2.608  12.807 -0.5505  0.2070  0.5540
 8645SOL    HW137571   0.303   2.584  12.878 -1.6332 -0.0163 -0.4406
 8645SOL    HW237572   0.381   2.697  12.837  0.8198  1.3775 -3.7147
 8646SOL     OW37573   2.416   4.408   8.501  0.1471 -0.4997 -0.1633
 8646SOL    HW137574   2.368   4.421   8.419  1.8965 -1.5121 -1.3423
 8646SOL    HW237575   2.367   4.333   8.533 -0.8259 -0.3318 -1.2328
 8647SOL     OW37576   3.654   0.272   2.610 -0.4489  0.4183  0.1051
 8647SOL    HW137577   3.605   0.304   2.686 -0.8040 -1.7623  0.7872
 8647SOL    HW237578   3.743   0.295   2.636 -0.9466 -1.7725  3.7713
 8648SOL     OW37579   4.425   2.573   3.135 -0.2860  0.8573 -0.2597
 8648SOL    HW137580   4.500   2.616   3.093  0.1816 -1.5694 -1.8982
 8648SOL    HW237581   4.353   2.598   3.077 -1.3057  1.6587  1.3457
 8649SOL     OW37582   3.795   3.181   3.817 -0.2852 -0.4410  0.2620
 8649SOL    HW137583   3.831   3.215   3.899  1.7856 -1.8509 -0.0631
 8649SOL    HW237584   3.709   3.223   3.816 -1.6267 -3.1882 -0.1225
 8650SOL     OW37585   3.586   0.523   3.850  0.1306 -0.5904 -0.0554
 8650SOL    HW137586   3.633   0.530   3.933 -2.1227 -0.8602  1.2514
 8650SOL    HW237587   3.649   0.485   3.789  0.8659 -3.1153  2.2800
 8651SOL     OW37588   0.815   3.750   1.382  0.0233  0.3033  0.4975
 8651SOL    HW137589   0.808   3.695   1.303  0.1044  0.9435  0.0427
 8651SOL    HW237590   0.905   3.779   1.366  0.3706 -0.4837  1.0012
 8652SOL     OW37591   4.706   2.514   9.360 -0.5000  0.2587  0.3051
 8652SOL    HW137592   4.640   2.579   9.335 -2.3977 -1.8671 -0.1248
 8652SOL    HW237593   4.685   2.499   9.452 -1.0155  0.1520  0.1661
 8653SOL     OW37594   2.757   2.251  16.374 -0.0048  0.3073 -0.6381
 8653SOL    HW137595   2.731   2.164  16.407  1.9911  0.5245  1.4681
 8653SOL    HW237596   2.705   2.304  16.434 -1.3612  0.4274 -1.9087
 8654SOL     OW37597   2.481   4.661  17.304 -0.3492  0.5627  0.5280
 8654SOL    HW137598   2.394   4.688  17.272  0.2911 -0.2636 -1.8970
 8654SOL    HW237599   2.492   4.598  17.233 -0.7169 -0.6753  1.5868
 8655SOL     OW37600   1.554   0.445   1.819  0.1473  0.7154 -0.2330
 8655SOL    HW137601   1.504   0.520   1.851 -0.6177  0.1848 -0.1811
 8655SOL    HW237602   1.480   0.385   1.810  2.5955 -2.2001 -0.7427
 8656SOL     OW37603   2.128   3.331   2.234 -0.0650 -0.0602  0.1690
 8656SOL    HW137604   2.106   3.241   2.212 -1.7056  0.2397  0.5409
 8656SOL    HW237605   2.058   3.379   2.190  0.3434  1.0302  0.7015
 8657SOL     OW37606   3.429   1.599   7.215  0.3001  0.2288 -0.0275
 8657SOL    HW137607   3.427   1.524   7.156 -2.1118  1.0061 -0.9080
 8657SOL    HW237608   3.365   1.659   7.178 -0.3031 -0.0138  0.6151
 8658SOL     OW37609   3.278   3.952   5.501  0.3277  0.2461 -0.3374
 8658SOL    HW137610   3.291   3.898   5.424 -1.6407 -1.0600  0.2255
 8658SOL    HW237611   3.183   3.967   5.494  0.2829  1.1067  1.8930
 8659SOL     OW37612   2.289   1.274   6.263  0.0877 -0.0583 -0.0096
 8659SOL    HW137613   2.327   1.186   6.257  0.5991  0.2348 -1.0637
 8659SOL    HW237614   2.358   1.334   6.293 -1.3624  1.1175  0.9774
 8660SOL     OW37615   2.082   0.546   2.818 -0.6652 -0.3088 -0.2544
 8660SOL    HW137616   2.045   0.467   2.779 -0.2196 -0.1360 -1.0244
 8660SOL    HW237617   2.153   0.561   2.755 -0.5081  1.1877  0.2680
 8661SOL     OW37618   2.918   2.333   4.103 -0.2509 -0.3889 -0.1373
 8661SOL    HW137619   2.886   2.309   4.016 -0.9087 -2.7667  0.7607
 8661SOL    HW237620   2.947   2.246   4.128 -1.5972  0.0048  2.8683
 8662SOL     OW37621   4.242   0.197   4.591  0.4062  0.1056  0.3843
 8662SOL    HW137622   4.294   0.120   4.616 -0.4541 -0.3032  0.9075
 8662SOL    HW237623   4.301   0.270   4.609  0.6416  0.1939 -0.7332
 8663SOL     OW37624   1.806   4.420   7.788  0.2869  0.1055  0.4982
 8663SOL    HW137625   1.751   4.480   7.838  0.1358  0.1527  0.2744
 8663SOL    HW237626   1.844   4.368   7.859 -0.2051 -0.2237  0.5168
 8664SOL     OW37627   0.025   2.638   2.106  0.4212 -0.1316  0.3928
 8664SOL    HW137628   0.005   2.689   2.185 -0.1698 -0.7208  0.6204
 8664SOL    HW237629   4.679   2.648   2.063 -0.2937  1.2839  2.0945
 8665SOL     OW37630   4.194   4.335  17.210  0.1301 -0.0367  0.0797
 8665SOL    HW137631   4.110   4.311  17.250 -0.7464 -0.2977 -1.9169
 8665SOL    HW237632   4.252   4.307  17.281 -0.6976 -0.4867  0.5889
 8666SOL     OW37633   3.257   0.963   4.658  0.4009 -0.3822 -0.8785
 8666SOL    HW137634   3.279   1.036   4.602 -0.5735  0.3738 -0.2811
 8666SOL    HW237635   3.183   0.921   4.614 -1.2293  1.0410  0.4771
 8667SOL     OW37636   2.194   4.624   4.227 -0.7177  0.1439 -0.6747
 8667SOL    HW137637   2.288   4.616   4.208 -0.1475  3.7465  0.5377
 8667SOL    HW237638   2.186   4.604   4.320  1.9651  2.8988  0.1455
 8668SOL     OW37639   0.488   0.967  12.542 -0.1207 -0.3513 -0.4896
 8668SOL    HW137640   0.395   0.988  12.536  0.1854  1.2193  0.1968
 8668SOL    HW237641   0.483   0.872  12.552  0.7235 -0.0078  3.2807
 8669SOL     OW37642   2.455   1.981   9.179 -0.5373 -0.5652 -0.0583
 8669SOL    HW137643   2.435   1.901   9.227  1.9493 -2.7736 -2.6763
 8669SOL    HW237644   2.368   2.007   9.149  0.1849  1.1071 -0.7262
 8670SOL     OW37645   4.355   2.841   6.609 -0.3259 -0.3403 -0.0451
 8670SOL    HW137646   4.437   2.809   6.649  0.1327  1.4275  0.4192
 8670SOL    HW237647   4.384   2.914   6.555 -0.5489 -0.9194 -0.9463
 8671SOL     OW37648   4.205   3.791   3.013  0.0655  0.2907 -0.4624
 8671SOL    HW137649   4.135   3.733   3.041  0.3003  0.7110  1.0091
 8671SOL    HW237650   4.191   3.786   2.919 -0.6559  0.4826 -0.3641
 8672SOL     OW37651   2.698   1.660   1.896  0.5325 -0.0878  0.2275
 8672SOL    HW137652   2.694   1.575   1.939 -0.3781  0.5153  1.3552
 8672SOL    HW237653   2.615   1.694   1.929 -1.1198 -2.0028 -1.9820
 8673SOL     OW37654   4.332   2.766  14.749 -0.2505 -0.1858  0.4827
 8673SOL    HW137655   4.327   2.785  14.656 -1.8294  3.4322  1.3226
 8673SOL    HW237656   4.407   2.822  14.771 -0.9380  0.4330  1.2807
 8674SOL     OW37657   3.496   3.739   0.753 -0.7279  0.2230 -0.7566
 8674SOL    HW137658   3.511   3.732   0.847 -0.2293 -0.1361 -0.8645
 8674SOL    HW237659   3.503   3.653   0.710  0.6659 -1.2041  2.3383
 8675SOL     OW37660   1.939   3.573   7.758  0.0287  0.2298  0.3440
 8675SOL    HW137661   2.015   3.599   7.706  1.7994 -1.3215  2.1800
 8675SOL    HW237662   1.876   3.634   7.718 -1.4034 -1.4145  0.0859
 8676SOL     OW37663   4.005   1.579  14.475 -0.3082 -0.4129  0.3301
 8676SOL    HW137664   3.942   1.526  14.425 -0.0502 -1.0386  0.6724
 8676SOL    HW237665   3.992   1.553  14.566  0.3207 -0.8080  0.3053
 8677SOL     OW37666   3.582   0.377   7.799  0.2413 -0.0546 -0.1513
 8677SOL    HW137667   3.539   0.401   7.882 -0.0974 -2.9832  0.4950
 8677SOL    HW237668   3.535   0.434   7.738  1.4422 -0.4110 -1.3730
 8678SOL     OW37669   3.155   1.227  16.824 -0.5891  0.2966 -0.0097
 8678SOL    HW137670   3.122   1.162  16.886  2.6136  2.4383  3.9273
 8678SOL    HW237671   3.103   1.207  16.747  0.2084 -2.0330  0.0647
 8679SOL     OW37672   1.217   1.544   8.029  0.6534  0.0989 -0.2970
 8679SOL    HW137673   1.159   1.553   7.953 -1.6468 -0.7592  1.3455
 8679SOL    HW237674   1.290   1.600   8.001  0.1546 -0.0262 -1.8403
 8680SOL     OW37675   3.238   0.358  12.433 -0.6408  0.0270 -0.1014
 8680SOL    HW137676   3.187   0.396  12.362  1.1252  0.6991 -0.9965
 8680SOL    HW237677   3.293   0.431  12.460  1.5785 -1.7641  0.1634
 8681SOL     OW37678   2.891   2.470   3.721 -0.3864  0.0980  0.8586
 8681SOL    HW137679   2.810   2.523   3.719 -0.5369 -0.1241  1.0991
 8681SOL    HW237680   2.956   2.517   3.773 -1.2884  0.9724  1.2114
 8682SOL     OW37681   2.622   3.710   5.579 -0.0269 -0.5845 -0.4806
 8682SOL    HW137682   2.705   3.680   5.543  0.1690 -2.0389  1.1974
 8682SOL    HW237683   2.578   3.625   5.583 -0.9486 -0.1714 -1.8935
 8683SOL     OW37684   4.084   2.544   8.228 -0.0806 -0.2619 -0.3346
 8683SOL    HW137685   4.065   2.558   8.321 -4.4009 -1.0647 -1.0833
 8683SOL    HW237686   4.110   2.452   8.234  0.4595 -0.0532  0.5833
 8684SOL     OW37687   0.680   2.406  12.849  0.2706 -0.0213  0.6097
 8684SOL    HW137688   0.626   2.472  12.805  0.5960 -0.0055  0.2307
 8684SOL    HW237689   0.773   2.421  12.829  0.1116  0.2185  0.0535
 8685SOL     OW37690   4.447   0.991   3.077  0.4459  0.1697  0.3327
 8685SOL    HW137691   4.505   1.008   3.151  0.6113 -1.1535  0.5029
 8685SOL    HW237692   4.460   1.064   3.016 -0.3204  1.2009  1.3935
 8686SOL     OW37693   4.138   3.539   5.551 -0.2765  0.7754  0.0285
 8686SOL    HW137694   4.083   3.595   5.605 -0.2643  0.3301  0.4993
 8686SOL    HW237695   4.089   3.542   5.469  0.4051  0.5896 -0.3826
 8687SOL     OW37696   2.895   0.235   8.250  0.0818  0.0850 -0.5796
 8687SOL    HW137697   2.884   0.147   8.288  0.8485  0.5763  0.8071
 8687SOL    HW237698   2.989   0.253   8.255  0.0933  0.1673 -1.1737
 8688SOL     OW37699   3.123   4.293  15.677 -0.0747  0.1112  0.0357
 8688SOL    HW137700   3.142   4.328  15.764 -2.0616 -2.4314  1.5065
 8688SOL    HW237701   3.084   4.373  15.643 -0.3201 -0.2955 -0.6403
 8689SOL     OW37702   4.629   4.505  16.119  0.2112 -0.1280  0.3092
 8689SOL    HW137703   4.717   4.504  16.155  0.6005  1.4678 -0.5895
 8689SOL    HW237704   4.591   4.581  16.164 -1.0838 -0.9239  0.5744
 8690SOL     OW37705   2.169   3.275   9.503  0.2426 -0.3342  0.3747
 8690SOL    HW137706   2.247   3.286   9.558 -0.1587  0.6341  0.7489
 8690SOL    HW237707   2.094   3.277   9.562  0.8191  0.5458  1.0841
 8691SOL     OW37708   4.021   0.245  14.490 -0.3325  0.0364  0.4910
 8691SOL    HW137709   4.059   0.203  14.413 -0.4930 -0.7048  0.8153
 8691SOL    HW237710   3.941   0.192  14.497  0.6922 -1.6656 -0.9628
 8692SOL     OW37711   2.465   0.874   4.492 -0.4025  0.0543  0.0965
 8692SOL    HW137712   2.408   0.865   4.568 -2.0365 -0.0073 -1.1331
 8692SOL    HW237713   2.460   0.786   4.454  0.3567  0.2914 -0.5755
 8693SOL     OW37714   4.243   4.653   5.820  0.4437 -0.7302  0.2400
 8693SOL    HW137715   4.313   4.590   5.835  0.1276 -1.3467 -0.8880
 8693SOL    HW237716   4.170   4.597   5.794  0.8924 -1.2448  0.0894
 8694SOL     OW37717   2.230   3.213  15.873  0.6617 -0.1813 -0.2355
 8694SOL    HW137718   2.219   3.138  15.932  0.0585 -0.2191 -0.3966
 8694SOL    HW237719   2.163   3.274  15.903 -0.4415 -2.8297  2.7000
 8695SOL     OW37720   1.606   3.947   6.546  0.2946 -0.8302 -0.2944
 8695SOL    HW137721   1.595   4.031   6.502 -1.0194 -0.9898 -0.2739
 8695SOL    HW237722   1.604   3.974   6.637  1.9981 -0.7573 -0.2794
 8696SOL     OW37723   3.298   1.598  15.643 -0.6619  0.0461  0.0966
 8696SOL    HW137724   3.217   1.559  15.609 -0.5868 -2.1907  2.5205
 8696SOL    HW237725   3.304   1.671  15.581  2.5560  1.0363  1.5750
 8697SOL     OW37726   1.951   3.251   2.606 -0.3937  0.3373  0.1318
 8697SOL    HW137727   2.026   3.311   2.605  0.6486 -0.9384  1.6778
 8697SOL    HW237728   1.876   3.310   2.611 -0.3922  0.2165  1.5906
 8698SOL     OW37729   1.636   1.187   6.650  0.7145  0.0661 -0.1297
 8698SOL    HW137730   1.577   1.165   6.722 -2.4030  2.5224 -1.9166
 8698SOL    HW237731   1.568   1.198   6.583  1.1256  2.5356 -0.1512
 8699SOL     OW37732   2.877   2.470  15.913 -0.2232 -0.4468 -0.2520
 8699SOL    HW137733   2.924   2.539  15.960  3.2449 -2.2292 -1.1231
 8699SOL    HW237734   2.876   2.402  15.980  0.0197 -0.1372  0.0648
 8700SOL     OW37735   1.040   2.470  16.417 -0.0389  0.3776 -0.7526
 8700SOL    HW137736   1.107   2.506  16.358  1.7455 -2.6218 -0.5479
 8700SOL    HW237737   0.968   2.474  16.355  0.0230  0.4704 -0.8189
 8701SOL     OW37738   4.117   0.324   3.526 -0.1018  0.2397  0.3010
 8701SOL    HW137739   4.174   0.381   3.474  1.3025 -0.4815  1.0241
 8701SOL    HW237740   4.037   0.313   3.475  0.0189 -1.8787  0.5556
 8702SOL     OW37741   0.402   2.934   9.586 -0.2648  0.5872 -0.1444
 8702SOL    HW137742   0.370   2.983   9.510 -2.1269 -1.0812 -0.4295
 8702SOL    HW237743   0.433   3.011   9.635 -0.1792  0.9954 -0.8442
 8703SOL     OW37744   4.012   4.050   3.276  0.2018  0.1954 -0.3935
 8703SOL    HW137745   4.098   4.055   3.318  0.6479 -0.0473 -1.2902
 8703SOL    HW237746   4.018   4.131   3.226  2.0648  0.3244  0.0655
 8704SOL     OW37747   1.455   3.417   6.916  0.4796  0.0980 -0.1488
 8704SOL    HW137748   1.497   3.412   6.830  0.8720 -1.6778  0.1523
 8704SOL    HW237749   1.373   3.464   6.901 -0.9976 -1.8858  1.7657
 8705SOL     OW37750   3.202   3.084  17.123 -0.2828  0.0055  0.3096
 8705SOL    HW137751   3.130   3.108  17.065 -3.0666 -2.9662  2.5545
 8705SOL    HW237752   3.164   3.069  17.210 -1.3779 -2.6117 -0.6024
 8706SOL     OW37753   2.915   3.767   5.300  0.0773 -0.1564  0.3866
 8706SOL    HW137754   2.819   3.766   5.304  0.0315  1.3547 -0.5816
 8706SOL    HW237755   2.925   3.754   5.206  0.3469 -0.2233  0.4237
 8707SOL     OW37756   2.952   0.288   3.684  0.2013 -0.2126 -0.3921
 8707SOL    HW137757   3.008   0.364   3.667 -2.1507  1.4048 -0.9296
 8707SOL    HW237758   2.898   0.271   3.608 -0.4358  1.0655 -0.2188
 8708SOL     OW37759   0.881   4.483   5.139  0.0067 -0.4030 -0.3567
 8708SOL    HW137760   0.954   4.475   5.200 -0.9977  0.1287  0.9035
 8708SOL    HW237761   0.827   4.407   5.159 -3.0322  2.1497  1.1870
 8709SOL     OW37762   3.331   0.287  14.504 -0.3344 -0.8422 -0.1654
 8709SOL    HW137763   3.314   0.361  14.447  1.2461 -0.2212  0.1772
 8709SOL    HW237764   3.323   0.213  14.444 -4.5045 -1.7530  1.4731
 8710SOL     OW37765   4.161   3.163  17.125 -0.3149  0.3803  0.3449
 8710SOL    HW137766   4.127   3.251  17.145 -2.8903 -0.7249  0.8584
 8710SOL    HW237767   4.253   3.174  17.149  0.0175  2.4745 -1.9222
 8711SOL     OW37768   1.663   2.029   2.018 -0.4884 -0.5726  0.0695
 8711SOL    HW137769   1.749   2.071   2.015  0.0796 -1.6949  0.4860
 8711SOL    HW237770   1.637   2.058   2.106 -0.5525 -0.0814 -0.1114
 8712SOL     OW37771   1.392   4.637  12.405 -0.7619 -0.1650 -0.4082
 8712SOL    HW137772   1.454   4.581  12.451  0.3884  1.0089 -0.5279
 8712SOL    HW237773   1.421   4.622  12.315  1.3402  2.4881 -0.1418
 8713SOL     OW37774   3.055   3.769   2.991 -0.1834 -0.1606  0.7004
 8713SOL    HW137775   3.025   3.789   2.903  0.2414 -0.5820  0.4604
 8713SOL    HW237776   3.028   3.677   2.990  1.0000 -0.4707 -1.3099
 8714SOL     OW37777   1.742   3.384   2.674 -0.2015  0.1916 -0.2791
 8714SOL    HW137778   1.657   3.366   2.714 -0.5178 -0.1570 -1.1077
 8714SOL    HW237779   1.735   3.479   2.663  0.9801 -0.0401 -2.9810
 8715SOL     OW37780   1.583   2.701  13.920  0.2397 -0.5815 -0.0538
 8715SOL    HW137781   1.619   2.775  13.969 -2.1879  1.0769 -0.7370
 8715SOL    HW237782   1.525   2.665  13.988  0.1109 -0.6817 -0.2177
 8716SOL     OW37783   0.997   1.041   3.704 -0.0448 -0.0419  0.2618
 8716SOL    HW137784   0.955   1.107   3.760 -2.6404 -1.8771  0.4752
 8716SOL    HW237785   1.089   1.057   3.727  0.3494  0.9601 -2.0157
 8717SOL     OW37786   0.780   2.905   8.121  0.1209  0.5704 -0.4540
 8717SOL    HW137787   0.711   2.839   8.112  1.6362 -1.0762  0.0373
 8717SOL    HW237788   0.813   2.913   8.031  0.8202 -0.2092 -0.2642
 8718SOL     OW37789   3.299   2.698   4.180 -0.2840  0.0839  0.7078
 8718SOL    HW137790   3.233   2.630   4.170  0.4344 -0.5320  0.1256
 8718SOL    HW237791   3.299   2.705   4.275  0.6496 -0.2146  0.7242
 8719SOL     OW37792   4.068   4.244   5.523  0.3216  0.0226  0.4494
 8719SOL    HW137793   4.156   4.256   5.558 -0.0078 -0.1029  1.3395
 8719SOL    HW237794   4.024   4.323   5.553 -0.0585 -0.6882  1.7974
 8720SOL     OW37795   0.377   1.276   4.753  0.3629 -0.2885  0.6725
 8720SOL    HW137796   0.401   1.348   4.694  0.3582 -0.1529  0.8348
 8720SOL    HW237797   0.284   1.298   4.757  0.2298 -0.7014 -0.3204
 8721SOL     OW37798   1.213   2.561   8.405 -0.4458  0.0697  0.5284
 8721SOL    HW137799   1.124   2.562   8.441 -1.0918  3.0768 -1.2047
 8721SOL    HW237800   1.212   2.645   8.359 -3.0332  0.2128  0.8656
 8722SOL     OW37801   4.634   0.778   5.469 -0.6569  0.4453  0.0710
 8722SOL    HW137802   4.601   0.855   5.422 -3.2486 -0.8550 -0.2234
 8722SOL    HW237803   4.724   0.807   5.485 -0.2284 -1.5874  1.3178
 8723SOL     OW37804   3.028   3.157   2.270 -0.3944 -0.9221 -0.2207
 8723SOL    HW137805   3.040   3.136   2.363  2.0057  0.3573 -0.2422
 8723SOL    HW237806   3.106   3.123   2.226 -0.8778 -3.9298  1.2580
 8724SOL     OW37807   2.406   0.684   1.694 -0.1057 -0.0423  0.5862
 8724SOL    HW137808   2.421   0.685   1.599  0.5146  1.3793  0.6939
 8724SOL    HW237809   2.461   0.612   1.725 -1.3679 -1.7479 -1.1409
 8725SOL     OW37810   1.282   4.016   6.704 -0.4064 -0.1844  0.5159
 8725SOL    HW137811   1.353   4.026   6.768  0.1082  0.2081 -0.1126
 8725SOL    HW237812   1.212   4.029   6.769  0.3426  1.8378  0.9254
 8726SOL     OW37813   2.407   2.073   8.236 -0.0385 -0.4143 -0.2224
 8726SOL    HW137814   2.331   2.081   8.294 -0.1406  1.3661 -0.5971
 8726SOL    HW237815   2.367   2.073   8.149  1.8072 -3.3449 -1.0877
 8727SOL     OW37816   1.821   2.633   2.575 -0.1415  0.5712  0.0171
 8727SOL    HW137817   1.915   2.619   2.562 -0.0487  1.0685  0.1642
 8727SOL    HW237818   1.813   2.719   2.533 -0.8732  0.1416 -0.7213
 8728SOL     OW37819   1.333   0.460   3.646 -0.6537  0.6860  0.4558
 8728SOL    HW137820   1.424   0.449   3.617 -0.1596 -1.2918  2.7354
 8728SOL    HW237821   1.355   0.521   3.716  0.9073 -0.9882  1.4262
 8729SOL     OW37822   0.316   3.298  11.605 -0.1886 -0.1974 -0.4012
 8729SOL    HW137823   0.232   3.255  11.617 -0.9740  1.7276  1.0633
 8729SOL    HW237824   0.314   3.331  11.515  1.5601 -1.8202 -1.0350
 8730SOL     OW37825   1.547   3.310   8.438  0.7508 -0.4217 -0.3502
 8730SOL    HW137826   1.527   3.264   8.519  0.7638 -1.6554 -1.0561
 8730SOL    HW237827   1.468   3.286   8.389  0.0590 -3.2818  2.1700
 8731SOL     OW37828   2.322   2.873   2.485  0.1616 -0.6124  0.1738
 8731SOL    HW137829   2.312   2.860   2.390  0.3318  0.5261  0.0098
 8731SOL    HW237830   2.247   2.926   2.509 -0.3146 -1.6140  0.9078
 8732SOL     OW37831   3.364   4.408   8.885 -0.2970  0.3910  0.0756
 8732SOL    HW137832   3.459   4.417   8.870  0.4127 -2.3001  2.9930
 8732SOL    HW237833   3.336   4.493   8.850  1.6463  0.7557 -0.6265
 8733SOL     OW37834   1.107   2.951   6.247 -0.2705 -0.0069 -0.4149
 8733SOL    HW137835   1.073   2.927   6.161  0.3590 -1.1353 -0.3533
 8733SOL    HW237836   1.126   2.868   6.290 -0.6436  0.6109  0.9418
 8734SOL     OW37837   4.423   2.394   2.112 -0.6561 -0.5146 -0.1886
 8734SOL    HW137838   4.372   2.435   2.181  0.3949  0.7857 -0.1776
 8734SOL    HW237839   4.418   2.299   2.116 -1.9747 -0.4531 -0.4868
 8735SOL     OW37840   1.315   3.297   0.696 -0.2596 -0.0284  0.0635
 8735SOL    HW137841   1.314   3.391   0.714 -1.5826 -0.0459  0.0734
 8735SOL    HW237842   1.227   3.292   0.658  0.5921 -0.7693 -1.8603
 8736SOL     OW37843   1.707   3.211   5.698  0.5516 -0.6166  0.0185
 8736SOL    HW137844   1.790   3.174   5.728  0.0970 -1.1038  0.6661
 8736SOL    HW237845   1.656   3.130   5.690  2.0852 -1.4874 -0.8584
 8737SOL     OW37846   4.081   2.307   3.977 -0.0684 -0.1176 -0.0086
 8737SOL    HW137847   4.168   2.320   3.939 -0.0360  1.2972  0.5243
 8737SOL    HW237848   4.032   2.384   3.946 -1.1702 -0.6902  0.3128
 8738SOL     OW37849   2.504   1.387  17.270 -0.4448 -0.0236  0.2807
 8738SOL    HW137850   2.489   1.480  17.290  1.3123  0.6320 -1.4759
 8738SOL    HW237851   2.416   1.366  17.239 -0.8278  0.0583  1.3182
 8739SOL     OW37852   3.897   0.907   9.043  0.3164  0.7441 -0.2533
 8739SOL    HW137853   3.976   0.902   9.097 -0.2915  0.1368  0.5852
 8739SOL    HW237854   3.942   0.916   8.959 -1.7975  1.3985 -1.3236
 8740SOL     OW37855   0.605   1.632   0.831  0.1375 -0.5687 -0.0733
 8740SOL    HW137856   0.595   1.552   0.883 -0.0692 -1.6788 -1.8124
 8740SOL    HW237857   0.514   1.651   0.812  0.9814 -0.2903 -3.8592
 8741SOL     OW37858   1.606   2.545  14.758 -0.5193 -0.2840 -0.1085
 8741SOL    HW137859   1.630   2.459  14.791 -0.4274 -0.7448 -1.3947
 8741SOL    HW237860   1.685   2.598  14.746  0.2428 -1.2662  0.5363
 8742SOL     OW37861   2.888   1.259   8.531 -0.2121  0.3132 -0.2676
 8742SOL    HW137862   2.838   1.329   8.574 -0.2332  0.3049 -0.2785
 8742SOL    HW237863   2.884   1.300   8.445  3.2472 -2.2692 -1.6572
 8743SOL     OW37864   3.567   1.073   6.395 -0.7870  0.7516  0.1285
 8743SOL    HW137865   3.577   0.978   6.402 -1.3324  1.0479  4.5273
 8743SOL    HW237866   3.646   1.096   6.443 -1.6731 -0.0019  1.9412
 8744SOL     OW37867   3.069   1.347   6.818  0.7596 -0.5321  0.1106
 8744SOL    HW137868   2.994   1.329   6.761 -1.1749  0.8952  2.1443
 8744SOL    HW237869   3.062   1.266   6.869 -5.0712 -0.4010 -0.4628
 8745SOL     OW37870   2.234   3.310  17.081  0.3215  1.3136  0.0440
 8745SOL    HW137871   2.233   3.363  17.161 -1.8177  0.1518  0.7767
 8745SOL    HW237872   2.312   3.347  17.039 -0.9245  2.0567 -1.6060
 8746SOL     OW37873   1.179   1.375   3.530  0.0725 -0.2271  0.0143
 8746SOL    HW137874   1.146   1.425   3.605  1.1146  0.2569  0.1555
 8746SOL    HW237875   1.240   1.428   3.477 -0.7209  0.6899  0.0204
 8747SOL     OW37876   4.593   1.687   6.234 -0.4409 -0.0628 -0.1407
 8747SOL    HW137877   4.619   1.597   6.215  1.1817 -0.1699  2.5893
 8747SOL    HW237878   4.532   1.693   6.161  0.9121  0.5005 -1.2168
 8748SOL     OW37879   1.422   0.664  16.035  0.2900  0.2174  0.1232
 8748SOL    HW137880   1.462   0.683  16.120 -1.8204 -0.5760  1.2784
 8748SOL    HW237881   1.332   0.664  16.066  0.3587 -1.0201  0.3111
 8749SOL     OW37882   0.477   3.101  15.633  0.3173 -0.5732  0.5947
 8749SOL    HW137883   0.405   3.065  15.685  1.8748  1.0815  3.8669
 8749SOL    HW237884   0.535   3.115  15.708 -1.1414 -0.0496  1.6116
 8750SOL     OW37885   1.663   0.195   3.696 -0.1410 -0.1023  0.0829
 8750SOL    HW137886   1.570   0.179   3.714 -0.2203  1.2363  0.8364
 8750SOL    HW237887   1.666   0.197   3.600 -2.7659 -0.4611 -0.0127
 8751SOL     OW37888   3.591   2.684  13.126  0.3751  0.3297  0.2309
 8751SOL    HW137889   3.544   2.749  13.179 -2.7589 -0.3122 -1.7127
 8751SOL    HW237890   3.601   2.726  13.041 -0.3088 -0.9799 -0.4970
 8752SOL     OW37891   3.242   4.213   0.302 -0.0584  0.2047  0.1202
 8752SOL    HW137892   3.250   4.150   0.374 -0.4165 -2.3196 -2.0319
 8752SOL    HW237893   3.287   4.168   0.231  1.4577  1.8234  0.0744
 8753SOL     OW37894   0.779   3.142   7.071 -0.2208  0.9987 -0.2472
 8753SOL    HW137895   0.853   3.202   7.062  0.9912 -0.1879  2.0220
 8753SOL    HW237896   0.815   3.057   7.046 -1.5542  0.0536  1.0021
 8754SOL     OW37897   4.119   3.978  13.548 -0.2747  0.6856 -0.5671
 8754SOL    HW137898   4.041   4.005  13.596 -0.2696 -0.0180 -0.1620
 8754SOL    HW237899   4.181   4.027  13.602 -2.4135  1.2837  1.3436
 8755SOL     OW37900   3.588   1.472   4.482 -0.3999  0.3356  0.3874
 8755SOL    HW137901   3.577   1.559   4.444 -0.4315  0.0249 -0.3109
 8755SOL    HW237902   3.676   1.480   4.519 -0.4959  0.4184  0.5959
 8756SOL     OW37903   2.936   2.403   0.894  0.1303  0.1593 -0.4143
 8756SOL    HW137904   2.996   2.420   0.967 -0.6633  0.1201  0.2426
 8756SOL    HW237905   2.865   2.368   0.947  3.1477 -0.0223  3.5813
 8757SOL     OW37906   0.229   1.358   0.152  0.1942 -0.4231 -0.2208
 8757SOL    HW137907   0.223   1.448   0.119  1.5261 -0.5175 -0.7215
 8757SOL    HW237908   0.186   1.318   0.076  2.0003 -0.5285 -1.1694
 8758SOL     OW37909   0.472   0.135   8.307  0.2415  0.0506  0.3452
 8758SOL    HW137910   0.514   0.220   8.321 -2.1511  1.2059  0.5091
 8758SOL    HW237911   0.448   0.118   8.398 -1.6211  0.3902 -0.0792
 8759SOL     OW37912   0.826   4.464   4.174 -0.7480 -0.5469  0.1041
 8759SOL    HW137913   0.890   4.531   4.151 -0.7453 -0.5269  0.1701
 8759SOL    HW237914   0.750   4.508   4.213  0.8867  1.4868  0.9860
 8760SOL     OW37915   1.209   2.609   3.218  0.0912  0.6586  0.0019
 8760SOL    HW137916   1.285   2.620   3.276 -0.9987 -0.7285  1.6876
 8760SOL    HW237917   1.154   2.685   3.233 -1.2460 -0.3902  0.3514
 8761SOL     OW37918   3.071   4.170   2.115 -0.4322  0.6310  0.7427
 8761SOL    HW137919   3.019   4.190   2.038  0.1742 -1.6045 -0.2602
 8761SOL    HW237920   3.053   4.247   2.169  0.5071  0.1660  1.7182
 8762SOL     OW37921   4.041   2.157   3.627  0.4212 -0.4413 -0.2495
 8762SOL    HW137922   4.064   2.068   3.655  2.1204  0.1017  0.1026
 8762SOL    HW237923   4.028   2.146   3.533  1.5936 -0.4704 -0.4053
 8763SOL     OW37924   1.094   1.419   6.296  0.2379  0.4314 -0.2250
 8763SOL    HW137925   1.047   1.367   6.361 -1.0462  1.2709 -0.4893
 8763SOL    HW237926   1.119   1.351   6.233  0.6820 -1.7089  2.2645
 8764SOL     OW37927   2.792   0.523   7.970  0.3039  0.0497  0.1140
 8764SOL    HW137928   2.857   0.453   7.970 -0.7808 -0.9736 -0.5272
 8764SOL    HW237929   2.716   0.466   7.956  0.6936 -0.4738  0.1445
 8765SOL     OW37930   1.662   0.360   8.310 -0.5833  0.1002 -0.0832
 8765SOL    HW137931   1.585   0.328   8.355  0.6461  0.7226  2.4690
 8765SOL    HW237932   1.733   0.314   8.355 -0.2956  2.8317  2.3182
 8766SOL     OW37933   3.089   1.749  11.384 -0.0908 -0.1230 -0.6463
 8766SOL    HW137934   3.035   1.729  11.461  1.0383  0.3167  0.2649
 8766SOL    HW237935   3.127   1.663  11.365  1.9048  0.4653  0.6838
 8767SOL     OW37936   1.420   0.915   2.015 -0.1879  0.0240  0.4460
 8767SOL    HW137937   1.416   0.821   1.996 -2.4091 -0.1355  1.6506
 8767SOL    HW237938   1.335   0.937   1.976  0.1923  1.1487  0.2429
 8768SOL     OW37939   3.711   3.489  11.560 -0.4900 -0.4347  0.3418
 8768SOL    HW137940   3.714   3.475  11.654  1.7727  1.6183  0.5533
 8768SOL    HW237941   3.658   3.566  11.539 -1.4685 -0.5852  2.3418
 8769SOL     OW37942   1.162   3.281  13.637  0.0968  0.0514 -0.0666
 8769SOL    HW137943   1.154   3.372  13.608 -0.0648 -0.2088 -0.8271
 8769SOL    HW237944   1.105   3.237  13.574 -2.3649  0.9836  1.5004
 8770SOL     OW37945   3.022   3.024   6.820 -0.1306  0.0395 -0.0709
 8770SOL    HW137946   3.083   3.091   6.789  1.0668  0.1132  2.3930
 8770SOL    HW237947   3.075   2.960   6.868  0.8274  0.8628 -0.0296
 8771SOL     OW37948   0.015   2.055   8.187 -0.1438 -0.3023  0.3634
 8771SOL    HW137949   0.014   2.114   8.263 -0.1740 -0.6300  0.6169
 8771SOL    HW237950   4.735   2.118   8.116  1.4186 -1.6278 -1.2079
 8772SOL     OW37951   1.005   4.671   6.442 -0.0645 -0.3450 -0.0540
 8772SOL    HW137952   0.960   4.729   6.504  0.6159 -0.9329  0.9924
 8772SOL    HW237953   1.032   4.738   6.379 -2.1541  0.7336  0.2129
 8773SOL     OW37954   1.718   4.317   7.395 -0.1071  0.1237 -0.4126
 8773SOL    HW137955   1.650   4.382   7.412 -0.0305 -0.6681  3.1101
 8773SOL    HW237956   1.676   4.275   7.321 -0.9495  0.8552 -0.3543
 8774SOL     OW37957   4.188   0.325   9.043  0.0845  0.3454  0.3664
 8774SOL    HW137958   4.245   0.394   9.075 -0.0857  1.4066 -1.6019
 8774SOL    HW237959   4.258   0.281   8.995 -0.4276  0.2945 -0.3447
 8775SOL     OW37960   4.222   1.911  10.789 -0.5070  0.1242  0.5636
 8775SOL    HW137961   4.249   2.003  10.783  0.7291 -0.1928  1.2760
 8775SOL    HW237962   4.164   1.902  10.714 -2.6121 -0.9733  2.3432
 8776SOL     OW37963   4.598   1.045   3.671  0.2348 -0.3547  0.1699
 8776SOL    HW137964   4.673   1.100   3.695  0.2167 -0.3734  0.2702
 8776SOL    HW237965   4.603   0.971   3.732  1.2580 -0.1802  0.2964
 8777SOL     OW37966   3.572   3.774  15.835  0.0086 -0.3255  0.0083
 8777SOL    HW137967   3.547   3.790  15.744  0.0338 -0.5569 -0.0405
 8777SOL    HW237968   3.503   3.824  15.877  0.4108  0.4002 -0.1949
 8778SOL     OW37969   2.929   4.500   2.001 -0.4367 -0.4224 -0.5722
 8778SOL    HW137970   2.970   4.561   1.940 -1.3721 -1.0096 -1.7986
 8778SOL    HW237971   2.920   4.555   2.079 -1.5262 -0.1441 -0.8904
 8779SOL     OW37972   4.694   1.294  13.731 -0.1718 -0.1331  0.1314
 8779SOL    HW137973   4.730   1.301  13.819 -0.7232  2.4549  0.1645
 8779SOL    HW237974   4.651   1.378  13.711  1.1615 -0.0122 -2.3529
 8780SOL     OW37975   4.580   0.160   7.575 -0.6496 -0.0687 -0.1837
 8780SOL    HW137976   4.638   0.166   7.499 -1.1509  1.1742 -0.4699
 8780SOL    HW237977   4.648   0.164   7.642  0.8206 -0.2196 -1.6515
 8781SOL     OW37978   3.494   1.091   4.877  0.3889  0.1585  1.0441
 8781SOL    HW137979   3.538   1.129   4.801 -1.7569 -0.9977 -0.7657
 8781SOL    HW237980   3.486   1.156   4.947  0.6463  1.9451 -0.5865
 8782SOL     OW37981   1.499   1.828   6.657 -0.4991 -0.0023  0.1617
 8782SOL    HW137982   1.580   1.827   6.605 -0.6696 -2.6882 -0.0474
 8782SOL    HW237983   1.459   1.747   6.624  1.9024 -1.3292  0.4809
 8783SOL     OW37984   2.792   2.089   6.461 -0.0260 -0.3630 -0.4289
 8783SOL    HW137985   2.796   2.098   6.366  0.7349 -1.6570 -0.5246
 8783SOL    HW237986   2.877   2.050   6.481  0.1540  0.7129  0.9403
 8784SOL     OW37987   2.934   4.427  17.093  0.2105 -0.0662 -0.3311
 8784SOL    HW137988   2.935   4.341  17.052 -0.5312 -0.5025  0.5612
 8784SOL    HW237989   2.845   4.417  17.127  0.2325  1.7838  0.2884
 8785SOL     OW37990   1.624   3.481   4.173 -0.1226  0.5076  0.1488
 8785SOL    HW137991   1.704   3.478   4.225  0.5602  0.5407 -0.9047
 8785SOL    HW237992   1.634   3.567   4.134 -0.1746  0.5041  0.1276
 8786SOL     OW37993   2.182   2.092  17.506 -0.0306  0.3717  0.1099
 8786SOL    HW137994   2.192   2.109  17.600  0.3075 -2.1831  0.5330
 8786SOL    HW237995   2.273   2.105  17.480 -0.6439  1.9259 -1.2275
 8787SOL     OW37996   1.944   2.832   5.188 -0.1093  0.1711 -0.5499
 8787SOL    HW137997   1.863   2.794   5.153 -0.1984  0.8448 -1.0605
 8787SOL    HW237998   2.009   2.761   5.188  0.2871  0.5318 -0.2278
 8788SOL     OW37999   0.570   3.570   7.135  0.1115 -0.3683 -0.9052
 8788SOL    HW138000   0.544   3.575   7.043  1.6791 -0.2515 -1.3427
 8788SOL    HW238001   0.594   3.477   7.137 -2.1605 -0.9253  1.4733
 8789SOL     OW38002   2.661   3.335   4.688  0.3040  1.0034  0.3544
 8789SOL    HW138003   2.617   3.308   4.608 -0.1173  2.3956  0.1146
 8789SOL    HW238004   2.594   3.340   4.756  2.3980  0.2722  2.4863
 8790SOL     OW38005   3.700   1.553   7.296  0.5219  0.4104  0.4705
 8790SOL    HW138006   3.613   1.579   7.265  1.2593  0.4678 -1.5511
 8790SOL    HW238007   3.687   1.459   7.302 -0.8035  0.4844 -1.2457
 8791SOL     OW38008   3.003   4.489  15.538  0.3822 -0.4893 -0.4114
 8791SOL    HW138009   2.981   4.538  15.458  0.3468  0.2406  0.0471
 8791SOL    HW238010   2.916   4.460  15.562  0.4787  0.1052  0.6568
 8792SOL     OW38011   0.258   1.577  13.173 -0.0296  0.5481 -0.2674
 8792SOL    HW138012   0.304   1.611  13.096  0.3039 -0.4887 -0.5236
 8792SOL    HW238013   0.256   1.488  13.138  2.9169  0.5483 -0.4778
 8793SOL     OW38014   3.966   4.021   8.309  0.4715  0.1231  0.5433
 8793SOL    HW138015   3.943   4.066   8.227 -1.1328 -0.2800  0.7676
 8793SOL    HW238016   3.891   3.969   8.338  0.2890 -0.8841 -1.7435
 8794SOL     OW38017   4.354   3.227   0.423  0.1728 -0.1122  0.9025
 8794SOL    HW138018   4.352   3.256   0.332 -1.6326 -0.4361  0.8449
 8794SOL    HW238019   4.440   3.186   0.435  0.6932  0.6188 -0.3551
 8795SOL     OW38020   1.073   3.814   3.491  0.2508  0.2766 -0.5334
 8795SOL    HW138021   1.015   3.756   3.442 -0.1007  0.5720 -0.4699
 8795SOL    HW238022   1.137   3.824   3.420  1.6867  0.1087  0.7325
 8796SOL     OW38023   4.034   1.164   6.656 -0.5247  0.2427 -0.6577
 8796SOL    HW138024   4.045   1.217   6.735 -0.6464 -2.5629  1.2560
 8796SOL    HW238025   4.122   1.140   6.626 -0.8475 -0.7855 -0.7685
 8797SOL     OW38026   2.328   1.593   6.373  0.1538 -0.4982 -0.1715
 8797SOL    HW138027   2.419   1.561   6.374  0.2472 -0.2438 -0.8549
 8797SOL    HW238028   2.300   1.584   6.464  0.0079 -1.2444 -0.2870
 8798SOL     OW38029   2.413   0.399  10.336 -0.1943 -1.0231 -0.5353
 8798SOL    HW138030   2.393   0.479  10.385 -0.9593 -2.9394  2.3171
 8798SOL    HW238031   2.350   0.398  10.265  0.5648 -0.5038 -1.2240
 8799SOL     OW38032   2.549   0.978   3.174  0.7294 -0.1312  0.0310
 8799SOL    HW138033   2.470   1.032   3.169  0.3816 -0.8605 -2.5377
 8799SOL    HW238034   2.588   1.008   3.092  0.1009 -0.1383 -0.2704
 8800SOL     OW38035   4.398   4.686  13.734 -0.1841 -0.6174 -0.5612
 8800SOL    HW138036   4.409   4.730  13.649 -0.3899 -2.2263 -1.4307
 8800SOL    HW238037   4.455   4.610  13.721 -1.2726 -1.2708 -1.5197
 8801SOL     OW38038   0.374   2.091  16.938 -0.2320  0.4158  0.0344
 8801SOL    HW138039   0.297   2.122  16.892 -0.2374 -0.3008 -0.4354
 8801SOL    HW238040   0.339   2.012  16.977 -1.9945  0.6516 -1.0633
 8802SOL     OW38041   4.128   0.972   4.863  0.4925 -0.1128  0.0217
 8802SOL    HW138042   4.073   0.899   4.890 -0.6262  0.3452 -1.0607
 8802SOL    HW238043   4.084   1.047   4.904  0.3116  0.0513 -0.4721
 8803SOL     OW38044   4.306   3.476  10.921  0.2631 -0.2070 -0.3870
 8803SOL    HW138045   4.364   3.407  10.888  1.2471 -0.5892  2.1528
 8803SOL    HW238046   4.262   3.494  10.837  2.4776  0.4027 -1.4036
 8804SOL     OW38047   3.514   0.593   7.493 -0.1962  0.3082 -0.3419
 8804SOL    HW138048   3.501   0.550   7.408 -0.2302  0.7643 -0.5673
 8804SOL    HW238049   3.424   0.617   7.517  0.5842  3.8051 -0.9535
 8805SOL     OW38050   0.301   2.095   2.513 -0.1075  0.2465  0.5987
 8805SOL    HW138051   0.353   2.151   2.571  0.4388  1.8774 -1.4861
 8805SOL    HW238052   0.268   2.170   2.463  0.5670 -0.1253 -0.4087
 8806SOL     OW38053   3.555   0.752   5.890  0.2372 -0.4554 -0.0587
 8806SOL    HW138054   3.611   0.810   5.838  1.0748 -0.5033  0.7934
 8806SOL    HW238055   3.482   0.734   5.830 -0.3479 -3.7807  1.6463
 8807SOL     OW38056   3.782   0.421   4.220 -0.1436  0.3606  0.5399
 8807SOL    HW138057   3.713   0.471   4.262 -1.2109 -1.3944  0.8829
 8807SOL    HW238058   3.826   0.382   4.295  0.3210 -2.3410 -1.1334
 8808SOL     OW38059   2.854   2.784   5.870  0.3163  0.0465 -0.1045
 8808SOL    HW138060   2.946   2.783   5.843 -0.4331  1.5270 -2.6891
 8808SOL    HW238061   2.846   2.874   5.903 -0.9859  0.5880 -1.9113
 8809SOL     OW38062   0.071   3.243   8.773 -0.1137 -0.4354 -0.2473
 8809SOL    HW138063   0.038   3.172   8.828  0.0958 -0.6661 -0.4184
 8809SOL    HW238064   0.123   3.297   8.833 -2.1138  0.5283  0.6252
 8810SOL     OW38065   1.649   3.135   6.850 -0.7028  0.4422  0.2792
 8810SOL    HW138066   1.630   3.210   6.905 -0.7072  1.2870 -0.8761
 8810SOL    HW238067   1.588   3.068   6.879  1.3618 -1.5564  0.0602
 8811SOL     OW38068   3.265   1.956   5.142 -0.1902  0.2324  0.5888
 8811SOL    HW138069   3.309   1.871   5.138 -0.4245  0.2720 -3.1122
 8811SOL    HW238070   3.342   2.012   5.132 -1.0779  1.7320  2.1188
 8812SOL     OW38071   2.496   1.861  11.910  0.1436  0.6596 -0.1644
 8812SOL    HW138072   2.546   1.903  11.980  2.4507 -1.1706 -0.7362
 8812SOL    HW238073   2.542   1.780  11.887  2.2693  1.8847 -0.1828
 8813SOL     OW38074   2.734   1.635   1.510 -0.1035  0.2804 -0.0815
 8813SOL    HW138075   2.748   1.609   1.419 -1.9553  1.5788 -0.7451
 8813SOL    HW238076   2.707   1.553   1.551 -2.0410  0.7442 -0.4316
 8814SOL     OW38077   3.691   1.001  12.654  0.5040  0.0114 -0.0155
 8814SOL    HW138078   3.775   1.020  12.696  0.3021 -1.3411  0.9957
 8814SOL    HW238079   3.643   1.063  12.708  1.3671  1.1662 -0.5706
 8815SOL     OW38080   3.739   4.242   6.449 -0.1445 -0.4492  0.0339
 8815SOL    HW138081   3.710   4.283   6.367 -1.1447 -2.0499 -0.4202
 8815SOL    HW238082   3.749   4.149   6.430 -0.7537 -1.5187  4.8996
 8816SOL     OW38083   3.115   3.124  17.372  0.1906  0.4902 -0.2462
 8816SOL    HW138084   3.023   3.137  17.351  0.7549  3.1172 -1.1355
 8816SOL    HW238085   3.112   3.080  17.456  0.4154 -0.4538 -0.7356
 8817SOL     OW38086   3.760   3.547   3.424 -0.1595 -0.1837  0.5541
 8817SOL    HW138087   3.755   3.567   3.518  2.6665 -0.9282  0.8574
 8817SOL    HW238088   3.808   3.465   3.413  1.6780  1.2393 -2.0282
 8818SOL     OW38089   4.001   2.118  11.035 -0.5896  0.1689 -0.4228
 8818SOL    HW138090   4.020   2.205  11.070  0.9882 -0.9140  1.4188
 8818SOL    HW238091   4.042   2.076  11.111  0.0150 -0.7176 -1.2354
 8819SOL     OW38092   2.533   0.178   2.639  0.6074 -0.3187  0.4368
 8819SOL    HW138093   2.578   0.261   2.623  0.7767  0.2133  3.6961
 8819SOL    HW238094   2.605   0.114   2.636  1.8971  1.1275  0.8873
 8820SOL     OW38095   4.011   2.960   2.849 -0.0990 -0.2012  0.0518
 8820SOL    HW138096   3.920   2.973   2.823 -0.9846 -1.4130  2.5267
 8820SOL    HW238097   4.034   3.033   2.908  1.7258 -0.2252 -0.6328
 8821SOL     OW38098   1.277   0.674   9.793 -0.0002  0.0220 -0.5394
 8821SOL    HW138099   1.226   0.751   9.817 -0.8768 -0.4371 -0.9244
 8821SOL    HW238100   1.316   0.711   9.714 -0.5963  0.1422 -0.7740
 8822SOL     OW38101   0.957   1.019   6.971 -0.1959 -0.2947 -0.6199
 8822SOL    HW138102   0.914   0.936   6.951 -0.7445 -0.3430  0.7480
 8822SOL    HW238103   1.043   0.981   6.993  0.1832 -0.5757 -2.6049
 8823SOL     OW38104   4.490   0.564   1.562  0.2465  0.0686 -0.4232
 8823SOL    HW138105   4.529   0.593   1.479  1.3487  1.3948  0.5666
 8823SOL    HW238106   4.454   0.481   1.532  0.1981 -0.3274  0.7768
 8824SOL     OW38107   0.393   1.647  16.068 -0.2453  0.3300  0.2598
 8824SOL    HW138108   0.380   1.652  15.973  2.2652  1.4485 -0.0286
 8824SOL    HW238109   0.437   1.562  16.062  2.4478  1.5625  3.1284
 8825SOL     OW38110   3.581   0.714  14.600 -0.8891  0.2250  0.1041
 8825SOL    HW138111   3.624   0.657  14.537  1.8397  0.2054  1.9820
 8825SOL    HW238112   3.498   0.666  14.590 -1.0245  0.3800  0.4869
 8826SOL     OW38113   1.922   1.135   1.409 -0.2367 -0.0526  0.3441
 8826SOL    HW138114   1.903   1.092   1.493  1.0960  0.7005  1.0456
 8826SOL    HW238115   1.875   1.073   1.354  0.4726  1.2086 -1.6606
 8827SOL     OW38116   3.971   2.495  16.562 -0.2830 -0.0683  0.3604
 8827SOL    HW138117   3.914   2.479  16.487  1.3849 -3.7430 -0.1373
 8827SOL    HW238118   3.923   2.558  16.615 -0.3542  1.5690 -1.6449
 8828SOL     OW38119   1.576   0.122   8.739  0.2031 -0.5445 -0.7113
 8828SOL    HW138120   1.490   0.131   8.780  1.3618 -0.4359  1.7084
 8828SOL    HW238121   1.597   0.214   8.721  1.1469 -0.6016  0.0809
 8829SOL     OW38122   1.185   4.055   1.947  0.2715 -0.5102  0.5028
 8829SOL    HW138123   1.170   4.059   2.041 -0.7598 -1.1980  0.3709
 8829SOL    HW238124   1.251   3.987   1.932  1.7420  0.3915  3.0592
 8830SOL     OW38125   1.010   4.174   5.527  0.2119 -0.6424 -0.3715
 8830SOL    HW138126   0.975   4.085   5.539 -0.7525 -0.2608 -0.4008
 8830SOL    HW238127   1.041   4.186   5.617 -1.7665  0.9760  0.0893
 8831SOL     OW38128   0.063   2.755   8.956 -0.1641 -0.1970 -0.2542
 8831SOL    HW138129   4.723   2.770   8.903  0.1449  0.3246 -0.5660
 8831SOL    HW238130   0.041   2.669   8.992  0.2324 -0.5379 -0.8121
 8832SOL     OW38131   3.506   2.171   8.341  0.0054 -0.1667  0.2390
 8832SOL    HW138132   3.561   2.216   8.277  0.2801 -1.0893 -0.1775
 8832SOL    HW238133   3.416   2.200   8.325  0.0457 -0.8591 -1.2711
 8833SOL     OW38134   3.542   3.431   7.278 -0.3559  0.6952 -0.1261
 8833SOL    HW138135   3.460   3.481   7.274 -1.0398 -0.4400 -0.3174
 8833SOL    HW238136   3.509   3.354   7.230 -0.8936  0.3370  0.8033
 8834SOL     OW38137   3.040   4.531  13.485 -0.2414  0.0172  0.1004
 8834SOL    HW138138   3.040   4.620  13.450 -0.6301 -0.7411 -1.8048
 8834SOL    HW238139   2.967   4.538  13.547 -1.2256 -0.2409 -1.0342
 8835SOL     OW38140   0.160   0.002  12.445 -0.2402 -0.3661 -0.1204
 8835SOL    HW138141   0.224   4.669  12.447 -1.0047 -1.0456  0.2688
 8835SOL    HW238142   0.131   0.004  12.354  1.7933  0.4234 -0.7448
 8836SOL     OW38143   3.450   2.330   6.733  0.0819  0.4338 -0.0612
 8836SOL    HW138144   3.497   2.303   6.655  1.5701  1.5010  0.4768
 8836SOL    HW238145   3.385   2.381   6.684  1.5092  1.1930 -1.1312
 8837SOL     OW38146   2.915   0.235  11.770 -0.0240  0.3875  0.4325
 8837SOL    HW138147   2.873   0.259  11.687  0.6109  0.2721  0.0791
 8837SOL    HW238148   2.988   0.191  11.727  0.7087  0.6586  1.4036
 8838SOL     OW38149   2.290   0.065   0.520  0.1062 -0.1787  0.8379
 8838SOL    HW138150   2.262   0.023   0.439  0.6786 -0.2777  0.6946
 8838SOL    HW238151   2.207   0.063   0.568 -0.9153 -2.8685 -1.0421
 8839SOL     OW38152   1.373   3.234  14.147  0.1557  0.0823 -0.0965
 8839SOL    HW138153   1.467   3.252  14.153  0.1907 -0.5894  1.4298
 8839SOL    HW238154   1.371   3.172  14.074 -1.3389  1.1096 -0.9239
 8840SOL     OW38155   2.729   0.254   8.545 -0.2719  0.5313 -0.0615
 8840SOL    HW138156   2.784   0.270   8.468 -0.0008 -0.3847 -0.0533
 8840SOL    HW238157   2.791   0.263   8.617  1.6429 -1.0958 -1.5037
 8841SOL     OW38158   2.146   0.707   3.055 -0.3668  0.5188  0.2470
 8841SOL    HW138159   2.112   0.645   2.991 -0.8368  1.0155  0.0285
 8841SOL    HW238160   2.080   0.776   3.049 -0.8652 -0.2159 -2.7301
 8842SOL     OW38161   3.151   0.950   6.594  0.2890 -0.5420 -0.0439
 8842SOL    HW138162   3.200   1.029   6.570 -0.8767  0.5557  1.1758
 8842SOL    HW238163   3.065   0.972   6.559  1.2074 -0.2558 -2.0888
 8843SOL     OW38164   2.599   1.421   9.735  0.0826 -0.5670  0.3990
 8843SOL    HW138165   2.546   1.424   9.815 -0.2483  2.1549  0.0590
 8843SOL    HW238166   2.596   1.513   9.710  2.1252  0.1468  2.7974
 8844SOL     OW38167   3.690   1.417  16.702 -0.0937 -0.0026  0.0839
 8844SOL    HW138168   3.635   1.470  16.645 -0.6419 -0.8842 -0.2004
 8844SOL    HW238169   3.666   1.443  16.791  0.1814  0.6857 -0.0441
 8845SOL     OW38170   0.784   0.400   8.721  0.2750 -0.2764  0.1071
 8845SOL    HW138171   0.779   0.484   8.676 -1.0074 -1.8118 -2.6550
 8845SOL    HW238172   0.798   0.350   8.641 -1.5560  0.9222 -0.9526
 8846SOL     OW38173   4.072   0.060   4.368  0.4694  0.3159 -0.1987
 8846SOL    HW138174   4.077   0.064   4.463  2.4306  0.1607 -0.3097
 8846SOL    HW238175   4.092   4.706   4.355  2.3457  0.7406 -0.2510
 8847SOL     OW38176   0.718   2.528  11.512  0.0948 -0.5465  0.5515
 8847SOL    HW138177   0.763   2.494  11.589  2.7467  1.1959 -0.2157
 8847SOL    HW238178   0.784   2.571  11.457 -0.9667  1.8089  1.1408
 8848SOL     OW38179   4.104   0.531   1.210 -0.4292  0.0979  0.0027
 8848SOL    HW138180   4.040   0.464   1.235 -0.5494 -1.0003 -3.2338
 8848SOL    HW238181   4.174   0.504   1.269 -2.6222 -2.1234  1.5747
 8849SOL     OW38182   2.567   2.666   1.476 -0.1057  0.0897  0.4882
 8849SOL    HW138183   2.507   2.668   1.402 -1.4707 -1.9976  1.5550
 8849SOL    HW238184   2.565   2.758   1.505 -1.1660 -0.4072  1.9789
 8850SOL     OW38185   1.095   0.885   9.668  0.5626 -0.5903  0.1306
 8850SOL    HW138186   1.009   0.908   9.703  1.6036  0.5297  1.9716
 8850SOL    HW238187   1.160   0.946   9.704  2.6950 -2.7066 -0.1826
 8851SOL     OW38188   1.168   3.597   9.171 -0.9092 -0.0078  0.0645
 8851SOL    HW138189   1.214   3.531   9.119 -1.2333 -0.9709  1.0020
 8851SOL    HW238190   1.132   3.654   9.103  0.7328  0.5979 -0.2907
 8852SOL     OW38191   4.002   1.156   5.012  0.0388  0.7059 -0.8390
 8852SOL    HW138192   3.981   1.138   5.104 -2.1661 -1.3066 -1.7158
 8852SOL    HW238193   4.047   1.238   5.033  0.2562  0.2572  0.4350
 8853SOL     OW38194   0.055   0.800   4.326  0.4356  0.1887 -0.6096
 8853SOL    HW138195   4.701   0.795   4.348  0.2604  0.3047 -1.2906
 8853SOL    HW238196   0.099   0.752   4.396 -0.1282 -0.7274 -0.8843
 8854SOL     OW38197   0.939   2.802   9.763 -0.3805  0.1342  0.5358
 8854SOL    HW138198   0.955   2.858   9.839  1.5003  0.3757 -0.0444
 8854SOL    HW238199   0.976   2.863   9.699 -2.4305 -0.2827 -1.0466
 8855SOL     OW38200   3.750   0.776  12.502  0.0279 -0.6582  0.0590
 8855SOL    HW138201   3.834   0.744  12.535  0.3496  0.8309  0.6733
 8855SOL    HW238202   3.721   0.845  12.561  3.3236  0.8766 -0.1353
 8856SOL     OW38203   2.494   2.376   2.630  0.3607 -0.1423 -0.1504
 8856SOL    HW138204   2.467   2.430   2.556 -0.7662  1.4083  1.3896
 8856SOL    HW238205   2.429   2.406   2.695 -0.4641  1.4342 -1.6949
 8857SOL     OW38206   0.403   1.605  16.636  0.0873  0.1866 -0.2068
 8857SOL    HW138207   0.348   1.670  16.678 -0.6367 -1.2300  1.0121
 8857SOL    HW238208   0.476   1.604  16.699  1.3478 -0.1850 -1.6697
 8858SOL     OW38209   1.529   0.960  14.211 -0.2862  0.1773  0.1649
 8858SOL    HW138210   1.524   1.039  14.158  0.3043 -1.0016 -1.6698
 8858SOL    HW238211   1.477   0.992  14.284  0.8903  0.2862  0.9521
 8859SOL     OW38212   2.772   1.761   2.483  0.5453  0.4084 -0.0547
 8859SOL    HW138213   2.755   1.706   2.406 -1.2334 -2.1405  2.1549
 8859SOL    HW238214   2.834   1.704   2.529  0.7406  1.0641  0.4772
 8860SOL     OW38215   3.723   4.465   1.050  0.7768  0.0594 -0.4484
 8860SOL    HW138216   3.731   4.560   1.035  1.8567  0.0771  0.2643
 8860SOL    HW238217   3.631   4.457   1.073  0.3917 -0.1358 -2.0353
 8861SOL     OW38218   3.696   0.181   6.021  0.3196  0.4285 -0.1644
 8861SOL    HW138219   3.744   0.253   6.062 -0.1753  0.8935 -0.4017
 8861SOL    HW238220   3.611   0.193   6.063  1.2026 -0.4832  1.8972
 8862SOL     OW38221   0.918   1.548   8.950 -0.6098 -0.0658  0.2064
 8862SOL    HW138222   0.999   1.597   8.936 -1.6339  1.1938 -1.3617
 8862SOL    HW238223   0.947   1.464   8.985 -0.4946 -0.3846 -0.6584
 8863SOL     OW38224   0.019   4.452   8.729  1.2300  0.3960 -0.7011
 8863SOL    HW138225   0.100   4.405   8.713  1.3908 -0.1653  1.8330
 8863SOL    HW238226   0.018   4.443   8.824  1.1590 -2.2851 -0.9509
 8864SOL     OW38227   3.436   2.930  13.497 -0.2552  0.1767 -0.2715
 8864SOL    HW138228   3.424   2.936  13.402 -0.6286 -0.9994 -0.3010
 8864SOL    HW238229   3.489   3.009  13.512  1.6251 -0.6104 -2.7894
 8865SOL     OW38230   4.688   4.109   8.984 -0.3624 -0.0284  0.0366
 8865SOL    HW138231   4.719   4.030   8.941 -2.4549 -1.3907  1.0102
 8865SOL    HW238232   4.612   4.132   8.929  0.7800 -0.1255 -1.5927
 8866SOL     OW38233   2.446   2.821  12.498 -0.4216 -0.0204 -0.0797
 8866SOL    HW138234   2.507   2.774  12.442 -1.2925  0.1498 -1.1827
 8866SOL    HW238235   2.468   2.910  12.470 -1.0635 -0.0166 -0.5741
 8867SOL     OW38236   0.312   0.752   9.369  0.4310 -0.1955  0.4513
 8867SOL    HW138237   0.235   0.707   9.402  0.3682 -0.4704 -0.0806
 8867SOL    HW238238   0.357   0.681   9.325  2.0693 -0.0500  1.8739
 8868SOL     OW38239   1.251   1.401   5.949  0.0454 -0.4836  0.1391
 8868SOL    HW138240   1.176   1.344   5.968  0.0010 -0.7735 -0.9052
 8868SOL    HW238241   1.304   1.394   6.028 -1.4137 -2.7174  0.9094
 8869SOL     OW38242   3.059   1.502   1.680 -0.6549  0.8175  0.3244
 8869SOL    HW138243   3.131   1.565   1.674 -0.9986  0.6821 -5.0146
 8869SOL    HW238244   3.088   1.435   1.743  0.6928  0.8704 -0.2447
 8870SOL     OW38245   1.310   1.469   6.862 -0.2759 -0.2116 -0.4323
 8870SOL    HW138246   1.329   1.520   6.940 -1.7319  0.9783 -0.8552
 8870SOL    HW238247   1.226   1.430   6.886 -0.7277  1.7712  1.1738
 8871SOL     OW38248   2.953   2.745   4.314  0.2672  0.2668  0.2326
 8871SOL    HW138249   2.935   2.839   4.313  0.2590  0.2406 -1.9368
 8871SOL    HW238250   2.863   2.717   4.298 -0.5075  1.5948  2.3117
 8872SOL     OW38251   4.411   0.399   4.613  0.5604 -0.0897  0.1680
 8872SOL    HW138252   4.438   0.417   4.523  1.0511 -0.5352  0.2258
 8872SOL    HW238253   4.487   0.347   4.638 -1.6100 -2.1833  2.4397
 8873SOL     OW38254   4.717   2.066   7.819 -0.4573  0.0557 -0.6024
 8873SOL    HW138255   0.014   2.148   7.852 -0.5725 -0.8517  1.7491
 8873SOL    HW238256   4.646   2.097   7.762 -1.4860  0.1331  0.7249
 8874SOL     OW38257   0.326   0.264   9.248 -0.7684 -0.3786  0.5567
 8874SOL    HW138258   0.401   0.242   9.193 -1.6084  0.1007 -0.7593
 8874SOL    HW238259   0.279   0.307   9.177 -1.7552 -1.8859  0.3138
 8875SOL     OW38260   4.183   1.572   4.337  0.1001  0.2755 -0.1189
 8875SOL    HW138261   4.234   1.640   4.292  1.0788 -1.1004 -1.0706
 8875SOL    HW238262   4.252   1.541   4.396  1.8872 -0.4970 -2.6076
 8876SOL     OW38263   2.079   2.174   7.526 -0.6293  0.1250  0.0410
 8876SOL    HW138264   2.046   2.107   7.466 -0.2478 -0.8291  0.8883
 8876SOL    HW238265   2.113   2.244   7.471 -2.8904  2.1145  1.1979
 8877SOL     OW38266   0.023   1.467   8.888  0.3201  0.3626  0.5416
 8877SOL    HW138267   4.698   1.426   8.831  2.9837 -3.8185  0.5917
 8877SOL    HW238268   0.101   1.469   8.833  1.7866 -0.0326  2.5853
 8878SOL     OW38269   3.424   1.959  13.013 -0.1619  0.4165  0.5415
 8878SOL    HW138270   3.460   2.045  13.035  0.7052 -0.3409  2.0555
 8878SOL    HW238271   3.481   1.896  13.056  0.1032  0.5438  0.3786
 8879SOL     OW38272   1.087   1.251   0.777  0.6135 -0.1786  0.5423
 8879SOL    HW138273   1.157   1.310   0.751  0.0099  0.8667  1.2967
 8879SOL    HW238274   1.137   1.187   0.828  0.9221 -0.3225  0.0499
 8880SOL     OW38275   0.697   3.716   5.776  0.4449 -0.0313  0.3887
 8880SOL    HW138276   0.712   3.807   5.801  1.6009 -0.1283  0.0703
 8880SOL    HW238277   0.603   3.702   5.766  0.6429 -1.0010 -0.1088
 8881SOL     OW38278   1.787   1.061   5.152  0.3122  0.2601  0.2308
 8881SOL    HW138279   1.776   1.010   5.072  1.6732  0.2777  0.0418
 8881SOL    HW238280   1.695   1.082   5.171  0.2033 -1.9770  2.1353
 8882SOL     OW38281   0.098   4.168   8.079 -0.1323  0.0973 -0.1455
 8882SOL    HW138282   0.177   4.172   8.024 -1.2215  0.1308 -1.7141
 8882SOL    HW238283   0.090   4.264   8.077 -1.9499 -0.0788 -2.1831
 8883SOL     OW38284   0.038   4.319  15.258 -0.2242  0.0055  0.4374
 8883SOL    HW138285   0.123   4.304  15.300  0.9309  2.0720 -1.2074
 8883SOL    HW238286   0.056   4.370  15.179  2.4146 -2.1223 -0.3128
 8884SOL     OW38287   2.372   2.631  12.811  0.1025 -0.6452 -1.0584
 8884SOL    HW138288   2.377   2.726  12.821  0.2285 -0.5940 -1.6599
 8884SOL    HW238289   2.463   2.612  12.834 -0.5680 -1.1894  1.1949
 8885SOL     OW38290   3.129   2.910   6.175  0.3006 -0.4898 -0.2403
 8885SOL    HW138291   3.118   2.966   6.098 -1.1868 -0.9269 -0.3536
 8885SOL    HW238292   3.044   2.877   6.203  0.5954 -0.2202  0.9605
 8886SOL     OW38293   3.004   1.599   5.884 -0.3527 -0.3977 -0.2467
 8886SOL    HW138294   3.026   1.521   5.935  3.8138  0.0066 -1.4146
 8886SOL    HW238295   3.025   1.667   5.947  0.7703 -0.1756 -0.8571
 8887SOL     OW38296   2.354   0.739   3.479  0.3597 -0.3488  0.1295
 8887SOL    HW138297   2.355   0.693   3.395  1.4298  0.0145 -0.0558
 8887SOL    HW238298   2.372   0.670   3.543 -1.7765  0.0217  1.1379
 8888SOL     OW38299   3.136   2.050   8.176 -0.3688 -0.0760 -0.4904
 8888SOL    HW138300   3.052   2.069   8.134 -0.4264 -1.0597 -0.8124
 8888SOL    HW238301   3.129   1.957   8.199 -0.6184  0.2721  0.8724
 8889SOL     OW38302   3.266   1.504   8.478  0.1701  0.0013  0.0847
 8889SOL    HW138303   3.220   1.567   8.422 -2.0932 -0.2655  1.6582
 8889SOL    HW238304   3.230   1.518   8.566  1.2643  0.1196  0.5130
 8890SOL     OW38305   1.092   1.738   5.443  0.3291 -0.2350  0.0600
 8890SOL    HW138306   1.147   1.756   5.519  0.6103  0.2306 -0.2507
 8890SOL    HW238307   1.017   1.702   5.489  2.0470 -1.7072  1.6811
 8891SOL     OW38308   0.588   1.009   2.084 -0.4411  0.4880 -0.5641
 8891SOL    HW138309   0.584   0.915   2.065  1.1315  0.1385  0.7626
 8891SOL    HW238310   0.532   1.050   2.019 -0.7336 -1.1172 -1.3311
 8892SOL     OW38311   2.568   0.369   5.649  0.2578 -0.5392 -0.2377
 8892SOL    HW138312   2.536   0.452   5.614  2.3303 -1.4804 -4.4661
 8892SOL    HW238313   2.642   0.408   5.696 -1.5967  3.1710 -0.4295
 8893SOL     OW38314   2.440   2.121   7.464 -0.4136  0.5913 -0.4500
 8893SOL    HW138315   2.370   2.168   7.419  0.7225  1.2503 -1.5522
 8893SOL    HW238316   2.495   2.108   7.387  1.2926 -0.3223  0.9287
 8894SOL     OW38317   2.828   3.184   6.413  0.1176  0.4695 -0.4219
 8894SOL    HW138318   2.863   3.251   6.355 -0.7940  1.8774  0.6595
 8894SOL    HW238319   2.908   3.172   6.465 -0.0171 -1.3224 -0.6331
 8895SOL     OW38320   1.558   3.917  17.316  0.9218  0.3527 -0.5292
 8895SOL    HW138321   1.569   3.823  17.302 -4.1756 -0.5359  1.3125
 8895SOL    HW238322   1.476   3.915  17.365  1.1107  2.5537 -0.1311
 8896SOL     OW38323   3.528   2.538   8.850 -0.5569  0.1726 -0.6737
 8896SOL    HW138324   3.441   2.533   8.890 -0.2876 -0.5439 -0.1878
 8896SOL    HW238325   3.503   2.587   8.771 -0.1629  3.3315  1.1369
 8897SOL     OW38326   1.548   1.306   2.998 -0.9376 -0.3215  0.0351
 8897SOL    HW138327   1.573   1.252   2.923  1.3376 -0.5686  0.9958
 8897SOL    HW238328   1.565   1.393   2.963  0.0463  0.2879  2.0276
 8898SOL     OW38329   1.078   3.655   7.495  0.3049  0.0156 -0.0544
 8898SOL    HW138330   1.173   3.653   7.477 -0.2509 -2.0043 -2.7913
 8898SOL    HW238331   1.040   3.641   7.408  0.7694  0.1102 -0.2757
 8899SOL     OW38332   2.338   2.011   2.236  0.0300 -0.4403  0.1013
 8899SOL    HW138333   2.273   1.948   2.205  0.0268  0.0542 -0.8846
 8899SOL    HW238334   2.380   1.976   2.315  1.6253  1.0969 -0.0525
 8900SOL     OW38335   2.458   4.506   1.830  0.1395 -0.0143 -0.1735
 8900SOL    HW138336   2.540   4.541   1.796 -0.9658  1.0613 -1.7112
 8900SOL    HW238337   2.422   4.592   1.851 -2.4605 -1.0873 -0.2185
 8901SOL     OW38338   0.306   2.660  13.576 -0.2040  0.0503 -0.0344
 8901SOL    HW138339   0.341   2.609  13.649 -1.9503  0.6106  1.1900
 8901SOL    HW238340   0.318   2.739  13.627  0.1705 -0.0025 -0.0394
 8902SOL     OW38341   1.361   1.065  12.459  0.0908  0.1596  0.0598
 8902SOL    HW138342   1.457   1.061  12.457  0.2029  2.2937  1.0268
 8902SOL    HW238343   1.343   1.153  12.425 -0.3672 -0.2509 -0.7626
 8903SOL     OW38344   0.356   4.420   7.815 -0.2451 -0.3911 -0.0832
 8903SOL    HW138345   0.300   4.493   7.840 -0.3389 -0.9332  1.3324
 8903SOL    HW238346   0.396   4.456   7.736 -1.1834  1.4302  0.2713
 8904SOL     OW38347   2.555   1.735   3.493  0.4746  0.4069  0.2928
 8904SOL    HW138348   2.494   1.722   3.567 -0.2633 -3.0324 -0.9143
 8904SOL    HW238349   2.506   1.719   3.413 -0.2045 -1.7909  1.1393
 8905SOL     OW38350   0.569   2.753   8.083  0.0349  0.0932 -0.4678
 8905SOL    HW138351   0.576   2.675   8.028  0.6605  1.3224 -2.1049
 8905SOL    HW238352   0.475   2.750   8.100  0.2052  0.2212  0.4953
 8906SOL     OW38353   1.614   3.785   2.109 -0.1363  0.1834 -0.1295
 8906SOL    HW138354   1.606   3.709   2.051 -2.7214  0.1250  0.2744
 8906SOL    HW238355   1.669   3.747   2.177  1.4436 -0.6542 -1.8671
 8907SOL     OW38356   2.807   3.648   9.345 -0.1881 -0.6613  0.0639
 8907SOL    HW138357   2.738   3.588   9.374  0.2910 -1.2363  0.0119
 8907SOL    HW238358   2.867   3.599   9.290  1.7183  0.7035  0.9171
 8908SOL     OW38359   0.658   3.401  16.593 -0.0108  0.4639  0.0139
 8908SOL    HW138360   0.579   3.397  16.648  1.4705 -2.1518  1.9700
 8908SOL    HW238361   0.625   3.371  16.508 -0.9803 -2.1398  1.2975
 8909SOL     OW38362   0.997   1.954  12.154  0.5715 -0.8731  0.0701
 8909SOL    HW138363   0.934   1.970  12.224 -2.5789 -4.4467 -1.9536
 8909SOL    HW238364   0.949   1.957  12.071  1.0648 -2.1329 -0.2691
 8910SOL     OW38365   1.307   0.529   2.671  0.0887 -0.1649  0.2087
 8910SOL    HW138366   1.399   0.545   2.693 -0.3551  0.4438  1.6321
 8910SOL    HW238367   1.303   0.559   2.580 -3.2572 -0.0957  0.3756
 8911SOL     OW38368   3.854   4.575  15.818 -0.8731  0.2219 -0.3116
 8911SOL    HW138369   3.889   4.622  15.743 -0.1249 -0.3618 -0.3347
 8911SOL    HW238370   3.792   4.519  15.770  1.1713 -0.1457 -2.5162
 8912SOL     OW38371   4.323   1.966   2.712 -0.2826  0.0115  0.4620
 8912SOL    HW138372   4.335   1.874   2.688 -3.5380  0.4984 -2.9849
 8912SOL    HW238373   4.287   2.002   2.631  1.4509  1.2241  0.2279
 8913SOL     OW38374   1.712   0.660   7.898  0.0142  0.1004  0.0897
 8913SOL    HW138375   1.772   0.659   7.823  0.7906 -4.3507  0.7809
 8913SOL    HW238376   1.736   0.578   7.941  2.4223 -0.1094 -1.6330
 8914SOL     OW38377   3.766   1.214   8.167  1.0355  0.3600 -0.2693
 8914SOL    HW138378   3.722   1.151   8.110  0.0945 -0.7886  1.7619
 8914SOL    HW238379   3.832   1.156   8.206 -1.0645 -1.4749  0.5283
 8915SOL     OW38380   4.127   1.293  16.460  0.2231  0.9462  0.2758
 8915SOL    HW138381   4.165   1.345  16.389  1.2929  0.3770  0.4235
 8915SOL    HW238382   4.044   1.340  16.472 -0.0176 -0.5815  4.5885
 8916SOL     OW38383   4.332   4.619   3.184 -0.3164 -0.0125  0.2289
 8916SOL    HW138384   4.301   4.674   3.256 -1.3425 -0.6074  0.2491
 8916SOL    HW238385   4.311   4.530   3.215 -0.4906 -0.4506 -1.1646
 8917SOL     OW38386   4.604   0.128   1.163 -0.1592 -0.0763  0.1016
 8917SOL    HW138387   4.612   0.047   1.114  0.1332  0.2842 -0.4476
 8917SOL    HW238388   4.654   0.188   1.107  2.8113 -1.3313  1.4108
 8918SOL     OW38389   1.176   4.721   3.741  0.7564  0.2705 -0.7079
 8918SOL    HW138390   1.124   0.062   3.736 -1.2774 -0.8057  3.1106
 8918SOL    HW238391   1.115   4.656   3.706 -0.2286  0.2288  1.1026
 8919SOL     OW38392   1.924   3.537   1.521  0.0417  0.2004  0.1900
 8919SOL    HW138393   1.831   3.527   1.499 -0.1239  0.5122  0.7485
 8919SOL    HW238394   1.925   3.633   1.530 -0.6317  0.1419  0.8784
 8920SOL     OW38395   4.371   4.130   3.798 -0.2521 -0.3925  0.2490
 8920SOL    HW138396   4.278   4.124   3.775  0.5445 -4.6289 -1.8953
 8920SOL    HW238397   4.402   4.050   3.755  0.2774 -0.1713  0.2177
 8921SOL     OW38398   3.481   4.127   8.496 -0.1659  0.1862 -0.6021
 8921SOL    HW138399   3.485   4.198   8.560 -0.8512 -0.7023  0.4070
 8921SOL    HW238400   3.555   4.155   8.443 -0.3802  2.4476  0.2968
 8922SOL     OW38401   2.667   1.207  11.343 -0.1120 -0.5087  0.6727
 8922SOL    HW138402   2.760   1.230  11.347 -0.6356  1.2866  2.4883
 8922SOL    HW238403   2.639   1.231  11.255  2.2786  0.3870  0.1307
 8923SOL     OW38404   3.557   2.667   8.608  0.2813 -0.3228 -0.4899
 8923SOL    HW138405   3.572   2.756   8.575  1.0331 -0.2863 -0.0586
 8923SOL    HW238406   3.501   2.634   8.538 -0.9429 -0.0764  0.3853
 8924SOL     OW38407   0.363   1.907   2.314  0.2583 -0.6625  0.3695
 8924SOL    HW138408   0.424   1.962   2.265  0.5427 -0.1082  1.3344
 8924SOL    HW238409   0.327   1.970   2.377 -2.1662 -1.8793  0.2021
 8925SOL     OW38410   4.682   3.139  17.192 -0.6990  0.2937  0.0753
 8925SOL    HW138411   4.711   3.228  17.171  3.3795 -0.1870  3.7534
 8925SOL    HW238412   4.606   3.138  17.134 -0.8628  1.2786  0.2655
 8926SOL     OW38413   3.679   0.773   0.755 -0.2075  0.1469  0.0355
 8926SOL    HW138414   3.722   0.692   0.782 -1.0325  0.1702  1.4098
 8926SOL    HW238415   3.731   0.800   0.679  1.1975  2.9115  1.9904
 8927SOL     OW38416   3.174   2.537   5.363 -0.3925 -0.2664  0.2834
 8927SOL    HW138417   3.128   2.500   5.288  0.0692  2.5191 -1.3635
 8927SOL    HW238418   3.197   2.451   5.398 -1.2096 -1.1274 -1.3440
 8928SOL     OW38419   0.567   0.332   4.747  0.1194 -0.1579 -0.1143
 8928SOL    HW138420   0.577   0.268   4.677 -1.0804  0.7766 -1.1259
 8928SOL    HW238421   0.633   0.311   4.813  1.6707 -1.6739 -2.1643
 8929SOL     OW38422   2.877   3.757   8.287  0.2310  0.2206 -0.1837
 8929SOL    HW138423   2.848   3.774   8.198 -0.5460 -0.7466 -0.1108
 8929SOL    HW238424   2.840   3.831   8.335  1.4230 -1.0728  2.7350
 8930SOL     OW38425   3.113   0.778   7.635  0.1617  0.4940 -0.4172
 8930SOL    HW138426   3.030   0.732   7.649  0.2836  0.1603 -0.7872
 8930SOL    HW238427   3.163   0.739   7.707  0.3439  2.1168  0.3266
 8931SOL     OW38428   0.226   0.728   3.615 -0.3173  0.6942  0.1337
 8931SOL    HW138429   0.287   0.784   3.568  0.6209 -0.3846  0.0881
 8931SOL    HW238430   0.260   0.642   3.594  1.7206  1.1259  1.6514
 8932SOL     OW38431   4.389   1.904   5.689 -0.5287 -0.6627  0.1403
 8932SOL    HW138432   4.408   1.979   5.745 -0.6405 -0.9576  0.5690
 8932SOL    HW238433   4.407   1.935   5.600  1.1105  2.4432  1.5378
 8933SOL     OW38434   2.487   1.165   3.466 -0.5156 -0.3956 -0.0305
 8933SOL    HW138435   2.394   1.154   3.487 -0.3068 -0.7888  0.7256
 8933SOL    HW238436   2.513   1.094   3.526  3.3440  0.1405 -1.0851
 8934SOL     OW38437   0.064   4.738   7.075 -0.6275 -0.3206  0.1377
 8934SOL    HW138438   0.043   0.030   6.987  2.2383  0.8572 -0.1095
 8934SOL    HW238439   0.083   0.086   7.112 -1.5517  0.5299 -1.3638
 8935SOL     OW38440   1.426   0.640   1.974  0.1814  0.3968  0.3606
 8935SOL    HW138441   1.445   0.594   2.056  1.0832 -0.5238 -0.3592
 8935SOL    HW238442   1.332   0.620   1.969  0.2410  0.3759 -0.8292
 8936SOL     OW38443   4.550   0.859  15.585  0.0078 -0.0962 -0.8672
 8936SOL    HW138444   4.492   0.823  15.652  0.3959  1.3228  0.2420
 8936SOL    HW238445   4.525   0.951  15.591 -1.3048 -0.5658  0.8094
 8937SOL     OW38446   2.018   4.437   5.134  0.0638 -0.3344  0.5323
 8937SOL    HW138447   2.040   4.421   5.226  0.7098  1.8852  0.7579
 8937SOL    HW238448   2.066   4.362   5.098 -2.0592 -0.8328 -1.2832
 8938SOL     OW38449   3.024   3.780   6.263 -0.4786  0.2646  0.0085
 8938SOL    HW138450   3.071   3.697   6.250 -2.2282 -0.6784 -0.3429
 8938SOL    HW238451   2.977   3.770   6.345  0.5214  1.0508  0.6760
 8939SOL     OW38452   0.968   3.314   8.501 -0.2548 -0.4719  0.3866
 8939SOL    HW138453   0.914   3.260   8.558 -1.5368 -1.5393 -1.8423
 8939SOL    HW238454   1.007   3.250   8.442  2.6141  0.0949  1.6441
 8940SOL     OW38455   0.587   0.687   9.770 -0.0381  0.1833  0.4279
 8940SOL    HW138456   0.512   0.736   9.804 -1.1488 -1.7855  0.8349
 8940SOL    HW238457   0.603   0.739   9.692  0.7649 -0.5773  0.0752
 8941SOL     OW38458   0.811   4.701   0.875  0.0556 -0.0247 -0.3471
 8941SOL    HW138459   0.795   4.635   0.944 -0.1982  1.1973  0.7703
 8941SOL    HW238460   0.728   4.704   0.827 -0.1892 -2.0293 -0.0531
 8942SOL     OW38461   3.839   4.032  14.911  0.3317 -0.3578 -0.0310
 8942SOL    HW138462   3.890   4.068  14.983 -0.8268 -1.2917  1.2589
 8942SOL    HW238463   3.782   4.107  14.893  0.2326 -0.1356  1.2039
 8943SOL     OW38464   0.507   3.442  10.448 -0.0235  1.2761 -0.4058
 8943SOL    HW138465   0.555   3.382  10.505  0.6296  0.2173 -2.0731
 8943SOL    HW238466   0.569   3.515  10.444  1.0456  0.3471 -0.5936
 8944SOL     OW38467   0.701   2.919  14.639  0.4061 -0.0934  0.6099
 8944SOL    HW138468   0.749   2.840  14.662 -0.6377 -0.8323  0.2580
 8944SOL    HW238469   0.664   2.932  14.726  1.2181 -0.3030  0.9847
 8945SOL     OW38470   4.245   0.798   3.054 -0.3256 -0.0699  0.2124
 8945SOL    HW138471   4.202   0.844   2.982  0.3384  2.5433  1.4744
 8945SOL    HW238472   4.313   0.862   3.078  0.4984  0.0623 -2.4055
 8946SOL     OW38473   1.193   2.789   1.035 -0.0659 -0.1256 -0.0022
 8946SOL    HW138474   1.153   2.720   1.088 -0.5589  0.2061  0.0587
 8946SOL    HW238475   1.208   2.730   0.961 -2.9757  0.2696 -0.9024
 8947SOL     OW38476   0.188   1.128   8.179  0.0873 -0.3484 -0.9137
 8947SOL    HW138477   0.169   1.199   8.240  1.9052 -0.0203 -0.7095
 8947SOL    HW238478   0.163   1.053   8.234  0.4168  1.1360  1.2300
 8948SOL     OW38479   2.000   0.928   3.066  0.0176  0.1416  0.2823
 8948SOL    HW138480   1.974   0.953   3.155  2.2697  0.1806  0.9425
 8948SOL    HW238481   1.970   0.995   3.005  1.2569  1.4990  1.1616
 8949SOL     OW38482   0.636   0.357   8.307 -0.2621  0.2514  0.0446
 8949SOL    HW138483   0.704   0.299   8.274 -1.8495 -0.3949 -2.0788
 8949SOL    HW238484   0.633   0.416   8.232 -0.6488 -0.1199 -0.2351
 8950SOL     OW38485   4.308   3.417   8.597  0.3702 -0.2910 -0.1052
 8950SOL    HW138486   4.229   3.412   8.544  1.3898 -0.6724 -1.5995
 8950SOL    HW238487   4.365   3.457   8.531  1.7700 -0.0356  1.2691
 8951SOL     OW38488   3.135   0.463   8.850 -0.2298  0.1993  0.3084
 8951SOL    HW138489   3.195   0.433   8.781 -0.4015 -1.2042  0.7747
 8951SOL    HW238490   3.139   0.392   8.914 -0.6641  0.0371  0.1498
 8952SOL     OW38491   3.727   3.106   1.980 -0.4294 -0.2313 -0.2626
 8952SOL    HW138492   3.682   3.032   1.939 -1.1572  0.1793 -0.1879
 8952SOL    HW238493   3.651   3.164   1.979 -1.1386 -1.1934 -1.2630
 8953SOL     OW38494   3.250   3.491   0.743 -0.0131 -0.7111  0.4920
 8953SOL    HW138495   3.343   3.481   0.721  0.2691  0.1903  1.2375
 8953SOL    HW238496   3.271   3.525   0.830  2.4757  1.4224 -0.9251
 8954SOL     OW38497   4.505   2.524   5.517  0.2530  0.4773 -0.2153
 8954SOL    HW138498   4.459   2.515   5.433  0.6931 -0.0134 -0.4091
 8954SOL    HW238499   4.464   2.602   5.553  0.4708  0.4947 -0.0023
 8955SOL     OW38500   4.316   1.469   7.302 -0.4295 -0.1188 -0.6363
 8955SOL    HW138501   4.235   1.477   7.353  2.0640  1.0310  3.0952
 8955SOL    HW238502   4.374   1.525   7.354  0.7264 -1.9294  0.0274
 8956SOL     OW38503   4.029   2.844   1.136 -0.0359 -0.4353  0.3399
 8956SOL    HW138504   3.975   2.897   1.196 -2.0024 -0.0957 -1.7317
 8956SOL    HW238505   4.034   2.760   1.181 -2.6367 -1.6801 -1.6593
 8957SOL     OW38506   2.646   1.556   0.259  0.3542 -0.6657 -0.2614
 8957SOL    HW138507   2.731   1.518   0.235  0.2128 -0.6930 -0.7295
 8957SOL    HW238508   2.673   1.646   0.271 -0.9835 -0.3465  0.3500
 8958SOL     OW38509   0.962   1.718   2.573  0.1711 -0.1426 -0.0769
 8958SOL    HW138510   0.963   1.682   2.484 -1.5620 -0.5657  0.0768
 8958SOL    HW238511   0.943   1.808   2.546  0.0432  0.7282  2.9150
 8959SOL     OW38512   3.086   1.604   4.822 -0.0562  0.4936 -0.2262
 8959SOL    HW138513   2.994   1.594   4.847  0.4769 -2.5256  0.4655
 8959SOL    HW238514   3.104   1.691   4.858 -0.0790 -0.6285  2.4684
 8960SOL     OW38515   0.323   4.075   9.432  0.3157 -0.0109 -0.6369
 8960SOL    HW138516   0.326   3.992   9.479 -0.0902  0.9120  1.0252
 8960SOL    HW238517   0.354   4.050   9.345  0.6877  0.8707 -0.7577
 8961SOL     OW38518   2.990   0.784  15.647 -0.3078 -0.2046  0.5793
 8961SOL    HW138519   3.026   0.726  15.714 -1.0284  2.3328  3.1478
 8961SOL    HW238520   3.052   0.769  15.575 -1.0039 -2.3532  0.4163
 8962SOL     OW38521   0.257   2.264  17.188 -0.4929  0.2410  0.2298
 8962SOL    HW138522   0.230   2.314  17.265  0.5457 -0.4863  1.0621
 8962SOL    HW238523   0.352   2.271  17.193 -0.5241 -0.2155  1.5558
 8963SOL     OW38524   3.303   1.952   9.718  0.4077  0.5198 -0.0380
 8963SOL    HW138525   3.370   1.907   9.668  0.3127 -0.9474  1.1441
 8963SOL    HW238526   3.327   1.939   9.809 -0.5263  1.3901  0.3404
 8964SOL     OW38527   2.090   0.039  16.631 -0.4765 -0.3077 -0.2303
 8964SOL    HW138528   2.052   4.736  16.553  1.1071 -0.0579 -1.1492
 8964SOL    HW238529   2.023   0.100  16.663 -0.0400 -0.9566  1.9046
 8965SOL     OW38530   1.632   1.390   5.539  0.2556 -0.5590  0.4980
 8965SOL    HW138531   1.614   1.352   5.625  0.4932 -0.5368  0.5576
 8965SOL    HW238532   1.579   1.469   5.540  1.0853 -0.0080  0.6792
 8966SOL     OW38533   0.815   1.208   0.747 -0.3281 -0.3139 -0.5484
 8966SOL    HW138534   0.819   1.113   0.758  1.1245 -0.2842 -0.9258
 8966SOL    HW238535   0.906   1.226   0.723  0.0131 -0.3624  0.7317
 8967SOL     OW38536   0.036   1.796  13.491  0.2270  0.0220 -0.1439
 8967SOL    HW138537   0.049   1.874  13.546 -2.4165  1.1329 -1.0764
 8967SOL    HW238538   0.093   1.810  13.416 -1.7491  1.8072 -1.3121
 8968SOL     OW38539   3.671   4.258  12.468  0.0885  0.2573  0.5762
 8968SOL    HW138540   3.576   4.267  12.463  0.0056  0.9183  3.3634
 8968SOL    HW238541   3.689   4.312  12.544 -0.0170 -0.5032  1.1415
 8969SOL     OW38542   4.085   3.798   7.963  0.2055  0.3523 -0.3415
 8969SOL    HW138543   4.017   3.866   7.963 -1.2994 -1.1486  0.6183
 8969SOL    HW238544   4.096   3.797   7.868  1.6906  0.3026 -0.1689
 8970SOL     OW38545   4.320   0.208   3.644  0.4698 -0.8136 -0.2875
 8970SOL    HW138546   4.255   0.254   3.590  0.9788 -1.4458 -1.4572
 8970SOL    HW238547   4.289   0.237   3.730 -0.7452 -2.8080 -0.0503
 8971SOL     OW38548   4.143   0.813   4.077  0.2959  0.1317  0.5641
 8971SOL    HW138549   4.130   0.902   4.043  0.4014 -0.2964 -0.6153
 8971SOL    HW238550   4.116   0.752   4.008 -0.8228 -0.6756  1.7134
 8972SOL     OW38551   0.183   3.317   5.262  0.1876  0.3096 -0.2504
 8972SOL    HW138552   0.197   3.387   5.198  2.2264  0.7033  0.6439
 8972SOL    HW238553   0.088   3.304   5.256 -0.0996  2.2826 -0.1066
 8973SOL     OW38554   1.134   0.933   3.026 -0.2578  0.6917  0.1477
 8973SOL    HW138555   1.219   0.902   3.057 -0.6554  0.6004  1.1259
 8973SOL    HW238556   1.109   0.870   2.958 -1.8275  2.6833 -1.1417
 8974SOL     OW38557   0.036   1.043   2.611 -0.1505 -0.6431 -0.3748
 8974SOL    HW138558   0.119   1.026   2.656  0.6605  0.4299 -1.4365
 8974SOL    HW238559   4.709   1.008   2.671  1.3685  1.0507  2.2943
 8975SOL     OW38560   2.330   2.198  17.110  0.3482 -0.2239  0.2942
 8975SOL    HW138561   2.349   2.217  17.201 -0.1243 -2.7121  0.9068
 8975SOL    HW238562   2.378   2.120  17.082 -1.2712 -0.6550 -1.2825
 8976SOL     OW38563   0.525   0.762   8.009  0.0320  0.4463 -0.5075
 8976SOL    HW138564   0.529   0.806   8.094 -1.7496 -0.8323  0.2591
 8976SOL    HW238565   0.571   0.830   7.960  0.3750  0.6263  0.0736
 8977SOL     OW38566   0.115   4.407  15.006 -0.5558  0.2443 -0.8607
 8977SOL    HW138567   0.160   4.392  14.923  1.5461 -0.9371  0.4791
 8977SOL    HW238568   0.147   4.495  15.028  1.5603 -0.9890  1.0220
 8978SOL     OW38569   3.468   1.697   8.744 -0.6600 -0.2351 -0.2065
 8978SOL    HW138570   3.494   1.636   8.675  2.4571  0.1227  0.6382
 8978SOL    HW238571   3.373   1.700   8.733 -0.8707  0.3496  1.8779
 8979SOL     OW38572   1.498   3.743   6.369 -0.2324  0.6625  0.3660
 8979SOL    HW138573   1.458   3.830   6.378 -1.2381  0.3130 -0.8075
 8979SOL    HW238574   1.549   3.741   6.450  0.0050 -2.7737  0.1264
 8980SOL     OW38575   0.359   3.558   0.575  0.4002 -0.6593  0.2879
 8980SOL    HW138576   0.320   3.514   0.651  1.7785 -1.2727  0.6391
 8980SOL    HW238577   0.375   3.648   0.604 -2.1314 -0.2717  0.4661
 8981SOL     OW38578   2.841   3.864  14.919  0.1160  0.0753 -0.2918
 8981SOL    HW138579   2.902   3.900  14.855  1.1301 -0.8368  0.1608
 8981SOL    HW238580   2.876   3.775  14.920 -2.7755 -1.0561  0.0046
 8982SOL     OW38581   4.005   2.774   9.046 -0.0096  0.1722  0.5251
 8982SOL    HW138582   3.910   2.779   9.043 -0.0611 -2.1584 -1.9640
 8982SOL    HW238583   4.023   2.701   9.105  2.3243  0.0459 -0.3486
 8983SOL     OW38584   3.232   4.410   2.507 -0.4957  0.1907 -0.3980
 8983SOL    HW138585   3.225   4.394   2.601 -0.2900 -0.5412 -0.5060
 8983SOL    HW238586   3.324   4.436   2.507 -0.2384 -0.6770  2.6580
 8984SOL     OW38587   2.629   3.917   6.298 -0.5463 -0.8674  0.4332
 8984SOL    HW138588   2.534   3.917   6.291 -0.4519 -2.2915 -0.8103
 8984SOL    HW238589   2.655   3.827   6.313  0.2868 -0.7856 -0.5375
 8985SOL     OW38590   1.392   3.870  15.518 -0.3583 -0.0811  0.1795
 8985SOL    HW138591   1.316   3.923  15.496 -0.4693 -0.4282 -0.2661
 8985SOL    HW238592   1.433   3.924  15.586  3.1763 -3.3455  0.6761
 8986SOL     OW38593   1.835   4.220   9.050 -0.4933 -0.1311 -0.0435
 8986SOL    HW138594   1.931   4.223   9.055 -0.4749 -1.9606  0.6645
 8986SOL    HW238595   1.815   4.312   9.067 -2.5016 -0.9568  1.9369
 8987SOL     OW38596   2.610   4.350   2.091  0.0877  0.3079  0.3508
 8987SOL    HW138597   2.525   4.311   2.074  0.7987 -0.7462 -0.7355
 8987SOL    HW238598   2.629   4.420   2.028  1.0436  0.4893  0.8375
 8988SOL     OW38599   2.654   1.468   4.750  0.1514  0.5833  0.1257
 8988SOL    HW138600   2.647   1.550   4.799 -0.3711  1.5087 -1.4703
 8988SOL    HW238601   2.739   1.481   4.707 -0.5607  5.1864  0.1022
 8989SOL     OW38602   2.652   1.147   6.787  0.4587  0.4447 -0.0557
 8989SOL    HW138603   2.701   1.068   6.764 -0.7224  0.0724 -1.3104
 8989SOL    HW238604   2.574   1.137   6.732 -0.5539 -0.1886  1.4885
 8990SOL     OW38605   3.214   0.394   6.627  0.1199 -0.1251 -0.1156
 8990SOL    HW138606   3.234   0.331   6.697 -0.6139 -0.1912  0.0418
 8990SOL    HW238607   3.187   0.480   6.660 -2.6851 -1.1261  0.2535
 8991SOL     OW38608   1.822   2.127   5.834  0.0346 -0.5630 -0.2610
 8991SOL    HW138609   1.781   2.161   5.914  0.9672  2.4727 -1.0925
 8991SOL    HW238610   1.844   2.037   5.860  1.2948  0.0735  0.9085
 8992SOL     OW38611   3.454   1.921  14.612  0.4961  0.3493 -0.2473
 8992SOL    HW138612   3.452   1.966  14.528  0.4698  0.4823 -0.1751
 8992SOL    HW238613   3.538   1.952  14.645  0.3075 -0.0476  0.6323
 8993SOL     OW38614   3.373   1.703   5.093 -0.9820 -0.2577  0.7083
 8993SOL    HW138615   3.389   1.625   5.147  0.7870 -0.2830  0.1367
 8993SOL    HW238616   3.464   1.730   5.081 -0.3060 -0.7729  4.3729
 8994SOL     OW38617   3.173   4.237  14.633  0.2042 -0.0650 -0.2298
 8994SOL    HW138618   3.228   4.159  14.639  1.8023  0.9257 -2.0672
 8994SOL    HW238619   3.093   4.211  14.679  0.4469 -1.2388 -0.4703
 8995SOL     OW38620   2.203   4.167   4.489  0.6340 -0.5689  0.1732
 8995SOL    HW138621   2.144   4.219   4.435  0.6276  1.0488  1.7204
 8995SOL    HW238622   2.292   4.197   4.473  0.1248 -0.2260 -2.0527
 8996SOL     OW38623   2.271   2.738   1.639  0.1716  0.1837  0.5346
 8996SOL    HW138624   2.317   2.686   1.573 -0.2383  0.0632  0.3481
 8996SOL    HW238625   2.263   2.818   1.588  0.1889  1.1228  1.9877
 8997SOL     OW38626   4.512   1.273   6.310 -0.9290 -0.1968  0.1985
 8997SOL    HW138627   4.471   1.301   6.229  0.2377  3.3976  0.8654
 8997SOL    HW238628   4.446   1.299   6.375 -0.1237  1.7219  0.2484
 8998SOL     OW38629   1.253   3.464   8.502 -0.3061 -0.6170 -0.2988
 8998SOL    HW138630   1.170   3.511   8.494 -0.9299 -1.3853  1.4713
 8998SOL    HW238631   1.246   3.412   8.423 -1.0194  0.4438 -0.9376
 8999SOL     OW38632   2.429   3.563   1.938 -0.1609  0.1696  0.1157
 8999SOL    HW138633   2.510   3.602   1.972 -1.0981  1.7575  0.4983
 8999SOL    HW238634   2.389   3.522   2.014 -0.6121  0.5382  0.0744
 9000SOL     OW38635   1.551   4.183   5.307 -0.3031  0.3880  0.8862
 9000SOL    HW138636   1.593   4.224   5.232 -0.0202 -0.9890  0.2949
 9000SOL    HW238637   1.620   4.124   5.335  0.0954 -0.7250 -2.5279
 9001SOL     OW38638   0.548   0.758   2.368 -0.4801  0.6091 -0.3853
 9001SOL    HW138639   0.552   0.852   2.383  0.6823  0.6004 -0.6548
 9001SOL    HW238640   0.455   0.736   2.365 -0.7901  1.9342 -0.7521
 9002SOL     OW38641   3.032   0.690   8.278  0.3798  0.0211 -0.1781
 9002SOL    HW138642   2.984   0.608   8.290 -0.3593  0.4898  0.0092
 9002SOL    HW238643   3.051   0.690   8.372  0.0210 -2.1903 -0.0860
 9003SOL     OW38644   2.025   3.772  13.388 -0.5595 -0.5032 -0.6482
 9003SOL    HW138645   1.968   3.831  13.338  1.0032  0.2243 -1.5592
 9003SOL    HW238646   2.059   3.739  13.305 -1.1069 -3.3778  0.2561
 9004SOL     OW38647   2.381   2.490   9.821  0.2927  0.0493 -0.2581
 9004SOL    HW138648   2.329   2.426   9.872  1.6417 -1.0059 -0.2193
 9004SOL    HW238649   2.343   2.491   9.733  1.6575  1.0335 -0.8284
 9005SOL     OW38650   3.421   1.234  12.710 -0.3881 -0.1934  0.1168
 9005SOL    HW138651   3.471   1.217  12.790 -0.9666 -0.5886  0.3957
 9005SOL    HW238652   3.456   1.316  12.674 -1.0768  0.1221  0.1654
 9006SOL     OW38653   0.222   0.493   7.779  0.5528  0.4807 -0.0813
 9006SOL    HW138654   0.232   0.566   7.840 -1.6584  0.5946  0.1329
 9006SOL    HW238655   0.232   0.536   7.694 -0.9395  0.4188 -0.2926
 9007SOL     OW38656   4.235   3.543   5.895 -0.1130 -0.0018  0.1872
 9007SOL    HW138657   4.180   3.482   5.944  1.1355 -1.5620 -0.3647
 9007SOL    HW238658   4.203   3.626   5.932 -1.2607 -1.5728  2.7292
 9008SOL     OW38659   1.169   0.349   8.630  0.0918  0.3060  0.4377
 9008SOL    HW138660   1.075   0.332   8.620  0.0394  2.2527 -2.2397
 9008SOL    HW238661   1.199   0.363   8.541  0.6676  0.4504  0.6610
 9009SOL     OW38662   3.617   4.724   1.087  0.5532  0.2244 -0.2871
 9009SOL    HW138663   3.661   4.730   1.172  0.0391  2.0863 -0.1454
 9009SOL    HW238664   3.562   0.063   1.098 -0.9010 -0.6853 -1.2240
 9010SOL     OW38665   2.516   0.631   9.818  0.2825  0.2866 -0.3329
 9010SOL    HW138666   2.474   0.626   9.903  0.2073  0.5987 -0.3494
 9010SOL    HW238667   2.450   0.663   9.756 -0.0901 -2.1795 -1.2100
 9011SOL     OW38668   2.106   4.312   4.740 -0.0555 -0.0046  0.3219
 9011SOL    HW138669   2.131   4.275   4.656 -0.5600  0.3181  0.0280
 9011SOL    HW238670   2.144   4.400   4.744  0.6874 -0.2743 -0.8357
 9012SOL     OW38671   1.319   2.421   1.991  0.7725  0.8156 -0.0998
 9012SOL    HW138672   1.344   2.355   1.927  0.5050  0.9577 -0.3549
 9012SOL    HW238673   1.350   2.498   1.943 -0.4619  1.5361  0.2334
 9013SOL     OW38674   2.958   3.428   2.130  0.1160  0.6217  0.2680
 9013SOL    HW138675   2.961   3.341   2.170  0.9936 -0.0680 -1.2768
 9013SOL    HW238676   2.868   3.456   2.148  0.8383  3.3396 -0.3613
 9014SOL     OW38677   2.600   0.821  12.189  0.5924  0.4474  0.7393
 9014SOL    HW138678   2.582   0.818  12.095  1.8392  1.3218  0.4688
 9014SOL    HW238679   2.598   0.728  12.210 -1.2297  0.8351  2.3466
 9015SOL     OW38680   2.113   3.875   6.304  0.0315  0.1992  0.3352
 9015SOL    HW138681   2.063   3.809   6.256  1.9701  0.4351 -1.9773
 9015SOL    HW238682   2.201   3.841   6.288  0.5051  0.0878  3.2273
 9016SOL     OW38683   3.911   3.920   5.822  0.3499 -0.2686 -0.0346
 9016SOL    HW138684   3.871   3.993   5.774 -1.9942 -0.7790  1.1322
 9016SOL    HW238685   3.979   3.973   5.864 -0.5819  3.3395 -3.0899
 9017SOL     OW38686   2.164   2.188   9.048  0.0146 -0.5735  0.3001
 9017SOL    HW138687   2.102   2.244   9.094 -0.2062  0.5847 -1.4268
 9017SOL    HW238688   2.238   2.248   9.041  0.3947 -0.9917  0.7305
 9018SOL     OW38689   2.325   0.792  15.152  0.6818 -0.4051 -0.1927
 9018SOL    HW138690   2.418   0.812  15.140 -0.2110  1.4702 -4.1402
 9018SOL    HW238691   2.290   0.791  15.063  1.3605 -1.9057 -0.4463
 9019SOL     OW38692   4.072   2.385  13.696  0.1410  0.0745 -0.8015
 9019SOL    HW138693   4.111   2.429  13.772 -0.7825  1.9530 -1.4201
 9019SOL    HW238694   3.980   2.410  13.703  0.2442  0.0081  0.7236
 9020SOL     OW38695   3.892   2.119  13.469  0.3852  0.1089  0.0374
 9020SOL    HW138696   3.851   2.203  13.449 -1.0907 -0.4259  0.7958
 9020SOL    HW238697   3.916   2.090  13.381  1.4866  0.6887  0.1472
 9021SOL     OW38698   1.821   4.000   1.402 -0.5212 -0.4417 -0.1253
 9021SOL    HW138699   1.876   4.050   1.342  0.6033 -0.3390  0.9781
 9021SOL    HW238700   1.739   4.023   1.360  0.8602 -1.7946 -3.5985
 9022SOL     OW38701   4.702   4.094  13.450 -0.2968 -0.0048  0.1208
 9022SOL    HW138702   4.661   4.149  13.516 -3.6127 -2.7190  0.2864
 9022SOL    HW238703   4.682   4.143  13.369 -3.2111 -2.2460 -0.5238
 9023SOL     OW38704   1.684   0.761  13.647  0.1650 -0.6018 -0.5366
 9023SOL    HW138705   1.598   0.799  13.665 -0.1942 -1.1942 -1.0139
 9023SOL    HW238706   1.729   0.757  13.731 -0.1606  0.9501 -0.2829
 9024SOL     OW38707   2.710   2.684   5.634  0.1286  0.2844 -0.5318
 9024SOL    HW138708   2.735   2.743   5.705 -0.3756  1.1573 -1.0773
 9024SOL    HW238709   2.799   2.658   5.611 -0.0384  0.0284 -0.8889
 9025SOL     OW38710   4.054   3.623  16.986 -0.7781 -0.6211  0.0791
 9025SOL    HW138711   4.096   3.689  17.040 -0.0852  0.2605 -1.5347
 9025SOL    HW238712   4.036   3.683  16.914  0.9250  0.8602  0.8872
 9026SOL     OW38713   0.526   2.864   1.953  0.7677  0.3862  0.0675
 9026SOL    HW138714   0.488   2.877   1.866  2.6872  0.8896 -0.6807
 9026SOL    HW238715   0.452   2.890   2.009 -0.8314 -1.2480 -1.3115
 9027SOL     OW38716   4.144   3.281   6.572 -0.5716 -0.9516  0.0925
 9027SOL    HW138717   4.212   3.306   6.634 -2.1142  0.6534  1.1095
 9027SOL    HW238718   4.116   3.367   6.541 -0.7816 -1.5197 -1.3043
 9028SOL     OW38719   1.821   4.609   5.898  0.0607 -0.2030 -0.1852
 9028SOL    HW138720   1.808   4.624   5.804 -1.7130 -0.4842  0.0144
 9028SOL    HW238721   1.769   4.530   5.909 -0.8295  0.5258  0.8786
 9029SOL     OW38722   4.356   3.073  13.196  0.2584  0.0968  0.7976
 9029SOL    HW138723   4.344   3.167  13.189 -0.4306  0.2475  3.9965
 9029SOL    HW238724   4.404   3.066  13.279  0.8617  1.5494  0.5678
 9030SOL     OW38725   3.796   3.891   7.963 -0.3214  0.5583 -0.2868
 9030SOL    HW138726   3.751   3.950   7.901 -1.3487 -0.0924 -0.1677
 9030SOL    HW238727   3.733   3.820   7.975 -2.3617  2.6885  1.5344
 9031SOL     OW38728   4.637   4.257   2.377  0.4934  0.0383  0.5523
 9031SOL    HW138729   4.573   4.268   2.447  1.9773  3.9673  1.3085
 9031SOL    HW238730   4.622   4.341   2.332 -0.7240  0.1679  1.2055
 9032SOL     OW38731   1.812   0.489  10.820  0.1210  0.4613  0.8041
 9032SOL    HW138732   1.774   0.573  10.795  2.8852  1.5155  0.2430
 9032SOL    HW238733   1.762   0.443  10.753 -1.7917  0.3813  2.2619
 9033SOL     OW38734   0.417   1.917   3.263 -0.0967  0.1804  0.1507
 9033SOL    HW138735   0.378   1.831   3.248 -0.5220  0.6384 -1.3295
 9033SOL    HW238736   0.379   1.968   3.192  1.4460  1.8291  0.4967
 9034SOL     OW38737   0.512   1.942  17.157  0.2595 -0.9474  0.5474
 9034SOL    HW138738   0.511   2.029  17.197  2.6724 -0.4355 -0.4893
 9034SOL    HW238739   0.565   1.952  17.078  1.0959 -2.0076  0.9665
 9035SOL     OW38740   3.622   3.083   4.325  0.1438 -0.0935  0.1210
 9035SOL    HW138741   3.690   3.066   4.390 -0.7120 -1.9888  0.5099
 9035SOL    HW238742   3.619   2.997   4.283 -1.8599 -0.7442  1.5637
 9036SOL     OW38743   3.283   0.554   8.403  0.0781 -0.1603  0.6588
 9036SOL    HW138744   3.332   0.571   8.484  3.6595 -0.8989 -1.3744
 9036SOL    HW238745   3.347   0.604   8.352 -1.3541  4.0643  3.0002
 9037SOL     OW38746   1.389   3.046   9.618 -0.0254 -0.1280  0.1633
 9037SOL    HW138747   1.445   3.024   9.692  0.8541 -1.3165 -0.8523
 9037SOL    HW238748   1.418   3.136   9.600  1.8442 -0.5818  0.9518
 9038SOL     OW38749   0.657   2.340  14.376  0.5108 -0.1161 -0.1647
 9038SOL    HW138750   0.625   2.430  14.379 -3.7747 -1.6462  0.0093
 9038SOL    HW238751   0.742   2.354  14.418 -0.3262 -0.6954  1.6799
 9039SOL     OW38752   0.896   4.301  16.894 -0.2376 -0.5683  0.2794
 9039SOL    HW138753   0.846   4.221  16.879  0.4132 -0.8793 -0.2284
 9039SOL    HW238754   0.884   4.319  16.987 -1.2101  3.7641 -0.6979
 9040SOL     OW38755   0.927   2.445  12.652 -0.3528  0.1854 -0.3945
 9040SOL    HW138756   0.871   2.399  12.589  0.8066 -1.9868  0.1280
 9040SOL    HW238757   0.965   2.367  12.693  1.6692  1.6994  0.6322
 9041SOL     OW38758   1.836   2.475  16.540  0.3581  0.4252  0.1804
 9041SOL    HW138759   1.758   2.479  16.485  0.0545  0.6242  0.6280
 9041SOL    HW238760   1.918   2.471  16.490  0.7218  2.0078  0.6445
 9042SOL     OW38761   2.832   1.824   4.236 -0.3481 -0.4875  0.3321
 9042SOL    HW138762   2.764   1.879   4.197 -0.1568  0.2930  1.1129
 9042SOL    HW238763   2.865   1.888   4.300 -1.7378  2.1268 -1.5857
 9043SOL     OW38764   0.244   4.487   1.491 -0.1685 -0.5227 -0.3577
 9043SOL    HW138765   0.205   4.463   1.575 -1.8740  0.3769 -0.9107
 9043SOL    HW238766   0.248   4.397   1.457  0.1031 -0.0097 -1.6710
 9044SOL     OW38767   1.513   1.915   8.155  0.6870 -0.1931  0.0821
 9044SOL    HW138768   1.486   1.903   8.246 -0.5298  1.7392 -0.0294
 9044SOL    HW238769   1.538   2.008   8.155  1.0862 -0.3009 -2.7839
 9045SOL     OW38770   2.473   0.705  11.792 -0.4783  0.1522  0.5307
 9045SOL    HW138771   2.539   0.666  11.849 -2.0024 -0.9099  1.5725
 9045SOL    HW238772   2.482   0.644  11.719 -0.3941  1.3734 -0.4653
 9046SOL     OW38773   1.601   4.074   0.843  0.6882 -0.7809  0.6898
 9046SOL    HW138774   1.690   4.090   0.813 -0.3196  0.4312 -1.6471
 9046SOL    HW238775   1.579   4.166   0.856  0.3275 -0.6692 -0.6954
 9047SOL     OW38776   3.132   3.913   3.372 -0.0090 -0.1689  0.1240
 9047SOL    HW138777   3.066   3.845   3.386 -3.1953  3.2962  1.9968
 9047SOL    HW238778   3.216   3.870   3.389 -0.1695 -0.8632 -0.8161
 9048SOL     OW38779   1.922   2.637   4.548  0.0007  0.0734  0.0407
 9048SOL    HW138780   1.949   2.547   4.529  2.1585  0.7921 -0.3892
 9048SOL    HW238781   1.908   2.675   4.461 -3.0825  2.5982  1.6433
 9049SOL     OW38782   2.563   1.919   5.118 -0.0517  0.0399 -0.2724
 9049SOL    HW138783   2.529   1.833   5.143  1.5775 -0.5636 -0.1108
 9049SOL    HW238784   2.655   1.901   5.136  0.1311 -0.4315 -1.6709
 9050SOL     OW38785   2.694   3.223   0.789  0.1390 -0.0100  0.5751
 9050SOL    HW138786   2.717   3.204   0.880 -0.0565  0.4283  0.7119
 9050SOL    HW238787   2.605   3.257   0.792  0.7048  1.3796  1.4490
 9051SOL     OW38788   0.798   0.426   5.865  0.4280 -0.0666  0.2402
 9051SOL    HW138789   0.727   0.490   5.856 -1.0810 -1.5468  1.7423
 9051SOL    HW238790   0.753   0.354   5.908  1.6654  1.6896  4.4665
 9052SOL     OW38791   3.502   2.912  13.242  0.0320 -0.1914  0.1344
 9052SOL    HW138792   3.470   2.935  13.155 -0.4597  2.4803  0.9973
 9052SOL    HW238793   3.550   2.992  13.264 -0.3158  0.1105 -0.1977
 9053SOL     OW38794   0.155   0.987   7.338  0.3119 -0.5159 -0.0713
 9053SOL    HW138795   0.131   0.950   7.423  0.1629  0.8245  0.4789
 9053SOL    HW238796   0.067   0.967   7.308 -0.5252  1.0854  1.3272
 9054SOL     OW38797   2.307   4.113   6.871  0.7886 -0.5505 -0.0242
 9054SOL    HW138798   2.374   4.159   6.923 -0.7292  1.8325 -0.1484
 9054SOL    HW238799   2.362   4.076   6.802  1.9180  0.5820  0.2510
 9055SOL     OW38800   0.576   3.800   8.369 -0.2227  0.4270 -0.2392
 9055SOL    HW138801   0.554   3.708   8.382 -1.4325  0.5782 -1.1373
 9055SOL    HW238802   0.538   3.802   8.281 -1.2405  1.0692  0.2100
 9056SOL     OW38803   4.538   1.992   4.771  0.4427 -0.2063 -0.3370
 9056SOL    HW138804   4.462   1.980   4.714  0.4248  1.8018 -0.7494
 9056SOL    HW238805   4.598   2.026   4.705 -0.3437  0.0942 -0.9070
 9057SOL     OW38806   1.740   0.923   0.484  0.3852 -0.1695  0.1622
 9057SOL    HW138807   1.670   0.976   0.445 -0.7181 -0.8125  1.2638
 9057SOL    HW238808   1.815   0.972   0.449  0.1274  0.5376  0.5846
 9058SOL     OW38809   1.651   1.419   3.772  0.3036 -0.2761  0.0767
 9058SOL    HW138810   1.558   1.424   3.793  0.0761  1.1508 -1.2294
 9058SOL    HW238811   1.696   1.497   3.806  2.1077 -0.2608 -2.2866
 9059SOL     OW38812   2.139   3.806   2.940 -0.1432  0.3118 -0.2378
 9059SOL    HW138813   2.134   3.735   2.876  0.6767 -0.0991  0.1627
 9059SOL    HW238814   2.072   3.859   2.895 -0.6885  0.1456  0.3828
 9060SOL     OW38815   1.057   4.603  17.036  0.6698  0.3638 -0.1200
 9060SOL    HW138816   0.986   4.593  16.972  0.0991 -0.8575  0.6958
 9060SOL    HW238817   1.007   4.587  17.116 -0.6387 -3.3698 -1.6409
 9061SOL     OW38818   2.522   3.256   7.585  0.5222 -0.4137  0.4171
 9061SOL    HW138819   2.429   3.234   7.579  1.4127 -3.7166 -1.0227
 9061SOL    HW238820   2.542   3.245   7.492  0.0549 -1.6371  0.4703
 9062SOL     OW38821   2.947   1.742   8.777 -0.0719  0.8326 -0.1798
 9062SOL    HW138822   2.954   1.722   8.870 -2.8192 -1.6427 -0.5277
 9062SOL    HW238823   2.901   1.825   8.787 -0.2901  0.5389  1.2332
 9063SOL     OW38824   0.014   2.693   0.145  0.0626  0.1123  0.0346
 9063SOL    HW138825   0.041   2.603   0.167  1.3699  0.8142  1.3152
 9063SOL    HW238826   4.707   2.724   0.224 -1.0254 -0.4287 -0.3870
 9064SOL     OW38827   1.660   0.643   8.245  0.0043  0.5276  0.1463
 9064SOL    HW138828   1.668   0.558   8.200 -0.9609  0.4326  0.1493
 9064SOL    HW238829   1.575   0.682   8.223 -0.1810 -0.1583 -0.3577
 9065SOL     OW38830   1.316   1.408   4.316  0.3121 -0.0889  0.1534
 9065SOL    HW138831   1.285   1.384   4.404 -0.7781  0.8051  0.0164
 9065SOL    HW238832   1.246   1.459   4.274 -0.5861 -1.5318 -0.0993
 9066SOL     OW38833   2.004   4.584  10.030 -0.1433  0.4635  0.1415
 9066SOL    HW138834   2.041   4.544  10.109 -0.7114 -1.3921 -0.5322
 9066SOL    HW238835   1.911   4.560  10.032 -0.3823  1.3298 -0.4357
 9067SOL     OW38836   4.560   1.696   5.152  0.4838  0.4113 -0.5142
 9067SOL    HW138837   4.517   1.675   5.069  0.3302 -0.4745 -0.2140
 9067SOL    HW238838   4.617   1.769   5.133 -0.7227  1.7855  1.1100
 9068SOL     OW38839   4.220   3.900   3.660 -0.2303 -0.7596  0.7869
 9068SOL    HW138840   4.250   3.920   3.571 -0.6302 -1.0437  0.5889
 9068SOL    HW238841   4.126   3.892   3.646 -0.1151  0.3749 -0.6865
 9069SOL     OW38842   2.982   4.621  16.905 -0.1909  0.2569  0.6293
 9069SOL    HW138843   3.074   4.636  16.928 -0.1783 -2.6658  2.3849
 9069SOL    HW238844   2.965   4.553  16.970 -2.1932  2.3102  2.2596
 9070SOL     OW38845   0.329   0.189   0.975 -0.7601 -0.6631  0.2253
 9070SOL    HW138846   0.238   0.183   1.004 -1.2499 -0.6164 -1.2837
 9070SOL    HW238847   0.366   0.139   1.048  1.5482  0.1817 -0.3714
 9071SOL     OW38848   3.084   1.322  14.361  0.3097 -0.1504 -0.4413
 9071SOL    HW138849   3.014   1.383  14.384  0.0530 -0.1944 -1.1124
 9071SOL    HW238850   3.060   1.299  14.272 -0.2642  0.0406 -0.3314
 9072SOL     OW38851   1.806   3.030   8.538 -0.2567  0.4616 -0.0368
 9072SOL    HW138852   1.823   3.104   8.596  4.1788  0.1011 -0.8908
 9072SOL    HW238853   1.855   2.963   8.587  0.8105  1.2492 -0.0322
 9073SOL     OW38854   1.315   0.910   8.666  0.6008  0.4537  0.3459
 9073SOL    HW138855   1.391   0.953   8.705  0.9868 -0.8845  1.0472
 9073SOL    HW238856   1.278   0.882   8.750  0.7267  1.3129  0.6880
 9074SOL     OW38857   1.609   1.227  12.461  0.4244 -0.0989 -0.0625
 9074SOL    HW138858   1.701   1.243  12.484  1.5817 -0.7538 -4.1846
 9074SOL    HW238859   1.598   1.285  12.385  0.3336  0.2535  0.2185
 9075SOL     OW38860   1.359   0.334   1.559 -0.5927 -0.0284  0.4593
 9075SOL    HW138861   1.387   0.248   1.591 -1.0755 -0.7938 -1.1541
 9075SOL    HW238862   1.287   0.345   1.621 -1.1606  0.3593 -0.2765
 9076SOL     OW38863   3.857   2.260  12.100 -0.0421 -0.3893 -0.3020
 9076SOL    HW138864   3.829   2.324  12.034 -5.0691 -1.7450  0.5461
 9076SOL    HW238865   3.771   2.223  12.117 -0.1693 -0.2738 -0.7014
 9077SOL     OW38866   4.229   0.061   3.317 -0.0242  0.0467 -0.1309
 9077SOL    HW138867   4.226   0.151   3.350  0.3847 -0.3462  0.9438
 9077SOL    HW238868   4.136   0.042   3.308 -0.1546 -0.6804  3.1370
 9078SOL     OW38869   1.157   0.262  13.309 -0.0971 -0.1535 -0.4486
 9078SOL    HW138870   1.169   0.325  13.380  0.3641 -2.3383  1.4191
 9078SOL    HW238871   1.068   0.227  13.319 -0.3707  0.7894  0.3930
 9079SOL     OW38872   1.369   2.333   2.767 -0.1372 -0.0326  0.5424
 9079SOL    HW138873   1.368   2.377   2.853  1.8523  0.6048  0.2396
 9079SOL    HW238874   1.334   2.393   2.702  1.2704 -0.4677 -0.6184
 9080SOL     OW38875   2.358   3.208   8.881 -0.0406  0.3002  0.5087
 9080SOL    HW138876   2.379   3.115   8.884 -0.6159  0.1179 -1.1688
 9080SOL    HW238877   2.343   3.230   8.973  2.6012  0.5900  0.8810
 9081SOL     OW38878   4.265   4.052  15.121  0.0258  0.2465  0.4795
 9081SOL    HW138879   4.212   4.054  15.201  0.0394 -0.0194  0.4934
 9081SOL    HW238880   4.214   4.114  15.068  0.6040 -0.6356 -1.1075
 9082SOL     OW38881   0.293   1.666   9.360  1.0779  0.5645  0.4570
 9082SOL    HW138882   0.290   1.720   9.439 -0.8564  0.1562  0.6786
 9082SOL    HW238883   0.376   1.692   9.322  0.0923  1.5810 -1.0006
 9083SOL     OW38884   4.037   2.260  10.750  0.3470  0.8097 -0.1483
 9083SOL    HW138885   4.041   2.289  10.841  1.2477 -1.7583  0.6145
 9083SOL    HW238886   4.129   2.260  10.725 -0.3475  0.9855 -2.7685
 9084SOL     OW38887   1.065   1.148  11.428  0.0603 -0.3328 -0.4864
 9084SOL    HW138888   1.136   1.106  11.380  1.2900 -0.0981  1.1204
 9084SOL    HW238889   0.996   1.150  11.361 -1.0921  1.2926  0.7383
 9085SOL     OW38890   2.029   1.304   8.974  0.7041 -0.2932 -0.6641
 9085SOL    HW138891   2.038   1.325   8.881 -0.4793  3.3751  0.0399
 9085SOL    HW238892   2.080   1.223   8.973 -0.2463 -0.8800 -2.2378
 9086SOL     OW38893   2.186   1.700  12.103 -0.0479  0.5095 -0.4093
 9086SOL    HW138894   2.254   1.641  12.071 -1.2764 -1.1362 -0.0538
 9086SOL    HW238895   2.162   1.671  12.192  3.4817  1.9854  0.9970
 9087SOL     OW38896   2.986   0.904   4.313  0.4271 -0.1348 -0.0032
 9087SOL    HW138897   3.081   0.912   4.304  0.6917 -1.5443  1.5746
 9087SOL    HW238898   2.973   0.912   4.407 -1.5447  1.4823 -0.4230
 9088SOL     OW38899   3.828   0.198  15.961  0.0219  0.1617 -0.0250
 9088SOL    HW138900   3.823   0.292  15.942 -1.9706 -0.0819 -0.7490
 9088SOL    HW238901   3.828   0.168  15.870 -0.5060 -5.4401  1.7890
 9089SOL     OW38902   4.175   1.073   7.621  0.5299  0.3492 -0.0693
 9089SOL    HW138903   4.267   1.089   7.598  0.3377  2.2580  0.5250
 9089SOL    HW238904   4.183   0.996   7.678  0.3010 -1.7840 -2.9169
 9090SOL     OW38905   2.432   4.700   4.573  0.1352 -0.1315  0.2287
 9090SOL    HW138906   2.496   4.711   4.643 -0.2037 -0.7215  0.6245
 9090SOL    HW238907   2.494   4.675   4.505 -0.1746  1.4343 -0.6409
 9091SOL     OW38908   4.634   1.083   4.522 -0.0603  0.4947  0.1965
 9091SOL    HW138909   4.561   1.040   4.478  1.0575  0.0810 -1.2712
 9091SOL    HW238910   4.682   1.010   4.562 -1.8337 -1.6607 -1.5974
 9092SOL     OW38911   1.713   3.411   1.749  0.4904 -0.1520  0.5796
 9092SOL    HW138912   1.795   3.360   1.753 -0.3642 -1.4731  1.3077
 9092SOL    HW238913   1.711   3.440   1.658  0.5579 -0.7382  0.3864
 9093SOL     OW38914   0.882   1.193   8.828 -0.1516 -0.8553 -0.5019
 9093SOL    HW138915   0.898   1.254   8.900  1.4026 -0.0081 -1.5495
 9093SOL    HW238916   0.798   1.154   8.850  0.5625 -1.0378  1.9078
 9094SOL     OW38917   2.266   3.406  16.683 -0.0681 -0.1639 -0.6978
 9094SOL    HW138918   2.350   3.389  16.726  0.0487 -2.4747 -1.8543
 9094SOL    HW238919   2.232   3.477  16.738  1.2647 -0.0086 -0.0573
 9095SOL     OW38920   4.087   0.853   2.555 -0.2116  0.2497  0.4245
 9095SOL    HW138921   4.079   0.844   2.460  2.6587 -3.2622  0.5264
 9095SOL    HW238922   4.001   0.836   2.593 -1.1737  3.2065 -0.3731
 9096SOL     OW38923   3.864   2.020   9.792 -0.5273  0.0354 -0.9490
 9096SOL    HW138924   3.864   2.065   9.707  3.1614  1.5491 -0.1384
 9096SOL    HW238925   3.921   1.944   9.780 -0.3412  0.0323 -0.0068
 9097SOL     OW38926   3.745   2.605   6.984  0.2543  0.3012  0.3723
 9097SOL    HW138927   3.760   2.697   6.964 -1.0579  0.2453 -0.8867
 9097SOL    HW238928   3.650   2.604   6.993  0.1516  1.3562 -0.6033
 9098SOL     OW38929   3.463   1.573   7.530 -0.1327 -0.0783 -0.8560
 9098SOL    HW138930   3.462   1.544   7.438  0.2996 -0.0169 -0.8791
 9098SOL    HW238931   3.426   1.498   7.577  0.6420  0.1542  0.1033
 9099SOL     OW38932   2.853   0.163  15.154  0.4866 -0.1782  0.1297
 9099SOL    HW138933   2.860   0.164  15.058  0.7599  1.5631  0.1719
 9099SOL    HW238934   2.781   0.222  15.173  0.7294 -0.2769  1.3644
 9100SOL     OW38935   4.044   3.622  12.890  0.8244 -0.2582  0.5882
 9100SOL    HW138936   4.065   3.669  12.971  0.8608  0.0830  0.3809
 9100SOL    HW238937   3.961   3.662  12.864  1.6133  0.4789 -0.7388
 9101SOL     OW38938   1.970   0.207   6.712 -0.1018 -0.0306 -0.5860
 9101SOL    HW138939   1.960   0.246   6.799  0.3550  0.9817 -0.9841
 9101SOL    HW238940   1.997   0.118   6.733  2.1363  0.4803 -1.3467
 9102SOL     OW38941   0.565   0.479   6.884 -0.0218 -0.0938 -0.3876
 9102SOL    HW138942   0.615   0.422   6.826  2.2925  0.9261  0.6013
 9102SOL    HW238943   0.528   0.531   6.813 -2.0134 -1.9752 -0.7463
 9103SOL     OW38944   2.404   0.643   4.872 -0.0644 -0.8431 -0.7798
 9103SOL    HW138945   2.342   0.619   4.941 -0.0540  1.2397 -0.0463
 9103SOL    HW238946   2.344   0.670   4.803 -0.5854 -0.3523 -0.1412
 9104SOL     OW38947   4.163   4.174   4.906 -0.5828 -0.0843 -0.4965
 9104SOL    HW138948   4.127   4.252   4.949  2.8290  1.2200 -0.0351
 9104SOL    HW238949   4.093   4.110   4.921  0.4808 -0.9120  0.9500
 9105SOL     OW38950   3.661   3.834   9.608 -0.5264 -0.1534  1.2945
 9105SOL    HW138951   3.638   3.820   9.700 -0.6567 -0.9414  1.1418
 9105SOL    HW238952   3.751   3.800   9.615 -0.2875 -0.3160 -2.5719
 9106SOL     OW38953   3.408   3.025   5.947  0.0505 -0.0649 -1.0610
 9106SOL    HW138954   3.476   2.961   5.928 -0.6075 -1.1666  0.2532
 9106SOL    HW238955   3.406   3.008   6.042 -0.2540 -1.6788 -1.3542
 9107SOL     OW38956   4.546   2.259   0.198  0.0503 -0.1394 -0.0367
 9107SOL    HW138957   4.525   2.231   0.108  2.1030 -0.7462 -0.3214
 9107SOL    HW238958   4.604   2.185   0.215 -0.0798  0.3345  2.3882
 9108SOL     OW38959   4.369   0.923  11.370 -0.0375 -0.0922  0.3014
 9108SOL    HW138960   4.432   0.889  11.307 -1.7905 -1.2681 -0.8096
 9108SOL    HW238961   4.342   0.998  11.317 -1.6555 -0.9926 -0.1215
 9109SOL     OW38962   0.918   0.482  11.490  0.2540  0.4016 -0.1082
 9109SOL    HW138963   0.826   0.509  11.486  0.4463  0.8665 -1.6307
 9109SOL    HW238964   0.914   0.432  11.571  3.3862  0.0280 -0.1778
 9110SOL     OW38965   0.557   0.642   3.332 -0.0948  0.0047  0.7069
 9110SOL    HW138966   0.616   0.574   3.299  0.0500  0.7354 -0.5300
 9110SOL    HW238967   0.577   0.715   3.274  0.0687 -0.9794 -0.4815
 9111SOL     OW38968   2.696   3.419  13.420 -0.9649  0.0872  0.0315
 9111SOL    HW138969   2.681   3.425  13.326 -2.1350  1.7861  0.3193
 9111SOL    HW238970   2.672   3.508  13.445  3.5885  1.5442 -0.9442
 9112SOL     OW38971   1.292   3.745  10.116  0.3675 -0.6139  0.2835
 9112SOL    HW138972   1.284   3.660  10.158 -0.4970 -0.9874 -0.6510
 9112SOL    HW238973   1.209   3.750  10.070  1.3548 -0.6378 -1.4967
 9113SOL     OW38974   1.179   2.558   2.283  0.6581 -0.4585  0.3684
 9113SOL    HW138975   1.165   2.490   2.217  0.8628  0.6082 -0.7670
 9113SOL    HW238976   1.091   2.595   2.277  0.8774  0.2715  1.5131
 9114SOL     OW38977   0.836   2.722   6.277 -0.3078 -1.1449  0.1541
 9114SOL    HW138978   0.847   2.738   6.370 -3.1476  1.5579  0.0140
 9114SOL    HW238979   0.741   2.720   6.279 -0.4200  2.5025 -1.3854
 9115SOL     OW38980   4.086   0.132   5.792 -0.7458 -0.0263  0.2324
 9115SOL    HW138981   4.008   0.081   5.813 -1.4967  0.7058 -0.8223
 9115SOL    HW238982   4.157   0.068   5.797 -0.1531  0.5654 -0.6914
 9116SOL     OW38983   0.431   1.207   5.814 -0.1510  0.2530 -0.1772
 9116SOL    HW138984   0.428   1.281   5.874  0.3826 -1.5954  2.1386
 9116SOL    HW238985   0.391   1.237   5.733  2.0107  0.2178 -1.2581
 9117SOL     OW38986   2.786   3.992   2.197 -0.1656  0.3592  0.0064
 9117SOL    HW138987   2.797   3.990   2.102 -3.7718 -3.0948 -0.3326
 9117SOL    HW238988   2.810   4.083   2.216 -1.1138  0.8775 -1.3363
 9118SOL     OW38989   3.984   3.928  16.106 -0.5224 -0.3287  0.1584
 9118SOL    HW138990   4.041   3.996  16.071 -1.2843  0.5502  0.6221
 9118SOL    HW238991   3.917   3.929  16.038 -0.6772  0.8414  0.3344
 9119SOL     OW38992   4.187   4.553   4.323  0.2821 -0.0793 -0.2233
 9119SOL    HW138993   4.151   4.564   4.235 -0.2627 -0.4308 -0.0461
 9119SOL    HW238994   4.282   4.564   4.315  0.1900  0.7853 -0.1386
 9120SOL     OW38995   4.275   2.901   2.929 -0.4725 -0.2791  0.3182
 9120SOL    HW138996   4.278   2.809   2.956  2.5267 -1.1368 -3.0467
 9120SOL    HW238997   4.181   2.908   2.912  0.1632  1.0446 -2.5599
 9121SOL     OW38998   2.074   4.149   7.126 -0.8272 -0.2957 -0.2012
 9121SOL    HW138999   2.020   4.087   7.175  1.1299 -2.8102 -1.2114
 9121SOL    HW239000   2.161   4.111   7.141 -0.0969  1.1239 -0.8154
 9122SOL     OW39001   1.372   2.960   8.225  0.3009 -0.2043  0.0916
 9122SOL    HW139002   1.326   2.877   8.240  0.6422 -0.2891  0.6680
 9122SOL    HW239003   1.352   3.008   8.305  2.1257 -0.3743  0.6416
 9123SOL     OW39004   1.455   2.244   8.719  0.4901  0.6161  0.2372
 9123SOL    HW139005   1.411   2.304   8.659 -0.2082  1.2357  1.3646
 9123SOL    HW239006   1.512   2.200   8.657 -0.3264 -1.5133  1.0113
 9124SOL     OW39007   3.414   3.286   6.142 -0.4593 -0.1718  0.3800
 9124SOL    HW139008   3.491   3.232   6.126  0.5154  0.5386  2.6626
 9124SOL    HW239009   3.402   3.317   6.052  2.7336 -1.2229 -0.4010
 9125SOL     OW39010   1.965   3.837  16.823 -0.0595 -0.3447  0.1841
 9125SOL    HW139011   2.002   3.903  16.882 -2.5309  0.4787  0.8109
 9125SOL    HW239012   1.897   3.889  16.780 -0.2873  0.4547  1.4803
 9126SOL     OW39013   0.366   0.612  10.237  0.0260  0.6603 -0.0783
 9126SOL    HW139014   0.323   0.529  10.259  0.2952  0.4859 -0.2181
 9126SOL    HW239015   0.310   0.668  10.291  0.9733  1.4493  0.0856
 9127SOL     OW39016   0.374   0.435  16.012  0.5444 -0.1558 -0.1864
 9127SOL    HW139017   0.305   0.369  16.010 -0.7811  1.2516 -0.8761
 9127SOL    HW239018   0.393   0.441  15.918  2.3732 -3.6368 -0.0333
 9128SOL     OW39019   2.962   3.621  14.289 -0.1373  0.2751 -0.2131
 9128SOL    HW139020   2.929   3.569  14.216 -0.7089  0.9983 -0.4587
 9128SOL    HW239021   3.028   3.559  14.320 -0.2450 -0.5887 -1.7256
 9129SOL     OW39022   4.384   3.168   5.936  0.0887  0.3037  0.5915
 9129SOL    HW139023   4.424   3.082   5.928  1.2840  0.7451  1.9195
 9129SOL    HW239024   4.463   3.219   5.919  1.3665 -1.5747  0.9851
 9130SOL     OW39025   1.923   2.263   8.590 -0.0346 -0.6949 -0.1791
 9130SOL    HW139026   2.010   2.299   8.605 -1.1560  2.3831 -1.0523
 9130SOL    HW239027   1.880   2.347   8.572  0.9517 -0.6345 -2.2619
 9131SOL     OW39028   3.874   2.026   5.954 -0.3893 -0.3974  0.0146
 9131SOL    HW139029   3.934   1.956   5.980  0.2700  0.0460 -0.3295
 9131SOL    HW239030   3.847   1.985   5.871  0.2568  2.3372 -1.5222
 9132SOL     OW39031   0.048   4.389   9.024 -0.1695 -0.1887  0.3848
 9132SOL    HW139032   0.005   4.305   9.035  2.6080 -1.3241  2.7062
 9132SOL    HW239033   0.074   4.400   9.115 -1.1708 -1.7579  0.8674
 9133SOL     OW39034   2.816   1.004   7.897 -0.3878  0.2262 -0.3948
 9133SOL    HW139035   2.855   0.927   7.937  1.2526  2.3707  2.1158
 9133SOL    HW239036   2.901   1.046   7.887 -0.0627 -0.0228  1.3121
 9134SOL     OW39037   2.086   4.254  15.421  0.4536 -0.0636 -0.3843
 9134SOL    HW139038   2.041   4.171  15.405  1.2677 -0.6996  0.6934
 9134SOL    HW239039   2.136   4.251  15.340  1.0938 -0.9135  0.0497
 9135SOL     OW39040   0.240   1.243   7.257  0.6861  0.5861  0.2069
 9135SOL    HW139041   0.156   1.286   7.269 -0.5050 -1.6507 -0.1787
 9135SOL    HW239042   0.211   1.158   7.290  0.4707 -0.6389 -3.1933
 9136SOL     OW39043   0.997   2.121   7.519 -0.4433  0.6268  0.3489
 9136SOL    HW139044   1.042   2.196   7.479 -2.0912  1.4602  0.0808
 9136SOL    HW239045   0.922   2.161   7.563  0.1249  1.4027  0.6230
 9137SOL     OW39046   4.101   4.197   8.940 -0.3785  0.2986  0.6566
 9137SOL    HW139047   4.059   4.272   8.981  0.9305  0.7496  1.1977
 9137SOL    HW239048   4.171   4.180   9.004 -0.5747 -0.9222  0.5524
 9138SOL     OW39049   3.203   1.106   4.929 -0.5863  0.1207  0.3273
 9138SOL    HW139050   3.208   1.201   4.927 -1.1007  0.1020 -1.8602
 9138SOL    HW239051   3.266   1.087   4.859  0.1863 -0.5800  1.2003
 9139SOL     OW39052   1.948   3.892   6.599  0.6137 -0.0322 -0.2381
 9139SOL    HW139053   1.896   3.952   6.653  0.1568  0.8194 -1.6442
 9139SOL    HW239054   1.973   3.956   6.533 -1.1677 -0.1095 -0.9671
 9140SOL     OW39055   4.348   4.086  15.766  1.0470 -0.3911 -0.0293
 9140SOL    HW139056   4.360   4.180  15.774  0.7517 -0.1722 -2.3029
 9140SOL    HW239057   4.301   4.088  15.683  1.0304 -0.2795 -0.0162
 9141SOL     OW39058   3.781   0.504   5.457  0.0232 -0.0730  0.8297
 9141SOL    HW139059   3.694   0.525   5.491  0.1991 -1.3525  2.0427
 9141SOL    HW239060   3.802   0.435   5.519 -2.0252 -1.6320 -0.1808
 9142SOL     OW39061   2.551   1.060   7.892  0.2445  0.0791  0.4397
 9142SOL    HW139062   2.641   1.042   7.865  0.2208  1.5959 -0.6994
 9142SOL    HW239063   2.535   0.967   7.908 -0.3286 -0.0534 -0.8638
 9143SOL     OW39064   3.186   0.761   4.843  0.5012  0.0020  0.0159
 9143SOL    HW139065   3.211   0.830   4.781  1.9552 -0.0452  0.5357
 9143SOL    HW239066   3.245   0.778   4.916  0.6986 -0.7675  0.0386
 9144SOL     OW39067   3.509   1.963   1.854  0.3074  0.0966  0.2690
 9144SOL    HW139068   3.536   1.959   1.945  0.3338 -2.0915  0.1646
 9144SOL    HW239069   3.484   1.872   1.838 -0.2601  0.2373  0.3316
 9145SOL     OW39070   0.676   0.404   3.280  0.2801  0.7274  0.2781
 9145SOL    HW139071   0.763   0.437   3.257  0.8768  0.3922  2.1011
 9145SOL    HW239072   0.692   0.313   3.305  0.9880  1.2109  1.5607
 9146SOL     OW39073   2.539   2.878   8.580 -0.8333 -0.7032  0.0329
 9146SOL    HW139074   2.516   2.793   8.616  1.3567 -0.8068  1.1571
 9146SOL    HW239075   2.617   2.896   8.632 -0.9278  1.5314 -0.5766
 9147SOL     OW39076   1.309   2.964   4.690 -0.5603 -0.0061 -0.5928
 9147SOL    HW139077   1.339   2.889   4.742  0.6600  0.4623 -0.6151
 9147SOL    HW239078   1.341   3.038   4.741  0.4826 -2.1111  1.8079
 9148SOL     OW39079   2.294   4.165   9.434 -0.4469  0.2412 -0.3707
 9148SOL    HW139080   2.361   4.173   9.501 -2.9549  2.1233  1.9565
 9148SOL    HW239081   2.219   4.128   9.482 -0.9875 -1.2948 -2.4278
 9149SOL     OW39082   0.578   1.466   3.468  0.2754 -0.6783  0.8037
 9149SOL    HW139083   0.566   1.498   3.558 -2.1334  0.2770  0.1246
 9149SOL    HW239084   0.652   1.525   3.457 -1.0176  0.9338  0.9019
 9150SOL     OW39085   2.726   3.655  10.301 -0.1638 -0.1194  0.0917
 9150SOL    HW139086   2.653   3.646  10.362  0.5881  1.1556  1.1807
 9150SOL    HW239087   2.677   3.711  10.242 -0.7315  1.9760  2.5467
 9151SOL     OW39088   2.347   2.560   4.414  0.1136  0.0648  0.1802
 9151SOL    HW139089   2.273   2.511   4.378 -0.7346  1.0448  0.6021
 9151SOL    HW239090   2.310   2.605   4.489 -2.1203 -2.1534  0.4212
 9152SOL     OW39091   4.470   0.060   2.288  0.0696 -0.3747 -0.2445
 9152SOL    HW139092   4.452   0.118   2.214 -2.1790 -1.3510 -0.4696
 9152SOL    HW239093   4.404   0.089   2.352 -0.5917 -0.7194 -0.7640
 9153SOL     OW39094   3.196   0.869  11.212 -0.1639  0.3161  0.1931
 9153SOL    HW139095   3.118   0.834  11.168  0.0060 -0.9667  0.9194
 9153SOL    HW239096   3.209   0.794  11.269  0.9826 -0.5621 -1.2002
 9154SOL     OW39097   3.471   2.103   8.869 -0.7547  0.1863  0.0391
 9154SOL    HW139098   3.527   2.027   8.885  0.6248  1.0876 -0.5442
 9154SOL    HW239099   3.468   2.150   8.952  0.2652 -0.4853  0.4565
 9155SOL     OW39100   0.840   1.918   8.417  0.8512  0.7590  0.1930
 9155SOL    HW139101   0.780   1.864   8.365  1.3312 -1.3088  1.8011
 9155SOL    HW239102   0.895   1.852   8.459  0.4175  1.2277  1.4855
 9156SOL     OW39103   4.009   0.813   2.285  0.5095 -0.4031  0.1443
 9156SOL    HW139104   4.002   0.726   2.245  0.1633  0.4993 -1.7620
 9156SOL    HW239105   3.972   0.864   2.213 -0.2250  0.9927  1.5079
 9157SOL     OW39106   0.124   0.404   8.041 -0.0333  0.1422  0.0740
 9157SOL    HW139107   0.079   0.320   8.034 -1.3803  1.0950 -2.8539
 9157SOL    HW239108   0.157   0.414   7.952 -0.2429  2.2207  0.2311
 9158SOL     OW39109   2.500   4.597  11.592 -0.2805  0.1275  0.1288
 9158SOL    HW139110   2.415   4.559  11.575 -1.5882  2.4574  1.4183
 9158SOL    HW239111   2.546   4.580  11.510  1.4576 -0.6532  1.2559
 9159SOL     OW39112   3.982   2.652  15.074  0.1345 -0.5153  0.1915
 9159SOL    HW139113   3.895   2.692  15.071  0.8617  1.2570  2.7165
 9159SOL    HW239114   4.001   2.602  14.995  3.9519  1.6796 -0.2842
 9160SOL     OW39115   3.315   0.510   3.855 -0.4156 -0.5210 -0.9570
 9160SOL    HW139116   3.409   0.498   3.847 -0.3793 -1.3922  0.6147
 9160SOL    HW239117   3.297   0.448   3.926 -0.1452 -2.1970 -2.3467
 9161SOL     OW39118   3.300   1.055   5.577  0.1163  0.2719  0.0377
 9161SOL    HW139119   3.254   1.106   5.643  0.7532  1.5588 -0.5094
 9161SOL    HW239120   3.229   0.997   5.550 -0.4417  1.7801 -1.7951
 9162SOL     OW39121   0.276   3.624   3.057 -0.0358 -0.1958  0.0549
 9162SOL    HW139122   0.257   3.637   2.964  0.3938  0.8291  0.1150
 9162SOL    HW239123   0.206   3.561   3.073 -0.3903  0.2498  0.2316
 9163SOL     OW39124   1.729   2.161   9.490 -0.5189  0.3862 -0.4305
 9163SOL    HW139125   1.741   2.215   9.568  1.4717  0.6750 -0.9306
 9163SOL    HW239126   1.791   2.095   9.521 -1.3431 -0.2339 -0.0979
 9164SOL     OW39127   4.049   4.026  15.309 -0.6645  0.3188  0.2261
 9164SOL    HW139128   4.003   3.943  15.306 -0.9909  0.3314  4.3824
 9164SOL    HW239129   3.979   4.088  15.333 -0.8334  0.1726  0.1071
 9165SOL     OW39130   3.763   1.000   4.051 -0.0138  0.4895  0.4249
 9165SOL    HW139131   3.820   1.040   3.985  1.7636  0.3581  1.8717
 9165SOL    HW239132   3.769   0.906   4.031 -1.8384  0.7884 -1.5197
 9166SOL     OW39133   1.857   1.167   2.961 -0.4383  0.4995 -0.5984
 9166SOL    HW139134   1.827   1.180   2.871 -2.3894  0.3048  0.0165
 9166SOL    HW239135   1.904   1.249   2.978  1.2119 -0.5415 -0.1834
 9167SOL     OW39136   1.958   4.433   1.894 -0.7560  0.3069  0.0085
 9167SOL    HW139137   2.004   4.480   1.824  0.5621 -1.6536 -0.4359
 9167SOL    HW239138   1.990   4.345   1.874  2.4109  1.1907  1.1703
 9168SOL     OW39139   0.022   3.404   8.523  0.3548  0.3636  0.7399
 9168SOL    HW139140   0.108   3.448   8.522  0.1051  0.7513 -2.2499
 9168SOL    HW239141   0.019   3.366   8.611  0.4248  0.9719  1.0085
 9169SOL     OW39142   2.273   2.562  12.582 -0.2163  0.2113 -0.0647
 9169SOL    HW139143   2.291   2.542  12.674 -0.7072  0.7023  0.1404
 9169SOL    HW239144   2.311   2.650  12.591  0.7213 -0.2002 -0.0873
 9170SOL     OW39145   3.463   4.661   5.195  0.3110 -0.1042 -0.2257
 9170SOL    HW139146   3.504   4.670   5.281 -0.9988 -0.5599  0.4499
 9170SOL    HW239147   3.375   4.640   5.225 -1.3786 -1.2223 -5.8945
 9171SOL     OW39148   0.307   1.788   1.508  0.5428 -0.2036 -0.1753
 9171SOL    HW139149   0.325   1.855   1.574 -0.3468 -0.1452  0.0089
 9171SOL    HW239150   0.387   1.792   1.457 -0.5859  0.8292 -1.8608
 9172SOL     OW39151   3.093   2.070  15.815  0.4793 -0.0521  0.2585
 9172SOL    HW139152   3.042   2.005  15.863 -0.1129  1.0064  1.0514
 9172SOL    HW239153   3.180   2.059  15.852  1.0247  1.0247 -0.6747
 9173SOL     OW39154   4.452   0.438   4.342 -0.0202  0.5870  0.3085
 9173SOL    HW139155   4.479   0.449   4.251 -0.3137 -1.3755 -0.0279
 9173SOL    HW239156   4.394   0.363   4.329 -0.5645  0.8135  1.4649
 9174SOL     OW39157   3.554   3.631   8.685  0.3461  0.1531 -0.3751
 9174SOL    HW139158   3.521   3.601   8.770  1.8696  0.5386  0.3546
 9174SOL    HW239159   3.642   3.647   8.719  0.0798  0.4105  0.1813
 9175SOL     OW39160   4.531   3.565   7.518  0.2111  0.0703  0.5130
 9175SOL    HW139161   4.480   3.512   7.580 -0.6434  0.4470  0.1211
 9175SOL    HW239162   4.481   3.646   7.518  1.1493  0.6372 -1.6091
 9176SOL     OW39163   1.666   1.122  11.811  0.2086  0.0733  0.4156
 9176SOL    HW139164   1.626   1.144  11.895  0.9210  2.9341 -0.0008
 9176SOL    HW239165   1.754   1.155  11.827 -0.4780  1.1887  1.9137
 9177SOL     OW39166   2.420   1.641  17.314  0.5166  0.2167 -0.3397
 9177SOL    HW139167   2.334   1.657  17.275  0.7413  1.2047 -0.4238
 9177SOL    HW239168   2.465   1.722  17.288  1.5446  0.3669  1.9354
 9178SOL     OW39169   3.645   1.877   3.286  0.5094  0.0904 -0.2420
 9178SOL    HW139170   3.663   1.821   3.362  1.4633  0.6441 -0.0495
 9178SOL    HW239171   3.704   1.950   3.307  1.9132 -1.3258  0.7628
 9179SOL     OW39172   0.653   0.882   8.682 -0.3913 -0.2819 -0.0825
 9179SOL    HW139173   0.594   0.943   8.637 -0.9277 -0.5340  0.2842
 9179SOL    HW239174   0.660   0.913   8.772 -0.1659 -0.9274  0.1227
 9180SOL     OW39175   4.206   3.982  14.693  0.2341 -0.3299  0.3408
 9180SOL    HW139176   4.283   3.954  14.643  1.3789  1.7334  0.9534
 9180SOL    HW239177   4.223   3.950  14.781  2.4033  2.6958  1.0020
 9181SOL     OW39178   1.917   1.578   7.232  0.2350 -0.1800 -0.5255
 9181SOL    HW139179   1.905   1.672   7.236 -1.7367 -0.5762  2.5935
 9181SOL    HW239180   2.011   1.578   7.252 -0.5185  1.7357  2.8842
 9182SOL     OW39181   2.361   0.089  15.106 -0.4314 -0.0609 -0.1305
 9182SOL    HW139182   2.313   0.079  15.188 -0.4231  0.4189 -0.0654
 9182SOL    HW239183   2.290   0.117  15.048  0.2020  0.9150 -0.4389
 9183SOL     OW39184   4.355   2.349  12.183 -0.9536  0.6335  0.1832
 9183SOL    HW139185   4.403   2.422  12.146  0.8451 -0.6390  0.0103
 9183SOL    HW239186   4.264   2.367  12.158 -1.2959 -0.7974  0.3861
 9184SOL     OW39187   0.818   2.895   4.018  0.5134 -0.2008 -0.2976
 9184SOL    HW139188   0.726   2.882   4.044  0.4016  0.0945 -0.5472
 9184SOL    HW239189   0.847   2.932   4.102  3.2104  0.2968 -1.4512
 9185SOL     OW39190   2.798   0.463  10.001  0.0050 -0.1216  0.3952
 9185SOL    HW139191   2.878   0.428  10.040 -0.7037 -1.3215  0.7987
 9185SOL    HW239192   2.729   0.468  10.067  0.5169 -0.1071  0.9309
 9186SOL     OW39193   0.349   4.515   5.802 -0.3199  0.2222 -0.2155
 9186SOL    HW139194   0.258   4.492   5.821 -0.4587  1.1690  0.2637
 9186SOL    HW239195   0.350   4.608   5.823 -0.3889 -0.8086  4.3930
 9187SOL     OW39196   1.254   3.470   1.177 -0.2548  0.5313  0.5370
 9187SOL    HW139197   1.197   3.514   1.113 -1.1228  1.6250  2.0556
 9187SOL    HW239198   1.275   3.389   1.131 -1.5612  0.2046  0.5133
 9188SOL     OW39199   3.485   4.266  12.807 -0.2160 -0.1946  0.0067
 9188SOL    HW139200   3.453   4.197  12.749 -0.2088  0.5625 -0.8938
 9188SOL    HW239201   3.579   4.254  12.791 -0.3455  0.0679 -0.9259
 9189SOL     OW39202   0.979   2.520   2.567 -0.5402  0.5085 -0.2431
 9189SOL    HW139203   0.912   2.530   2.498 -0.2547 -0.3916 -0.6609
 9189SOL    HW239204   0.937   2.572   2.635  1.0093 -0.7878  1.7212
 9190SOL     OW39205   0.121   1.347   4.355 -0.4902  0.3513 -0.4572
 9190SOL    HW139206   0.155   1.370   4.441  0.7299 -0.3422 -0.7577
 9190SOL    HW239207   0.174   1.396   4.292  1.4501 -0.2422  0.7365
 9191SOL     OW39208   1.728   0.850  11.823  0.1270  0.3657 -0.6204
 9191SOL    HW139209   1.684   0.935  11.824  0.8315  0.7274 -0.3232
 9191SOL    HW239210   1.691   0.825  11.908 -0.0482  0.8613 -0.5533
 9192SOL     OW39211   3.454   4.187   7.688 -0.2627  0.1849 -0.6770
 9192SOL    HW139212   3.373   4.153   7.725  2.0394 -2.2058  2.0906
 9192SOL    HW239213   3.439   4.280   7.670 -0.9354  0.4812  1.5178
 9193SOL     OW39214   1.781   4.621   0.418  0.2490  0.7721 -0.1017
 9193SOL    HW139215   1.850   4.569   0.378  1.0417  1.7557 -0.0035
 9193SOL    HW239216   1.804   4.600   0.508  1.9122 -0.9507 -0.9250
 9194SOL     OW39217   1.463   3.302   1.726  0.1222  0.5256 -0.0310
 9194SOL    HW139218   1.493   3.272   1.640 -0.8565  1.3239 -0.6548
 9194SOL    HW239219   1.546   3.324   1.768  0.3058  0.2623 -0.2530
 9195SOL     OW39220   0.983   0.998   4.833 -0.0516 -1.2745  0.2866
 9195SOL    HW139221   0.907   0.955   4.873 -0.1339 -0.6646  0.7815
 9195SOL    HW239222   1.038   1.015   4.909 -0.9769 -0.4518  0.7740
 9196SOL     OW39223   0.141   0.162   2.628 -0.7032  0.5936 -0.1654
 9196SOL    HW139224   0.052   0.166   2.593 -0.6987 -0.7861 -0.3274
 9196SOL    HW239225   0.150   0.074   2.666  2.5259  1.0191  0.0496
 9197SOL     OW39226   0.499   2.469  12.634  0.5776 -0.6016  0.3218
 9197SOL    HW139227   0.448   2.397  12.599 -3.2935  0.3968  3.9875
 9197SOL    HW239228   0.430   2.515  12.682  1.0136 -0.6364  0.9910
 9198SOL     OW39229   1.162   3.693   2.304 -0.3076  0.4151 -0.4824
 9198SOL    HW139230   1.082   3.672   2.353  0.1867  0.8438  0.5013
 9198SOL    HW239231   1.129   3.694   2.214 -0.4556  0.5444 -0.4278
 9199SOL     OW39232   3.170   1.459   8.997  0.0423  0.2333 -0.3022
 9199SOL    HW139233   3.124   1.425   9.074  0.5845  2.3221  0.9609
 9199SOL    HW239234   3.224   1.533   9.024  0.1226  0.3608 -0.8205
 9200SOL     OW39235   3.438   3.878   4.168 -0.6552  0.6147  0.1280
 9200SOL    HW139236   3.411   3.919   4.251 -0.9953 -4.0353  2.2881
 9200SOL    HW239237   3.374   3.809   4.153 -0.6073  0.8486 -1.1259
 9201SOL     OW39238   4.672   1.734  11.847 -0.4226 -0.1864 -0.3151
 9201SOL    HW139239   4.715   1.727  11.762  1.5173 -1.0644  0.7418
 9201SOL    HW239240   4.728   1.790  11.901 -2.3134  1.2863  0.1632
 9202SOL     OW39241   0.951   4.086   6.226 -0.3298  0.2528 -0.1327
 9202SOL    HW139242   0.949   4.178   6.200  2.0453  0.4177  0.1819
 9202SOL    HW239243   0.908   4.098   6.311  0.4556 -1.1262  0.4709
 9203SOL     OW39244   4.493   0.700  14.023 -0.3192  0.6097 -0.2115
 9203SOL    HW139245   4.514   0.738  14.108  1.8901  0.3713 -0.6460
 9203SOL    HW239246   4.460   0.614  14.052  0.4849  0.9007  1.5840
 9204SOL     OW39247   2.677   3.510   3.318 -0.3595  0.0435  0.0792
 9204SOL    HW139248   2.737   3.479   3.386  0.1233  1.7549  0.4351
 9204SOL    HW239249   2.600   3.510   3.375 -0.9326  3.1431 -0.6792
 9205SOL     OW39250   1.634   3.277  14.163 -0.6383 -0.5030  0.0221
 9205SOL    HW139251   1.721   3.298  14.198 -1.3006  1.4178  0.5214
 9205SOL    HW239252   1.658   3.247  14.075  1.4917  1.6943 -0.1401
 9206SOL     OW39253   3.244   3.048   7.840 -0.0776 -0.2872  0.4148
 9206SOL    HW139254   3.213   3.134   7.812 -0.3182 -0.5973 -0.2572
 9206SOL    HW239255   3.238   3.055   7.936 -3.0401 -2.4417  0.3859
 9207SOL     OW39256   4.508   3.574   5.944  0.3311  0.0386  0.2130
 9207SOL    HW139257   4.486   3.483   5.966  2.7501 -1.3895 -3.1585
 9207SOL    HW239258   4.426   3.619   5.926  0.6500  0.1598 -0.9319
 9208SOL     OW39259   0.352   2.407   3.610  0.1315 -0.0046 -0.5774
 9208SOL    HW139260   0.309   2.322   3.618  0.9780 -0.3031  0.6341
 9208SOL    HW239261   0.277   2.463   3.589 -1.4541 -2.5692 -1.7382
 9209SOL     OW39262   4.570   1.736   4.861 -0.0436 -0.0832 -0.3009
 9209SOL    HW139263   4.479   1.747   4.890  0.2933  1.6926  0.0977
 9209SOL    HW239264   4.578   1.822   4.821  1.5045  0.6604  1.5826
 9210SOL     OW39265   0.652   4.333   2.870  0.4855  0.3573  0.0921
 9210SOL    HW139266   0.567   4.335   2.914  1.4154 -3.6007  2.0375
 9210SOL    HW239267   0.686   4.408   2.919 -1.7887 -0.9060  3.5915
 9211SOL     OW39268   3.452   0.505  10.087  0.5848  0.2202 -0.0943
 9211SOL    HW139269   3.388   0.437  10.108  0.5149  0.3132 -0.0073
 9211SOL    HW239270   3.503   0.466  10.016  1.6500  0.4327  0.5544
 9212SOL     OW39271   0.850   0.437   2.232 -0.0789 -0.7963  0.7581
 9212SOL    HW139272   0.858   0.444   2.327  1.0013 -0.8030  0.6716
 9212SOL    HW239273   0.763   0.474   2.217  0.6775  0.8709  0.3573
 9213SOL     OW39274   3.982   0.238   3.799 -0.1288  0.5638  0.4781
 9213SOL    HW139275   3.947   0.328   3.802  1.3543  1.1345  0.7134
 9213SOL    HW239276   4.077   0.246   3.789 -0.0738  1.1078  1.4341
 9214SOL     OW39277   2.663   2.924  13.771 -0.1452  0.2679 -0.2334
 9214SOL    HW139278   2.671   2.828  13.771  3.1498  0.5747  0.0052
 9214SOL    HW239279   2.567   2.925  13.766 -0.1035  0.5339 -1.0123
 9215SOL     OW39280   4.378   1.959   9.383  0.2545 -0.1110  0.5108
 9215SOL    HW139281   4.433   1.899   9.333 -1.4570  0.0022 -1.4967
 9215SOL    HW239282   4.293   1.930   9.350  0.7354 -1.9937  0.9311
 9216SOL     OW39283   0.399   0.450   9.631  0.0239  0.7206  0.0111
 9216SOL    HW139284   0.425   0.371   9.678  0.3587 -0.2207 -1.7729
 9216SOL    HW239285   0.449   0.517   9.678 -0.3211  0.6430  0.4906
 9217SOL     OW39286   2.002   3.438   5.361  0.0993  0.1786 -0.2324
 9217SOL    HW139287   1.961   3.521   5.339  1.2299  0.8816  0.3066
 9217SOL    HW239288   2.072   3.431   5.296  1.0082  0.9201  0.6588
 9218SOL     OW39289   3.563   3.304   2.437 -0.4231 -0.1588 -0.6653
 9218SOL    HW139290   3.643   3.326   2.389 -0.0098 -1.1013 -0.4081
 9218SOL    HW239291   3.496   3.368   2.412  0.2037  0.4379 -0.8174
 9219SOL     OW39292   1.753   4.640   6.611  0.4899 -0.0931 -0.4545
 9219SOL    HW139293   1.687   4.571   6.605 -1.0167  1.4837 -1.9107
 9219SOL    HW239294   1.697   4.717   6.607 -1.6593 -1.6946 -1.4334
 9220SOL     OW39295   4.184   2.260   6.201  0.1200  0.0230 -0.8403
 9220SOL    HW139296   4.158   2.319   6.272  1.1673  1.4568 -1.6638
 9220SOL    HW239297   4.104   2.239   6.153 -0.4312 -0.6375  0.3736
 9221SOL     OW39298   0.910   0.784   1.168 -0.0099  0.2842  0.5501
 9221SOL    HW139299   0.989   0.761   1.216  1.1083  0.2456 -1.3134
 9221SOL    HW239300   0.902   0.698   1.127 -2.8614 -0.8802  3.5079
 9222SOL     OW39301   2.456   3.598   4.094 -0.5186 -0.1501  0.3896
 9222SOL    HW139302   2.444   3.565   4.183  1.0728 -2.1746 -0.1467
 9222SOL    HW239303   2.509   3.677   4.106 -1.5944  0.3757  1.6301
 9223SOL     OW39304   2.678   2.601  10.632 -0.0129  0.2643 -0.1560
 9223SOL    HW139305   2.629   2.678  10.602  0.4414  0.5617 -0.1287
 9223SOL    HW239306   2.614   2.530  10.632  1.3084 -0.9241 -1.2610
 9224SOL     OW39307   1.736   0.422   8.032 -0.4403  0.3648 -0.3524
 9224SOL    HW139308   1.783   0.378   8.103  0.0946  1.2708 -0.1400
 9224SOL    HW239309   1.661   0.364   8.037 -0.7748  0.7938 -0.3430
 9225SOL     OW39310   2.509   3.514   1.127 -0.5274 -0.2697  0.3173
 9225SOL    HW139311   2.507   3.493   1.220  0.1087  0.4960  0.5042
 9225SOL    HW239312   2.574   3.584   1.130 -1.4235  0.5425  0.9242
 9226SOL     OW39313   1.424   1.163   0.608  0.1949  0.7331  0.0901
 9226SOL    HW139314   1.376   1.189   0.529 -1.9913  0.2656  1.2679
 9226SOL    HW239315   1.483   1.239   0.613  0.2432  0.7645 -0.8256
 9227SOL     OW39316   2.082   0.011   6.257 -0.5235  0.4756 -0.5865
 9227SOL    HW139317   2.036   0.071   6.317  0.7874 -0.5892  1.4833
 9227SOL    HW239318   2.010   4.691   6.233 -0.6283  0.2892  0.1699
 9228SOL     OW39319   1.646   0.589   2.380 -0.5352  0.3340 -0.6318
 9228SOL    HW139320   1.562   0.568   2.341  0.7136 -1.7632 -2.2374
 9228SOL    HW239321   1.648   0.684   2.370 -1.7072  0.4296  0.1237
 9229SOL     OW39322   4.425   0.841  17.125  0.4872  0.1189 -0.6804
 9229SOL    HW139323   4.394   0.931  17.133 -3.3211 -1.3477  0.6467
 9229SOL    HW239324   4.438   0.830  17.219 -0.5469  2.6115 -0.2519
 9230SOL     OW39325   0.412   1.964  12.440 -1.0901 -0.1508  0.0478
 9230SOL    HW139326   0.456   1.982  12.523 -2.4753  0.3006  0.6862
 9230SOL    HW239327   0.408   1.868  12.444 -0.5104 -0.1518  0.6062
 9231SOL     OW39328   2.714   1.353  15.296 -0.6785 -0.1590 -0.5371
 9231SOL    HW139329   2.640   1.303  15.331 -0.5719  1.7105  2.3932
 9231SOL    HW239330   2.784   1.301  15.336  1.9673  2.8491 -1.2351
 9232SOL     OW39331   3.099   2.799   0.114 -0.7233  0.5237  0.4117
 9232SOL    HW139332   3.008   2.831   0.114  0.1016  2.8170 -0.7596
 9232SOL    HW239333   3.091   2.711   0.151 -0.9899  1.1547  1.8396
 9233SOL     OW39334   0.995   0.529   6.833  0.1653  0.4355  0.0934
 9233SOL    HW139335   1.015   0.534   6.926 -1.4086 -1.4437  0.5450
 9233SOL    HW239336   1.082   0.495   6.812 -0.1769 -0.6437  0.4276
 9234SOL     OW39337   3.232   4.595   2.772 -0.5617  0.1867  0.5014
 9234SOL    HW139338   3.315   4.639   2.751  0.1399 -1.2780  0.2031
 9234SOL    HW239339   3.183   4.673   2.800 -1.8338 -0.1659 -0.7514
 9235SOL     OW39340   0.445   2.245   2.679 -0.7386  0.2348 -0.1885
 9235SOL    HW139341   0.407   2.329   2.705 -0.9581  0.6293 -1.8186
 9235SOL    HW239342   0.480   2.218   2.764  0.9898 -0.0989 -1.0020
 9236SOL     OW39343   0.577   1.624   6.489 -0.2464 -0.0177  0.1738
 9236SOL    HW139344   0.584   1.720   6.485 -0.6321  0.0213  0.3429
 9236SOL    HW239345   0.482   1.629   6.477 -0.1739 -2.0164 -1.1434
 9237SOL     OW39346   4.601   3.896   2.599 -0.5091 -0.3448  0.5566
 9237SOL    HW139347   4.583   3.809   2.563 -0.8193  1.0394 -2.6073
 9237SOL    HW239348   4.690   3.900   2.564 -0.3960 -0.3535  0.8437
 9238SOL     OW39349   1.548   4.235   6.887 -0.2828  0.6395 -0.0431
 9238SOL    HW139350   1.583   4.162   6.835 -2.3712 -1.8537  2.0662
 9238SOL    HW239351   1.475   4.200   6.938  2.1816 -2.0576  1.7067
 9239SOL     OW39352   1.003   0.280   7.834 -1.0245  0.2420 -0.2363
 9239SOL    HW139353   1.045   0.350   7.883  0.5672 -1.0736  0.2925
 9239SOL    HW239354   0.987   0.321   7.749  0.1614  0.5047 -0.3309
 9240SOL     OW39355   2.378   4.186   2.294  0.0920 -0.2979  0.4845
 9240SOL    HW139356   2.386   4.229   2.380  1.1979 -1.5028  0.9925
 9240SOL    HW239357   2.403   4.246   2.224 -1.8524  0.0938  0.1136
 9241SOL     OW39358   4.672   4.550   7.573  0.2584  0.1532  0.4316
 9241SOL    HW139359   4.580   4.531   7.591  0.6739 -1.6496  0.6200
 9241SOL    HW239360   4.695   4.458   7.572 -0.7794 -0.1322  2.6545
 9242SOL     OW39361   0.761   0.915   4.395  0.2523 -0.6388 -0.1419
 9242SOL    HW139362   0.750   0.867   4.477 -2.5646 -0.4287 -0.4076
 9242SOL    HW239363   0.670   0.915   4.367  0.6818 -1.0238 -1.5697
 9243SOL     OW39364   0.274   1.942  16.427  0.3222 -0.1776  0.3006
 9243SOL    HW139365   0.288   1.937  16.522  1.1834 -1.3245  0.1243
 9243SOL    HW239366   0.279   1.850  16.401 -1.4173 -0.5914  1.4743
 9244SOL     OW39367   4.705   1.455   4.824 -0.0711  0.1692  0.4292
 9244SOL    HW139368   0.048   1.460   4.873 -0.9125 -2.8963  2.1757
 9244SOL    HW239369   4.678   1.547   4.822  2.6694  0.9173 -2.1271
 9245SOL     OW39370   4.196   0.670   5.095  0.2531  0.2418 -0.1478
 9245SOL    HW139371   4.177   0.692   5.186 -0.8995  1.5512 -0.7151
 9245SOL    HW239372   4.291   0.657   5.103  0.4433  2.9784  1.8202
 9246SOL     OW39373   0.628   3.470   6.204  0.4030  0.0085  0.6961
 9246SOL    HW139374   0.698   3.453   6.141 -1.3557  1.0957 -1.5494
 9246SOL    HW239375   0.678   3.509   6.276  1.4451 -0.9409  0.4764
 9247SOL     OW39376   0.663   0.747   5.653  0.7826  0.2121  0.1455
 9247SOL    HW139377   0.633   0.711   5.569 -1.5733  1.0968  0.6222
 9247SOL    HW239378   0.622   0.833   5.650  0.4954  0.0978  0.8667
 9248SOL     OW39379   1.632   3.674   8.069 -0.1605  0.3795  0.1613
 9248SOL    HW139380   1.693   3.601   8.061 -0.7711  0.0845 -2.0080
 9248SOL    HW239381   1.678   3.728   8.133  4.2304 -2.2953 -0.7254
 9249SOL     OW39382   3.821   2.997   4.617 -0.1188 -0.6246 -0.2254
 9249SOL    HW139383   3.801   3.090   4.602 -1.7548 -0.8525  0.5396
 9249SOL    HW239384   3.828   2.998   4.713  0.2260 -1.1801 -0.2485
 9250SOL     OW39385   3.262   0.181   8.158 -0.3973  0.3818  0.1360
 9250SOL    HW139386   3.245   0.272   8.181  1.6419  0.7738  0.1263
 9250SOL    HW239387   3.352   0.191   8.128 -1.4702  3.2660 -2.1209
 9251SOL     OW39388   0.288   0.547   0.179  0.2742 -0.1287  0.3072
 9251SOL    HW139389   0.207   0.504   0.206  0.3075  0.1490  0.8487
 9251SOL    HW239390   0.351   0.479   0.202  1.1170  0.4446 -0.3121
 9252SOL     OW39391   4.495   1.218   7.880 -0.1259  0.5858  0.0496
 9252SOL    HW139392   4.421   1.250   7.932 -0.7756 -0.4183 -0.2654
 9252SOL    HW239393   4.486   1.268   7.799  0.4767  0.5331 -0.0509
 9253SOL     OW39394   0.728   1.402   5.338  0.6513 -0.0456 -0.0644
 9253SOL    HW139395   0.806   1.426   5.389 -1.7548  0.4965  3.4207
 9253SOL    HW239396   0.713   1.482   5.287 -0.8958  1.1570  2.2499
 9254SOL     OW39397   4.163   1.291   5.991  0.9429 -0.2625 -0.3508
 9254SOL    HW139398   4.256   1.311   6.004  0.4688  1.0197  1.2337
 9254SOL    HW239399   4.167   1.203   5.954  2.1124 -0.5317  0.4000
 9255SOL     OW39400   0.657   1.463   8.833  0.3643  0.2048 -0.0770
 9255SOL    HW139401   0.748   1.468   8.860  0.4236 -2.7048  0.3499
 9255SOL    HW239402   0.646   1.413   8.752 -0.5716 -2.2259  1.5211
 9256SOL     OW39403   0.443   3.778   1.189 -0.7951 -0.4233 -0.4373
 9256SOL    HW139404   0.444   3.700   1.245  3.1036  0.0888  0.2339
 9256SOL    HW239405   0.531   3.780   1.152 -0.7447  0.4557 -0.2774
 9257SOL     OW39406   0.772   4.470   1.073  0.2112 -0.0546 -0.2504
 9257SOL    HW139407   0.680   4.493   1.087  0.9661  2.4459  0.4806
 9257SOL    HW239408   0.797   4.460   1.165  0.9927  0.0756 -0.4468
 9258SOL     OW39409   0.600   3.134   7.624 -0.6345 -0.0767  0.2964
 9258SOL    HW139410   0.669   3.069   7.634 -1.3383 -0.7530  0.7353
 9258SOL    HW239411   0.524   3.092   7.584 -0.8515  0.4544  0.1494
 9259SOL     OW39412   3.911   1.757   5.023 -0.4931 -0.6791 -0.4343
 9259SOL    HW139413   3.949   1.706   5.094 -0.8603  0.8061  0.8107
 9259SOL    HW239414   3.950   1.837   5.057  0.2249 -1.0953 -0.2796
 9260SOL     OW39415   4.736   3.573   4.790 -0.0097 -0.7276  0.4362
 9260SOL    HW139416   4.728   3.626   4.870  0.4968  0.1909 -0.1144
 9260SOL    HW239417   0.036   3.493   4.824 -1.6044 -1.6084  0.1601
 9261SOL     OW39418   0.198   1.629  14.167  0.0768  0.1940 -0.3646
 9261SOL    HW139419   0.258   1.696  14.198 -0.5985  0.3826  0.5248
 9261SOL    HW239420   0.260   1.555  14.161  0.5225  0.5239  0.1875
 9262SOL     OW39421   0.095   2.507   5.357  0.0815 -0.2117 -0.1456
 9262SOL    HW139422   0.173   2.549   5.320  0.0624 -1.1867 -1.2909
 9262SOL    HW239423   0.031   2.538   5.293  0.1940  1.4075  0.5023
 9263SOL     OW39424   3.357   3.774   3.613  0.8683  0.3889  0.0801
 9263SOL    HW139425   3.384   3.862   3.637  0.5333  0.2657  0.9335
 9263SOL    HW239426   3.389   3.771   3.523 -2.1305  0.2579 -1.0143
 9264SOL     OW39427   3.485   1.613   1.522  0.1515 -0.3630 -0.4968
 9264SOL    HW139428   3.471   1.521   1.542  1.2824 -0.0688  1.6211
 9264SOL    HW239429   3.406   1.650   1.560 -0.0123 -0.7763 -0.4367
 9265SOL     OW39430   0.530   0.624  16.396 -0.3610 -0.0988 -0.0814
 9265SOL    HW139431   0.551   0.562  16.466  0.6609  1.1874  0.7632
 9265SOL    HW239432   0.439   0.643  16.419  0.7475  3.0488  1.7411
 9266SOL     OW39433   2.660   0.249   7.934  0.1393 -0.0654 -0.0991
 9266SOL    HW139434   2.602   0.279   8.004 -0.0694  1.5754 -0.9692
 9266SOL    HW239435   2.612   0.170   7.909 -0.3731 -0.0394  0.8457
 9267SOL     OW39436   3.947   2.292  14.683 -0.1420  0.3611  0.4564
 9267SOL    HW139437   3.926   2.222  14.620 -0.6584  2.3231 -1.5379
 9267SOL    HW239438   3.955   2.364  14.621 -0.0083  0.3997  0.5180
 9268SOL     OW39439   0.048   1.097   6.182 -0.0757 -0.0549  0.1280
 9268SOL    HW139440   0.011   1.139   6.105  0.8969  0.3882 -0.1052
 9268SOL    HW239441   0.134   1.064   6.153  0.5101  0.8503  0.8293
 9269SOL     OW39442   1.957   0.886  10.146 -0.1751  0.0818  0.1342
 9269SOL    HW139443   1.963   0.838  10.229  2.8854 -0.8827 -0.6403
 9269SOL    HW239444   1.874   0.847  10.119  0.5916 -0.0415 -2.0531
 9270SOL     OW39445   1.259   1.244   8.444  0.3312 -0.2103  0.2950
 9270SOL    HW139446   1.239   1.279   8.357 -0.4878  0.2556  0.6634
 9270SOL    HW239447   1.269   1.151   8.427  1.2979 -0.0736  0.0958
 9271SOL     OW39448   1.309   0.272   4.204 -0.1530  0.2705  0.4475
 9271SOL    HW139449   1.234   0.321   4.171  0.3379  1.0094  0.4334
 9271SOL    HW239450   1.375   0.339   4.218 -1.6753  1.2662  3.0621
 9272SOL     OW39451   0.499   1.191  14.160 -0.5925 -0.2921 -0.0082
 9272SOL    HW139452   0.572   1.223  14.109  0.5401  0.6087  2.1638
 9272SOL    HW239453   0.441   1.266  14.143  0.8468  0.5549 -1.1071
 9273SOL     OW39454   3.134   0.954   0.945  0.0337  0.5644 -0.0953
 9273SOL    HW139455   3.216   0.967   0.993  0.1639 -0.8015  0.0482
 9273SOL    HW239456   3.081   0.978   1.021 -0.2207 -0.0787 -0.0690
 9274SOL     OW39457   1.865   4.458   8.230 -0.4721 -0.6449  0.3858
 9274SOL    HW139458   1.894   4.446   8.139 -1.9932 -0.0991 -0.1609
 9274SOL    HW239459   1.932   4.401   8.269 -1.8973 -1.7401  1.2302
 9275SOL     OW39460   1.637   4.223   8.129  0.2101  0.6479  0.3829
 9275SOL    HW139461   1.675   4.198   8.214 -0.4092 -0.4680  0.3319
 9275SOL    HW239462   1.712   4.205   8.072 -0.4794  1.0607 -0.6386
 9276SOL     OW39463   0.718   1.701   9.079 -0.4913  0.1623  0.0494
 9276SOL    HW139464   0.685   1.728   8.993  2.4213 -0.5275 -1.2553
 9276SOL    HW239465   0.782   1.637   9.050  0.2530 -0.1265  2.3580
 9277SOL     OW39466   3.942   3.993   8.807 -0.5175 -0.0277 -0.3607
 9277SOL    HW139467   3.990   4.061   8.854  1.2377 -1.2181 -0.4321
 9277SOL    HW239468   3.966   3.913   8.854  0.2677  0.5150  0.1616
 9278SOL     OW39469   0.891   2.928   8.631  0.4867  0.3088  0.0687
 9278SOL    HW139470   0.864   2.969   8.713 -0.7757  0.2677 -0.3336
 9278SOL    HW239471   0.861   2.838   8.648 -0.4830  0.3066 -1.6599
 9279SOL     OW39472   0.967   1.204   0.199  0.0249 -0.2624 -0.4688
 9279SOL    HW139473   0.874   1.224   0.190  0.1717  1.5727  2.3032
 9279SOL    HW239474   1.014   1.267   0.144  0.8034 -0.2015  0.2676
 9280SOL     OW39475   4.101   4.139  15.935  0.4929 -0.3848 -0.0067
 9280SOL    HW139476   4.181   4.090  15.914  0.3789 -1.4521  1.9862
 9280SOL    HW239477   4.129   4.223  15.900  1.0099 -0.3860  0.4108
 9281SOL     OW39478   2.839   0.082   5.435  0.0381  0.2545 -0.1413
 9281SOL    HW139479   2.870   0.007   5.383  1.6620 -0.5857  2.0127
 9281SOL    HW239480   2.849   0.156   5.375  0.8917 -0.6508 -1.1398
 9282SOL     OW39481   2.211   0.551  14.296 -0.0804 -0.2026  0.3903
 9282SOL    HW139482   2.172   0.611  14.360  1.1182  2.7348 -1.5967
 9282SOL    HW239483   2.143   0.513  14.241  0.1003 -2.3612  1.6442
 9283SOL     OW39484   3.894   2.389   6.155  0.6778 -0.4403  0.4855
 9283SOL    HW139485   3.835   2.318   6.179 -0.9355  0.8172  0.2271
 9283SOL    HW239486   3.859   2.406   6.068 -0.3517  2.2553  1.4414
 9284SOL     OW39487   0.548   2.798   0.311  0.1874  0.0982  0.0164
 9284SOL    HW139488   0.603   2.763   0.381 -1.4443 -0.1683  1.1490
 9284SOL    HW239489   0.609   2.867   0.285  0.6242 -0.0175  0.7253
 9285SOL     OW39490   0.613   3.202  17.309  0.1437  0.3611 -0.0951
 9285SOL    HW139491   0.665   3.230  17.234 -0.3924  0.3166 -0.4860
 9285SOL    HW239492   0.675   3.142  17.349 -0.7869  0.7095  1.8424
 9286SOL     OW39493   0.209   3.374   2.368  0.3591  0.2308 -0.3552
 9286SOL    HW139494   0.183   3.440   2.433  1.9928  1.3534 -0.8444
 9286SOL    HW239495   0.227   3.427   2.291  1.6119  1.8279  1.0450
 9287SOL     OW39496   0.077   2.633   0.843 -1.0198 -0.1811 -0.0515
 9287SOL    HW139497   0.126   2.666   0.768  2.8699  0.3428  2.7401
 9287SOL    HW239498   0.147   2.620   0.906 -0.5943 -0.2700 -0.5464
 9288SOL     OW39499   1.299   3.549   0.784  0.0526  0.0733 -0.0043
 9288SOL    HW139500   1.345   3.621   0.826 -0.8934  1.1947 -0.8872
 9288SOL    HW239501   1.213   3.556   0.825  1.0060 -1.0604  2.2052
 9289SOL     OW39502   4.707   4.511   6.844 -0.2742  0.4772  0.0812
 9289SOL    HW139503   0.051   4.488   6.802 -0.2082  0.0217  0.4571
 9289SOL    HW239504   4.712   4.461   6.926  2.0017  1.1073  0.3074
 9290SOL     OW39505   2.673   2.085  17.311  0.5552  0.2979 -0.6522
 9290SOL    HW139506   2.751   2.085  17.366  1.5348 -1.5965 -2.0559
 9290SOL    HW239507   2.685   2.169  17.266 -0.2897  0.0128 -1.4023
 9291SOL     OW39508   4.261   1.700  14.327 -0.3047 -0.1632  0.5003
 9291SOL    HW139509   4.287   1.745  14.246 -2.5132  0.1517 -0.0355
 9291SOL    HW239510   4.169   1.686  14.305 -0.4676  0.2691  0.9019
 9292SOL     OW39511   2.383   0.209   5.332 -0.4156  0.0347  0.0774
 9292SOL    HW139512   2.436   0.144   5.377 -0.4138 -0.3122 -0.4298
 9292SOL    HW239513   2.431   0.292   5.332 -2.4135  1.1935  1.9904
 9293SOL     OW39514   2.031   3.022   9.895 -0.0491  0.4573  0.2604
 9293SOL    HW139515   1.996   3.094   9.843 -1.2873  1.0534  1.8921
 9293SOL    HW239516   2.040   3.057   9.984  0.8101 -0.4753  0.5454
 9294SOL     OW39517   2.535   3.894   0.579 -1.0018 -0.0520  0.3732
 9294SOL    HW139518   2.623   3.860   0.561 -1.5515 -0.1724 -2.2206
 9294SOL    HW239519   2.556   3.973   0.627  1.9999 -1.1292  0.8178
 9295SOL     OW39520   1.596   0.814   5.352 -0.2154 -0.9932  0.0010
 9295SOL    HW139521   1.686   0.781   5.345 -1.0540 -2.6687 -3.2200
 9295SOL    HW239522   1.617   0.904   5.375  1.4038 -0.9986 -1.4204
 9296SOL     OW39523   2.525   2.909   9.485 -0.1352 -0.0185 -0.3428
 9296SOL    HW139524   2.590   2.853   9.528  1.7696  1.9914 -0.6192
 9296SOL    HW239525   2.454   2.899   9.549 -0.3389 -0.1623 -0.5889
 9297SOL     OW39526   1.598   2.129   9.271 -0.8239 -0.2610 -0.3379
 9297SOL    HW139527   1.535   2.201   9.274  0.2944  0.5972  3.0350
 9297SOL    HW239528   1.662   2.151   9.340 -0.2987 -0.3713 -0.7870
 9298SOL     OW39529   0.627   3.271   5.412  0.2410 -0.1630 -0.3366
 9298SOL    HW139530   0.544   3.317   5.397 -1.0349 -2.7501 -1.1810
 9298SOL    HW239531   0.630   3.272   5.507  0.6352 -1.6247 -0.3407
 9299SOL     OW39532   2.571   4.040   3.522 -0.3793 -0.1869  0.3248
 9299SOL    HW139533   2.610   4.036   3.435 -0.8401 -1.1956  0.1614
 9299SOL    HW239534   2.634   4.004   3.584 -0.5052  1.0423  1.1783
 9300SOL     OW39535   2.248   2.822   3.264  0.1958 -0.0499 -0.0112
 9300SOL    HW139536   2.281   2.812   3.174 -1.3823  0.9371 -0.7022
 9300SOL    HW239537   2.172   2.879   3.255  0.9650  1.2135  1.5120
 9301SOL     OW39538   2.914   4.181   6.361  0.0870 -0.2806  0.2611
 9301SOL    HW139539   2.900   4.128   6.440  0.4765  0.3225  0.7427
 9301SOL    HW239540   2.826   4.218   6.359  0.4481  0.6150  0.6479
 9302SOL     OW39541   0.501   1.981   5.649 -0.2248  0.2393 -0.2727
 9302SOL    HW139542   0.531   1.997   5.739  0.4743  0.2253 -0.5001
 9302SOL    HW239543   0.572   2.036   5.615 -0.1169  0.5490  0.4464
 9303SOL     OW39544   2.272   0.767   4.679 -0.1435  0.1807 -0.2076
 9303SOL    HW139545   2.185   0.729   4.678 -0.3447  0.5490  3.7570
 9303SOL    HW239546   2.248   0.845   4.730  0.1574 -0.5411  1.0236
 9304SOL     OW39547   3.508   0.877   3.734  0.1524 -0.1669 -0.3495
 9304SOL    HW139548   3.541   0.876   3.824  0.0808 -1.2873 -0.3364
 9304SOL    HW239549   3.575   0.840   3.677 -0.6818 -0.1173 -1.3652
 9305SOL     OW39550   3.328   1.782   5.555  0.0735 -0.1753 -0.0067
 9305SOL    HW139551   3.252   1.723   5.552 -0.2006  0.1579  0.3485
 9305SOL    HW239552   3.283   1.830   5.625  1.8739  1.3848  0.0697
 9306SOL     OW39553   3.131   4.085   6.685  1.0507 -0.5513 -0.0373
 9306SOL    HW139554   3.048   4.062   6.642  0.4974  2.8296 -0.8219
 9306SOL    HW239555   3.173   4.007   6.718  3.2988  2.0137  3.1676
 9307SOL     OW39556   3.530   3.397   6.519  0.2447 -0.1850 -0.2217
 9307SOL    HW139557   3.601   3.440   6.470 -1.4475  0.9352 -1.7065
 9307SOL    HW239558   3.490   3.473   6.561  1.1406 -0.2137  0.6747
 9308SOL     OW39559   2.693   3.110   0.504 -0.2805  0.2231 -0.1177
 9308SOL    HW139560   2.739   3.126   0.422  0.9553  4.0253  1.3567
 9308SOL    HW239561   2.694   3.202   0.528 -0.1594  0.3548 -0.6281
 9309SOL     OW39562   4.546   0.261   4.021  0.1168  0.2161 -0.2491
 9309SOL    HW139563   4.630   0.294   4.053  1.0174 -0.7169 -1.6246
 9309SOL    HW239564   4.565   0.230   3.932  1.3811 -0.4535  0.2505
 9310SOL     OW39565   0.208   3.904   0.004 -0.2464 -0.0889  0.6512
 9310SOL    HW139566   0.161   3.980   0.038  0.3725  0.4084  0.4013
 9310SOL    HW239567   0.200   3.838   0.073 -1.1277  1.1397  1.7152
 9311SOL     OW39568   1.838   3.266   7.456  0.2597  0.2823 -0.5340
 9311SOL    HW139569   1.934   3.268   7.455  0.2672  0.6615  0.9178
 9311SOL    HW239570   1.816   3.319   7.532  1.5459  0.5353 -0.3372
 9312SOL     OW39571   4.568   1.978   6.618  0.1904  0.3065  0.2077
 9312SOL    HW139572   4.507   2.052   6.626  0.9542  0.8765  0.7796
 9312SOL    HW239573   4.520   1.931   6.550 -2.0666  2.2349  0.4454
 9313SOL     OW39574   1.330   3.370   8.753 -0.5257  0.3284 -0.1683
 9313SOL    HW139575   1.291   3.396   8.670  2.1338  1.0891 -1.1782
 9313SOL    HW239576   1.265   3.404   8.815  0.6229 -0.1089  1.2758
 9314SOL     OW39577   3.406   3.385   9.362  0.2934  0.1757 -0.5045
 9314SOL    HW139578   3.468   3.367   9.293  0.2209 -3.6080  0.4429
 9314SOL    HW239579   3.450   3.459   9.404 -1.7148  0.6639  0.7529
 9315SOL     OW39580   3.767   0.867   9.354  0.0328 -0.1220  0.7325
 9315SOL    HW139581   3.862   0.855   9.346  0.0855  1.0251 -0.4792
 9315SOL    HW239582   3.763   0.941   9.414 -1.4081 -0.4573  1.0397
 9316SOL     OW39583   3.962   1.749  15.234 -0.1866 -0.1738  0.0424
 9316SOL    HW139584   3.871   1.733  15.211 -0.0466 -1.0437  0.1175
 9316SOL    HW239585   3.986   1.827  15.183  3.7593 -2.2819 -1.2861
 9317SOL     OW39586   2.081   2.482  16.420  0.3772 -0.4750 -0.0870
 9317SOL    HW139587   2.169   2.520  16.428  1.1485 -2.0678 -1.0852
 9317SOL    HW239588   2.068   2.502  16.328 -0.7097 -0.2370  0.1199
 9318SOL     OW39589   3.946   2.371   5.680  0.0499 -0.9855  0.0347
 9318SOL    HW139590   4.028   2.330   5.707  1.3225  1.9883  0.7035
 9318SOL    HW239591   3.957   2.365   5.585  2.2828 -1.0326  0.2889
 9319SOL     OW39592   4.344   1.300   5.273  0.4118 -0.5366 -0.1755
 9319SOL    HW139593   4.415   1.361   5.252  1.1754 -0.4707  2.6287
 9319SOL    HW239594   4.357   1.288   5.367  0.1124 -1.1240 -0.2113
 9320SOL     OW39595   3.108   3.923   5.079 -0.1487 -0.4688  0.3558
 9320SOL    HW139596   3.092   3.878   4.996  2.5969 -0.4906 -0.1430
 9320SOL    HW239597   3.035   3.986   5.085  1.0603  0.6044  3.5463
 9321SOL     OW39598   2.341   1.701   4.556 -0.2203  0.0182 -0.8109
 9321SOL    HW139599   2.430   1.696   4.521  0.4008  1.7197  0.5518
 9321SOL    HW239600   2.355   1.751   4.636 -1.1549 -0.8442 -0.1102
 9322SOL     OW39601   0.650   4.328   4.340  0.4024 -0.5953 -0.4462
 9322SOL    HW139602   0.695   4.280   4.410 -0.6741 -2.1913 -0.8591
 9322SOL    HW239603   0.723   4.372   4.296 -0.3750 -0.2038 -1.3364
 9323SOL     OW39604   1.161   3.132   8.673  0.4558 -0.3323 -0.0642
 9323SOL    HW139605   1.232   3.169   8.725 -0.0785  0.3588  0.1712
 9323SOL    HW239606   1.087   3.191   8.687  0.3194 -0.1049 -1.6888
 9324SOL     OW39607   0.954   2.360   9.235 -0.0826 -0.0967  0.4923
 9324SOL    HW139608   0.983   2.390   9.149  0.1232 -0.8039  0.3179
 9324SOL    HW239609   0.876   2.308   9.220  0.7026 -1.0501 -0.2494
 9325SOL     OW39610   4.506   2.012  11.882 -0.9439  0.3637 -0.0084
 9325SOL    HW139611   4.601   2.011  11.868 -0.9783  2.7887 -0.3469
 9325SOL    HW239612   4.494   2.106  11.895  0.0471  0.2080  2.1796
 9326SOL     OW39613   2.937   3.834  11.212  0.0578  0.4052  0.6743
 9326SOL    HW139614   3.030   3.824  11.193 -0.1601 -0.4438  0.0432
 9326SOL    HW239615   2.918   3.921  11.178 -1.6254 -0.4806 -0.6947
 9327SOL     OW39616   0.273   1.279  13.144  0.6315  0.3997  0.0738
 9327SOL    HW139617   0.224   1.200  13.121  1.2643 -0.0092  0.1464
 9327SOL    HW239618   0.286   1.256  13.236 -0.0852 -2.6865 -0.5948
 9328SOL     OW39619   4.592   3.430   7.028  0.7031  0.2051 -0.2586
 9328SOL    HW139620   4.531   3.413   7.100  1.6441  1.2703  0.7964
 9328SOL    HW239621   4.530   3.471   6.968 -0.9941  0.2838  1.5416
 9329SOL     OW39622   4.096   1.041   3.655 -0.1672 -0.4368  0.0244
 9329SOL    HW139623   4.109   1.005   3.566 -2.8310  2.2310 -1.4323
 9329SOL    HW239624   4.181   1.068   3.690 -0.4807 -0.7049  0.9888
 9330SOL     OW39625   2.893   2.355   8.993  0.2269  0.6731  0.3952
 9330SOL    HW139626   2.887   2.391   9.081  2.1767  2.4908 -0.2013
 9330SOL    HW239627   2.946   2.278   9.013  1.6884  2.0034  1.6529
 9331SOL     OW39628   1.226   1.110   9.792  0.1680  0.6323 -0.3122
 9331SOL    HW139629   1.178   1.159   9.858 -0.3291  0.2956 -0.4278
 9331SOL    HW239630   1.293   1.063   9.841  1.6617 -0.2297 -3.1638
 9332SOL     OW39631   1.832   0.827   8.297 -0.2683 -0.2291 -0.4313
 9332SOL    HW139632   1.792   0.872   8.371 -1.8491  1.5020 -2.3531
 9332SOL    HW239633   1.768   0.756   8.290  0.4439 -1.2264  3.0806
 9333SOL     OW39634   3.897   0.987  15.131 -0.0352 -0.8242 -0.0818
 9333SOL    HW139635   3.883   1.081  15.117 -1.3560 -1.1020 -0.6334
 9333SOL    HW239636   3.973   1.006  15.186 -1.1989 -3.9241  2.5102
 9334SOL     OW39637   3.634   1.246   2.935  0.2720  0.4187  0.4430
 9334SOL    HW139638   3.538   1.251   2.927  0.1053 -0.6517  1.7324
 9334SOL    HW239639   3.660   1.284   3.019 -1.0435  1.4264  0.4055
 9335SOL     OW39640   2.990   1.612   3.148 -0.4942  1.0609 -0.1837
 9335SOL    HW139641   2.979   1.667   3.226  0.9566  0.7414  0.2493
 9335SOL    HW239642   2.964   1.526   3.181  0.5557  1.1906  1.0163
 9336SOL     OW39643   1.683   1.347   5.175 -0.2707 -0.2181  0.0835
 9336SOL    HW139644   1.619   1.292   5.219  0.4322 -0.7321  0.4548
 9336SOL    HW239645   1.726   1.382   5.253 -1.2894 -1.0797  1.0284
 9337SOL     OW39646   3.820   4.024  10.089  0.0900  0.1972 -0.7257
 9337SOL    HW139647   3.725   4.025  10.077  0.3087  0.5307 -2.4287
 9337SOL    HW239648   3.842   3.931  10.083 -0.7106  0.0031 -0.6849
 9338SOL     OW39649   2.266   0.277   2.675 -0.1284  0.0871  0.2623
 9338SOL    HW139650   2.332   0.216   2.640 -0.4766 -0.5366  0.6764
 9338SOL    HW239651   2.188   0.227   2.649 -0.3337  0.5276  0.0431
 9339SOL     OW39652   1.974   0.188   6.432 -0.4092  0.2635 -0.3838
 9339SOL    HW139653   1.880   0.172   6.427 -0.2184 -0.1843 -2.4563
 9339SOL    HW239654   1.997   0.176   6.524 -1.6136 -2.7128 -0.4551
 9340SOL     OW39655   3.373   3.480  14.706  0.5375 -0.0081 -0.5783
 9340SOL    HW139656   3.463   3.451  14.689  0.9831  1.5030 -0.8265
 9340SOL    HW239657   3.325   3.413  14.657 -1.1421  0.1577  0.8393
 9341SOL     OW39658   4.232   3.294   3.606  0.1456  0.1159 -0.3700
 9341SOL    HW139659   4.242   3.389   3.615 -0.2337  0.0523  0.7512
 9341SOL    HW239660   4.197   3.270   3.692  1.4057 -0.6819 -0.0773
 9342SOL     OW39661   4.477   1.444   5.753 -0.1618  0.4579 -0.8728
 9342SOL    HW139662   4.426   1.515   5.713  1.9926  1.2751 -2.1679
 9342SOL    HW239663   4.568   1.473   5.749 -0.3361  0.8686 -1.9841
 9343SOL     OW39664   2.322   2.337   7.065 -0.1191 -0.0211 -0.3266
 9343SOL    HW139665   2.313   2.423   7.024 -0.2074 -0.2712 -0.8320
 9343SOL    HW239666   2.416   2.316   7.059  0.3837  2.0338  0.3297
 9344SOL     OW39667   3.177   4.140   3.522 -0.0916 -0.2322 -0.1198
 9344SOL    HW139668   3.268   4.110   3.526 -0.9276 -2.5532  1.9500
 9344SOL    HW239669   3.134   4.072   3.470 -1.0175 -0.1027  0.4717
 9345SOL     OW39670   0.378   4.717   4.519  0.3091  0.5571 -0.1682
 9345SOL    HW139671   0.438   0.049   4.494 -1.0181  1.5984 -0.4259
 9345SOL    HW239672   0.307   0.021   4.567 -0.5063  1.2303 -1.9588
 9346SOL     OW39673   2.092   4.210   6.721  0.0041 -0.2686 -0.7059
 9346SOL    HW139674   2.138   4.243   6.643  1.1468 -0.5509 -0.1588
 9346SOL    HW239675   2.158   4.151   6.758  0.6661  0.8820 -0.0247
 9347SOL     OW39676   4.711   4.228   3.530  0.2513  0.4178 -0.0894
 9347SOL    HW139677   4.702   4.311   3.576 -3.1029  0.0637 -0.1459
 9347SOL    HW239678   0.048   4.186   3.573 -0.5198  0.5676  1.4146
 9348SOL     OW39679   2.030   2.756   2.948 -0.0535 -0.2282  0.3465
 9348SOL    HW139680   2.091   2.751   2.875 -1.6997  0.0118 -1.0443
 9348SOL    HW239681   1.972   2.686   2.916  1.1813 -1.1171  0.0359
 9349SOL     OW39682   3.867   0.819   7.414 -0.4158 -0.0693  0.0212
 9349SOL    HW139683   3.858   0.898   7.466 -0.4218  0.2070 -0.4015
 9349SOL    HW239684   3.961   0.820   7.396 -0.0140 -3.1944  1.9673
 9350SOL     OW39685   0.705   4.005  13.065 -0.7150 -0.2613 -0.1625
 9350SOL    HW139686   0.677   3.974  12.979 -2.2104  0.1303  0.1793
 9350SOL    HW239687   0.703   4.100  13.056 -1.7682 -0.2336  0.3421
 9351SOL     OW39688   4.319   3.465   2.607 -0.5082  0.0132 -0.1669
 9351SOL    HW139689   4.349   3.379   2.579 -0.4708 -0.3243  0.9082
 9351SOL    HW239690   4.300   3.505   2.522  1.1508  0.7803 -0.1875
 9352SOL     OW39691   4.083   1.754   6.820 -0.2501  0.2985  0.4982
 9352SOL    HW139692   4.082   1.701   6.900 -0.4367 -1.3792 -0.6137
 9352SOL    HW239693   3.992   1.783   6.833 -0.2957  0.6956 -0.7000
 9353SOL     OW39694   0.038   0.938   2.320  0.1652  0.2640  0.2393
 9353SOL    HW139695   4.703   0.935   2.258  1.1801  0.8554 -1.0019
 9353SOL    HW239696   0.007   0.879   2.389 -3.5321  1.1963 -0.6344
 9354SOL     OW39697   0.206   2.558   4.848 -0.0851 -0.3226  0.5262
 9354SOL    HW139698   0.256   2.607   4.914 -1.8105  0.6209  1.1586
 9354SOL    HW239699   0.239   2.581   4.761  0.1046  1.9728  1.1954
 9355SOL     OW39700   1.113   0.867  16.091 -0.2465  0.1302 -0.5502
 9355SOL    HW139701   1.031   0.913  16.072 -1.2610 -1.8253 -0.9533
 9355SOL    HW239702   1.182   0.922  16.055 -0.5893  0.5769 -0.5185
 9356SOL     OW39703   0.826   4.331   4.856 -0.1008 -0.5446 -0.0626
 9356SOL    HW139704   0.785   4.385   4.789  0.7998 -0.5612 -0.6231
 9356SOL    HW239705   0.874   4.401   4.902  1.7695 -0.8872 -1.4794
 9357SOL     OW39706   3.107   0.532  16.054  0.6993 -0.4453 -0.3934
 9357SOL    HW139707   3.058   0.466  16.104  0.7242  1.7362  2.5166
 9357SOL    HW239708   3.143   0.581  16.128 -0.1533 -1.8490  0.9763
 9358SOL     OW39709   4.527   0.631   1.818  0.1053  0.3290 -0.1905
 9358SOL    HW139710   4.528   0.585   1.734 -3.7603 -0.2146  0.0439
 9358SOL    HW239711   4.431   0.637   1.822  0.1212 -0.3226  1.0192
 9359SOL     OW39712   3.781   2.516   3.169 -0.9195 -0.1275  0.1374
 9359SOL    HW139713   3.693   2.554   3.179 -0.9031  0.1464 -0.7722
 9359SOL    HW239714   3.757   2.427   3.194  1.9253 -1.0942 -0.5756
 9360SOL     OW39715   1.169   4.043   0.645  0.1082  0.3092 -0.1085
 9360SOL    HW139716   1.178   4.119   0.586  0.6665 -1.4199 -2.2562
 9360SOL    HW239717   1.083   4.054   0.685  0.7560 -1.2737  1.6699
 9361SOL     OW39718   0.293   3.425   4.621  0.2716  0.3412  0.0945
 9361SOL    HW139719   0.256   3.475   4.694 -1.4108  1.2759 -1.4046
 9361SOL    HW239720   0.382   3.460   4.626  0.2886  0.4672 -1.0242
 9362SOL     OW39721   1.198   0.003   8.860  0.2474  0.6365 -0.1564
 9362SOL    HW139722   1.105   4.722   8.842  0.5441  0.1441 -1.1770
 9362SOL    HW239723   1.240   4.656   8.856  1.0166  0.9181  1.9882
 9363SOL     OW39724   0.223   4.502   8.212 -0.2178  0.1253  0.3747
 9363SOL    HW139725   0.309   4.459   8.212 -1.1821 -1.8106  2.2272
 9363SOL    HW239726   0.193   4.478   8.124 -1.3924  2.7555  0.0519
 9364SOL     OW39727   1.438   3.281   6.467 -0.6810 -0.1415  0.4930
 9364SOL    HW139728   1.455   3.294   6.374  2.6207  2.0222  1.3891
 9364SOL    HW239729   1.449   3.188   6.484 -1.4607 -0.3251 -0.0288
 9365SOL     OW39730   1.614   0.451  13.146 -0.3017  0.2926 -0.2721
 9365SOL    HW139731   1.683   0.385  13.143 -2.2810 -1.8171 -0.2982
 9365SOL    HW239732   1.539   0.391  13.147 -0.7546  0.8634 -0.3126
 9366SOL     OW39733   2.112   2.497  13.365  0.6245  0.9356 -0.0700
 9366SOL    HW139734   2.139   2.407  13.382 -2.3301  0.3077  1.2900
 9366SOL    HW239735   2.105   2.530  13.454  1.4631 -0.7876  0.6263
 9367SOL     OW39736   1.430   3.328  11.923 -0.1201  0.2768 -0.0878
 9367SOL    HW139737   1.491   3.265  11.961  1.1084  1.2727 -0.4225
 9367SOL    HW239738   1.458   3.322  11.831 -0.9558 -0.9992 -0.2652
 9368SOL     OW39739   1.814   3.773  10.509 -0.0622 -0.2243 -0.4199
 9368SOL    HW139740   1.768   3.811  10.434 -0.5223 -0.9820 -0.5197
 9368SOL    HW239741   1.766   3.806  10.586  0.7175 -0.1303  0.0328
 9369SOL     OW39742   3.089   2.273  17.341 -0.4171  0.0443  0.1405
 9369SOL    HW139743   3.064   2.362  17.366 -2.6009 -0.1248 -1.3711
 9369SOL    HW239744   3.166   2.249  17.393  0.0262  0.6014 -0.2551
 9370SOL     OW39745   4.593   3.980   3.556  0.4165  0.6128 -0.2973
 9370SOL    HW139746   4.618   4.070   3.579 -0.5148  1.0031 -0.8146
 9370SOL    HW239747   4.660   3.963   3.490 -1.8453 -0.6351 -2.2556
 9371SOL     OW39748   1.014   1.465   7.102 -0.5384 -0.5042 -0.5547
 9371SOL    HW139749   0.925   1.433   7.091 -1.2541  0.2467  2.8875
 9371SOL    HW239750   1.009   1.544   7.047  1.7038  0.2279  0.2498
 9372SOL     OW39751   4.199   1.998   3.281  0.0761  0.2887 -0.2693
 9372SOL    HW139752   4.143   2.071   3.310  0.4821  0.2538  0.6237
 9372SOL    HW239753   4.147   1.930   3.325 -2.3449  1.2626 -1.6440
 9373SOL     OW39754   2.370   0.972  15.381  0.0608  0.3845 -0.1335
 9373SOL    HW139755   2.347   0.891  15.335  2.4342 -0.1551 -0.3563
 9373SOL    HW239756   2.303   0.962  15.449  0.6878  0.4647  0.4925
 9374SOL     OW39757   2.981   3.135  15.593  0.4277 -0.2411 -0.2504
 9374SOL    HW139758   3.054   3.161  15.537  0.4514 -1.4675 -0.8010
 9374SOL    HW239759   2.906   3.190  15.569 -0.5791 -0.9586  1.2316
 9375SOL     OW39760   2.988   3.133  16.980  0.5486 -0.3446 -0.1335
 9375SOL    HW139761   2.939   3.215  16.978  1.4062  0.1817  0.3406
 9375SOL    HW239762   3.031   3.127  16.894  1.8877  0.0437  0.5116
 9376SOL     OW39763   0.073   4.196   4.517  0.4479 -0.4360  0.1174
 9376SOL    HW139764   0.162   4.165   4.501  0.2660 -0.1387 -1.4492
 9376SOL    HW239765   0.079   4.247   4.597 -0.2581  2.9700 -2.0173
 9377SOL     OW39766   2.736   2.485  17.441 -0.7183 -0.5429  0.5557
 9377SOL    HW139767   2.775   2.573  17.440  0.1856 -0.9300  1.0782
 9377SOL    HW239768   2.774   2.434  17.370 -0.5332 -0.4787  0.6066
 9378SOL     OW39769   2.454   0.936   1.811 -0.2139 -0.0233 -0.4485
 9378SOL    HW139770   2.367   0.971   1.792 -1.2268 -1.2786  1.8907
 9378SOL    HW239771   2.440   0.850   1.771  0.6533 -1.2982  2.0065
 9379SOL     OW39772   2.551   4.662   9.074  0.3406  0.0736  0.7086
 9379SOL    HW139773   2.616   4.724   9.107 -0.0644  0.2104  1.2453
 9379SOL    HW239774   2.573   4.582   9.121  0.0455  0.0864  0.8726
 9380SOL     OW39775   3.197   1.035   2.868  0.4950  0.3343  0.6039
 9380SOL    HW139776   3.137   0.961   2.859  0.3764  0.4972  0.0871
 9380SOL    HW239777   3.244   0.988   2.937 -0.2853 -0.2146  0.7585
 9381SOL     OW39778   0.493   4.235   5.353  0.0691 -0.6164 -0.2092
 9381SOL    HW139779   0.406   4.258   5.384  0.9153  2.2765 -0.0383
 9381SOL    HW239780   0.502   4.165   5.418 -2.4693 -0.8035 -0.0744
 9382SOL     OW39781   0.902   4.168   8.785  0.1663 -0.2866  0.2323
 9382SOL    HW139782   0.945   4.201   8.863 -1.1132  0.5369  0.6045
 9382SOL    HW239783   0.971   4.139   8.726 -0.1991 -1.8611  0.6001
 9383SOL     OW39784   3.847   3.200  17.123  0.0617 -0.5845  0.3717
 9383SOL    HW139785   3.917   3.253  17.164  0.5545 -1.0625  0.1422
 9383SOL    HW239786   3.830   3.155  17.206  0.2586  1.3580  1.4795
 9384SOL     OW39787   3.560   1.736   2.207  0.3183  0.1513 -0.3541
 9384SOL    HW139788   3.541   1.645   2.229  1.3133 -0.1624 -0.7990
 9384SOL    HW239789   3.651   1.746   2.234  0.6947  1.1417 -1.9851
 9385SOL     OW39790   1.418   3.044  13.929 -0.5857  0.2062  0.3062
 9385SOL    HW139791   1.432   2.951  13.910 -3.1392  0.0584 -0.7162
 9385SOL    HW239792   1.369   3.077  13.854 -1.7663 -1.0429  0.5502
 9386SOL     OW39793   1.701   2.880  14.068  0.2312 -0.1298  0.4569
 9386SOL    HW139794   1.725   2.914  14.155 -0.3737 -0.6316  0.8185
 9386SOL    HW239795   1.772   2.820  14.046  0.8627  0.7582  0.0904
 9387SOL     OW39796   2.026   1.849  17.425  0.4203 -0.1791 -0.1309
 9387SOL    HW139797   2.050   1.930  17.472 -0.7100  1.0254 -1.6249
 9387SOL    HW239798   2.009   1.882  17.336 -0.3921  0.7131  0.3508
 9388SOL     OW39799   1.334   2.956   1.187  0.1006  0.2457  0.6880
 9388SOL    HW139800   1.291   2.891   1.131 -0.0715  1.1205 -0.1970
 9388SOL    HW239801   1.261   2.984   1.242  0.8412  3.2065  0.1922
 9389SOL     OW39802   0.232   3.691   8.544  0.3459 -0.6262 -0.4399
 9389SOL    HW139803   0.227   3.774   8.592 -0.5492 -1.5264  1.0514
 9389SOL    HW239804   0.231   3.722   8.454  1.9023 -1.8330 -0.8625
 9390SOL     OW39805   3.336   3.423   7.849  0.3822 -0.0491  0.6502
 9390SOL    HW139806   3.409   3.362   7.861  1.7884  1.7782  1.5000
 9390SOL    HW239807   3.322   3.401   7.757 -2.2441 -0.4942  1.1786
 9391SOL     OW39808   3.805   1.470   8.523  0.2018  0.3866 -0.1928
 9391SOL    HW139809   3.714   1.498   8.529  0.1767 -0.0711  1.3721
 9391SOL    HW239810   3.795   1.384   8.564  0.9650  0.5317  0.2957
 9392SOL     OW39811   2.674   3.087   6.608 -0.2595  0.3872  0.1107
 9392SOL    HW139812   2.736   3.128   6.669  0.8853 -1.6044  0.3000
 9392SOL    HW239813   2.703   3.111   6.520 -1.1294 -1.1832 -0.6047
 9393SOL     OW39814   4.228   3.429   7.947  0.1669 -0.4191 -0.4859
 9393SOL    HW139815   4.213   3.476   8.029  0.4521 -1.8743  0.3901
 9393SOL    HW239816   4.143   3.431   7.903  0.0340 -1.6922 -0.2673
 9394SOL     OW39817   4.391   3.469  15.948  0.4918 -0.6917  0.0190
 9394SOL    HW139818   4.359   3.493  15.861  0.1255  2.3172  0.9803
 9394SOL    HW239819   4.478   3.509  15.942 -0.0948  0.6503  0.5400
 9395SOL     OW39820   1.927   4.145  17.663  0.6060 -0.8235 -0.0035
 9395SOL    HW139821   1.936   4.237  17.637 -0.9802 -0.1679  1.7843
 9395SOL    HW239822   1.888   4.114  17.581 -0.0076  0.4756 -0.1921
 9396SOL     OW39823   1.132   1.111   5.037 -0.3030  0.2150  0.7586
 9396SOL    HW139824   1.202   1.112   4.971 -0.1760  2.8139  0.9192
 9396SOL    HW239825   1.125   1.205   5.053  1.1158  0.0418  2.3392
 9397SOL     OW39826   1.855   2.959   6.798 -0.8263  0.4064 -0.3104
 9397SOL    HW139827   1.876   2.988   6.709  0.6714  1.7478  0.4817
 9397SOL    HW239828   1.784   3.020   6.818 -2.8751 -1.6535 -1.2498
 9398SOL     OW39829   1.299   2.930   8.852 -0.3392  0.2963  0.2598
 9398SOL    HW139830   1.249   2.862   8.807  2.0689 -0.5412 -1.1445
 9398SOL    HW239831   1.387   2.911   8.818 -0.6297 -0.8739  0.1501
 9399SOL     OW39832   4.352   1.386   6.477 -0.0032 -0.4308 -0.2420
 9399SOL    HW139833   4.269   1.430   6.494  0.6946 -0.0640  2.1571
 9399SOL    HW239834   4.343   1.301   6.518  2.0393 -0.2155  0.6705
 9400SOL     OW39835   2.522   0.366   9.529 -0.3173  0.3007 -0.0104
 9400SOL    HW139836   2.441   0.315   9.537 -1.2809  1.9855  0.7847
 9400SOL    HW239837   2.586   0.300   9.501 -0.0358  1.0833 -1.2217
 9401SOL     OW39838   4.221   1.516   1.451  0.3514 -0.2478 -0.5692
 9401SOL    HW139839   4.258   1.604   1.438  2.5146 -0.6955  2.6172
 9401SOL    HW239840   4.128   1.529   1.437  0.0847  0.7173  2.0537
 9402SOL     OW39841   2.892   4.456   2.889  0.5995 -0.4070  0.1298
 9402SOL    HW139842   2.892   4.457   2.985  0.6318  2.5967  0.0949
 9402SOL    HW239843   2.916   4.365   2.870  1.6585 -0.2445  0.6567
 9403SOL     OW39844   2.364   0.707   8.612 -0.1660  1.2391  0.8559
 9403SOL    HW139845   2.425   0.700   8.686 -0.5861 -3.3377  0.7522
 9403SOL    HW239846   2.428   0.674   8.549  0.2969  1.0417  1.4270
 9404SOL     OW39847   0.313   4.686   6.840  0.0273 -0.1636  0.0431
 9404SOL    HW139848   0.255   4.619   6.876 -3.5702  2.8426 -0.1805
 9404SOL    HW239849   0.332   0.000   6.917 -0.7845 -0.6248  0.5606
 9405SOL     OW39850   2.045   2.476   1.413 -0.2462  0.0792 -0.2197
 9405SOL    HW139851   1.999   2.523   1.482 -0.2260 -0.1406 -0.0578
 9405SOL    HW239852   2.039   2.387   1.447 -0.0586  1.2662  2.8654
 9406SOL     OW39853   4.005   2.556   4.232  0.1472 -0.2376  0.5311
 9406SOL    HW139854   4.079   2.501   4.207  0.1734 -0.0506  0.1806
 9406SOL    HW239855   4.028   2.648   4.215 -1.3606  0.0720  0.1735
 9407SOL     OW39856   1.748   1.369   8.143 -0.4833  0.0238 -0.4825
 9407SOL    HW139857   1.740   1.347   8.050  0.4874  1.3316 -0.8610
 9407SOL    HW239858   1.693   1.298   8.177 -0.7383 -0.0777 -1.0965
 9408SOL     OW39859   3.286   3.060   5.692  0.3663  0.0443 -0.5277
 9408SOL    HW139860   3.345   3.062   5.768 -0.4609  0.4960  0.0983
 9408SOL    HW239861   3.308   3.142   5.649 -0.2124  0.2048 -0.5044
 9409SOL     OW39862   0.805   2.843   6.629  0.0647 -0.4400  0.1657
 9409SOL    HW139863   0.750   2.775   6.668  0.3084 -0.1200  1.0763
 9409SOL    HW239864   0.752   2.888   6.564  1.5908  0.2366 -0.6167
 9410SOL     OW39865   2.231   1.293   3.331  0.5450  0.6630 -0.3205
 9410SOL    HW139866   2.198   1.383   3.327 -0.7596  0.0675 -2.9211
 9410SOL    HW239867   2.208   1.269   3.421 -1.2632 -0.3798 -1.0576
 9411SOL     OW39868   1.096   1.962   7.877 -0.6126  0.5039  0.0491
 9411SOL    HW139869   1.067   1.889   7.822 -0.2757 -1.6903  2.7947
 9411SOL    HW239870   1.025   1.954   7.941 -2.0274  1.3306 -1.4078
 9412SOL     OW39871   4.606   2.956   9.622  0.2500 -0.3142 -0.4127
 9412SOL    HW139872   4.607   3.035   9.676 -0.2547  0.5581 -1.6833
 9412SOL    HW239873   4.513   2.941   9.605 -0.0613  0.5568  0.4784
 9413SOL     OW39874   0.607   1.697   1.987  0.0279 -0.0117  0.6360
 9413SOL    HW139875   0.515   1.710   2.008 -0.5949 -0.3624 -1.7788
 9413SOL    HW239876   0.607   1.740   1.901  0.7644 -1.2823 -0.0149
 9414SOL     OW39877   2.363   0.661   0.502  0.1218 -0.4878  0.2927
 9414SOL    HW139878   2.356   0.583   0.557 -0.7426 -1.0845 -0.6387
 9414SOL    HW239879   2.457   0.668   0.489 -0.2956 -0.6041 -2.8019
 9415SOL     OW39880   0.161   3.810   2.088  0.0765  0.6352  0.2283
 9415SOL    HW139881   0.214   3.773   2.159  0.1265 -1.1571 -0.7466
 9415SOL    HW239882   0.200   3.763   2.014  1.9580  0.3309  1.4055
 9416SOL     OW39883   2.673   2.376  12.494  0.0328  0.1590  0.1216
 9416SOL    HW139884   2.702   2.375  12.403 -0.9996 -1.8237 -0.1727
 9416SOL    HW239885   2.599   2.316  12.484 -0.0253  0.4152 -1.0253
 9417SOL     OW39886   3.598   3.840   7.205  0.2084 -0.0996 -0.5154
 9417SOL    HW139887   3.566   3.863   7.293 -1.5611 -0.9730 -0.9195
 9417SOL    HW239888   3.537   3.881   7.144 -1.6691 -1.2275  0.5944
 9418SOL     OW39889   2.205   2.392   5.547  0.2022  0.4500 -0.2386
 9418SOL    HW139890   2.147   2.432   5.612  0.1519 -2.4498  1.5096
 9418SOL    HW239891   2.226   2.314   5.599 -0.0029  1.3305  1.1662
 9419SOL     OW39892   2.871   1.449   0.123  0.8885 -0.1495 -0.0476
 9419SOL    HW139893   2.818   1.464   0.044  1.1488  0.0099 -0.1924
 9419SOL    HW239894   2.955   1.445   0.078  0.8367  1.5881 -0.3153
 9420SOL     OW39895   1.176   0.877  11.002  0.2355 -1.3814 -0.5815
 9420SOL    HW139896   1.262   0.919  11.008 -0.2559 -0.8305  2.9073
 9420SOL    HW239897   1.208   0.792  11.033 -1.2929 -1.7797 -0.0831
 9421SOL     OW39898   1.471   0.877   3.262  0.3156 -0.6718 -0.0837
 9421SOL    HW139899   1.427   0.962   3.262  0.1411 -0.7643  1.5203
 9421SOL    HW239900   1.551   0.913   3.222 -0.1546  0.9096  0.4077
 9422SOL     OW39901   1.741   2.954   0.455  0.4599  0.2566 -0.5274
 9422SOL    HW139902   1.832   2.961   0.484  0.1443  0.6513  0.3973
 9422SOL    HW239903   1.743   2.878   0.398 -2.1546  2.0862 -3.0431
 9423SOL     OW39904   4.339   2.922   5.074  0.1042 -0.3442  0.6249
 9423SOL    HW139905   4.423   2.963   5.054 -0.7246  0.0711 -2.0268
 9423SOL    HW239906   4.310   2.900   4.985  4.2282 -2.2752 -0.2734
 9424SOL     OW39907   4.643   3.935   7.387  0.4265 -0.0877  0.1466
 9424SOL    HW139908   4.556   3.897   7.403 -0.0926  0.5784 -1.1188
 9424SOL    HW239909   4.671   3.966   7.473  0.3671  0.1474  0.0818
 9425SOL     OW39910   0.189   4.134   3.699 -0.0405  0.1278 -0.7833
 9425SOL    HW139911   0.178   4.192   3.774  1.4872 -0.8800  0.2057
 9425SOL    HW239912   0.158   4.051   3.736  1.6908 -0.0378  0.3175
 9426SOL     OW39913   3.503   4.382   2.483  0.2979  0.3514  0.6422
 9426SOL    HW139914   3.578   4.442   2.489  1.5677 -0.7654 -4.0112
 9426SOL    HW239915   3.548   4.302   2.509  1.5023  0.5244 -0.8883
 9427SOL     OW39916   1.665   1.877   5.510 -0.4575  0.3102  0.4626
 9427SOL    HW139917   1.665   1.891   5.605  0.1555  0.0763  0.4973
 9427SOL    HW239918   1.760   1.876   5.498 -0.6183  0.1333 -0.7420
 9428SOL     OW39919   3.848   1.796   9.229  0.7102  0.5918  0.0812
 9428SOL    HW139920   3.802   1.723   9.189  0.5247  0.4208  0.5985
 9428SOL    HW239921   3.906   1.747   9.287  1.5062  0.5476 -0.7625
 9429SOL     OW39922   2.540   2.324  16.693 -0.2320  0.0679  0.0761
 9429SOL    HW139923   2.467   2.302  16.750  0.1147 -0.8775  0.1601
 9429SOL    HW239924   2.493   2.343  16.612  0.5246 -0.2640 -0.4399
 9430SOL     OW39925   0.575   2.889   3.295  0.4968  0.4855  0.0694
 9430SOL    HW139926   0.492   2.918   3.334  1.0703  0.5132  1.2962
 9430SOL    HW239927   0.542   2.878   3.206 -0.7796 -0.4031  0.6513
 9431SOL     OW39928   3.455   0.778   0.287 -0.3577 -0.5821  0.4336
 9431SOL    HW139929   3.397   0.755   0.360  0.5661 -3.8891  0.1049
 9431SOL    HW239930   3.445   0.700   0.232  1.1886 -1.1848  1.0184
 9432SOL     OW39931   0.378   4.572   5.521 -0.1993  0.0930  0.1563
 9432SOL    HW139932   0.395   4.551   5.613 -1.0991 -4.2252 -0.6222
 9432SOL    HW239933   0.371   4.667   5.516  1.6274  0.2958  1.3589
 9433SOL     OW39934   4.312   0.460  11.697  0.4858  0.4392 -0.6224
 9433SOL    HW139935   4.292   0.436  11.787  0.7132 -2.3499 -1.2938
 9433SOL    HW239936   4.375   0.391  11.674  1.6621  1.2586  0.1923
 9434SOL     OW39937   1.268   3.152   6.855 -0.1958  0.2682  0.5848
 9434SOL    HW139938   1.281   3.065   6.893  2.1056 -0.2390 -1.4036
 9434SOL    HW239939   1.282   3.143   6.761 -1.0363 -0.1730  0.4947
 9435SOL     OW39940   4.671   2.490   8.149  0.2337 -0.4200  0.0973
 9435SOL    HW139941   4.673   2.516   8.241  1.4369  1.2598 -0.4224
 9435SOL    HW239942   4.578   2.501   8.128  0.3406  2.6014  1.2541
 9436SOL     OW39943   4.260   2.972   2.401  0.0829 -0.0142 -0.0899
 9436SOL    HW139944   4.183   2.988   2.346 -0.7766  0.1596  1.1663
 9436SOL    HW239945   4.238   3.025   2.477  0.3901  0.1910 -0.1444
 9437SOL     OW39946   0.571   3.061   9.772 -0.0257 -0.2083 -0.1284
 9437SOL    HW139947   0.536   3.148   9.792 -2.7607 -1.6416  1.2822
 9437SOL    HW239948   0.543   3.013   9.850 -0.9316  0.7523  0.1383
 9438SOL     OW39949   4.614   3.769   6.817  0.3469  0.1568  0.0236
 9438SOL    HW139950   4.607   3.861   6.844  1.5468 -0.0749  1.1127
 9438SOL    HW239951   4.531   3.737   6.853 -0.1155 -1.5987 -2.6269
 9439SOL     OW39952   2.383   4.038   3.714 -0.5526 -0.4038 -0.0867
 9439SOL    HW139953   2.449   4.036   3.645 -0.6080  1.3726 -0.1986
 9439SOL    HW239954   2.308   4.090   3.687  0.7063  2.4838  1.9740
 9440SOL     OW39955   2.503   1.531   7.249  0.0049 -0.0308  0.1111
 9440SOL    HW139956   2.546   1.459   7.295  4.1243  2.0517 -0.5252
 9440SOL    HW239957   2.561   1.525   7.173 -0.3680  0.5978 -0.2277
 9441SOL     OW39958   4.289   0.485   1.400  0.3212 -0.4508  0.1246
 9441SOL    HW139959   4.250   0.418   1.456  1.1736  0.6307  2.0448
 9441SOL    HW239960   4.334   0.428   1.338 -0.1680  0.6915 -1.2710
 9442SOL     OW39961   3.721   1.575   9.095  0.1758 -0.2614  0.1787
 9442SOL    HW139962   3.697   1.610   9.010 -0.8922  0.4782  0.7786
 9442SOL    HW239963   3.793   1.516   9.072 -1.3681 -0.8877 -2.9858
 9443SOL     OW39964   1.839   1.729   1.806  0.7307  0.2103  0.2246
 9443SOL    HW139965   1.918   1.761   1.764  0.8105  0.2023  0.3673
 9443SOL    HW239966   1.836   1.643   1.763 -1.8177  0.6967 -0.5928
 9444SOL     OW39967   1.268   3.331   9.469  0.1056 -0.5937 -0.2620
 9444SOL    HW139968   1.357   3.315   9.500 -0.6642  0.6278  2.5534
 9444SOL    HW239969   1.278   3.294   9.381  2.5871 -0.6539  0.0494
 9445SOL     OW39970   2.580   1.712   5.283  0.0249 -0.4043  0.3089
 9445SOL    HW139971   2.530   1.724   5.364 -0.7039  2.0706 -0.5353
 9445SOL    HW239972   2.524   1.653   5.232  0.2818  0.2132 -0.6789
 9446SOL     OW39973   2.358   4.631   2.187  0.3721  0.1854 -0.6915
 9446SOL    HW139974   2.404   4.706   2.149  1.3134 -0.7670 -1.4461
 9446SOL    HW239975   2.429   4.582   2.228 -2.0233 -1.7678  1.1017
 9447SOL     OW39976   1.601   2.078   7.479  0.3478 -0.3588  0.1228
 9447SOL    HW139977   1.588   2.131   7.401 -0.9271 -2.5592 -1.1579
 9447SOL    HW239978   1.539   2.008   7.457 -0.3757  0.8429 -1.6001
 9448SOL     OW39979   3.465   4.097   5.673  0.1992  0.1517  0.1561
 9448SOL    HW139980   3.399   4.072   5.608  0.8205  1.2423 -0.9006
 9448SOL    HW239981   3.402   4.096   5.745  0.2835  2.0065  0.2556
 9449SOL     OW39982   3.985   3.767   7.322  0.0323 -0.0418 -0.3362
 9449SOL    HW139983   3.894   3.747   7.296 -0.0800 -0.5258  0.4523
 9449SOL    HW239984   3.970   3.813   7.405  0.8236  0.1142 -0.2810
 9450SOL     OW39985   1.374   0.808   7.282 -0.9130 -0.0892 -0.1999
 9450SOL    HW139986   1.367   0.735   7.343 -1.2848 -1.2698 -1.6576
 9450SOL    HW239987   1.350   0.772   7.197  0.3792 -1.2295 -0.0889
 9451SOL     OW39988   2.534   0.796  17.387  0.3797  0.4208  0.3030
 9451SOL    HW139989   2.513   0.726  17.325 -1.1458  0.5059  0.7306
 9451SOL    HW239990   2.484   0.865  17.342 -1.1055 -1.1697 -0.4789
 9452SOL     OW39991   0.716   3.693   7.860 -0.4835 -0.3163 -0.2621
 9452SOL    HW139992   0.756   3.689   7.948  0.6060 -0.0969 -0.7417
 9452SOL    HW239993   0.685   3.603   7.863  0.6594 -0.7392 -1.0427
 9453SOL     OW39994   2.017   0.364  10.257  0.2324 -0.5754  0.2291
 9453SOL    HW139995   1.993   0.331  10.344 -0.5955 -1.3235 -0.2827
 9453SOL    HW239996   1.968   0.308  10.197 -0.0183  1.7997 -1.7624
 9454SOL     OW39997   2.209   4.555   6.469 -0.7292  0.1584 -0.0177
 9454SOL    HW139998   2.115   4.555   6.491 -0.7215 -1.3940  0.0247
 9454SOL    HW239999   2.247   4.639   6.494  1.5341 -0.5762 -1.0867
 9455SOL     OW40000   1.987   0.831   7.068 -0.2846 -0.3896  0.4825
 9455SOL    HW140001   1.980   0.737   7.086 -0.5485 -0.5380 -0.3857
 9455SOL    HW240002   2.024   0.860   7.152  1.2026  0.1561 -0.3640
 9456SOL     OW40003   2.876   4.338   7.108  0.1300 -0.1477 -0.6281
 9456SOL    HW140004   2.885   4.351   7.203  2.9564 -0.5036 -0.8330
 9456SOL    HW240005   2.956   4.378   7.074  0.7262 -0.7823  0.0331
 9457SOL     OW40006   4.472   4.100  17.169 -0.7028 -0.2777  0.1369
 9457SOL    HW140007   4.563   4.106  17.198 -0.6921  0.3357 -0.0093
 9457SOL    HW240008   4.466   4.153  17.089 -0.5030  1.3690  1.2077
 9458SOL     OW40009   2.322   4.086  17.505 -0.2566  0.3063 -0.9407
 9458SOL    HW140010   2.415   4.072  17.486 -0.0683 -2.2726  1.8708
 9458SOL    HW240011   2.300   4.170  17.466 -0.1993  0.3129 -0.9590
 9459SOL     OW40012   1.558   0.476   1.140  0.3325 -0.4631 -0.2887
 9459SOL    HW140013   1.507   0.415   1.193 -2.5887  0.7295 -1.7321
 9459SOL    HW240014   1.480   0.528   1.121  0.0301 -0.7779  0.0809
 9460SOL     OW40015   0.998   3.419   9.551  0.3180 -0.9970  0.3075
 9460SOL    HW140016   1.071   3.390   9.497  0.7546 -1.3851  1.1039
 9460SOL    HW240017   0.941   3.342   9.547 -1.7285  0.5601 -0.7996
 9461SOL     OW40018   3.145   1.910   7.497 -0.1820  0.5751 -0.2419
 9461SOL    HW140019   3.241   1.904   7.498 -0.1212  1.2015 -4.2119
 9461SOL    HW240020   3.112   1.829   7.536 -0.0986  1.0643  0.8378
 9462SOL     OW40021   1.367   3.223   2.513  0.3017  0.1569 -0.2352
 9462SOL    HW140022   1.444   3.252   2.561  1.7716 -0.3428 -2.2714
 9462SOL    HW240023   1.376   3.259   2.425  3.1671  1.7563  0.7320
 9463SOL     OW40024   0.705   2.791  11.825 -0.4384  0.3628  0.1665
 9463SOL    HW140025   0.668   2.879  11.822  2.1307  1.4463  0.1777
 9463SOL    HW240026   0.641   2.733  11.783 -0.2523  0.1658  0.1521
 9464SOL     OW40027   1.780   3.196   6.287  0.6579 -0.3195  0.2267
 9464SOL    HW140028   1.746   3.274   6.331 -1.4614 -1.2804  0.2561
 9464SOL    HW240029   1.770   3.203   6.193 -4.1600  0.1774  0.8016
 9465SOL     OW40030   0.810   4.699   8.181  0.2456  0.0588  0.5571
 9465SOL    HW140031   0.784   0.044   8.218 -2.0430 -0.6573  0.5731
 9465SOL    HW240032   0.905   4.706   8.165 -0.1538  3.9503 -0.0832
 9466SOL     OW40033   2.422   4.005   6.503 -0.3129  0.3593  0.0995
 9466SOL    HW140034   2.392   4.068   6.438 -0.5865 -1.1905 -1.2933
 9466SOL    HW240035   2.342   3.961   6.531 -1.1051  1.8794  0.1837
 9467SOL     OW40036   4.216   3.569   3.694  0.6019 -0.0389 -0.5475
 9467SOL    HW140037   4.189   3.655   3.662  1.1391  0.1561 -0.4888
 9467SOL    HW240038   4.305   3.598   3.718 -0.0243  2.3912 -1.1300
 9468SOL     OW40039   0.220   0.835   6.504 -0.6215  0.1790 -0.4584
 9468SOL    HW140040   0.299   0.823   6.557 -1.8445 -1.7438  0.9582
 9468SOL    HW240041   0.254   0.841   6.415  2.2934  2.5702  0.8374
 9469SOL     OW40042   1.674   3.156  13.930 -0.3666  0.0574  0.1361
 9469SOL    HW140043   1.586   3.144  13.893 -0.3594  1.7313 -0.3995
 9469SOL    HW240044   1.692   3.070  13.969 -0.4691  0.4778  1.0931
 9470SOL     OW40045   4.462   3.153   7.047 -0.3865  0.7663  0.2067
 9470SOL    HW140046   4.549   3.166   7.010 -0.1357 -0.1034  0.5025
 9470SOL    HW240047   4.477   3.164   7.141  0.4772  0.9254  0.0550
 9471SOL     OW40048   3.874   1.969   4.514  0.2406  0.1178 -0.2081
 9471SOL    HW140049   3.935   1.940   4.582 -0.7597 -0.4759  0.4471
 9471SOL    HW240050   3.874   1.885   4.468  1.8727  1.4002 -2.5642
 9472SOL     OW40051   3.965   3.024   0.924  1.0241 -1.0540 -0.0260
 9472SOL    HW140052   3.916   3.092   0.969  1.8108  0.2087 -1.1052
 9472SOL    HW240053   3.897   2.972   0.882 -1.4350  3.8232 -1.9959
 9473SOL     OW40054   1.815   0.480  12.895 -0.0046  1.2796  0.0427
 9473SOL    HW140055   1.882   0.506  12.957  0.1121  0.5384  0.2331
 9473SOL    HW240056   1.754   0.423  12.943 -0.9028  0.7295 -1.7110
 9474SOL     OW40057   3.676   3.395   5.553  0.3647  0.2830  0.2168
 9474SOL    HW140058   3.713   3.309   5.533  3.1161  0.7310  3.3732
 9474SOL    HW240059   3.705   3.394   5.644  1.8624  3.2255 -0.2177
 9475SOL     OW40060   3.825   4.271   1.290  0.1708  0.4437  0.4716
 9475SOL    HW140061   3.805   4.338   1.355  2.2170 -0.9558  2.4923
 9475SOL    HW240062   3.754   4.280   1.226  2.1077  0.2944 -1.7380
 9476SOL     OW40063   2.648   4.553  17.502  0.3993  0.0028  0.2179
 9476SOL    HW140064   2.697   4.607  17.565 -3.2679  0.6957  2.5141
 9476SOL    HW240065   2.611   4.613  17.438 -0.7313 -0.9648 -0.0360
 9477SOL     OW40066   2.055   2.263   1.660  0.0713  0.7817 -0.0924
 9477SOL    HW140067   2.010   2.348   1.658 -0.1313  0.6452 -1.6279
 9477SOL    HW240068   2.014   2.214   1.731 -2.4166  2.2540 -0.5053
 9478SOL     OW40069   1.222   0.583   9.106  0.5526  0.4031  0.0267
 9478SOL    HW140070   1.180   0.577   9.020  0.2968 -1.1799  0.2608
 9478SOL    HW240071   1.226   0.493   9.140 -1.0615  1.3342  2.6777
 9479SOL     OW40072   4.490   4.502   9.468  0.1359 -0.3720 -0.2600
 9479SOL    HW140073   4.569   4.536   9.426  0.5821  2.5482  2.9188
 9479SOL    HW240074   4.522   4.467   9.552 -1.7223  0.8233  0.9388
 9480SOL     OW40075   3.925   3.416  10.129  0.0813 -0.3218  1.0590
 9480SOL    HW140076   3.843   3.441  10.171 -1.5999 -1.1289 -1.7773
 9480SOL    HW240077   3.931   3.490  10.068 -1.7311 -1.2223 -0.2048
 9481SOL     OW40078   3.708   3.271   3.153 -0.0075 -0.1205  0.5286
 9481SOL    HW140079   3.656   3.200   3.116  1.6210 -0.9870 -0.0811
 9481SOL    HW240080   3.640   3.337   3.167 -0.6360 -0.7219  0.2893
 9482SOL     OW40081   0.555   3.280   7.135  0.0316 -0.1354  0.0036
 9482SOL    HW140082   0.637   3.243   7.103  0.2889 -0.5782  1.1549
 9482SOL    HW240083   0.528   3.225   7.209 -2.9242 -0.5279 -1.3870
 9483SOL     OW40084   2.806   4.333  14.053  0.1094 -0.4144 -0.4948
 9483SOL    HW140085   2.826   4.239  14.058  1.3888 -0.0203  1.6816
 9483SOL    HW240086   2.881   4.358  14.000  1.0251 -1.4714  0.3049
 9484SOL     OW40087   2.239   4.160  15.684  0.3393 -0.6651  0.3288
 9484SOL    HW140088   2.270   4.105  15.612  0.1263 -2.6524  1.7379
 9484SOL    HW240089   2.172   4.210  15.637  2.0960  2.1802  0.8485
 9485SOL     OW40090   4.172   3.585   8.150  0.5717  0.5302 -0.1708
 9485SOL    HW140091   4.126   3.657   8.106 -0.2830  0.0213 -0.1167
 9485SOL    HW240092   4.263   3.614   8.140  0.0801  1.7454 -1.2163
 9486SOL     OW40093   4.438   3.917   2.857 -0.4622  0.8152 -0.4740
 9486SOL    HW140094   4.414   3.827   2.881  0.5615  1.1948  1.9892
 9486SOL    HW240095   4.474   3.920   2.769  1.8077  0.5267  0.4605
 9487SOL     OW40096   4.177   4.730   7.300  0.4241  0.0795  0.2530
 9487SOL    HW140097   4.204   0.082   7.317  0.2159  0.1564  0.1696
 9487SOL    HW240098   4.164   4.694   7.388 -0.3062  1.5230  0.7251
 9488SOL     OW40099   3.451   1.974   3.549  0.3876 -0.0789 -0.5330
 9488SOL    HW140100   3.382   2.035   3.575 -1.0862 -2.1042  0.3364
 9488SOL    HW240101   3.412   1.923   3.478  1.4499 -0.5055 -0.8197
 9489SOL     OW40102   2.764   4.468   1.558 -0.2378 -0.1026  0.6547
 9489SOL    HW140103   2.696   4.528   1.587 -1.5035  0.0986 -2.7422
 9489SOL    HW240104   2.839   4.525   1.574 -1.3181  1.0755  1.4798
 9490SOL     OW40105   3.422   1.977   2.118  0.2437 -0.0711  0.3852
 9490SOL    HW140106   3.380   2.031   2.184  1.1107  2.4082 -1.0996
 9490SOL    HW240107   3.424   1.893   2.164  2.0623 -0.4680 -0.3920
 9491SOL     OW40108   1.875   1.240   2.529 -0.2354  0.1278  0.0220
 9491SOL    HW140109   1.824   1.310   2.569 -0.4312 -0.6542  1.1373
 9491SOL    HW240110   1.810   1.175   2.504  2.0165 -2.2442  0.2955
 9492SOL     OW40111   0.804   2.789   3.374 -0.2391  0.4374  0.4312
 9492SOL    HW140112   0.852   2.822   3.299 -2.0877  4.7322  1.1165
 9492SOL    HW240113   0.714   2.820   3.360 -0.4906 -1.5887 -2.3561
 9493SOL     OW40114   3.402   2.768   2.965 -0.5943  0.0361  0.1380
 9493SOL    HW140115   3.329   2.811   3.009 -1.6810  0.1448 -1.7412
 9493SOL    HW240116   3.363   2.742   2.881  0.0916  2.8102 -1.0350
 9494SOL     OW40117   3.748   2.150   1.783 -0.0404 -0.1938  0.1649
 9494SOL    HW140118   3.760   2.070   1.732 -2.4228  1.0315 -2.2825
 9494SOL    HW240119   3.678   2.121   1.843  0.7986  0.6529  1.5592
 9495SOL     OW40120   3.408   0.720  15.369  0.0081 -0.0541 -0.0249
 9495SOL    HW140121   3.346   0.772  15.420 -1.0449  0.2297 -1.6354
 9495SOL    HW240122   3.345   0.672  15.316 -1.1320 -1.9353  3.0291
 9496SOL     OW40123   1.922   1.168   2.199  0.2687  0.1014  0.2564
 9496SOL    HW140124   1.921   1.076   2.225 -0.5214 -0.0884 -0.4057
 9496SOL    HW240125   1.943   1.206   2.284 -2.6847  1.4317  0.4263
 9497SOL     OW40126   0.385   3.608   6.645 -0.5832  0.0558  0.2307
 9497SOL    HW140127   0.346   3.528   6.608 -2.7627  1.2441 -0.0351
 9497SOL    HW240128   0.333   3.675   6.601  0.1268 -1.2193 -2.5592
 9498SOL     OW40129   2.474   0.225   3.410 -0.0158  0.2091  1.0348
 9498SOL    HW140130   2.450   0.158   3.475  1.3506 -1.5588 -0.2678
 9498SOL    HW240131   2.394   0.275   3.399 -0.7655 -0.5526  2.9713
 9499SOL     OW40132   2.041   3.518   3.045  0.0322 -0.1861 -0.0391
 9499SOL    HW140133   2.079   3.574   2.978  0.4083 -0.1254  0.2228
 9499SOL    HW240134   1.985   3.465   2.988  0.0781 -3.5999  3.0973
 9500SOL     OW40135   0.057   3.370   6.450  0.3539 -0.0079 -0.5333
 9500SOL    HW140136   0.003   3.447   6.470 -0.4770 -0.7763  0.1282
 9500SOL    HW240137   0.024   3.353   6.361 -0.4875  1.4386 -0.5049
 9501SOL     OW40138   2.433   1.608   1.911  0.8132  0.0865 -0.4197
 9501SOL    HW140139   2.455   1.572   1.825  2.9741  3.1909 -1.1616
 9501SOL    HW240140   2.385   1.535   1.949 -0.6392  1.5030  0.4830
 9502SOL     OW40141   2.956   4.102  17.341 -0.7456  0.4687  0.3925
 9502SOL    HW140142   3.036   4.079  17.295  0.1866 -0.2504  2.3542
 9502SOL    HW240143   2.934   4.033  17.404  0.9070 -0.2879  0.1271
 9503SOL     OW40144   4.120   3.113   4.213 -0.2499  0.4025 -0.3162
 9503SOL    HW140145   4.172   3.052   4.265 -0.4410 -0.7011 -1.4253
 9503SOL    HW240146   4.182   3.130   4.142  1.2878  0.5188  1.0701
 9504SOL     OW40147   4.339   4.089  14.434 -0.1720 -0.4219  0.2844
 9504SOL    HW140148   4.310   4.105  14.524  0.4926  1.3062  0.1781
 9504SOL    HW240149   4.368   4.176  14.409 -2.8891  0.6915  1.0598
 9505SOL     OW40150   2.857   2.973  12.036  0.3787  0.0206 -0.4662
 9505SOL    HW140151   2.850   3.055  12.083 -1.0691  0.3355 -1.2323
 9505SOL    HW240152   2.771   2.932  12.052  1.8551 -3.3046 -0.9557
 9506SOL     OW40153   2.620   2.601   4.453  0.5253  0.4616  0.2756
 9506SOL    HW140154   2.642   2.560   4.369  0.6441  1.3813 -0.1430
 9506SOL    HW240155   2.524   2.594   4.451  0.7841 -2.5432 -1.3373
 9507SOL     OW40156   3.832   0.211   7.724 -0.0924 -0.2161  0.0028
 9507SOL    HW140157   3.787   0.255   7.795 -1.7366  3.2872 -3.2109
 9507SOL    HW240158   3.769   0.212   7.651  0.9839  0.0057 -0.9253
 9508SOL     OW40159   4.139   1.877   5.897  0.6552  0.2093  0.1051
 9508SOL    HW140160   4.172   1.878   5.987  2.4191  2.3431 -0.5440
 9508SOL    HW240161   4.177   1.797   5.861  0.0374  0.0197 -0.1248
 9509SOL     OW40162   4.728   2.344   6.900  0.1631  0.2293  0.7270
 9509SOL    HW140163   0.017   2.419   6.952  0.9611 -0.9223  1.9612
 9509SOL    HW240164   0.062   2.284   6.921  0.5906 -0.8008 -3.5830
 9510SOL     OW40165   2.479   2.094   6.440 -0.1184  0.3314 -0.0741
 9510SOL    HW140166   2.483   2.174   6.493  1.6799  0.7287 -0.8003
 9510SOL    HW240167   2.571   2.067   6.438 -0.0303  0.5300  1.5513
 9511SOL     OW40168   2.212   0.574   2.387 -0.3018  0.1394 -0.5003
 9511SOL    HW140169   2.214   0.478   2.386  2.7582  0.2235 -0.6426
 9511SOL    HW240170   2.255   0.585   2.471  0.3974  1.9663 -1.1031
 9512SOL     OW40171   1.681   0.449   4.054 -0.1207  0.5110  0.3183
 9512SOL    HW140172   1.743   0.485   3.990  0.7849 -0.0152  0.8908
 9512SOL    HW240173   1.680   0.356   4.034 -2.0338 -0.0658  3.1064
 9513SOL     OW40174   4.539   3.198  15.892  0.1866  0.2761  0.3925
 9513SOL    HW140175   4.563   3.215  15.983 -1.5165  2.7633  0.4023
 9513SOL    HW240176   4.492   3.281  15.882 -1.4194 -0.6301  0.4386
 9514SOL     OW40177   1.456   4.657   6.746 -1.0242 -0.2659 -0.7096
 9514SOL    HW140178   1.462   4.594   6.673 -2.4121 -0.8588 -0.3035
 9514SOL    HW240179   1.375   4.706   6.733  0.7877  2.9474  0.3422
 9515SOL     OW40180   3.920   4.385   2.448  0.4984 -0.0194  0.4161
 9515SOL    HW140181   3.924   4.469   2.402 -1.6800  0.2312  0.6946
 9515SOL    HW240182   3.869   4.341   2.380 -0.0130 -0.2193  0.9286
 9516SOL     OW40183   1.226   0.822   9.212 -0.5484  0.2207  0.0043
 9516SOL    HW140184   1.233   0.734   9.177  0.0774 -0.6202  2.2106
 9516SOL    HW240185   1.143   0.817   9.260 -0.6779 -1.0739 -0.3722
 9517SOL     OW40186   1.336   3.852   2.441  0.9109 -0.4564  0.1618
 9517SOL    HW140187   1.275   3.790   2.401 -1.2101  0.9989  1.1342
 9517SOL    HW240188   1.305   3.922   2.385 -1.2228 -1.9753 -0.5404
 9518SOL     OW40189   2.292   3.080   5.133 -0.1255  0.1338 -0.3278
 9518SOL    HW140190   2.210   3.116   5.165 -0.6492 -1.5903  0.2883
 9518SOL    HW240191   2.265   3.095   5.042  2.4012  1.7247 -0.8309
 9519SOL     OW40192   1.983   3.376   3.466 -0.1491 -0.1059  1.2055
 9519SOL    HW140193   1.958   3.447   3.406  0.8933 -0.1036  0.7815
 9519SOL    HW240194   2.002   3.420   3.549  0.5999  1.7483  0.0530
 9520SOL     OW40195   3.407   1.319   6.268  0.3761 -0.1121 -0.0615
 9520SOL    HW140196   3.452   1.248   6.222  2.0149  0.9387 -0.0859
 9520SOL    HW240197   3.477   1.362   6.317  0.5948 -0.8900  0.3054
 9521SOL     OW40198   4.549   3.714   4.650 -0.1884  0.1287 -0.1073
 9521SOL    HW140199   4.523   3.771   4.722 -0.9782 -1.3204  0.7662
 9521SOL    HW240200   4.610   3.660   4.700 -1.6904 -0.0824  1.5250
 9522SOL     OW40201   4.453   1.851   6.419  0.6469  0.0479 -0.5289
 9522SOL    HW140202   4.510   1.790   6.373  1.7553 -0.1475  1.0660
 9522SOL    HW240203   4.376   1.846   6.363 -0.7843  1.5857  1.2662
 9523SOL     OW40204   4.420   2.234   9.405 -0.1084 -0.1496 -0.0629
 9523SOL    HW140205   4.344   2.245   9.348  1.2893 -0.8334 -2.0669
 9523SOL    HW240206   4.407   2.140   9.421 -0.5665  0.0623  0.7822
 9524SOL     OW40207   3.222   2.936   9.088 -0.1660 -0.8378  0.0796
 9524SOL    HW140208   3.224   3.020   9.135 -0.9899  0.5385 -2.3320
 9524SOL    HW240209   3.128   2.926   9.074 -0.4993  0.5646  1.1983
 9525SOL     OW40210   3.155   0.041  12.334 -0.4885 -0.0068 -0.0687
 9525SOL    HW140211   3.167   0.035  12.239  0.0677 -1.7394  0.1038
 9525SOL    HW240212   3.247   0.025  12.356  0.0034  1.2611 -1.1607
 9526SOL     OW40213   1.300   0.276   2.295  0.2615 -0.0739  0.8547
 9526SOL    HW140214   1.327   0.218   2.223 -1.1819  1.2762 -0.7750
 9526SOL    HW240215   1.229   0.226   2.335 -2.7261  3.0779 -0.4599
 9527SOL     OW40216   1.897   3.927   4.271  0.1441 -0.0200  0.0582
 9527SOL    HW140217   1.862   3.969   4.193  1.1869 -1.4567 -1.1746
 9527SOL    HW240218   1.914   3.997   4.335 -0.4917 -0.1879  0.4078
 9528SOL     OW40219   4.335   2.907   7.950 -0.0054 -0.5123  0.0074
 9528SOL    HW140220   4.344   2.851   8.027  3.4681  0.7046  0.5154
 9528SOL    HW240221   4.361   2.992   7.987 -0.3570  0.0374 -1.0146
 9529SOL     OW40222   2.007   0.647  10.322  0.0429  0.7215 -0.1298
 9529SOL    HW140223   2.006   0.647  10.418 -0.8947 -0.0514 -0.1414
 9529SOL    HW240224   2.020   0.553  10.304 -1.6969  0.1007  1.8646
 9530SOL     OW40225   1.214   0.117   7.873  1.1334  0.4710  0.1846
 9530SOL    HW140226   1.150   0.183   7.846 -1.2489 -0.9412  2.4650
 9530SOL    HW240227   1.300   0.138   7.835  0.8252 -2.7651 -2.2875
 9531SOL     OW40228   1.487   4.715   5.779  0.1490 -0.5685 -0.0872
 9531SOL    HW140229   1.404   0.018   5.754 -0.8829 -1.3578  2.0565
 9531SOL    HW240230   1.480   4.714   5.874  2.9708  0.0767  0.1345
 9532SOL     OW40231   4.317   1.637   5.638  0.7292 -0.0593  0.2677
 9532SOL    HW140232   4.344   1.633   5.547  0.8800 -0.2089  0.3192
 9532SOL    HW240233   4.325   1.732   5.643  1.4482 -0.2596  2.9629
 9533SOL     OW40234   0.680   2.904   5.782  0.3335  0.4854 -0.5290
 9533SOL    HW140235   0.615   2.834   5.777  0.0837  0.6332  0.7229
 9533SOL    HW240236   0.671   2.919   5.876  2.7538  1.1480 -0.3975
 9534SOL     OW40237   0.301   3.979   5.521 -0.3060 -0.0107 -0.6308
 9534SOL    HW140238   0.249   3.921   5.466 -1.1119  1.1997 -1.1313
 9534SOL    HW240239   0.389   3.962   5.488  0.6473  0.3476  1.6759
 9535SOL     OW40240   3.749   2.736   8.097 -0.5852 -0.4690 -0.3314
 9535SOL    HW140241   3.676   2.676   8.109  0.0123 -1.1473 -0.0245
 9535SOL    HW240242   3.700   2.805   8.052  0.3209 -0.8462 -1.9047
 9536SOL     OW40243   3.862   4.606   7.048 -0.0878 -0.8997 -0.0010
 9536SOL    HW140244   3.779   4.593   7.094 -0.8750 -0.0218 -1.1818
 9536SOL    HW240245   3.853   4.559   6.966  0.3805 -1.9075  0.5249
 9537SOL     OW40246   2.656   0.825   7.018  0.1286 -0.0873  0.4555
 9537SOL    HW140247   2.569   0.849   6.986  0.6050 -0.9245 -1.4350
 9537SOL    HW240248   2.674   0.744   6.971 -1.5990 -1.6093  2.4124
 9538SOL     OW40249   2.140   1.777   4.842  0.7012 -0.2751 -0.6744
 9538SOL    HW140250   2.217   1.818   4.801 -0.0786  1.5896 -0.2698
 9538SOL    HW240251   2.071   1.779   4.775  1.4689 -3.3606 -1.5651
 9539SOL     OW40252   2.528   1.873   0.484  0.4645  0.1611 -0.2737
 9539SOL    HW140253   2.599   1.865   0.421  1.7341 -0.6609  1.2512
 9539SOL    HW240254   2.472   1.930   0.431 -0.3772 -0.8717 -0.4917
 9540SOL     OW40255   4.436   1.910   2.390  0.1443  0.1695 -0.2085
 9540SOL    HW140256   4.343   1.911   2.369  0.2263 -0.5430 -0.6272
 9540SOL    HW240257   4.442   2.003   2.411 -0.4168  0.3577 -0.8922
 9541SOL     OW40258   2.129   2.013   1.306 -0.1056 -0.5505 -0.3533
 9541SOL    HW140259   2.190   2.013   1.380  0.0846  0.1073 -0.5154
 9541SOL    HW240260   2.183   2.066   1.248  0.0812  0.4127  0.7040
 9542SOL     OW40261   3.585   1.237   9.843 -0.0102  0.1603 -0.2145
 9542SOL    HW140262   3.548   1.210   9.759  2.1908 -0.6182 -0.9446
 9542SOL    HW240263   3.587   1.151   9.884 -0.2347  0.3633  0.2284
 9543SOL     OW40264   3.369   4.448  10.952  0.0909  0.4894 -0.6898
 9543SOL    HW140265   3.277   4.447  10.975 -0.0550  3.0480 -1.1314
 9543SOL    HW240266   3.379   4.542  10.932  0.4699  0.3094 -1.3632
 9544SOL     OW40267   4.633   0.620   4.613  0.0347 -0.1743 -0.1944
 9544SOL    HW140268   4.650   0.713   4.597  1.1587  0.4021  4.3537
 9544SOL    HW240269   4.672   0.574   4.539 -0.0557  0.3944 -0.5998
 9545SOL     OW40270   0.386   4.479  12.405 -0.1313 -0.3840  0.1727
 9545SOL    HW140271   0.481   4.485  12.397 -0.0204 -0.1968  1.6139
 9545SOL    HW240272   0.374   4.417  12.477 -0.5841 -1.6024 -0.9352
 9546SOL     OW40273   0.571   0.936   3.267  0.2224 -0.3748  0.1005
 9546SOL    HW140274   0.615   0.918   3.184 -1.3312 -4.3765  0.1331
 9546SOL    HW240275   0.641   0.984   3.313 -0.3070  0.4924 -0.0090
 9547SOL     OW40276   4.427   1.729   9.883 -0.3165 -0.0084  0.0039
 9547SOL    HW140277   4.370   1.748   9.808 -1.3266 -1.0764  0.5231
 9547SOL    HW240278   4.384   1.777   9.954  0.6553  0.8936 -0.0125
 9548SOL     OW40279   3.858   4.468   4.348 -0.5590  1.1501  0.2715
 9548SOL    HW140280   3.841   4.558   4.319 -0.4765  1.7624  2.1661
 9548SOL    HW240281   3.809   4.455   4.428 -0.0704 -0.7516  0.2649
 9549SOL     OW40282   3.352   0.840   2.166 -0.0533  0.5158 -0.2357
 9549SOL    HW140283   3.372   0.859   2.075  2.4949 -0.3291  0.1649
 9549SOL    HW240284   3.256   0.847   2.170 -0.0909  1.1630 -2.2851
 9550SOL     OW40285   1.760   2.079   4.699 -0.3426  0.9518 -0.2932
 9550SOL    HW140286   1.758   2.123   4.614 -1.7903  2.0026  0.2883
 9550SOL    HW240287   1.747   1.987   4.679 -1.3522  0.8623  0.7539
 9551SOL     OW40288   0.578   3.691   4.393 -0.6518 -0.0565 -0.5356
 9551SOL    HW140289   0.590   3.676   4.299  2.5024 -1.3309  0.0868
 9551SOL    HW240290   0.621   3.613   4.427  1.0048  0.0639 -2.3172
 9552SOL     OW40291   0.757   2.168   9.578  0.1815 -0.1426 -0.1318
 9552SOL    HW140292   0.804   2.134   9.502  2.9039  1.2841  0.9131
 9552SOL    HW240293   0.689   2.219   9.536  1.5409  0.5995 -1.4451
 9553SOL     OW40294   3.000   2.649   2.634  0.5240 -0.3238 -0.2664
 9553SOL    HW140295   2.922   2.596   2.617  0.2747 -0.3503  1.0331
 9553SOL    HW240296   3.056   2.628   2.559 -0.7989  0.3982 -1.4690
 9554SOL     OW40297   1.094   0.563   2.210  0.2542  0.2971  0.5878
 9554SOL    HW140298   1.090   0.585   2.303  1.4123 -0.8447  0.8888
 9554SOL    HW240299   0.999   0.549   2.205  0.7348 -2.6364  0.2103
 9555SOL     OW40300   4.353   3.168   2.122  0.2359  0.2773 -0.1274
 9555SOL    HW140301   4.403   3.087   2.127  0.6647  0.6068  1.0984
 9555SOL    HW240302   4.407   3.232   2.076  2.8435 -1.3829  0.6172
 9556SOL     OW40303   1.777   3.088   8.280  0.4959 -0.4140 -0.8561
 9556SOL    HW140304   1.684   3.067   8.269  0.9707 -2.5771 -0.6337
 9556SOL    HW240305   1.784   3.089   8.375  2.2112 -0.1684 -0.9864
 9557SOL     OW40306   2.400   2.638  13.368  0.2921 -0.5309  0.4329
 9557SOL    HW140307   2.306   2.623  13.358  0.4317 -0.4539 -1.0361
 9557SOL    HW240308   2.423   2.658  13.277 -0.5426  0.7414  0.5076
 9558SOL     OW40309   1.825   2.883  14.346 -0.2237 -0.3477 -0.2331
 9558SOL    HW140310   1.837   2.906  14.439 -1.3068 -1.5377  0.1954
 9558SOL    HW240311   1.884   2.808  14.341 -2.2736 -2.1120  1.7079
 9559SOL     OW40312   4.204   4.017   7.564  0.4742 -0.5588 -0.3773
 9559SOL    HW140313   4.246   4.033   7.479 -2.1265 -0.9349 -1.7491
 9559SOL    HW240314   4.237   4.088   7.619 -2.2581  2.1432 -2.2462
 9560SOL     OW40315   0.657   0.884   9.987  0.7133 -0.0941 -0.0918
 9560SOL    HW140316   0.728   0.936  10.024  1.0039 -3.3635  3.9074
 9560SOL    HW240317   0.662   0.805  10.040 -3.3803  0.3069  0.8381
 9561SOL     OW40318   3.408   0.148  12.424  0.1674  0.2973 -0.1097
 9561SOL    HW140319   3.483   0.198  12.392  0.5615  2.8370  4.7842
 9561SOL    HW240320   3.346   0.219  12.441 -0.2204  0.5790 -2.7590
 9562SOL     OW40321   0.794   1.166   6.045  0.0785 -0.2982  0.4185
 9562SOL    HW140322   0.776   1.135   5.957 -0.4217  1.8880 -0.2331
 9562SOL    HW240323   0.790   1.086   6.097  1.4754 -0.3935  0.3991
 9563SOL     OW40324   2.027   0.631   4.628 -0.0204 -0.4452 -0.0238
 9563SOL    HW140325   1.955   0.645   4.566 -0.6819  1.4953  1.1921
 9563SOL    HW240326   2.027   0.545   4.670  0.4750  0.3437  1.6005
 9564SOL     OW40327   3.434   3.774   3.312  0.4071 -0.1062  0.2270
 9564SOL    HW140328   3.511   3.763   3.257 -0.6312 -1.5239 -0.9493
 9564SOL    HW240329   3.378   3.706   3.273 -2.4789  3.1934 -1.3888
 9565SOL     OW40330   0.440   1.454   8.995  0.1924  0.1780  0.0614
 9565SOL    HW140331   0.519   1.448   8.941 -0.6713  2.6897 -1.4592
 9565SOL    HW240332   0.405   1.368   8.972  1.7710 -0.0245 -1.6457
 9566SOL     OW40333   2.704   2.711  15.367 -0.0337  0.3130  0.2004
 9566SOL    HW140334   2.797   2.714  15.386  0.4417 -2.6800 -1.6409
 9566SOL    HW240335   2.689   2.800  15.335 -1.1582  0.2892  0.6629
 9567SOL     OW40336   4.088   1.260   3.262 -0.3825  0.2917 -0.2079
 9567SOL    HW140337   4.169   1.267   3.313  0.6477 -1.9715 -1.5292
 9567SOL    HW240338   4.102   1.331   3.200  0.4281  0.7376  0.4732
 9568SOL     OW40339   2.791   1.788   3.367  0.2743  0.1394  0.4687
 9568SOL    HW140340   2.709   1.785   3.417  1.0897  3.4261  1.9811
 9568SOL    HW240341   2.749   1.795   3.281  0.2948  2.6930  0.6815
 9569SOL     OW40342   4.621   0.808   9.716  0.1557  0.0970  0.0392
 9569SOL    HW140343   4.664   0.872   9.658  1.0487 -0.3298  0.2248
 9569SOL    HW240344   4.694   0.787   9.774 -1.4865  0.0808  2.0618
   4.73848   4.73848  17.75193
