Membrane in water
40344
    1TMC1    C1    1   4.366   2.809  11.329 -0.4063  0.2052 -0.3889
    1TMC1    C2    2   4.326   2.935  11.284 -0.3939 -0.8231 -0.4444
    1TMC1    C3    3   4.387   2.989  11.172 -0.0516 -0.1812 -0.2151
    1TMC1    C4    4   4.462   2.747  11.263 -0.2458 -0.1786 -0.5582
    1TMC1    C5    5   4.516   2.805  11.151  0.0081 -0.2504 -0.1356
    1TMC1    C6    6   4.479   2.926  11.098 -0.1862  0.1436  0.7577
    1TMC1     C    7   4.284   2.743  11.431  0.2769  0.3349  0.2583
    1TMC1     O    8   4.201   2.809  11.497 -0.5378  0.3260  0.4883
    1TMC1     H    9   4.256   2.994  11.343 -1.2736 -2.0310 -0.2639
    1TMC1    H1   10   4.507   2.653  11.293 -0.4033 -0.1453 -0.2155
    1TMC1    H2   11   4.528   2.968  11.011  0.0012  1.9494  1.7422
    1TMC1    C7   12   4.645   2.753  11.119  0.8435 -0.1327  0.4452
    1TMC1    C8   13   4.369   3.129  11.163  0.4209  0.6424 -0.7522
    1TMC1    O1   14   4.671   2.635  11.117 -0.7138 -0.2871  0.7656
    1TMC1    O2   15   4.408   3.214  11.242  0.1905  0.3871 -0.3409
    1TMC1    O3   16   4.729   2.851  11.106  0.1882  0.6165 -0.1893
    1TMC1    H3   17   4.692   2.934  11.143  0.9822  0.5271  0.8313
    1TMC1    O5   18   4.363   3.148  11.025  0.1701 -0.4564  0.0529
    1TMC1    H5   19   4.317   3.064  11.002 -0.5596 -0.4957  1.6439
    2MPD2     C   20   4.094   2.304  11.630 -0.1588 -0.2208 -0.0651
    2MPD2    C1   21   4.067   2.439  11.665  0.0008  0.1724 -0.0168
    2MPD2    C2   22   4.128   2.535  11.595  0.3638 -0.1960 -0.3430
    2MPD2    C3   23   4.217   2.507  11.493 -0.0716 -0.2117 -0.2469
    2MPD2    C4   24   4.250   2.378  11.467 -0.3958 -0.4099 -0.4669
    2MPD2    C5   25   4.189   2.279  11.539 -0.0981  0.0688  0.2565
    2MPD2     H   26   4.113   2.637  11.627  1.9417  0.1964 -0.8831
    2MPD2    H1   27   4.319   2.347  11.390 -1.2000 -0.4375 -1.1824
    2MPD2    H2   28   4.046   2.220  11.679  0.1062  1.1049  2.4378
    2MPD2    H3   29   4.209   2.174  11.517 -1.1404 -0.5191  2.1256
    2MPD2     N   30   4.286   2.604  11.414 -0.2650 -0.2977  0.0333
    2MPD2    H5   31   4.340   2.564  11.338 -1.7077 -1.1416 -0.5297
    2MPD2    N1   32   3.967   2.471  11.754  0.6625  0.3250  0.3208
    2MPD2    H7   33   3.948   2.570  11.755  1.4714  0.4496  1.8665
    3TMC1    C1   34   3.545   4.290  10.435 -1.3260 -0.0664 -0.4076
    3TMC1    C2   35   3.583   4.395  10.513  0.0994  0.9020 -0.2930
    3TMC1    C3   36   3.692   4.478  10.476 -0.5335 -0.2985  0.1053
    3TMC1    C4   37   3.598   4.275  10.305  0.1284  0.0519 -0.2130
    3TMC1    C5   38   3.696   4.360  10.268 -0.1722  0.1965  0.6039
    3TMC1    C6   39   3.747   4.464  10.354 -0.6865  0.2019  0.5414
    3TMC1     C   40   3.482   4.173  10.497 -0.9926 -0.2773 -0.3858
    3TMC1     O   41   3.524   4.065  10.450 -0.0260 -0.0930 -0.4401
    3TMC1     H   42   3.549   4.402  10.616  0.6743  2.1853 -0.2038
    3TMC1    H1   43   3.567   4.200  10.234 -1.4981  0.5474 -0.0444
    3TMC1    H2   44   3.828   4.528  10.321 -0.9320  1.6797  2.8614
    3TMC1    C7   45   3.769   4.324  10.153  0.1231 -0.0717 -0.7137
    3TMC1    C8   46   3.719   4.600  10.550  0.2282 -0.4018 -0.2172
    3TMC1    O1   47   3.763   4.211  10.104 -0.0782  0.2462 -0.2739
    3TMC1    O2   48   3.635   4.653  10.622  0.4062  0.5597  0.0383
    3TMC1    O3   49   3.790   4.444  10.094 -0.1530  0.0575  0.5398
    3TMC1    H3   50   3.769   4.522  10.150  2.2297  1.1713 -0.0992
    3TMC1    O5   51   3.848   4.571  10.592  0.7213  0.2610 -0.0966
    3TMC1    H5   52   3.889   4.499  10.539  0.0734 -0.0111 -0.2263
    4MPD2     C   53   3.163   3.928  10.815  0.0448 -0.5839 -0.0998
    4MPD2    C1   54   3.144   4.064  10.826 -0.1377  0.0458  0.3247
    4MPD2    C2   55   3.218   4.148  10.751  0.0521  0.6241 -0.4637
    4MPD2    C3   56   3.323   4.106  10.673 -0.4029 -0.1718 -0.3208
    4MPD2    C4   57   3.339   3.968  10.652  0.3121 -0.1955 -0.4270
    4MPD2    C5   58   3.258   3.884  10.726  0.6031  0.7040 -0.1303
    4MPD2     H   59   3.199   4.254  10.760 -3.1229  0.0986 -0.8699
    4MPD2    H1   60   3.427   3.938  10.596  1.1485  1.7988 -0.1768
    4MPD2    H2   61   3.104   3.856  10.872  1.6268  0.3023  2.6777
    4MPD2    H3   62   3.270   3.778  10.706 -0.7032  0.7962 -1.3716
    4MPD2     N   63   3.394   4.200  10.603  0.0476  0.4057 -0.2100
    4MPD2    H5   64   3.374   4.294  10.634 -1.5376 -0.3803  1.1651
    4MPD2    N1   65   3.058   4.122  10.922  0.1053  1.1313 -0.2988
    4MPD2    H7   66   3.046   4.223  10.913  0.9247  1.0762 -2.0296
    5TCq1    O1   67   4.482   0.475  12.377  0.3882 -0.3206 -0.3520
    5TCq1    C1   68   4.472   0.495  12.246  0.0123  0.7806  0.4742
    5TCq1    O2   69   4.552   0.446  12.165 -0.7956  0.2248  0.5235
    5TCq1    C2   70   4.342   0.549  12.211  0.3950  0.0608 -0.1824
    5TCq1    C3   71   4.274   0.627  12.296  0.1773 -0.3399 -0.1869
    5TCq1    C4   72   4.154   0.682  12.261  0.8894 -0.2239  0.3272
    5TCq1    C5   73   4.102   0.651  12.143  0.4239  0.1623 -0.5853
    5TCq1    C6   74   4.171   0.576  12.055  0.4510  0.0236  0.2414
    5TCq1    C7   75   4.292   0.519  12.090 -0.8163  0.3262  0.2738
    5TCq1    C8   76   4.142   0.595  11.912  0.1532 -0.0992  0.0708
    5TCq1    O4   77   4.135   0.496  11.838 -0.9284  0.1947 -0.2027
    5TCq1    C9   78   4.095   0.787  12.345  0.2075 -1.1439 -0.7612
    5TCq1    O5   79   3.975   0.807  12.322 -0.2311  0.3710  0.0986
    5TCq1    O6   80   4.153   0.815  12.451  0.1284  0.1174  0.6861
    5TCq1    H1   81   4.405   0.497  12.434 -0.7688 -1.3824 -1.5206
    5TCq1    H2   82   4.308   0.653  12.396  3.5958  0.5950 -1.5866
    5TCq1    H3   83   4.006   0.698  12.123  0.2681  0.4028  0.7406
    5TCq1    H4   84   4.350   0.463  12.018 -1.9045 -0.9915  0.4202
    6MPD2     C   85   4.068   0.927  11.763  0.0872  0.4829 -0.2264
    6MPD2    C1   86   4.078   0.788  11.761 -1.1850 -0.1420  0.3080
    6MPD2    C2   87   4.073   0.714  11.643 -0.0825 -0.2971  0.0849
    6MPD2    C3   88   4.024   0.788  11.535 -0.0617  0.2475 -0.7797
    6MPD2    C4   89   4.019   0.927  11.531 -0.0929 -0.4795  0.3024
    6MPD2    C5   90   4.041   0.992  11.645  0.0587 -0.4148  0.4154
    6MPD2     H   91   4.081   0.606  11.644 -0.9337 -0.3569  0.4482
    6MPD2    H1   92   3.998   0.985  11.442  0.8384 -0.6494 -0.0307
    6MPD2    H2   93   4.077   0.974  11.861  1.0757  0.2635 -0.2187
    6MPD2    H3   94   4.040   1.100  11.644 -4.0348 -0.4626  0.4679
    6MPD2     N   95   3.990   0.714  11.424  0.3010 -0.4525 -0.1573
    6MPD2    H5   96   4.011   0.615  11.426 -1.4121 -0.8436 -1.1757
    6MPD2    N1   97   4.107   0.724  11.884  0.4024  0.0530  0.0598
    6MPD2    H7   98   4.095   0.784  11.965 -1.3006  0.6556 -0.6486
    7TCq1    O1   99   0.765   4.520  13.438  0.5146 -0.3071 -0.7081
    7TCq1    C1  100   0.842   4.634  13.423 -0.2097 -0.7023 -0.1029
    7TCq1    O2  101   0.807   4.725  13.351  0.0761 -0.4366 -0.1653
    7TCq1    C2  102   0.908   4.651  13.550 -0.4243 -0.0030  0.2876
    7TCq1    C3  103   0.875   0.024  13.623  0.5818 -0.1957  0.6845
    7TCq1    C4  104   0.910   0.052  13.750 -0.3725 -0.2770 -0.1133
    7TCq1    C5  105   0.978   4.693  13.818 -0.7029  0.1770  0.3294
    7TCq1    C6  106   1.000   4.575  13.746  0.0489 -0.6981  0.3309
    7TCq1    C7  107   0.977   4.551  13.612 -0.1594  0.0274  0.0753
    7TCq1    C8  108   1.043   4.456  13.815  0.8983 -0.0869 -0.2665
    7TCq1    O4  109   1.111   4.373  13.758 -0.8210  0.1483 -0.0773
    7TCq1    C9  110   0.864   0.166  13.823  0.1038 -0.3669 -1.0551
    7TCq1    O5  111   0.875   0.173  13.948 -0.2202 -0.2329 -0.3127
    7TCq1    O6  112   0.788   0.247  13.759  0.9670  0.1250  0.3184
    7TCq1    H1  113   0.771   4.468  13.521  1.4017  1.6157  0.4547
    7TCq1    H2  114   0.811   0.097  13.574 -0.1754 -2.0282 -1.0732
    7TCq1    H3  115   0.995   4.707  13.924 -1.9252  0.5828  0.4723
    7TCq1    H4  116   0.980   4.450  13.572 -0.5010 -0.5682  1.5389
    8MPD2     C  117   1.128   4.214  14.257 -0.7218 -0.8713  0.0283
    8MPD2    C1  118   1.164   4.182  14.129  0.4359  0.3018  0.6753
    8MPD2    C2  119   1.127   4.269  14.026  0.7073  0.7587  0.3255
    8MPD2    C3  120   1.042   4.375  14.052  0.2837  0.0297 -0.1037
    8MPD2    C4  121   1.003   4.408  14.180 -0.3155  0.6093 -0.0794
    8MPD2    C5  122   1.042   4.322  14.282 -0.4810  0.2111 -0.3588
    8MPD2     H  123   1.163   4.249  13.926  1.4344 -0.1217  0.7638
    8MPD2    H1  124   0.954   4.502  14.201  0.2315  0.7740  0.4611
    8MPD2    H2  125   1.154   4.151  14.341 -0.1530 -1.3124 -0.4742
    8MPD2    H3  126   1.022   4.346  14.386  1.5217  1.0031 -0.1523
    8MPD2     N  127   0.991   4.457  13.955 -0.4022  0.1788 -0.2636
    8MPD2    H5  128   0.925   4.529  13.982  1.2120  0.9955  1.5265
    8MPD2    N1  129   1.263   4.074  14.114  0.5290  0.7247  0.2014
    8MPD2    H7  130   1.310   4.039  14.198 -3.0083 -0.8550  1.5033
    9TMC1    C1  131   4.309   3.532  11.095 -0.0008  0.4680  0.1370
    9TMC1    C2  132   4.402   3.569  11.006  0.1838 -0.2072 -0.0426
    9TMC1    C3  133   4.406   3.512  10.881 -0.4359  0.3184 -0.7646
    9TMC1    C4  134   4.211   3.444  11.055  0.6259  0.5747  0.4593
    9TMC1    C5  135   4.222   3.381  10.932 -0.2769 -0.2181  0.6917
    9TMC1    C6  136   4.317   3.415  10.843 -0.4826  0.4468 -0.3015
    9TMC1     C  137   4.347   3.547  11.237  0.2349  0.7064  0.1381
    9TMC1     O  138   4.466   3.553  11.264 -0.1780 -0.0421  0.6332
    9TMC1     H  139   4.478   3.636  11.044  0.5576 -1.4578  1.4272
    9TMC1    H1  140   4.151   3.400  11.134  2.5353 -0.6801  1.2170
    9TMC1    H2  141   4.318   3.380  10.740  2.3532  2.0802 -0.8370
    9TMC1    C7  142   4.105   3.312  10.887  0.1482  0.0702 -0.9927
    9TMC1    C8  143   4.527   3.534  10.806 -0.4435  0.1661  0.6436
    9TMC1    O1  144   4.031   3.249  10.964  0.0374 -0.6409  0.3428
    9TMC1    O2  145   4.637   3.532  10.855  0.3704  0.0733  0.4049
    9TMC1    O3  146   4.087   3.307  10.753 -0.1161 -0.1634  0.3097
    9TMC1    H3  147   4.115   3.387  10.703 -1.0426 -0.4181 -0.5957
    9TMC1    O5  148   4.500   3.508  10.674  0.1627 -0.0552 -1.0386
    9TMC1    H5  149   4.416   3.547  10.641 -1.4550 -1.4367  1.4518
   10MPD2     C  150   4.352   3.540  11.530  0.2169  0.5693  0.2439
   10MPD2    C1  151   4.231   3.553  11.457  0.2367  0.2898 -0.3483
   10MPD2    C2  152   4.113   3.580  11.521  0.8573  0.3296  0.4466
   10MPD2    C3  153   4.116   3.569  11.661 -0.3347 -0.2343  0.1615
   10MPD2    C4  154   4.235   3.559  11.732 -0.6060  0.2206 -0.6941
   10MPD2    C5  155   4.349   3.539  11.666 -0.5845  0.6084 -0.0742
   10MPD2     H  156   4.023   3.602  11.465 -0.9326 -0.5776  2.9655
   10MPD2    H1  157   4.241   3.559  11.841 -2.7327 -4.4386 -0.5743
   10MPD2    H2  158   4.443   3.513  11.479  0.3599  2.6301 -0.5975
   10MPD2    H3  159   4.448   3.533  11.710 -0.6125  0.1050 -0.0758
   10MPD2     N  160   3.995   3.571  11.739 -0.0828  0.5525 -0.7292
   10MPD2    H5  161   4.006   3.578  11.839  0.1012 -2.0515 -0.5711
   10MPD2    N1  162   4.234   3.541  11.320 -0.1168 -0.1343  0.3445
   10MPD2    H7  163   4.148   3.558  11.269 -0.5008 -0.6988  0.7924
   11TCq1    O1  164   0.176   3.662  14.107 -0.7381  0.2754  0.1336
   11TCq1    C1  165   0.137   3.536  14.104 -0.7140 -0.1475 -0.1403
   11TCq1    O2  166   0.198   3.447  14.050 -0.1414  0.2165  0.6277
   11TCq1    C2  167   4.734   3.518  14.137  0.2868  0.2898 -0.7051
   11TCq1    C3  168   4.666   3.611  14.209  0.0376  0.6663  0.5167
   11TCq1    C4  169   4.536   3.586  14.231  0.3698  0.2388 -0.1916
   11TCq1    C5  170   4.477   3.474  14.179 -0.7585  0.0187 -0.6464
   11TCq1    C6  171   4.548   3.374  14.118 -0.2412  0.0874 -0.0892
   11TCq1    C7  172   4.686   3.393  14.096 -0.5195  0.8739  0.3105
   11TCq1    C8  173   4.495   3.251  14.069 -0.1953 -0.4695  0.7955
   11TCq1    O4  174   4.566   3.156  14.043  0.5942 -0.4819 -0.4006
   11TCq1    C9  175   4.457   3.695  14.278  0.6753  0.2407  0.2602
   11TCq1    O5  176   4.340   3.668  14.308  0.1718 -0.1979  0.1412
   11TCq1    O6  177   4.509   3.809  14.301  0.1230  0.5284 -0.1210
   11TCq1    H1  178   0.124   3.726  14.161 -0.6053 -3.0339  4.1999
   11TCq1    H2  179   4.704   3.706  14.246 -0.5783  2.2256 -2.7575
   11TCq1    H3  180   4.373   3.453  14.200 -0.7980  0.0921 -0.7699
   11TCq1    H4  181   0.007   3.323  14.041 -2.2497 -0.1145 -0.3356
   12MPD2     C  182   4.147   3.212  13.961 -0.0888 -1.0044  0.1220
   12MPD2    C1  183   4.267   3.172  14.016  0.4158 -0.8558  0.2496
   12MPD2    C2  184   4.286   3.039  14.038 -0.0552 -0.5634  0.5660
   12MPD2    C3  185   4.186   2.944  14.027 -0.0848 -0.5656  0.7758
   12MPD2    C4  186   4.067   2.983  13.975 -0.5950  0.2658 -0.3793
   12MPD2    C5  187   4.045   3.119  13.952 -0.5048 -0.1025  0.1080
   12MPD2     H  188   4.385   3.012  14.072  0.8624  0.1531 -1.5610
   12MPD2    H1  189   3.985   2.912  13.971 -1.0670  0.8395 -0.9891
   12MPD2    H2  190   4.131   3.315  13.931  1.0908 -0.7732  0.2790
   12MPD2    H3  191   3.949   3.156  13.917 -0.8861  0.4618  1.7264
   12MPD2     N  192   4.203   2.809  14.045 -0.6272  0.0737 -0.5072
   12MPD2    H5  193   4.125   2.751  14.016 -0.6298 -1.1089  1.8888
   12MPD2    N1  194   4.363   3.268  14.039 -0.4951 -0.1178 -0.1552
   12MPD2    H7  195   4.339   3.366  14.026 -1.2115  0.0867  2.6323
   13TCq1    O1  196   4.356   3.938  10.956  0.6857  0.7750 -0.3175
   13TCq1    C1  197   4.230   3.937  11.004  0.5425 -0.1705  0.0811
   13TCq1    O2  198   4.182   4.013  11.087 -0.0455 -0.3312 -0.5110
   13TCq1    C2  199   4.145   3.858  10.907 -0.6745 -0.1114  0.0486
   13TCq1    C3  200   4.201   3.796  10.800  0.0210  0.1995  0.2768
   13TCq1    C4  201   4.126   3.697  10.738  0.6105 -0.1861  0.2559
   13TCq1    C5  202   4.001   3.671  10.776 -0.4163  0.0927 -0.1856
   13TCq1    C6  203   3.943   3.747  10.875  0.3453  0.3761 -0.3908
   13TCq1    C7  204   4.018   3.838  10.951 -0.0043  0.4850 -0.3168
   13TCq1    C8  205   3.815   3.700  10.935  1.1934  0.0947  0.3028
   13TCq1    O4  206   3.787   3.723  11.051 -0.5352 -0.5496  0.3493
   13TCq1    C9  207   4.188   3.619  10.633 -0.0081 -0.2283  0.2844
   13TCq1    O5  208   4.305   3.641  10.592 -0.0964  0.4009 -0.5802
   13TCq1    O6  209   4.134   3.507  10.616  0.5198 -0.2966  0.2716
   13TCq1    H1  210   4.366   3.918  10.860 -2.1626  3.3145 -1.1304
   13TCq1    H2  211   4.301   3.810  10.761  0.0658  1.4682  0.8195
   13TCq1    H3  212   3.943   3.591  10.731 -1.9954  2.0092 -1.5884
   13TCq1    H4  213   3.980   3.878  11.044 -0.9185 -3.5517  1.0437
   14MPD2     C  214   3.581   3.474  10.752  0.4931 -0.8240  0.1905
   14MPD2    C1  215   3.623   3.548  10.863 -0.4086  0.0816 -1.2736
   14MPD2    C2  216   3.543   3.563  10.972  0.3493 -0.1890  0.6496
   14MPD2    C3  217   3.425   3.502  10.984 -0.4193 -0.0129  0.1490
   14MPD2    C4  218   3.388   3.425  10.882  0.3431 -0.9950  0.5392
   14MPD2    C5  219   3.463   3.412  10.765 -0.4555  0.4371 -0.1186
   14MPD2     H  220   3.573   3.623  11.057 -0.7738 -1.1805  1.7602
   14MPD2    H1  221   3.299   3.364  10.884 -0.6754  0.4305 -1.0641
   14MPD2    H2  222   3.643   3.470  10.663  1.2756 -0.0257  0.6976
   14MPD2    H3  223   3.409   3.368  10.682  0.3934  1.3194 -1.1387
   14MPD2     N  224   3.347   3.535  11.097 -0.3344 -0.1019 -0.1996
   14MPD2    H5  225   3.372   3.619  11.147  2.1385 -0.4269 -0.9205
   14MPD2    N1  226   3.742   3.619  10.844  0.2292 -0.0690 -0.6172
   14MPD2    H7  227   3.777   3.622  10.748  1.2990 -2.1223 -0.3050
   15TCq1    O1  228   1.523   2.816   1.026  0.1550 -0.2176  0.1389
   15TCq1    C1  229   1.395   2.843   1.073  0.0437  0.1476  0.5250
   15TCq1    O2  230   1.288   2.802   1.036 -0.7625  0.5591  0.5572
   15TCq1    C2  231   1.423   2.848   1.209 -0.1145  0.7151  0.0860
   15TCq1    C3  232   1.429   2.974   1.268 -0.4559  0.6301  0.7925
   15TCq1    C4  233   1.427   2.969   1.406  0.1534  0.1088  0.4361
   15TCq1    C5  234   1.427   2.845   1.475  0.2220 -0.3176  0.0166
   15TCq1    C6  235   1.431   2.726   1.402 -0.8619 -0.3058  0.2355
   15TCq1    C7  236   1.436   2.733   1.268 -0.1188 -0.2125 -0.2277
   15TCq1    C8  237   1.464   2.599   1.466  0.3157 -0.4080  0.4153
   15TCq1    O4  238   1.503   2.511   1.393 -0.4322 -0.3299 -0.3025
   15TCq1    C9  239   1.418   3.088   1.480 -0.1306  0.3411 -0.6503
   15TCq1    O5  240   1.430   3.200   1.425  0.1748 -0.2692 -0.6250
   15TCq1    O6  241   1.379   3.079   1.599 -0.4226 -0.0496 -0.6866
   15TCq1    H1  242   1.599   2.852   1.077  1.5198 -0.9676 -1.3547
   15TCq1    H2  243   1.426   3.068   1.212  1.6626 -0.6434 -1.4419
   15TCq1    H3  244   1.436   2.846   1.583  0.3076 -0.7400  0.0164
   15TCq1    H4  245   1.434   2.651   1.198 -1.2595  0.2085 -0.6983
   16MPD2     C  246   1.463   2.511   1.824  0.6532  0.1297  0.0728
   16MPD2    C1  247   1.492   2.494   1.691 -0.2059  0.0618  0.0170
   16MPD2    C2  248   1.570   2.388   1.648 -0.2209 -0.5101  0.4026
   16MPD2    C3  249   1.615   2.296   1.740 -0.6623 -0.1044 -0.3373
   16MPD2    C4  250   1.579   2.313   1.870 -0.8437 -0.5617  0.2645
   16MPD2    C5  251   1.510   2.420   1.917  0.0457  0.3508 -0.1598
   16MPD2     H  252   1.600   2.381   1.544  0.9832 -1.4475  0.8169
   16MPD2    H1  253   1.615   2.236   1.937 -0.5436 -0.6577 -0.0094
   16MPD2    H2  254   1.408   2.595   1.865  0.2645  1.4611 -3.1759
   16MPD2    H3  255   1.491   2.429   2.024  1.8604 -2.0340  0.3695
   16MPD2     N  256   1.681   2.184   1.691 -0.2379 -0.1644  0.0461
   16MPD2    H5  257   1.677   2.183   1.589  2.2292 -0.6976 -0.0497
   16MPD2    N1  258   1.441   2.595   1.603 -0.9665  0.2800 -0.5022
   16MPD2    H7  259   1.407   2.680   1.647 -1.2345 -0.1259  0.0854
   17TMC1    C1  260   3.883   1.791  11.228  0.4036  0.6422 -0.6256
   17TMC1    C2  261   3.998   1.720  11.204  0.0836  0.3380 -0.6482
   17TMC1    C3  262   3.981   1.590  11.191 -0.5003  0.0549 -0.0306
   17TMC1    C4  263   3.759   1.735  11.239  0.0778 -0.2018 -0.4074
   17TMC1    C5  264   3.748   1.598  11.222 -0.6206  0.8359  0.2313
   17TMC1    C6  265   3.859   1.524  11.194  0.0650  0.4106 -0.4541
   17TMC1     C  266   3.886   1.941  11.221 -0.6104  0.3738 -0.2206
   17TMC1     O  267   3.791   1.993  11.275  0.0019 -0.0364 -0.5896
   17TMC1     H  268   4.097   1.764  11.208  1.6651 -3.4402  1.5202
   17TMC1    H1  269   3.676   1.801  11.261 -0.6922 -0.7928 -1.5224
   17TMC1    H2  270   3.862   1.421  11.160 -1.6440  0.2836 -0.2032
   17TMC1    C7  271   3.635   1.521  11.253  0.4698  0.1414  0.0200
   17TMC1    C8  272   4.087   1.502  11.149 -0.2281 -0.5821 -0.5761
   17TMC1    O1  273   3.614   1.419  11.190  0.0356  0.1860  0.3130
   17TMC1    O2  274   4.088   1.379  11.167  0.2389 -0.2037  0.6924
   17TMC1    O3  275   3.549   1.574  11.344 -0.2546 -0.2057  0.8492
   17TMC1    H3  276   3.594   1.656  11.373 -0.9959  0.0969  1.1507
   17TMC1    O5  277   4.111   1.547  11.025 -0.5488  0.0822 -0.2571
   17TMC1    H5  278   4.082   1.640  11.013 -0.7682  0.0357 -0.0977
   18MPD2     C  279   3.955   2.229  11.209  0.3194  0.5003  0.3013
   18MPD2    C1  280   4.021   2.132  11.140  0.1286  0.3826  0.4743
   18MPD2    C2  281   4.138   2.169  11.075  0.1780  0.6285 -0.3818
   18MPD2    C3  282   4.171   2.299  11.054 -0.5386  0.0721 -0.6004
   18MPD2    C4  283   4.090   2.397  11.111  0.8921  0.5442  0.2251
   18MPD2    C5  284   3.982   2.360  11.193 -0.1268  0.0627 -0.2841
   18MPD2     H  285   4.202   2.093  11.031  0.0494 -0.9643  2.2205
   18MPD2    H1  286   4.103   2.504  11.108 -1.7795  0.8573 -0.5792
   18MPD2    H2  287   3.867   2.198  11.263 -0.4724  3.0752  0.4775
   18MPD2    H3  288   3.933   2.440  11.247 -0.8044 -1.4868  1.3567
   18MPD2     N  289   4.281   2.350  10.980  0.3235  0.0498 -0.2201
   18MPD2    H5  290   4.287   2.451  10.983 -0.0498  0.0735 -0.2340
   18MPD2    N1  291   3.996   1.994  11.163 -0.6637 -0.1803 -0.2431
   18MPD2    H7  292   4.048   1.925  11.111  0.7387 -0.2603  1.2544
   19TMC2    C1  293   0.702   3.468  13.983 -0.1847 -0.2745 -0.5133
   19TMC2    C2  294   0.647   3.588  14.011 -0.2284  0.3096  0.1143
   19TMC2    C3  295   0.555   3.589  14.107 -0.0058  0.8868 -0.5702
   19TMC2    C4  296   0.678   3.354  14.053 -0.5145 -0.0979  0.0184
   19TMC2    C5  297   0.581   3.360  14.152  0.1296  0.4931 -0.0439
   19TMC2    C6  298   0.518   3.479  14.186 -0.6144  0.1859  1.0329
   19TMC2     C  299   0.824   3.455  13.907 -0.7941  0.3625  0.5776
   19TMC2     O  300   0.830   3.496  13.792 -0.0012  0.0561  0.3881
   19TMC2     H  301   0.681   3.679  13.964  1.6435 -0.1245  0.6169
   19TMC2    H1  302   0.735   3.268  14.020 -0.5438 -0.3441  0.6241
   19TMC2    H2  303   0.444   3.502  14.262 -2.1586 -0.1554 -0.3615
   19TMC2    C7  304   0.529   3.234  14.189  0.3340  0.3469 -0.4589
   19TMC2    C8  305   0.482   3.714  14.123 -0.4250  1.1216 -0.1637
   19TMC2    O1  306   0.591   3.141  14.159 -0.1224 -0.5777 -0.3913
   19TMC2    O2  307   0.461   3.789  14.026 -0.9842 -0.1922  0.8916
   19TMC2    O5  308   0.487   3.761  14.248 -0.2039 -0.1616 -0.1146
   19TMC2    H5  309   0.500   3.691  14.316  0.0643 -0.5657 -0.5799
   20MPD2     C  310   1.110   3.408  13.812 -0.5776 -0.9845 -0.4311
   20MPD2    C1  311   1.064   3.407  13.946 -0.5119  1.1736 -0.4159
   20MPD2    C2  312   1.159   3.372  14.038 -0.8706  0.4771  0.1317
   20MPD2    C3  313   1.294   3.351  14.013  0.1647 -0.2386 -1.1302
   20MPD2    C4  314   1.343   3.376  13.883  0.0958  0.1377  0.1173
   20MPD2    C5  315   1.247   3.399  13.786 -0.5166  0.3573  0.1914
   20MPD2     H  316   1.113   3.350  14.134 -1.0210 -0.4050 -0.1497
   20MPD2    H1  317   1.447   3.359  13.859 -0.8966 -0.3788 -3.9976
   20MPD2    H2  318   1.044   3.434  13.731 -1.2701  0.0665  0.4635
   20MPD2    H3  319   1.276   3.404  13.682 -3.4545  2.5781 -0.5240
   20MPD2     N  320   1.387   3.302  14.105  1.2326 -0.3931  0.4702
   20MPD2    H5  321   1.482   3.291  14.070  0.6107  1.3450 -1.7749
   20MPD2    N1  322   0.931   3.426  13.990 -0.5491  0.4981  0.2478
   20MPD2    H7  323   0.912   3.420  14.089 -1.5227 -0.2693  0.0068
   21TMC2    C1  324   2.956   3.197  15.090 -0.0339 -0.0026  0.5930
   21TMC2    C2  325   2.997   3.100  15.171 -0.3530  0.2497 -0.1133
   21TMC2    C3  326   3.006   3.123  15.303 -0.3502  0.0272 -0.0350
   21TMC2    C4  327   2.951   3.327  15.137  0.0243  0.4106  0.6503
   21TMC2    C5  328   2.981   3.350  15.266 -0.6509 -0.4828  0.4320
   21TMC2    C6  329   2.997   3.245  15.351  0.2254 -0.4696  1.0492
   21TMC2     C  330   3.011   3.179  14.955 -1.1505  0.9716 -0.2445
   21TMC2     O  331   3.128   3.134  14.947  0.4284 -0.7502 -0.2000
   21TMC2     H  332   3.014   3.001  15.129 -3.5409  0.1982 -1.2934
   21TMC2    H1  333   2.941   3.410  15.068 -1.8125 -2.3553 -2.4071
   21TMC2    H2  334   3.015   3.260  15.456 -0.4650  0.0909  1.0935
   21TMC2    C7  335   2.992   3.480  15.325  0.2566  0.1974  0.0569
   21TMC2    C8  336   3.022   3.011  15.397  0.7706  0.0962 -0.0573
   21TMC2    O1  337   3.049   3.497  15.433 -0.0515  0.4114 -0.6896
   21TMC2    O2  338   2.965   3.009  15.506 -0.0761 -0.5844  0.0294
   21TMC2    O5  339   3.110   2.920  15.350 -0.1993  0.2999  0.2285
   21TMC2    H5  340   3.150   2.939  15.263 -3.0593 -1.5765 -1.5046
   22MPD2     C  341   3.007   3.306  14.466  0.8105  0.2571 -0.1603
   22MPD2    C1  342   3.111   3.247  14.538 -0.1664  0.6471 -0.2424
   22MPD2    C2  343   3.077   3.220  14.668 -0.2721  0.2355  0.3050
   22MPD2    C3  344   2.956   3.248  14.725  0.0072 -0.0875  0.1693
   22MPD2    C4  345   2.862   3.328  14.653  0.0421  0.7209  0.2637
   22MPD2    C5  346   2.899   3.355  14.522 -1.0464 -0.5104  0.0556
   22MPD2     H  347   3.156   3.177  14.729 -1.8800 -1.1306  1.4379
   22MPD2    H1  348   2.766   3.365  14.688 -0.7576  0.3761 -1.5538
   22MPD2    H2  349   3.024   3.336  14.363  0.9272  3.3994  0.7616
   22MPD2    H3  350   2.824   3.404  14.461  0.2380 -0.9544 -1.8996
   22MPD2     N  351   2.925   3.230  14.861 -0.0074  0.0536 -0.8982
   22MPD2    H5  352   2.832   3.254  14.893  0.2896 -1.6722  1.2917
   22MPD2    N1  353   3.237   3.202  14.486 -0.5437 -0.5591 -0.0037
   22MPD2    H7  354   3.303   3.151  14.543  0.2051 -1.0874 -1.3319
   23TMC2    C1  355   4.217   0.376  14.973  0.3035 -0.2407 -0.7010
   23TMC2    C2  356   4.161   0.499  14.946  0.2620  0.6261  0.3425
   23TMC2    C3  357   4.037   0.495  14.887  0.3821 -0.0347  0.1978
   23TMC2    C4  358   4.147   0.266  14.935  0.1749 -0.2431 -0.1974
   23TMC2    C5  359   4.028   0.265  14.874 -0.0001  0.0751  0.3758
   23TMC2    C6  360   3.970   0.382  14.842  0.1099  0.5909 -0.4950
   23TMC2     C  361   4.328   0.357  15.069  0.2374 -0.6727 -1.0131
   23TMC2     O  362   4.344   0.244  15.113  0.6758 -0.2810  0.2411
   23TMC2     H  363   4.210   0.591  14.979 -0.5440  0.7524  1.1748
   23TMC2    H1  364   4.185   0.168  14.962 -0.4825 -0.3971  0.1483
   23TMC2    H2  365   3.885   0.399  14.777  0.1111 -1.3418 -0.9962
   23TMC2    C7  366   3.972   0.139  14.825 -0.0138  0.3798 -0.2321
   23TMC2    C8  367   3.985   0.631  14.855  0.4549 -0.1728 -0.8198
   23TMC2    O1  368   4.049   0.043  14.809 -0.8285  0.0853 -0.3465
   23TMC2    O2  369   3.864   0.651  14.857  0.4180 -0.3874  0.5588
   23TMC2    O5  370   4.060   0.681  14.758 -0.3769  0.3510 -0.1451
   23TMC2    H5  371   4.153   0.652  14.755 -0.8234 -0.9671 -1.3243
   24MPD2     C  372   4.676   0.517  15.414  0.6652 -0.4156  0.3648
   24MPD2    C1  373   4.645   0.388  15.370  0.3492  0.1381 -0.0959
   24MPD2    C2  374   4.558   0.372  15.268  0.4125 -0.5216  0.5765
   24MPD2    C3  375   4.485   0.483  15.221  0.0395  0.5441 -0.5876
   24MPD2    C4  376   4.513   0.605  15.263  0.0318 -0.6824  0.2389
   24MPD2    C5  377   4.602   0.620  15.369 -0.1624  0.2908 -0.0185
   24MPD2     H  378   4.549   0.271  15.229  2.4786 -0.5643  0.1961
   24MPD2    H1  379   4.469   0.691  15.214 -0.1038 -0.7789  0.1888
   24MPD2    H2  380   0.016   0.548  15.481  0.2849  1.1500  0.0834
   24MPD2    H3  381   4.636   0.717  15.402 -0.0807  0.0451  0.6196
   24MPD2     N  382   4.395   0.473  15.120  0.0359 -0.2572 -0.1266
   24MPD2    H5  383   4.356   0.557  15.079  1.4774 -0.3104 -1.6010
   24MPD2    N1  384   4.714   0.274  15.420  0.2157  0.3052 -0.4091
   24MPD2    H7  385   4.712   0.199  15.352  0.5944 -0.3527  0.3091
   25TMC2    C1  386   4.000   1.814  11.760  0.3708  0.3758  0.8088
   25TMC2    C2  387   4.111   1.881  11.796  0.2499 -0.2704 -0.2451
   25TMC2    C3  388   4.105   1.971  11.902  0.3389  0.0006 -0.4758
   25TMC2    C4  389   3.879   1.858  11.805 -0.1005 -0.0289  0.2433
   25TMC2    C5  390   3.874   1.939  11.922  0.5183  0.2245 -0.7307
   25TMC2    C6  391   3.986   2.004  11.967  0.8310 -0.0732 -0.2579
   25TMC2     C  392   4.016   1.710  11.657 -0.9850 -0.0589 -0.2202
   25TMC2     O  393   4.133   1.678  11.643  0.0014 -0.6795 -0.1503
   25TMC2     H  394   4.211   1.862  11.760 -0.4865 -1.9085 -1.4198
   25TMC2    H1  395   3.783   1.814  11.780 -0.1557 -0.0469  0.4916
   25TMC2    H2  396   3.984   2.045  12.067 -0.1817  0.7436 -0.6041
   25TMC2    C7  397   3.750   1.992  11.975  0.0836 -0.0695  0.0276
   25TMC2    C8  398   4.217   2.061  11.930 -0.2069 -0.6013  0.7411
   25TMC2    O1  399   3.742   2.013  12.096  0.1115  0.3136  0.2095
   25TMC2    O2  400   4.336   2.030  11.928 -0.3638  0.4366  0.3232
   25TMC2    O5  401   4.165   2.181  11.953 -0.0753  0.0923 -0.3568
   25TMC2    H5  402   4.071   2.175  11.927 -0.0373  1.7124 -0.9036
   26MPD2     C  403   3.887   1.269  11.450 -0.0065  0.1981  0.3858
   26MPD2    C1  404   3.766   1.326  11.501  1.1542  0.1351 -0.2021
   26MPD2    C2  405   3.781   1.454  11.557 -0.3136 -0.3331 -0.3159
   26MPD2    C3  406   3.899   1.520  11.552  0.4431 -0.0519  0.0021
   26MPD2    C4  407   4.009   1.465  11.495  0.6277  0.6395 -0.3379
   26MPD2    C5  408   4.011   1.333  11.451  0.3454  0.1471 -0.0460
   26MPD2     H  409   3.703   1.502  11.616  1.5559 -0.1226  1.9814
   26MPD2    H1  410   4.104   1.513  11.476  0.8166  0.5164  0.3156
   26MPD2    H2  411   3.893   1.168  11.411 -1.1480  1.0483 -2.0103
   26MPD2    H3  412   4.101   1.295  11.405  0.2114 -0.0250 -0.1623
   26MPD2     N  413   3.900   1.646  11.621  0.6092  0.1880 -0.2060
   26MPD2    H5  414   3.812   1.663  11.670  1.1535  0.0589  0.8106
   26MPD2    N1  415   3.638   1.261  11.483 -0.3970 -0.1658 -0.0108
   26MPD2    H7  416   3.636   1.170  11.437  1.7435 -1.5664  2.6943
   27TMC2    C1  417   2.068   3.978  12.380 -0.3179 -0.0697  0.1006
   27TMC2    C2  418   1.963   4.003  12.294  0.5218 -0.0821 -0.2916
   27TMC2    C3  419   1.951   4.128  12.236  0.6489  0.2854 -0.3299
   27TMC2    C4  420   2.155   4.075  12.419 -0.5508 -0.3578  0.1291
   27TMC2    C5  421   2.142   4.198  12.354 -0.1172  0.0326  0.0196
   27TMC2    C6  422   2.042   4.226  12.266 -0.4164  0.2467 -0.2312
   27TMC2     C  423   2.044   3.880  12.481  0.3902 -0.2035  0.4145
   27TMC2     O  424   2.138   3.807  12.509  0.2885  0.1536 -0.6212
   27TMC2     H  425   1.882   3.932  12.277 -2.7005  3.2923  0.8072
   27TMC2    H1  426   2.229   4.049  12.494 -1.6370 -1.2179  0.8802
   27TMC2    H2  427   2.039   4.328  12.227 -0.6360  0.4600  0.3492
   27TMC2    C7  428   2.202   4.312  12.418  0.7549  0.0031  0.6531
   27TMC2    C8  429   1.825   4.168  12.175 -0.1829  0.5962  0.5864
   27TMC2    O1  430   2.215   4.418  12.349  0.1622  0.0589 -0.2457
   27TMC2    O2  431   1.779   4.281  12.176  0.2454 -0.0567 -0.5765
   27TMC2    O5  432   1.789   4.063  12.105 -0.1768 -0.3367  0.3342
   27TMC2    H5  433   1.857   3.992  12.105 -0.3467 -0.5081  2.2337
   28MPD2     C  434   1.839   3.771  12.935 -0.1572 -0.0383  0.2150
   28MPD2    C1  435   1.777   3.883  12.883  0.1068  0.0370 -0.3891
   28MPD2    C2  436   1.813   3.934  12.761 -0.0054 -0.1671  0.9398
   28MPD2    C3  437   1.901   3.863  12.681 -0.0567 -0.9699  0.9857
   28MPD2    C4  438   1.959   3.747  12.734 -0.4624  0.0157 -0.3812
   28MPD2    C5  439   1.933   3.706  12.862  0.2745  0.3323 -0.1831
   28MPD2     H  440   1.758   4.010  12.706 -1.6817 -1.2275  1.1578
   28MPD2    H1  441   2.034   3.697  12.674  0.7045  2.3763 -0.8933
   28MPD2    H2  442   1.814   3.725  13.029  1.9268 -0.9056  0.3478
   28MPD2    H3  443   1.965   3.609  12.897  0.8926  1.2983  1.9379
   28MPD2     N  444   1.931   3.917  12.552  0.2181  0.0816 -0.4373
   28MPD2    H5  445   1.873   3.994  12.519 -0.6032 -1.3230 -2.3488
   28MPD2    N1  446   1.685   3.947  12.965  0.2881  0.0460  0.4636
   28MPD2    H7  447   1.653   3.900  13.049 -3.2369 -1.3912 -1.6846
   29TMC2    C1  448   2.039   1.813  14.457 -0.0930  0.2898 -0.2829
   29TMC2    C2  449   2.086   1.824  14.580 -0.4289  0.2702 -0.7136
   29TMC2    C3  450   2.177   1.920  14.610  1.0126  0.4348  0.1098
   29TMC2    C4  451   2.061   1.906  14.362  0.3190  0.2434 -0.3213
   29TMC2    C5  452   2.142   2.010  14.395 -0.6719  0.0208 -0.2160
   29TMC2    C6  453   2.192   2.024  14.522 -0.5001 -0.1063 -0.1080
   29TMC2     C  454   1.960   1.692  14.434  0.6307 -0.1975  0.0000
   29TMC2     O  455   1.991   1.592  14.495  0.1014 -0.1112  0.4368
   29TMC2     H  456   2.058   1.756  14.660 -1.7876  0.9467 -0.6299
   29TMC2    H1  457   2.018   1.889  14.264  0.8073  0.7120 -0.6168
   29TMC2    H2  458   2.270   2.098  14.535  0.6894 -1.3237 -0.3146
   29TMC2    C7  459   2.183   2.112  14.291 -0.1459 -0.2212 -0.0431
   29TMC2    C8  460   2.204   1.931  14.752  0.2696  0.7026  0.2113
   29TMC2    O1  461   2.152   2.092  14.175 -0.2176  0.5232  0.2200
   29TMC2    O2  462   2.147   1.867  14.839  0.5209 -0.1599  0.3672
   29TMC2    O5  463   2.323   1.987  14.764  0.2413 -0.5509  0.0983
   29TMC2    H5  464   2.385   2.003  14.689 -0.4195  1.9674  0.0944
   30MPD2     C  465   1.605   1.407  14.201  0.2423  0.4710 -0.0723
   30MPD2    C1  466   1.727   1.365  14.258  0.2785 -0.5929  1.0648
   30MPD2    C2  467   1.813   1.467  14.301  0.2680 -0.6078 -0.1110
   30MPD2    C3  468   1.772   1.598  14.304 -0.0396 -0.2406 -0.0706
   30MPD2    C4  469   1.650   1.635  14.259 -0.5310 -0.6469 -0.4410
   30MPD2    C5  470   1.565   1.539  14.208 -0.6273  0.0422 -0.5999
   30MPD2     H  471   1.905   1.433  14.348  1.3453  1.5064 -0.7075
   30MPD2    H1  472   1.611   1.736  14.260  0.8538 -0.1180  0.6740
   30MPD2    H2  473   1.520   1.347  14.170  1.0769 -0.7446 -0.0054
   30MPD2    H3  474   1.469   1.568  14.166 -0.2220 -0.4206 -1.8550
   30MPD2     N  475   1.852   1.703  14.348  0.4508 -0.3064  0.1335
   30MPD2    H5  476   1.830   1.799  14.326  0.6589 -0.7349 -2.0149
   30MPD2    N1  477   1.772   1.234  14.273  0.2082 -0.1772  0.5747
   30MPD2    H7  478   1.862   1.214  14.316  0.9597 -0.6240 -1.1864
   31TMC2    C1  479   4.080   0.930  15.527 -0.6001 -0.3250 -0.5753
   31TMC2    C2  480   3.961   0.995  15.562 -0.0292 -0.3624  0.2647
   31TMC2    C3  481   3.917   0.969  15.692 -1.3191  0.0045 -0.5108
   31TMC2    C4  482   4.138   0.842  15.612 -0.2860  0.4104 -0.4277
   31TMC2    C5  483   4.083   0.823  15.737 -0.0728 -0.3676 -0.3542
   31TMC2    C6  484   3.969   0.879  15.775  0.5733 -0.0040  0.7068
   31TMC2     C  485   4.157   0.997  15.429 -0.0285  1.2673 -0.9562
   31TMC2     O  486   4.103   1.085  15.362  0.2033 -0.0320 -0.3131
   31TMC2     H  487   3.912   1.071  15.502  0.4929 -0.1142  0.1537
   31TMC2    H1  488   4.235   0.801  15.584 -0.2753  0.5715 -0.6219
   31TMC2    H2  489   3.927   0.868  15.875 -1.6563  0.4572 -0.1751
   31TMC2    C7  490   4.152   0.737  15.832 -0.3554 -0.3895  0.1849
   31TMC2    C8  491   3.786   1.019  15.725 -0.2409 -0.7526  0.0486
   31TMC2    O1  492   4.082   0.662  15.895 -0.5454  0.0325 -0.0468
   31TMC2    O2  493   3.683   0.952  15.718  0.2650 -0.4608 -0.5087
   31TMC2    O5  494   3.784   1.148  15.690 -0.0159  0.3062 -0.1425
   31TMC2    H5  495   3.876   1.183  15.683  0.2006  0.0584  1.4434
   32MPD2     C  496   4.594   1.106  15.178 -0.1461 -0.2440 -0.0403
   32MPD2    C1  497   4.465   1.163  15.164  0.2254  0.4087 -0.6301
   32MPD2    C2  498   4.369   1.120  15.253 -0.3373  0.0462  0.1253
   32MPD2    C3  499   4.391   1.013  15.334 -0.3453 -0.4958  0.2428
   32MPD2    C4  500   4.515   0.956  15.347 -0.2169  0.6719 -0.0202
   32MPD2    C5  501   4.620   1.001  15.268 -0.0690  0.8914  0.5867
   32MPD2     H  502   4.280   1.183  15.259 -0.7854 -0.6477  0.7608
   32MPD2    H1  503   4.528   0.883  15.426 -0.8260  1.7329  1.0603
   32MPD2    H2  504   4.674   1.149  15.120  0.9517 -0.3380  1.4010
   32MPD2    H3  505   4.719   0.957  15.270  0.2181  1.5296  0.6100
   32MPD2     N  506   4.295   0.966  15.424 -0.4993 -0.0893 -0.2438
   32MPD2    H5  507   4.322   0.891  15.486 -1.6432 -2.1970 -2.2591
   32MPD2    N1  508   4.452   1.270  15.079  0.1427 -0.4781 -0.1944
   32MPD2    H7  509   4.538   1.296  15.033  0.2896 -0.7389 -0.0657
   33TMC2    C1  510   4.346   3.246  10.478 -0.3499 -0.0166 -0.1969
   33TMC2    C2  511   4.216   3.248  10.444 -0.8504 -0.3035  0.8954
   33TMC2    C3  512   4.180   3.335  10.355  0.4362 -1.4268  0.7086
   33TMC2    C4  513   4.438   3.341  10.436 -0.4990  0.4128  0.4924
   33TMC2    C5  514   4.393   3.433  10.343 -0.6793  0.6205  0.4382
   33TMC2    C6  515   4.262   3.434  10.295 -0.1143 -0.1579 -0.2436
   33TMC2     C  516   4.395   3.153  10.576  0.5563 -0.2505  0.7452
   33TMC2     O  517   4.327   3.054  10.588 -0.0010  0.5547  0.2093
   33TMC2     H  518   4.146   3.185  10.498  0.3638 -2.2363  0.2274
   33TMC2    H1  519   4.545   3.338  10.453 -0.4716  1.1318  0.4522
   33TMC2    H2  520   4.225   3.515  10.233  0.6212 -1.6456 -2.6158
   33TMC2    C7  521   4.480   3.539  10.294  0.2023 -0.6422  0.0354
   33TMC2    C8  522   4.041   3.353  10.345  1.0051  0.6816 -0.1931
   33TMC2    O1  523   4.577   3.575  10.361  0.0316 -0.2479 -0.1306
   33TMC2    O2  524   3.980   3.374  10.239 -0.0416 -0.2658  0.0558
   33TMC2    O5  525   3.999   3.345  10.470 -0.3191  0.6734  0.3365
   33TMC2    H5  526   4.062   3.398  10.524 -0.0586  0.8751 -0.1635
   34MPD2     C  527   0.074   2.976  10.809 -0.8258 -0.1302  0.5699
   34MPD2    C1  528   4.699   2.908  10.770 -0.2258 -0.0106 -0.5536
   34MPD2    C2  529   4.594   2.979  10.721 -0.3923 -0.0866 -0.0852
   34MPD2    C3  530   4.606   3.119  10.705  0.4952  0.1698 -0.1529
   34MPD2    C4  531   4.725   3.179  10.745 -0.2632 -0.3060 -0.6348
   34MPD2    C5  532   0.093   3.113  10.798  0.2027  0.0519  0.2554
   34MPD2     H  533   4.500   2.936  10.691  0.8521 -1.9634 -1.2527
   34MPD2    H1  534   0.002   3.284  10.729  0.1104 -0.1914  0.4575
   34MPD2    H2  535   0.156   2.910  10.835  0.1047  0.8072  0.0143
   34MPD2    H3  536   0.183   3.157  10.840 -0.9631  1.3761  1.3896
   34MPD2     N  537   4.512   3.197  10.639 -0.1962  0.1629 -0.0899
   34MPD2    H5  538   4.540   3.289  10.608  0.5099 -0.5642 -1.6244
   34MPD2    N1  539   4.685   2.768  10.785  0.1881 -0.1361  0.0728
   34MPD2    H7  540   0.029   2.711  10.799  0.8156  0.3787 -1.5033
   35TMC2    C1  541   0.349   4.309  11.801 -0.9010 -0.0459 -0.2888
   35TMC2    C2  542   0.263   4.397  11.746  0.7798 -0.2712 -0.1919
   35TMC2    C3  543   0.127   4.369  11.755 -0.6570 -0.6897 -0.1905
   35TMC2    C4  544   0.308   4.199  11.858 -0.2874 -0.4487  0.2914
   35TMC2    C5  545   0.174   4.170  11.871  0.2823 -0.0067  0.1059
   35TMC2    C6  546   0.081   4.258  11.821  0.1128 -0.0581  0.2279
   35TMC2     C  547   0.488   4.328  11.778  0.1037 -0.1620 -0.5359
   35TMC2     O  548   0.509   4.402  11.684  0.0004 -0.0921  0.2190
   35TMC2     H  549   0.296   4.483  11.689 -0.4013 -0.8855 -1.8151
   35TMC2    H1  550   0.380   4.119  11.871 -2.8170 -2.8348 -0.1730
   35TMC2    H2  551   4.714   4.239  11.829 -0.4413  2.6818 -0.4428
   35TMC2    C7  552   0.124   4.035  11.897  0.8251 -0.1821 -0.1446
   35TMC2    C8  553   0.037   4.457  11.691 -0.2347 -0.4540  0.0977
   35TMC2    O1  554   0.021   3.996  11.844  0.2839 -0.3646  0.6076
   35TMC2    O2  555   0.057   4.573  11.655 -0.0832 -0.0216  0.1448
   35TMC2    O5  556   4.681   4.372  11.645 -0.2212  0.4639 -0.0149
   35TMC2    H5  557   4.687   4.280  11.680 -0.0999  0.7280  0.6598
   36MPD2     C  558   0.962   4.386  11.968 -0.3808  0.2282  0.3596
   36MPD2    C1  559   0.882   4.324  12.062 -0.0598  0.2783  0.3436
   36MPD2    C2  560   0.747   4.302  12.035  0.3916 -0.8818 -0.4592
   36MPD2    C3  561   0.699   4.323  11.908 -0.2081 -0.3897 -0.4623
   36MPD2    C4  562   0.777   4.376  11.801  0.9159 -0.1157  0.5603
   36MPD2    C5  563   0.908   4.405  11.842 -0.2654  0.2550 -0.2513
   36MPD2     H  564   0.681   4.250  12.103  0.1796 -0.6883 -0.5184
   36MPD2    H1  565   0.747   4.381  11.697  2.1122  0.1801  0.2360
   36MPD2    H2  566   1.070   4.389  11.974 -0.4115  4.2020 -1.4768
   36MPD2    H3  567   0.970   4.454  11.767  0.1807  0.5218  0.2946
   36MPD2     N  568   0.564   4.289  11.887  0.1401 -0.0884 -0.1319
   36MPD2    H5  569   0.520   4.238  11.963 -0.6033 -0.4751 -0.8163
   36MPD2    N1  570   0.942   4.303  12.189 -0.3830 -0.0708  0.0543
   36MPD2    H7  571   1.018   4.369  12.204  0.1065 -1.7085  4.7438
   37TMC2    C1  572   2.840   4.150  11.981  0.1759  0.1015  1.0774
   37TMC2    C2  573   2.763   4.039  11.958  0.4926  0.4165 -0.1703
   37TMC2    C3  574   2.818   3.946  11.881  0.2262 -0.1548  0.1755
   37TMC2    C4  575   2.974   4.159  11.944 -0.4863  0.1478  0.5493
   37TMC2    C5  576   3.021   4.058  11.854 -0.3877  0.1029  0.1470
   37TMC2    C6  577   2.941   3.953  11.819  0.4417  0.7968 -0.4161
   37TMC2     C  578   2.792   4.249  12.069  0.1588 -0.5119 -0.4004
   37TMC2     O  579   2.680   4.289  12.040  0.7733  0.4600 -0.2742
   37TMC2     H  580   2.666   4.037  12.005 -0.6746 -0.2326 -2.6118
   37TMC2    H1  581   3.029   4.246  11.977  1.7985 -1.2109  0.3246
   37TMC2    H2  582   2.974   3.872  11.756  0.8896 -0.5267  1.5110
   37TMC2    C7  583   3.165   4.045  11.836  0.4671  0.3303 -0.6001
   37TMC2    C8  584   2.723   3.861  11.815  0.1900 -0.3512  0.5922
   37TMC2    O1  585   3.233   4.107  11.920 -0.5166 -0.0433  0.1704
   37TMC2    O2  586   2.644   3.791  11.874 -0.1531  0.2691 -0.2178
   37TMC2    O5  587   2.764   3.846  11.684  0.1105 -0.0251  0.5226
   37TMC2    H5  588   2.809   3.929  11.659 -1.8279  1.3421  1.6426
   38MPD2     C  589   2.756   4.399  12.551  0.4772 -0.4047 -0.1281
   38MPD2    C1  590   2.886   4.360  12.532  0.1245  0.0972  0.3813
   38MPD2    C2  591   2.922   4.311  12.404  0.1752  0.4997 -0.4067
   38MPD2    C3  592   2.832   4.322  12.296 -0.1289  0.4270 -0.4507
   38MPD2    C4  593   2.704   4.360  12.317 -0.4318 -0.1698 -0.1939
   38MPD2    C5  594   2.666   4.397  12.442 -0.4245  0.2173 -0.2840
   38MPD2     H  595   3.020   4.270  12.384  0.4190  0.6027  0.5999
   38MPD2    H1  596   2.624   4.347  12.244 -0.0516 -1.9491 -0.2797
   38MPD2    H2  597   2.713   4.426  12.646 -0.3043  0.8061 -0.8221
   38MPD2    H3  598   2.561   4.424  12.447 -0.1416  1.3077 -0.2024
   38MPD2     N  599   2.879   4.271  12.170  0.0236  0.4926 -0.2597
   38MPD2    H5  600   2.973   4.234  12.167  0.2257  0.9198  0.6716
   38MPD2    N1  601   2.983   4.368  12.632 -0.1085  0.1417  0.6075
   38MPD2    H7  602   3.076   4.349  12.599  0.2561  1.7288  0.7302
   39TMC2    C1  603   1.661   2.093   2.210  0.4553  0.3994 -0.8579
   39TMC2    C2  604   1.581   2.181   2.279  0.4013  0.0836 -0.0803
   39TMC2    C3  605   1.642   2.283   2.340 -0.6463 -0.1880  0.1189
   39TMC2    C4  606   1.787   2.138   2.171 -0.8472  0.0177  0.3837
   39TMC2    C5  607   1.836   2.253   2.218 -0.3369  0.8719 -0.0563
   39TMC2    C6  608   1.774   2.320   2.314 -0.5410 -0.1392 -0.5073
   39TMC2     C  609   1.582   2.018   2.115  0.5707 -1.0127 -0.2365
   39TMC2     O  610   1.474   2.069   2.089  0.2218 -0.5846  0.4024
   39TMC2     H  611   1.477   2.163   2.307 -0.0181 -0.8540 -2.1841
   39TMC2    H1  612   1.852   2.070   2.116  0.2546  0.2984  1.3236
   39TMC2    H2  613   1.809   2.411   2.361 -1.7366  0.4831 -0.8352
   39TMC2    C7  614   1.954   2.314   2.162  0.2852  0.3871  0.3419
   39TMC2    C8  615   1.575   2.333   2.460  0.6420  0.1078  0.1066
   39TMC2    O1  616   2.020   2.388   2.235 -0.0769  0.1192 -0.6305
   39TMC2    O2  617   1.453   2.323   2.472  0.8493 -0.2740 -0.3701
   39TMC2    O5  618   1.658   2.389   2.549  0.0789  0.4702 -0.2416
   39TMC2    H5  619   1.751   2.366   2.528 -0.1115 -1.3364  0.9661
   40MPD2     C  620   1.707   1.745   1.915  0.2462  0.9102  0.1098
   40MPD2    C1  621   1.614   1.847   1.957  0.2848  0.6624 -0.0326
   40MPD2    C2  622   1.503   1.870   1.878 -0.0180  0.4389  0.5565
   40MPD2    C3  623   1.477   1.800   1.765  0.6658  0.2870 -0.2072
   40MPD2    C4  624   1.571   1.716   1.722 -0.0499 -0.5608 -0.3541
   40MPD2    C5  625   1.679   1.689   1.797 -0.4065  0.2073  0.2766
   40MPD2     H  626   1.433   1.945   1.911  0.7344  1.6555 -0.5815
   40MPD2    H1  627   1.545   1.643   1.646  1.8562 -2.7494  1.0524
   40MPD2    H2  628   1.797   1.714   1.968 -0.3752  0.6660  1.0130
   40MPD2    H3  629   1.746   1.610   1.763  0.4869  1.1213 -0.0849
   40MPD2     N  630   1.365   1.810   1.681  0.7308 -0.0087 -1.0563
   40MPD2    H5  631   1.365   1.744   1.604  1.4100  0.5463 -1.5160
   40MPD2    N1  632   1.658   1.921   2.061  0.9712  0.0295 -0.1367
   40MPD2    H7  633   1.742   1.891   2.110  0.6820 -0.0701  0.2916
   41TMC2    C1  634   0.205   4.694  13.788 -0.1096 -0.2666 -0.0486
   41TMC2    C2  635   0.110   4.610  13.733  0.1724  1.0107 -0.5198
   41TMC2    C3  636   0.074   4.630  13.602 -0.3096 -0.0152 -0.3855
   41TMC2    C4  637   0.247   0.064  13.720  0.3925 -0.8524 -0.3734
   41TMC2    C5  638   0.217   0.076  13.587  0.0304  0.8196  0.2245
   41TMC2    C6  639   0.127   4.733  13.529 -0.3368 -0.2375 -0.3065
   41TMC2     C  640   0.255   4.670  13.927  0.0612 -0.3916 -0.1883
   41TMC2     O  641   0.250   4.555  13.969  0.7054 -0.4880  0.1465
   41TMC2     H  642   0.068   4.528  13.789  3.1261  1.4612  2.3065
   41TMC2    H1  643   0.327   0.124  13.763 -0.3673 -0.4672  0.5070
   41TMC2    H2  644   0.096   0.007  13.426  0.1836  0.2501 -0.3994
   41TMC2    C7  645   0.299   0.166  13.516 -0.3236  0.5522  0.0507
   41TMC2    C8  646   4.700   4.556  13.542 -0.2868  0.3164 -0.9854
   41TMC2    O1  647   0.335   0.278  13.562 -0.5471 -0.6638  0.0396
   41TMC2    O2  648   4.696   4.520  13.421  0.2126 -0.1060  0.2893
   41TMC2    O5  649   4.621   4.519  13.644 -0.3187  0.4598  0.2025
   41TMC2    H5  650   4.637   4.570  13.727 -0.5285  1.4456 -0.3595
   42MPD2     C  651   0.367   4.685  14.197  0.2252  0.3047  0.9163
   42MPD2    C1  652   0.333   0.054  14.123 -0.2425 -0.6973  0.2987
   42MPD2    C2  653   0.333   0.174  14.191  0.3713  0.0288  0.1297
   42MPD2    C3  654   0.376   0.190  14.317 -0.6328 -0.0137 -0.1084
   42MPD2    C4  655   0.407   0.082  14.389 -0.1959  0.5067  0.0002
   42MPD2    C5  656   0.403   4.698  14.329 -0.3027  0.2146 -0.0577
   42MPD2     H  657   0.300   0.259  14.132 -2.3712  0.0695  1.7502
   42MPD2    H1  658   0.437   0.083  14.494  1.0951 -0.1103 -0.3660
   42MPD2    H2  659   0.365   4.584  14.158  0.5298  0.7086 -0.1608
   42MPD2    H3  660   0.442   4.616  14.388  0.6406  1.0120  0.4242
   42MPD2     N  661   0.385   0.315  14.376 -0.6351 -0.5261  0.9896
   42MPD2    H5  662   0.419   0.328  14.471  2.1195  0.3787 -0.1024
   42MPD2    N1  663   0.283   0.046  13.994 -0.5833 -1.0668  0.3920
   42MPD2    H7  664   0.250   0.130  13.947  0.4175 -0.0708  1.4575
   43TMC2    C1  665   1.709   3.079   0.893  0.4897 -0.0741  0.2519
   43TMC2    C2  666   1.574   3.101   0.904  0.0654 -0.3243  0.2101
   43TMC2    C3  667   1.526   3.195   0.984  0.5988 -0.2444 -0.5292
   43TMC2    C4  668   1.790   3.165   0.965  0.1059  0.4123  0.5821
   43TMC2    C5  669   1.738   3.277   1.029  0.2073 -1.0000  0.6795
   43TMC2    C6  670   1.603   3.286   1.057 -0.0222  0.1646 -0.6116
   43TMC2     C  671   1.761   3.017   0.775  0.1560  0.3610  0.2573
   43TMC2     O  672   1.881   3.024   0.751  0.3775 -0.2423  0.6508
   43TMC2     H  673   1.506   3.032   0.857  0.0896 -0.6899  0.7064
   43TMC2    H1  674   1.898   3.164   0.953  0.1006 -2.2733  0.8224
   43TMC2    H2  675   1.560   3.381   1.086 -0.7820 -0.6209  0.9067
   43TMC2    C7  676   1.838   3.374   1.068  0.9033  0.2842  0.0024
   43TMC2    C8  677   1.385   3.230   0.972  0.5395  0.3380  0.2026
   43TMC2    O1  678   1.953   3.368   1.020  0.3056 -0.5330  0.0247
   43TMC2    O2  679   1.318   3.183   0.882  0.4785  0.1200  0.4502
   43TMC2    O5  680   1.335   3.281   1.086  0.2185  0.0416  0.4828
   43TMC2    H5  681   1.405   3.312   1.148 -1.4977  1.8828  1.5017
   44MPD2     C  682   1.691   2.798   0.327  0.8981  0.6224  0.0376
   44MPD2    C1  683   1.815   2.808   0.395  0.2104  0.2349 -0.1113
   44MPD2    C2  684   1.800   2.876   0.515 -0.3697 -0.0112 -0.0776
   44MPD2    C3  685   1.682   2.921   0.564  0.3800 -0.6610 -0.6814
   44MPD2    C4  686   1.567   2.915   0.488  0.2193 -0.8499  0.8536
   44MPD2    C5  687   1.576   2.857   0.369  0.3876  0.0707 -0.0159
   44MPD2     H  688   1.892   2.894   0.568  0.6848  1.3776 -2.3577
   44MPD2    H1  689   1.475   2.963   0.519  0.8613  1.6206 -1.0942
   44MPD2    H2  690   1.690   2.749   0.230  2.2912 -0.2164  0.4405
   44MPD2    H3  691   1.490   2.853   0.303 -0.3264  0.0998  0.9043
   44MPD2     N  692   1.662   2.975   0.696  0.3443 -0.1908  0.1480
   44MPD2    H5  693   1.571   2.978   0.740  0.4140 -0.5681  0.3173
   44MPD2    N1  694   1.942   2.775   0.341  0.3516  0.6974 -0.2395
   44MPD2    H7  695   2.022   2.796   0.401 -0.3725 -1.4605  1.4685
   45TMC2    C1  696   2.976   4.622   9.604 -0.0630  0.1784  0.1447
   45TMC2    C2  697   2.890   4.702   9.535 -0.7152  0.0035  0.2903
   45TMC2    C3  698   2.901   0.093   9.535 -0.1673 -0.3101 -0.0941
   45TMC2    C4  699   3.075   4.681   9.679  0.1032  0.5337 -0.1770
   45TMC2    C5  700   3.085   0.077   9.678  0.2258  0.7311  0.1857
   45TMC2    C6  701   2.999   0.157   9.612  0.6181 -0.5683  0.0787
   45TMC2     C  702   2.927   4.490   9.644  1.1100 -0.3083  0.7496
   45TMC2     O  703   3.001   4.410   9.695  0.2186  0.0306  0.4113
   45TMC2     H  704   2.817   4.659   9.468 -0.3310 -3.4374  2.0960
   45TMC2    H1  705   3.134   4.616   9.743 -0.1318  0.8231  0.3368
   45TMC2    H2  706   3.017   0.264   9.613  0.8542 -0.6093  0.6398
   45TMC2    C7  707   3.163   0.142   9.783  0.4282  0.0310  1.0190
   45TMC2    C8  708   2.822   0.157   9.432  0.2085 -0.0573  0.4699
   45TMC2    O1  709   3.204   0.068   9.871 -0.5537 -0.4210  1.0515
   45TMC2    O2  710   2.773   0.100   9.345 -0.0979  0.5059 -0.3626
   45TMC2    O5  711   2.783   0.270   9.484  0.7506  0.4191 -0.6820
   45TMC2    H5  712   2.818   0.291   9.573 -1.1004 -0.0954  0.1699
   46MPD2     C  713   2.742   4.264   9.718 -0.2926  0.5724  0.0826
   46MPD2    C1  714   2.701   4.376   9.649  0.0890 -0.2340 -0.6268
   46MPD2    C2  715   2.571   4.390   9.602 -0.2544 -0.1419 -0.9339
   46MPD2    C3  716   2.482   4.285   9.626 -0.0581 -0.3689  0.1444
   46MPD2    C4  717   2.518   4.174   9.693 -0.0547 -0.4374  0.0853
   46MPD2    C5  718   2.647   4.166   9.735  0.8311 -0.3105 -0.4515
   46MPD2     H  719   2.548   4.482   9.550  1.0589 -0.2448 -1.6905
   46MPD2    H1  720   2.456   4.088   9.716 -1.3653  1.0365  2.1129
   46MPD2    H2  721   2.843   4.249   9.755  0.1058  2.6536 -0.1450
   46MPD2    H3  722   2.688   4.078   9.785  2.3876  2.4465  3.1519
   46MPD2     N  723   2.353   4.301   9.576  0.2195  0.1983  0.5733
   46MPD2    H5  724   2.337   4.379   9.513  0.1835  0.3369  0.7528
   46MPD2    N1  725   2.790   4.484   9.624 -0.2239 -0.5211 -0.3969
   46MPD2    H7  726   2.745   4.569   9.591 -1.5642 -0.4179  1.6641
   47TMC2    C1  727   4.526   0.946   9.611  0.7799  0.8284  0.8926
   47TMC2    C2  728   4.461   1.026   9.524  0.0420 -0.1806 -0.0029
   47TMC2    C3  729   4.338   0.977   9.474  0.5929  0.3566  0.6161
   47TMC2    C4  730   4.471   0.821   9.653  0.0408 -0.4384 -0.2825
   47TMC2    C5  731   4.357   0.783   9.593 -0.4487  0.4028 -0.3046
   47TMC2    C6  732   4.291   0.853   9.496 -0.4594 -0.9850  0.2322
   47TMC2     C  733   4.666   0.981   9.632  0.0985  0.3964 -0.7115
   47TMC2     O  734   4.696   1.096   9.609 -0.4300 -0.2015 -0.1288
   47TMC2     H  735   4.499   1.122   9.491  1.4535 -0.4943  0.7295
   47TMC2    H1  736   4.507   0.752   9.729 -1.5313 -1.9441 -0.9179
   47TMC2    H2  737   4.190   0.829   9.466 -0.5246 -1.5704  0.9277
   47TMC2    C7  738   4.276   0.680   9.653 -0.3515  0.6814 -0.6559
   47TMC2    C8  739   4.260   1.054   9.376  0.3033 -0.8055 -0.2053
   47TMC2    O1  740   4.205   0.628   9.569 -0.1098 -0.1200  0.1570
   47TMC2    O2  741   4.203   1.003   9.282  0.6893 -0.3555 -0.2366
   47TMC2    O5  742   4.268   1.183   9.405 -0.4658 -0.4758  0.2098
   47TMC2    H5  743   4.307   1.181   9.495 -2.6291  0.4335  1.1491
   48MPD2     C  744   0.180   1.014   9.772 -0.0385  0.2570  0.5587
   48MPD2    C1  745   0.119   0.895   9.760 -0.2486  0.1040 -0.4609
   48MPD2    C2  746   0.192   0.782   9.800 -0.1667 -0.5362  0.2908
   48MPD2    C3  747   0.321   0.784   9.836 -0.9656  0.0593  0.0649
   48MPD2    C4  748   0.383   0.908   9.834 -0.3897  0.4020  0.3828
   48MPD2    C5  749   0.311   1.019   9.811  0.3019 -0.5427 -0.2196
   48MPD2     H  750   0.135   0.690   9.805 -0.8862 -0.1163 -0.0108
   48MPD2    H1  751   0.490   0.916   9.853 -0.6129  0.0918  1.7490
   48MPD2    H2  752   0.140   1.114   9.759 -0.0209  0.3284  1.0237
   48MPD2    H3  753   0.363   1.115   9.813 -0.3304 -0.2757  2.7628
   48MPD2     N  754   0.387   0.666   9.869 -0.3903  0.0446  0.3198
   48MPD2    H5  755   0.340   0.581   9.840  2.3267 -1.0924 -0.7886
   48MPD2    N1  756   4.724   0.884   9.706  0.4199  0.1343  0.4370
   48MPD2    H7  757   4.674   0.798   9.726  0.7464  0.0611  0.9350
   49TMC2    C1  758   3.254   2.306  10.595 -0.1937 -0.2109  0.2342
   49TMC2    C2  759   3.148   2.236  10.656  0.3730 -0.2555 -0.8586
   49TMC2    C3  760   3.162   2.101  10.665  0.2726  0.5045 -0.4890
   49TMC2    C4  761   3.366   2.247  10.542 -0.7295 -0.5195 -0.4164
   49TMC2    C5  762   3.373   2.114  10.553  0.0247  0.5681 -0.4072
   49TMC2    C6  763   3.274   2.038  10.613 -0.4726 -0.0793  0.5928
   49TMC2     C  764   3.265   2.456  10.603 -0.5692 -0.9559  0.7539
   49TMC2     O  765   3.348   2.510  10.532 -0.6450 -0.0755  0.0650
   49TMC2     H  766   3.053   2.283  10.678  0.9533  0.2529  0.5299
   49TMC2    H1  767   3.453   2.305  10.514  0.5851 -3.1569 -1.8182
   49TMC2    H2  768   3.281   1.930  10.607  1.0824  0.0516  0.0257
   49TMC2    C7  769   3.493   2.054  10.496  0.4112  0.5582  0.0549
   49TMC2    C8  770   3.046   2.014  10.669 -0.0523  0.2532  0.5645
   49TMC2    O1  771   3.573   2.128  10.437 -0.2293  0.0756  0.0422
   49TMC2    O2  772   3.031   1.918  10.595 -0.3988 -0.3285  0.1823
   49TMC2    O5  773   2.950   2.072  10.747  0.4361  0.1450 -0.6520
   49TMC2    H5  774   2.967   2.154  10.798  2.4902 -1.3597  1.0787
   50MPD2     C  775   3.176   2.733  10.582 -0.2764 -0.7630  0.1989
   50MPD2    C1  776   3.144   2.650  10.690  0.1423 -0.1269 -1.1240
   50MPD2    C2  777   3.060   2.703  10.787  0.5986  0.1551 -0.7581
   50MPD2    C3  778   3.029   2.842  10.785 -0.0462  0.8653  0.0227
   50MPD2    C4  779   3.092   2.929  10.697  0.1714  0.4648  0.4227
   50MPD2    C5  780   3.158   2.869  10.588 -0.0184 -0.0283 -0.0576
   50MPD2     H  781   3.028   2.638  10.867 -0.8045  0.2527 -1.2494
   50MPD2    H1  782   3.097   3.037  10.704 -0.2210  0.5041  0.1049
   50MPD2    H2  783   3.238   2.697  10.501 -1.0349 -2.0338  0.1875
   50MPD2    H3  784   3.210   2.930  10.515 -0.5165 -0.8658 -1.1119
   50MPD2     N  785   2.955   2.903  10.888  0.1983  0.3733 -0.5833
   50MPD2    H5  786   2.920   2.995  10.863  3.1484  1.7939  0.5651
   50MPD2    N1  787   3.171   2.508  10.683 -0.3228 -0.0391 -0.0630
   50MPD2    H7  788   3.122   2.444  10.745  0.8941  0.1046  1.0627
   51TMC2    C1  789   3.470   1.489   1.003 -0.1873  0.0108 -0.1246
   51TMC2    C2  790   3.378   1.556   1.077  0.0624 -0.2411  0.2879
   51TMC2    C3  791   3.387   1.693   1.090  0.3016  0.1839 -0.1490
   51TMC2    C4  792   3.570   1.559   0.940 -0.2238 -0.4197  0.2411
   51TMC2    C5  793   3.582   1.698   0.957 -0.0578  0.4808 -0.0766
   51TMC2    C6  794   3.485   1.765   1.028  0.1152 -0.3367  0.3823
   51TMC2     C  795   3.469   1.343   1.000 -0.1969  0.1535  1.3722
   51TMC2     O  796   3.540   1.286   0.919  0.1771  0.1190 -0.4539
   51TMC2     H  797   3.287   1.509   1.111 -0.2636 -0.2490 -0.6161
   51TMC2    H1  798   3.650   1.501   0.896 -1.8099 -3.0108  0.7869
   51TMC2    H2  799   3.487   1.873   1.036 -1.9377 -0.5979  4.2005
   51TMC2    C7  800   3.699   1.768   0.918 -0.5041  0.0148  0.3766
   51TMC2    C8  801   3.278   1.760   1.165  0.4135  0.2986  0.0259
   51TMC2    O1  802   3.714   1.875   0.982  0.4394  0.6429 -0.0414
   51TMC2    O2  803   3.175   1.710   1.196 -0.0058  0.1429  0.0978
   51TMC2    O5  804   3.332   1.869   1.223 -0.3979  0.1618  0.1643
   51TMC2    H5  805   3.428   1.889   1.212 -0.2156 -1.3864 -1.1508
   52MPD2     C  806   3.380   0.880   1.192 -0.0430  0.0217  0.5987
   52MPD2    C1  807   3.494   0.939   1.154  0.2384  0.4641  0.4459
   52MPD2    C2  808   3.484   1.074   1.108 -0.1789 -0.1827  0.2677
   52MPD2    C3  809   3.372   1.154   1.115  0.3344 -0.1995 -0.0640
   52MPD2    C4  810   3.261   1.091   1.177 -0.0429 -0.1423 -0.2017
   52MPD2    C5  811   3.266   0.960   1.206 -0.2072 -0.5776 -0.3131
   52MPD2     H  812   3.573   1.111   1.059 -2.2060  0.0420 -3.2458
   52MPD2    H1  813   3.168   1.142   1.199 -0.0622 -0.7138  1.0333
   52MPD2    H2  814   3.366   0.774   1.210  0.3974 -0.1156  0.1148
   52MPD2    H3  815   3.184   0.899   1.242 -0.0212 -0.8701 -0.3851
   52MPD2     N  816   3.360   1.292   1.075 -0.3624 -0.3656  0.5922
   52MPD2    H5  817   3.286   1.350   1.113  1.5406  2.2758  0.2296
   52MPD2    N1  818   3.617   0.870   1.131  0.3232  0.9330  0.4189
   52MPD2    H7  819   3.694   0.928   1.099  0.4544  1.2776  1.3668
   53TMC2    C1  820   3.881   4.115  11.827 -0.0686  0.4665  0.2013
   53TMC2    C2  821   4.023   4.112  11.824  0.6003 -0.0974  0.2786
   53TMC2    C3  822   4.082   4.184  11.920  0.1227  0.0061  1.3813
   53TMC2    C4  823   3.814   4.180  11.926  0.2838  0.2160 -0.1306
   53TMC2    C5  824   3.887   4.250  12.024 -0.0938 -0.5295  0.1539
   53TMC2    C6  825   4.024   4.255  12.018  0.2360 -0.2754  0.0961
   53TMC2     C  826   3.815   4.003  11.761  0.1585  0.4883 -0.1011
   53TMC2     O  827   3.878   3.917  11.706  0.3076  0.3950 -0.3706
   53TMC2     H  828   4.076   4.051  11.751  4.5768  1.2229  2.0382
   53TMC2    H1  829   3.705   4.182  11.928  0.2710 -0.6689  0.1965
   53TMC2    H2  830   4.083   4.302  12.096 -1.9294 -0.5806  1.9240
   53TMC2    C7  831   3.808   4.329  12.117  0.4360 -0.0770 -0.0138
   53TMC2    C8  832   4.226   4.201  11.903 -0.2197 -0.1775  1.1530
   53TMC2    O1  833   3.687   4.307  12.124 -0.1020 -1.3604 -0.1832
   53TMC2    O2  834   4.296   4.258  11.987 -0.2488 -1.1824  0.2615
   53TMC2    O5  835   4.233   4.229  11.772  0.5719  0.1372 -0.7719
   53TMC2    H5  836   4.160   4.201  11.712 -1.1812  1.0916  0.9085
   54MPD2     C  837   3.592   3.834  11.644  0.1183 -0.1258  0.9446
   54MPD2    C1  838   3.572   3.946  11.716 -0.2204 -0.6161 -0.2290
   54MPD2    C2  839   3.446   3.988  11.748 -0.3582 -0.4057  1.1986
   54MPD2    C3  840   3.332   3.919  11.701  0.0001 -0.3482  0.1202
   54MPD2    C4  841   3.354   3.806  11.626  0.0543  0.8112  0.5840
   54MPD2    C5  842   3.485   3.766  11.594  0.6308 -0.1548  0.5821
   54MPD2     H  843   3.428   4.076  11.809 -2.2826 -0.2784  0.4503
   54MPD2    H1  844   3.273   3.740  11.596  1.8984 -1.4296  0.5545
   54MPD2    H2  845   3.687   3.791  11.614 -0.0520 -0.3521  0.7238
   54MPD2    H3  846   3.503   3.669  11.548  0.7654 -0.5009  1.3639
   54MPD2     N  847   3.204   3.955  11.744 -0.0598  0.0333 -0.9551
   54MPD2    H5  848   3.132   3.903  11.696  3.4134 -3.7172 -2.0963
   54MPD2    N1  849   3.679   4.023  11.763 -0.0258  0.0796  0.0689
   54MPD2    H7  850   3.649   4.110  11.806  0.0809 -0.2580  0.8276
   55TMC2    C1  851   0.210   3.460   0.040  0.7204 -0.7907 -0.7352
   55TMC2    C2  852   0.262   3.484  17.668 -0.7085  0.3324  0.2972
   55TMC2    C3  853   0.297   3.379  17.581 -0.1257  0.6663 -0.0073
   55TMC2    C4  854   0.188   3.329   0.080 -0.2991  0.0179  0.4841
   55TMC2    C5  855   0.209   3.229  17.737  0.0132 -0.0384 -0.3202
   55TMC2    C6  856   0.260   3.253  17.614  0.1632  0.1630  0.2247
   55TMC2     C  857   0.090   3.535   0.091  0.7756 -0.0519 -0.4379
   55TMC2     O  858   0.018   3.466   0.158  0.4102  0.1942  0.5009
   55TMC2     H  859   0.265   3.583  17.624  0.5279 -0.1958 -0.8033
   55TMC2    H1  860   0.181   3.292   0.181  0.6506  1.7539  1.1745
   55TMC2    H2  861   0.265   3.167  17.548  0.2122  0.4059 -0.0835
   55TMC2    C7  862   0.147   3.095  17.749 -0.1732  0.1574 -0.4379
   55TMC2    C8  863   0.343   3.415  17.451  0.9776  0.5548  0.5524
   55TMC2    O1  864   0.160   3.014  17.660 -0.1764 -0.0193 -0.0283
   55TMC2    O2  865   0.346   3.530  17.402  0.0526  0.0093  0.1566
   55TMC2    O5  866   0.435   3.325  17.415 -0.1794  0.8144  0.3171
   55TMC2    H5  867   0.404   3.235  17.437 -0.2994  0.5465 -0.9565
   56MPD2     C  868   4.688   3.848  17.730 -0.0436  0.3232  1.1177
   56MPD2    C1  869   4.702   3.743   0.054  0.2728  0.2576  0.5967
   56MPD2    C2  870   4.606   3.725   0.154  0.1182 -1.1528  0.4640
   56MPD2    C3  871   4.507   3.821   0.171 -0.3906 -0.1507 -0.0510
   56MPD2    C4  872   4.502   3.935   0.095 -0.4570 -0.5325  0.0539
   56MPD2    C5  873   4.597   3.944  17.751  0.3582 -0.2199  0.0966
   56MPD2     H  874   4.599   3.631   0.206 -2.4878 -0.1402  1.9533
   56MPD2    H1  875   4.425   4.011   0.106  1.8297  1.8531 -0.5241
   56MPD2    H2  876   0.021   3.862  17.650 -1.3092 -1.1697 -0.2730
   56MPD2    H3  877   4.593   4.035  17.692 -0.3527 -1.1530 -1.3028
   56MPD2     N  878   4.403   3.814   0.267  0.6161 -0.3810  0.4710
   56MPD2    H5  879   4.322   3.873   0.254  2.5077  2.7456  2.7130
   56MPD2    N1  880   0.068   3.652   0.025 -0.2291  0.2918  0.4288
   56MPD2    H7  881   0.148   3.688  17.730  1.8455 -2.1689  2.0165
   57TMC2    C1  882   3.375   3.187  13.605 -0.8765 -0.1748  0.1323
   57TMC2    C2  883   3.238   3.179  13.599 -0.1242  0.0241 -0.8399
   57TMC2    C3  884   3.189   3.079  13.517 -0.1600 -0.6336  0.2476
   57TMC2    C4  885   3.455   3.112  13.523 -0.5009  0.5379  0.0294
   57TMC2    C5  886   3.393   3.024  13.428 -0.1103 -0.0194  0.0433
   57TMC2    C6  887   3.261   3.012  13.424  0.2183 -0.9335  0.3612
   57TMC2     C  888   3.429   3.297  13.688 -0.0894 -0.5417 -0.4626
   57TMC2     O  889   3.351   3.381  13.737 -0.1968  0.2797  0.2367
   57TMC2     H  890   3.174   3.232  13.667 -0.7462 -0.2216 -1.2287
   57TMC2    H1  891   3.561   3.131  13.512 -0.2134 -0.9513  0.1235
   57TMC2    H2  892   3.215   2.934  13.366  2.0693 -1.7355 -0.0057
   57TMC2    C7  893   3.466   3.020  13.301  0.2816  0.0204 -0.7810
   57TMC2    C8  894   3.049   3.071  13.518 -0.1635 -0.9531  0.8317
   57TMC2    O1  895   3.417   3.083  13.207  0.0425 -0.0640 -0.0777
   57TMC2    O2  896   3.000   3.071  13.630  0.0511 -0.5131  0.2185
   57TMC2    O5  897   3.003   3.022  13.401 -0.3957 -0.2000  0.2205
   57TMC2    H5  898   3.055   3.026  13.318  0.1402 -1.8573  0.4639
   58MPD2     C  899   3.783   3.662  13.750  0.2848  0.2969  0.3489
   58MPD2    C1  900   3.654   3.675  13.719  0.6985  0.7932 -0.1226
   58MPD2    C2  901   3.574   3.563  13.698  0.2661 -0.5406  0.0781
   58MPD2    C3  902   3.637   3.433  13.676  0.6647  0.1329  0.2120
   58MPD2    C4  903   3.774   3.432  13.695 -0.3049 -0.9795  0.4920
   58MPD2    C5  904   3.846   3.543  13.727  0.9450 -0.8363 -0.3094
   58MPD2     H  905   3.467   3.573  13.684  0.2377  0.2326  0.8185
   58MPD2    H1  906   3.832   3.341  13.691 -0.5624 -1.1207  0.0283
   58MPD2    H2  907   3.846   3.748  13.770 -0.0441  1.0247 -1.6778
   58MPD2    H3  908   3.952   3.536  13.745  1.0183 -0.4984 -0.6091
   58MPD2     N  909   3.565   3.313  13.664 -0.5105  0.9719 -0.3459
   58MPD2    H5  910   3.624   3.233  13.645 -1.2196  0.6939 -1.3728
   58MPD2    N1  911   3.584   3.799  13.726 -0.7637 -0.6604  0.0770
   58MPD2    H7  912   3.482   3.798  13.717 -0.8714  1.6414  1.0754
   59TMC2    C1  913   1.456   3.706  13.307  0.3387 -1.0227  0.6543
   59TMC2    C2  914   1.378   3.727  13.412  0.5221 -0.0331  0.0734
   59TMC2    C3  915   1.263   3.650  13.416  0.1301  0.2887 -0.7470
   59TMC2    C4  916   1.424   3.605  13.216 -0.2364  0.6910  0.4040
   59TMC2    C5  917   1.305   3.532  13.216 -0.4941 -0.7221 -0.1083
   59TMC2    C6  918   1.221   3.565  13.311 -0.3629  0.2219  0.4497
   59TMC2     C  919   1.580   3.768  13.293  0.2386 -0.5574 -0.3701
   59TMC2     O  920   1.621   3.788  13.182  0.0001 -0.2733  0.7281
   59TMC2     H  921   1.384   3.818  13.471  0.4280 -0.6754  1.0694
   59TMC2    H1  922   1.490   3.576  13.135  0.2511 -0.0839  1.0853
   59TMC2    H2  923   1.123   3.519  13.312  0.5520 -1.7541 -0.0504
   59TMC2    C7  924   1.239   3.507  13.093 -0.8305 -0.1403 -0.1283
   59TMC2    C8  925   1.155   3.691  13.503 -0.1784 -0.0318  0.1435
   59TMC2    O1  926   1.202   3.391  13.080  0.3434 -0.6364  0.1796
   59TMC2    O2  927   1.042   3.670  13.463  0.2036 -0.2142  0.6530
   59TMC2    O5  928   1.192   3.736  13.625  0.1712  0.4781 -0.2155
   59TMC2    H5  929   1.290   3.742  13.633  0.0872  2.0436 -0.4259
   60MPD2     C  930   1.777   3.983  13.332 -0.5143 -0.4919  0.2839
   60MPD2    C1  931   1.727   3.900  13.432 -0.2374 -0.2990  0.0464
   60MPD2    C2  932   1.780   3.901  13.557 -0.2375  0.2099 -0.3328
   60MPD2    C3  933   1.888   3.986  13.581 -0.2747 -0.1532  0.8728
   60MPD2    C4  934   1.945   4.068  13.483 -0.3590 -0.1634 -0.4171
   60MPD2    C5  935   1.891   4.053  13.354 -0.0095  0.3899 -0.1334
   60MPD2     H  936   1.742   3.833  13.633  1.3210 -0.1711  0.1013
   60MPD2    H1  937   2.031   4.132  13.501 -1.3621  1.1757 -0.4367
   60MPD2    H2  938   1.736   3.986  13.232 -0.0492 -0.1606  0.1045
   60MPD2    H3  939   1.926   4.122  13.278  0.9942  0.2162  0.1799
   60MPD2     N  940   1.971   3.983  13.699  0.1547 -0.7869  0.1394
   60MPD2    H5  941   2.066   4.015  13.685 -0.8469  2.4080  0.6544
   60MPD2    N1  942   1.631   3.803  13.410 -0.6417  0.7545 -0.3099
   60MPD2    H7  943   1.593   3.758  13.493  1.3202 -0.1654  0.1055
   61TMC2    C1  944   1.526   0.493  16.128 -0.2026  0.0800  0.9428
   61TMC2    C2  945   1.623   0.502  16.226 -0.4560  0.1351 -0.2364
   61TMC2    C3  946   1.615   0.605  16.320  0.4467  0.7009 -0.0833
   61TMC2    C4  947   1.422   0.580  16.118  0.1039  0.5071 -0.2376
   61TMC2    C5  948   1.414   0.683  16.211 -1.0763  0.4487  0.5806
   61TMC2    C6  949   1.509   0.699  16.311  0.3764 -0.7168 -0.1877
   61TMC2     C  950   1.552   0.388  16.037  1.0529  0.1388  0.5568
   61TMC2     O  951   1.622   0.297  16.074 -1.1229  0.0236  0.1474
   61TMC2     H  952   1.706   0.435  16.248 -1.6490 -0.7456  1.5266
   61TMC2    H1  953   1.340   0.563  16.049 -1.6299  0.3500  1.8664
   61TMC2    H2  954   1.486   0.753  16.402 -0.7133 -1.3868 -0.0641
   61TMC2    C7  955   1.332   0.796  16.187  0.1510 -1.0979 -0.0126
   61TMC2    C8  956   1.701   0.596  16.432 -0.0753  0.8782 -0.0878
   61TMC2    O1  957   1.351   0.896  16.253 -0.5604 -0.3799  0.1774
   61TMC2    O2  958   1.717   0.497  16.506  0.3324 -0.7379  0.5545
   61TMC2    O5  959   1.808   0.659  16.384 -0.4681  0.0123  0.1064
   61TMC2    H5  960   1.791   0.737  16.327 -0.0841 -1.4335 -2.0023
   62MPD2     C  961   1.625   0.252  15.785  0.7467 -0.3868 -0.0945
   62MPD2    C1  962   1.508   0.324  15.805  0.7142 -0.2101 -0.2427
   62MPD2    C2  963   1.407   0.316  15.709 -0.7461 -0.1875  0.0523
   62MPD2    C3  964   1.428   0.234  15.602 -0.4931  0.2571 -0.2026
   62MPD2    C4  965   1.539   0.166  15.578  0.1302  0.0560 -0.1607
   62MPD2    C5  966   1.638   0.172  15.673  0.1431 -0.2556  0.2618
   62MPD2     H  967   1.318   0.377  15.721  0.4820  0.8116  3.9683
   62MPD2    H1  968   1.554   0.099  15.494  3.0174 -1.9493  1.9261
   62MPD2    H2  969   1.709   0.246  15.853  1.3528 -1.8782 -0.9621
   62MPD2    H3  970   1.732   0.122  15.654 -0.0764 -0.2652 -0.8167
   62MPD2     N  971   1.327   0.233  15.501  0.3007  0.4981 -0.0097
   62MPD2    H5  972   1.355   0.193  15.412  2.0377 -0.4133  0.9381
   62MPD2    N1  973   1.485   0.400  15.918  0.6483  0.8239  0.6902
   62MPD2    H7  974   1.413   0.471  15.903  0.7320  1.2401  2.3279
   63TMC2    C1  975   0.448   0.304  11.041 -0.1427  0.8289  0.7785
   63TMC2    C2  976   0.556   0.304  11.118 -0.1227  0.1095  1.1564
   63TMC2    C3  977   0.681   0.325  11.063  0.0656  0.4187  0.3908
   63TMC2    C4  978   0.465   0.311  10.905  0.4197  0.1466 -0.1251
   63TMC2    C5  979   0.590   0.344  10.852  0.3441 -0.0200 -0.2285
   63TMC2    C6  980   0.698   0.353  10.931  0.7746  0.6003 -0.2491
   63TMC2     C  981   0.326   0.250  11.089  0.3460  0.2614  0.2238
   63TMC2     O  982   0.247   0.210  11.006 -0.4320  0.1390 -0.4469
   63TMC2     H  983   0.547   0.296  11.226  0.5411  0.4324  1.2348
   63TMC2    H1  984   0.378   0.306  10.840 -0.9020  1.8789  1.4869
   63TMC2    H2  985   0.796   0.367  10.886  1.2543 -0.9061  0.3328
   63TMC2    C7  986   0.591   0.403  10.725 -0.3529  0.1783 -0.2535
   63TMC2    C8  987   0.785   0.372  11.153  0.0121  0.3935 -0.0458
   63TMC2    O1  988   0.484   0.386  10.665  0.0825 -0.3952 -0.1527
   63TMC2    O2  989   0.871   0.451  11.126 -0.3058  0.6657 -0.0072
   63TMC2    O5  990   0.787   0.296  11.269  0.4551  0.2683  0.1083
   63TMC2    H5  991   0.710   0.236  11.273  1.0680 -0.4820  0.6628
   64MPD2     C  992   0.010   0.054  11.445  0.0272  0.4963  0.3649
   64MPD2    C1  993   0.054   0.003  11.326 -0.5678  0.2767  0.1052
   64MPD2    C2  994   0.147   0.074  11.255  1.3153  0.2572  0.1823
   64MPD2    C3  995   0.196   0.200  11.294 -0.1308 -0.0589  0.0856
   64MPD2    C4  996   0.146   0.250  11.406  0.0332  0.3162  0.0111
   64MPD2    C5  997   0.052   0.178  11.480 -0.0836  0.1215 -0.3276
   64MPD2     H  998   0.177   0.017  11.168 -0.2226 -0.3975  0.0708
   64MPD2    H1  999   0.181   0.345  11.443  0.6273  0.2132 -0.2897
   64MPD2    H2 1000   4.687   4.737  11.514  0.3523 -0.4378 -0.0926
   64MPD2    H3 1001   0.011   0.224  11.570  0.2478 -1.6828  0.7584
   64MPD2     N 1002   0.292   0.272  11.224  0.3260  0.6306 -0.2465
   64MPD2    H5 1003   0.341   0.349  11.269 -2.5018  0.9368  2.2927
   64MPD2    N1 1004   0.016   4.611  11.276 -0.3250 -0.1210  0.3965
   64MPD2    H7 1005   0.059   4.580  11.190  2.7125 -0.2305  1.9253
   65TMC2    C1 1006   2.115   0.341  15.781 -0.5737  0.3141  0.5865
   65TMC2    C2 1007   2.212   0.438  15.799 -0.1738 -0.5230 -0.1544
   65TMC2    C3 1008   2.178   0.571  15.774  0.2356  0.6038  0.3542
   65TMC2    C4 1009   1.984   0.373  15.746 -0.4923  0.1898  0.7133
   65TMC2    C5 1010   1.960   0.501  15.707  0.4042  0.2404  0.5113
   65TMC2    C6 1011   2.054   0.601  15.726  0.1950 -0.3057 -0.1374
   65TMC2     C 1012   2.132   0.223  15.862  0.4582  0.6773  0.1343
   65TMC2     O 1013   2.202   0.233  15.962 -0.2142 -0.1898  0.0074
   65TMC2     H 1014   2.307   0.400  15.833 -0.0518  0.4477  0.5865
   65TMC2    H1 1015   1.903   0.301  15.751 -1.0018  0.6304 -0.9653
   65TMC2    H2 1016   2.046   0.702  15.691  0.7088 -0.7924 -1.6412
   65TMC2    C7 1017   1.827   0.548  15.715 -1.1440  0.4305  0.2918
   65TMC2    C8 1018   2.288   0.665  15.763  0.4157 -0.0013  0.0320
   65TMC2    O1 1019   1.761   0.543  15.615  0.3537 -0.4886 -0.2518
   65TMC2    O2 1020   2.291   0.764  15.692  0.5812 -0.2723  1.0228
   65TMC2    O5 1021   2.365   0.645  15.873 -0.5465  0.4726 -0.1753
   65TMC2    H5 1022   2.349   0.562  15.924  1.3418  1.3978  1.9023
   66MPD2     C 1023   2.100   4.704  16.007  0.3308  0.5602  0.4108
   66MPD2    C1 1024   2.059   4.724  15.879  0.4084 -0.4847  0.4436
   66MPD2    C2 1025   1.985   4.626  15.817  0.0969 -1.0092 -0.0906
   66MPD2    C3 1026   1.970   4.503  15.877 -0.2073 -0.5387  0.0780
   66MPD2    C4 1027   2.024   4.475  16.005 -0.6379 -0.3061  0.5578
   66MPD2    C5 1028   2.088   4.584  16.063  0.4205 -0.1499  0.8616
   66MPD2     H 1029   1.930   4.647  15.727 -0.8766 -1.3112  0.4308
   66MPD2    H1 1030   2.000   4.384  16.058 -0.0779 -0.2005  0.9985
   66MPD2    H2 1031   2.136   0.052  16.059  2.3093  0.6223 -1.1022
   66MPD2    H3 1032   2.128   4.568  16.162 -2.8501  0.5773  2.3031
   66MPD2     N 1033   1.883   4.404  15.825 -0.3773  0.1301  0.4550
   66MPD2    H5 1034   1.859   4.329  15.889  0.3362 -1.1856 -0.8121
   66MPD2    N1 1035   2.068   0.109  15.808 -0.0470  0.6093  0.3011
   66MPD2    H7 1036   2.040   0.115  15.710 -0.5752  0.2398  0.4285
   67TMC2    C1 1037   1.457   3.900  14.617 -0.4067 -0.4667 -0.1352
   67TMC2    C2 1038   1.430   4.032  14.630 -0.4808  0.2992 -0.3394
   67TMC2    C3 1039   1.519   4.110  14.701 -0.0750 -0.4917  0.1367
   67TMC2    C4 1040   1.574   3.851  14.667 -0.9955  0.3437  0.3688
   67TMC2    C5 1041   1.653   3.933  14.747 -0.7138  0.1954  0.1619
   67TMC2    C6 1042   1.618   4.062  14.773  0.3670 -0.6466  0.6269
   67TMC2     C 1043   1.390   3.817  14.509 -0.1868 -0.2314  0.1622
   67TMC2     O 1044   1.462   3.730  14.457  0.2750 -0.1868  0.5724
   67TMC2     H 1045   1.348   4.077  14.575 -1.0992  0.0649  0.3867
   67TMC2    H1 1046   1.608   3.749  14.650  0.0421  0.2607  2.9600
   67TMC2    H2 1047   1.697   4.127  14.808  0.2473  0.0261 -0.3595
   67TMC2    C7 1048   1.781   3.890  14.795 -0.1419  0.1523 -0.5843
   67TMC2    C8 1049   1.488   4.252  14.722 -0.7006 -0.7839  0.3190
   67TMC2    O1 1050   1.830   3.788  14.745 -0.3446 -0.0546  0.7267
   67TMC2    O2 1051   1.430   4.319  14.638  0.4932  0.3558 -0.4308
   67TMC2    O5 1052   1.544   4.291  14.842  0.2384  0.0594  0.5787
   67TMC2    H5 1053   1.577   4.223  14.904 -3.3307 -1.1886  1.0926
   68MPD2     C 1054   1.240   3.730  14.261 -0.3862 -0.0136  0.0069
   68MPD2    C1 1055   1.195   3.819  14.354  0.1036  0.0593 -0.3331
   68MPD2    C2 1056   1.067   3.873  14.338 -0.1192  0.2927 -0.1191
   68MPD2    C3 1057   0.998   3.839  14.227  0.7224  0.0045 -0.6843
   68MPD2    C4 1058   1.045   3.753  14.135  0.6785  0.6410 -0.2652
   68MPD2    C5 1059   1.166   3.699  14.152  0.2543  0.0779  0.2216
   68MPD2     H 1060   1.031   3.951  14.403 -1.6936 -1.7158  1.4102
   68MPD2    H1 1061   0.990   3.710  14.052 -0.4085  0.6865  0.4312
   68MPD2    H2 1062   1.332   3.675  14.280 -0.3129  1.0309  2.7815
   68MPD2    H3 1063   1.205   3.623  14.086 -1.0571 -0.1312 -0.3089
   68MPD2     N 1064   0.875   3.901  14.195 -0.4541 -0.1383 -0.0860
   68MPD2    H5 1065   0.844   3.902  14.098 -0.5902 -3.2919 -0.0589
   68MPD2    N1 1066   1.268   3.866  14.466 -0.1881 -0.3160  0.0393
   68MPD2    H7 1067   1.229   3.943  14.519 -0.2241 -0.2742 -0.0489
   69TMC2    C1 1068   3.291   0.201  12.107  0.4698 -0.0430 -0.1049
   69TMC2    C2 1069   3.180   0.206  12.024  0.0717  0.3057  0.3808
   69TMC2    C3 1070   3.181   0.138  11.905 -0.5591  0.0721 -0.3725
   69TMC2    C4 1071   3.406   0.132  12.080  0.1074  0.1645  0.3628
   69TMC2    C5 1072   3.403   0.068  11.958 -0.1487 -0.1986 -0.5520
   69TMC2    C6 1073   3.294   0.070  11.868  0.3375 -1.0138  0.0974
   69TMC2     C 1074   3.288   0.273  12.232 -0.4793  0.0819 -0.5480
   69TMC2     O 1075   3.376   0.248  12.312 -0.4666 -0.0612 -0.3298
   69TMC2     H 1076   3.086   0.244  12.063 -0.0249 -1.6084  1.9753
   69TMC2    H1 1077   3.485   0.107  12.150  0.0160  1.4853  0.9281
   69TMC2    H2 1078   3.305   0.036  11.766  2.0908 -0.2831  0.0412
   69TMC2    C7 1079   3.517   4.723  11.926 -0.6610  0.6561  0.4263
   69TMC2    C8 1080   3.090   0.154  11.791 -0.0037 -0.3353  0.3344
   69TMC2    O1 1081   3.623   0.015  11.979  0.1120  0.1683  0.6624
   69TMC2    O2 1082   3.114   0.118  11.677 -0.3483  0.1999  0.6868
   69TMC2    O5 1083   2.969   0.146  11.841  0.5217 -0.5724  0.3780
   69TMC2    H5 1084   2.974   0.145  11.939  1.8635 -0.3983  0.3175
   70MPD2     C 1085   2.998   0.483  12.330  0.2573  0.3313  0.2183
   70MPD2    C1 1086   3.118   0.412  12.347  0.4523 -0.1190  0.2059
   70MPD2    C2 1087   3.161   0.391  12.481  0.0915 -0.0983 -0.1291
   70MPD2    C3 1088   3.079   0.418  12.589  0.4682 -0.0984 -0.0760
   70MPD2    C4 1089   2.959   0.478  12.567  0.6888  0.2214 -0.4395
   70MPD2    C5 1090   2.927   0.515  12.441  0.1558 -0.8671  0.0975
   70MPD2     H 1091   3.248   0.327  12.492 -0.5965 -0.8686  0.8434
   70MPD2    H1 1092   2.891   0.505  12.646 -1.5594 -0.2103 -2.1971
   70MPD2    H2 1093   2.965   0.511  12.231  1.7107  0.4479 -0.2174
   70MPD2    H3 1094   2.837   0.572  12.425 -0.8686 -2.4912  0.0963
   70MPD2     N 1095   3.115   0.369  12.716  0.5378  0.2801 -0.0831
   70MPD2    H5 1096   3.208   0.329  12.715  0.1088 -0.7718  1.1519
   70MPD2    N1 1097   3.183   0.366  12.233  0.6444  0.1896 -0.5616
   70MPD2    H7 1098   3.127   0.390  12.152  0.1470  1.2629  0.1082
   71TMC2    C1 1099   1.252   1.621   1.951 -0.3310 -0.0153 -0.5552
   71TMC2    C2 1100   1.359   1.608   2.032 -0.4383  0.2416 -1.1544
   71TMC2    C3 1101   1.359   1.681   2.149 -0.5010  0.2289 -0.0412
   71TMC2    C4 1102   1.149   1.715   1.971  0.0582 -0.1321  1.0139
   71TMC2    C5 1103   1.166   1.793   2.086 -0.1819 -0.1337 -0.4768
   71TMC2    C6 1104   1.261   1.772   2.176 -0.1745  0.0603  0.5683
   71TMC2     C 1105   1.251   1.536   1.836 -0.4201 -0.0070 -0.3289
   71TMC2     O 1106   1.357   1.495   1.791 -0.5252 -0.2283  0.6774
   71TMC2     H 1107   1.441   1.541   2.007 -0.3063 -0.1076  0.2009
   71TMC2    H1 1108   1.079   1.730   1.889  1.5325  0.3596 -0.1515
   71TMC2    H2 1109   1.275   1.834   2.263 -0.3302  1.9148 -0.7321
   71TMC2    C7 1110   1.073   1.903   2.103  0.2163 -0.1162  0.5109
   71TMC2    C8 1111   1.462   1.675   2.233  0.0868  0.1914 -0.2107
   71TMC2    O1 1112   1.093   1.974   2.201  0.2162 -0.1116 -0.4078
   71TMC2    O2 1113   1.486   1.755   2.323 -0.7713 -0.6724 -0.2603
   71TMC2    O5 1114   1.505   1.547   2.239 -0.1305 -0.3077 -0.0656
   71TMC2    H5 1115   1.442   1.488   2.194 -2.0855  0.9377  1.0349
   72MPD2     C 1116   0.976   1.247   1.507  0.6153  0.1716  0.2380
   72MPD2    C1 1117   1.110   1.284   1.499 -0.2719 -0.3132 -0.4239
   72MPD2    C2 1118   1.159   1.366   1.594 -0.4025 -0.6446 -0.1023
   72MPD2    C3 1119   1.079   1.414   1.701  0.2587  0.0945  0.6801
   72MPD2    C4 1120   0.948   1.378   1.699  0.0400  0.2756 -0.2482
   72MPD2    C5 1121   0.904   1.284   1.609  0.1512  0.8524  0.3979
   72MPD2     H 1122   1.261   1.403   1.601 -0.6005  0.2798 -2.2467
   72MPD2    H1 1123   0.874   1.428   1.762  0.1007  0.2314 -0.1423
   72MPD2    H2 1124   0.932   1.173   1.441 -1.3080  1.7687 -0.2969
   72MPD2    H3 1125   0.803   1.244   1.615 -0.6190  2.8047  0.4300
   72MPD2     N 1126   1.117   1.508   1.798 -0.0643 -0.4465 -0.0243
   72MPD2    H5 1127   1.047   1.539   1.864  1.5531  1.2793  0.8995
   72MPD2    N1 1128   1.192   1.244   1.391 -0.0201 -0.3541  0.3513
   72MPD2    H7 1129   1.290   1.272   1.391 -0.7494  2.2099 -1.5939
   73TMC2    C1 1130   0.777   2.159  14.146  0.2661  0.1823 -0.0949
   73TMC2    C2 1131   0.755   2.107  14.019  0.3166 -0.1735 -0.4213
   73TMC2    C3 1132   0.857   2.049  13.948  0.1888 -0.2662 -0.3967
   73TMC2    C4 1133   0.907   2.154  14.188  0.1563  0.1882 -0.5546
   73TMC2    C5 1134   1.010   2.114  14.107 -0.5678 -0.5550  0.4565
   73TMC2    C6 1135   0.987   2.040  13.987 -0.1702 -0.0175  0.7752
   73TMC2     C 1136   0.747   2.297  14.152 -0.3395 -1.0997  0.3310
   73TMC2     O 1137   0.831   2.373  14.202 -0.5918  0.2459 -0.4731
   73TMC2     H 1138   0.663   2.123  13.964  1.4973  1.8527 -1.8197
   73TMC2    H1 1139   0.919   2.192  14.289 -1.0520  1.6098 -0.9429
   73TMC2    H2 1140   1.069   1.995  13.933  0.1897 -0.1414  1.4343
   73TMC2    C7 1141   1.131   2.192  14.116  0.6033  0.5006 -0.5125
   73TMC2    C8 1142   0.826   1.981  13.826 -0.0920  0.5492  0.4326
   73TMC2    O1 1143   1.231   2.153  14.054  0.2020  0.2658  0.1167
   73TMC2    O2 1144   0.716   2.002  13.772 -0.1006  0.0047 -0.3228
   73TMC2    O5 1145   0.881   1.859  13.829  0.2731  0.0287  0.0076
   73TMC2    H5 1146   0.904   1.831  13.920  2.2675 -1.0673 -0.8309
   74MPD2     C 1147   0.427   2.699  14.105 -0.2489 -0.1784  0.4257
   74MPD2    C1 1148   0.568   2.691  14.113 -0.9534  0.6091 -0.0654
   74MPD2    C2 1149   0.631   2.567  14.125 -0.1009 -0.3903  0.1320
   74MPD2    C3 1150   0.554   2.449  14.116 -0.0073  0.8213  0.1889
   74MPD2    C4 1151   0.418   2.460  14.103 -0.1861 -0.1341 -0.6384
   74MPD2    C5 1152   0.351   2.585  14.103  0.6578  0.0175 -0.0740
   74MPD2     H 1153   0.738   2.563  14.145 -0.2586  0.2460  1.0898
   74MPD2    H1 1154   0.352   2.374  14.108  0.0431 -0.3090 -0.5973
   74MPD2    H2 1155   0.378   2.796  14.105 -2.5835 -1.3618  1.5522
   74MPD2    H3 1156   0.243   2.582  14.102  0.6445 -0.0055  1.1260
   74MPD2     N 1157   0.616   2.323  14.116 -0.5023 -0.2729 -0.0600
   74MPD2    H5 1158   0.551   2.248  14.095 -0.4432 -0.4350  0.3193
   74MPD2    N1 1159   0.638   2.809  14.122 -0.1261 -0.4006  0.3296
   74MPD2    H7 1160   0.590   2.898  14.114  3.0453  1.3405  0.5986
   75TMC2    C1 1161   0.704   4.060  14.245 -0.4394 -0.4766  0.1514
   75TMC2    C2 1162   0.615   4.111  14.337 -0.2570 -0.2034 -0.0685
   75TMC2    C3 1163   0.566   4.239  14.324 -0.4786 -0.9488  0.9365
   75TMC2    C4 1164   0.743   4.142  14.138 -1.0991 -0.1971  0.0505
   75TMC2    C5 1165   0.688   4.265  14.126  0.1695 -0.0264 -0.2974
   75TMC2    C6 1166   0.600   4.314  14.223 -0.2092  0.7996  0.4417
   75TMC2     C 1167   0.801   3.956  14.294  0.0776 -0.4640  0.0874
   75TMC2     O 1168   0.781   3.917  14.409 -0.3697 -0.1955  0.1746
   75TMC2     H 1169   0.579   4.052  14.421  0.5595 -1.3525 -0.5221
   75TMC2    H1 1170   0.826   4.114  14.073 -1.1460  0.8011 -0.4286
   75TMC2    H2 1171   0.544   4.406  14.220 -2.3934 -0.5141  0.5926
   75TMC2    C7 1172   0.658   4.306  13.993 -0.4884 -0.4250  0.2107
   75TMC2    C8 1173   0.472   4.284  14.420 -0.1542 -0.2293 -0.2857
   75TMC2    O1 1174   0.684   4.222  13.903 -0.0409  0.3178  0.2442
   75TMC2    O2 1175   0.481   4.266  14.540 -0.4833  0.4954  0.3719
   75TMC2    O5 1176   0.372   4.343  14.362  0.4977 -0.8352 -0.3409
   75TMC2    H5 1177   0.364   4.325  14.266  2.3390  0.1213 -0.6869
   76TMC2    C1 1178   4.662   3.959  12.365  0.4266  0.0646 -0.2997
   76TMC2    C2 1179   4.606   3.846  12.314  0.0024  0.1283  0.5592
   76TMC2    C3 1180   4.664   3.726  12.339  0.3483  0.2680  0.3678
   76TMC2    C4 1181   0.043   3.954  12.435 -0.0787 -0.3419  0.2532
   76TMC2    C5 1182   0.102   3.831  12.469 -0.1138 -1.0698  0.5262
   76TMC2    C6 1183   0.045   3.716  12.412  0.7859  0.2690  0.8283
   76TMC2     C 1184   4.623   4.076  12.289  0.4026  0.4722  0.0066
   76TMC2     O 1185   4.509   4.067  12.244  0.2020  0.5813 -0.3560
   76TMC2     H 1186   4.514   3.851  12.257  0.1649  1.0120  0.3791
   76TMC2    H1 1187   0.085   4.037  12.490 -1.4038  0.6268 -0.1908
   76TMC2    H2 1188   0.089   3.619  12.428  0.1741 -0.1601 -0.0921
   76TMC2    C7 1189   0.234   3.828  12.530  0.4881  0.9621 -1.0073
   76TMC2    C8 1190   4.608   3.623  12.264 -0.3968 -0.3517 -0.5245
   76TMC2    O1 1191   0.263   3.716  12.567  0.1785 -0.2922 -0.3576
   76TMC2    O2 1192   4.536   3.631  12.164  0.1796 -0.4630  0.0217
   76TMC2    O5 1193   4.636   3.504  12.327  0.1881  0.1969 -0.0836
   76TMC2    H5 1194   4.653   3.522  12.422  0.7309 -0.8505  0.0253
   77MPD2     C 1195   4.706   4.541  12.059  0.8054  0.6033  0.1387
   77MPD2    C1 1196   4.589   4.461  12.058 -0.0427  1.0784 -0.2080
   77MPD2    C2 1197   4.586   4.343  12.138  0.4527 -0.3931 -0.0709
   77MPD2    C3 1198   4.700   4.306  12.216  0.1943 -0.0294 -0.0050
   77MPD2    C4 1199   0.077   4.386  12.201  0.5122  0.5337 -0.7141
   77MPD2    C5 1200   0.076   4.497  12.130 -0.2586  0.2509  1.2080
   77MPD2     H 1201   4.495   4.285  12.124  0.0471 -0.1004  1.3272
   77MPD2    H1 1202   0.164   4.368  12.263 -0.1700 -0.5068 -0.0486
   77MPD2    H2 1203   4.720   4.629  11.998 -0.2001 -0.1553 -1.1658
   77MPD2    H3 1204   0.160   4.565  12.137  0.7463 -0.5562 -2.7431
   77MPD2     N 1205   4.713   4.181  12.277 -0.1923  0.4958 -0.4950
   77MPD2    H5 1206   0.065   4.172  12.321 -1.7458  1.5184  2.9575
   77MPD2    N1 1207   4.476   4.486  11.969  0.0630 -0.2170 -0.0117
   77MPD2    H7 1208   4.400   4.419  11.972  1.7920 -2.1998 -0.5319
   78TMC2    C1 1209   1.027   1.168   1.982  0.3402 -0.0820  0.3222
   78TMC2    C2 1210   1.017   1.063   1.891 -0.4018  0.6063  0.0361
   78TMC2    C3 1211   1.139   1.007   1.855  0.1300 -0.2884 -0.1585
   78TMC2    C4 1212   1.145   1.224   2.022 -0.1809  0.3456  0.6105
   78TMC2    C5 1213   1.258   1.171   1.973 -0.3267  1.4764  0.3686
   78TMC2    C6 1214   1.262   1.055   1.896  0.3858  0.1076  0.1217
   78TMC2     C 1215   0.907   1.236   2.003  0.3941 -0.2220  0.0069
   78TMC2     O 1216   0.915   1.355   2.021 -0.7941 -0.4119 -0.0212
   78TMC2     H 1217   0.923   1.015   1.868 -0.1648 -0.6978  1.7382
   78TMC2    H1 1218   1.151   1.301   2.098  0.3677  2.3728 -1.5238
   78TMC2    H2 1219   1.355   1.016   1.855 -0.0639 -0.5923 -0.2441
   78TMC2    C7 1220   1.386   1.241   2.009 -0.1192 -0.4771  0.1137
   78TMC2    C8 1221   1.129   0.901   1.762  0.0727 -0.9483  0.1000
   78TMC2    O1 1222   1.380   1.325   2.101 -0.4159 -0.4063 -0.4778
   78TMC2    O2 1223   1.033   0.824   1.765  0.0450  0.4331 -0.2217
   78TMC2    O5 1224   1.227   0.894   1.670 -0.0325 -0.2768 -0.1689
   78TMC2    H5 1225   1.287   0.971   1.658  0.2376 -0.4517  0.0496
   79MPD1     C 1226   0.397   1.245   2.051  0.2161 -0.4745  0.1749
   79MPD1    C1 1227   0.477   1.349   2.062  0.4657  0.0536  0.0916
   79MPD1    C2 1228   0.616   1.327   2.057  0.1935 -0.3093 -0.2938
   79MPD1    C3 1229   0.663   1.194   2.041 -0.5130 -0.4766 -0.2078
   79MPD1    C4 1230   0.573   1.087   2.037 -0.0991 -0.3997 -0.1951
   79MPD1    C5 1231   0.438   1.107   2.046  0.8363 -0.1850 -0.6539
   79MPD1     H 1232   0.685   1.410   2.052 -1.9661  1.3774 -1.7324
   79MPD1    H1 1233   0.616   0.987   2.035  0.1082 -0.3016 -0.5280
   79MPD1    H2 1234   0.294   1.275   2.067  0.7253  1.0131  0.5494
   79MPD1    H3 1235   0.371   1.021   2.040  0.8845 -0.2253 -0.6064
   79MPD1     N 1236   0.799   1.154   2.019 -0.1376  0.0613  0.4255
   79MPD1    H5 1237   0.822   1.056   2.029 -0.8348 -0.3224 -1.6551
   79MPD1    N1 1238   0.431   1.482   2.057 -0.0026 -0.6280  0.0337
   79MPD1    H6 1239   0.499   1.546   2.099 -0.6241 -0.4817  0.8039
   79MPD1    H7 1240   0.338   1.514   2.084 -0.4033 -0.1279 -1.9145
   80TMC2    C1 1241   3.237   3.832  12.102 -0.6515  0.1071 -0.0713
   80TMC2    C2 1242   3.251   3.737  12.004 -0.2288 -0.8590  0.3652
   80TMC2    C3 1243   3.144   3.657  11.975 -0.1433  1.0386 -0.3475
   80TMC2    C4 1244   3.112   3.864  12.153 -0.6036 -0.5555  0.4681
   80TMC2    C5 1245   3.014   3.783  12.124  0.4129  0.2825  0.4143
   80TMC2    C6 1246   3.021   3.678  12.039  0.7823  0.2399 -0.1162
   80TMC2     C 1247   3.362   3.903  12.145 -0.5415  0.3880 -0.0124
   80TMC2     O 1248   3.465   3.883  12.083 -0.0814 -0.5127 -0.3405
   80TMC2     H 1249   3.347   3.723  11.955 -0.1834 -0.2545  0.2864
   80TMC2    H1 1250   3.093   3.940  12.228  0.0404  1.7822 -1.7596
   80TMC2    H2 1251   2.941   3.616  12.000  1.3212  1.1014 -2.5621
   80TMC2    C7 1252   2.919   3.782  12.227 -0.5576 -0.5306 -0.6381
   80TMC2    C8 1253   3.133   3.594  11.849 -0.2947  0.4393 -0.2284
   80TMC2    O1 1254   2.880   3.890  12.269 -0.0790  0.3495  0.3098
   80TMC2    O2 1255   3.046   3.638  11.775 -0.4898  0.3727 -0.3852
   80TMC2    O5 1256   3.260   3.561  11.824 -0.5136  0.4417 -0.1946
   80TMC2    H5 1257   3.304   3.526  11.904 -1.1362 -1.9034 -0.8844
   81MPD2     C 1258   3.593   4.047  12.295  0.0011 -0.0796  0.0991
   81MPD2    C1 1259   3.456   4.044  12.331 -0.2884 -0.0094  0.0053
   81MPD2    C2 1260   3.415   4.124  12.437  0.4097 -0.1722  0.5381
   81MPD2    C3 1261   3.510   4.209  12.492  0.1108  0.4894  0.0094
   81MPD2    C4 1262   3.643   4.203  12.460 -0.0174  0.5017  0.0448
   81MPD2    C5 1263   3.692   4.119  12.362  0.6067  0.3409  0.5054
   81MPD2     H 1264   3.313   4.117  12.471 -0.6828 -0.8000 -2.8583
   81MPD2    H1 1265   3.714   4.274  12.502 -2.2592  2.6284  0.2322
   81MPD2    H2 1266   3.625   3.985  12.212 -0.1741 -0.2893  0.1872
   81MPD2    H3 1267   3.798   4.109  12.343  0.4918 -3.4171  2.0544
   81MPD2     N 1268   3.475   4.287  12.606  0.4661 -0.0752 -0.1866
   81MPD2    H5 1269   3.546   4.307  12.676  1.4818  0.6389 -1.4249
   81MPD2    N1 1270   3.351   3.968  12.269  0.0892  0.3387  0.2334
   81MPD2    H7 1271   3.264   3.951  12.319 -0.0455  1.6123  0.4163
   82TMC2    C1 1272   2.049   3.339  11.351 -0.0557 -0.3981  0.6048
   82TMC2    C2 1273   2.066   3.329  11.214 -0.0831 -0.0016  0.5071
   82TMC2    C3 1274   1.977   3.255  11.143 -0.3020  0.0260  0.6778
   82TMC2    C4 1275   1.954   3.263  11.415  0.1481  0.2779 -0.2752
   82TMC2    C5 1276   1.876   3.179  11.338 -0.9667 -1.2376 -0.0523
   82TMC2    C6 1277   1.884   3.175  11.199 -0.1725  0.0633 -0.3550
   82TMC2     C 1278   2.060   3.475  11.402 -0.0473  0.7210 -0.5319
   82TMC2     O 1279   2.079   3.569  11.319  0.4326  0.0045 -0.2920
   82TMC2     H 1280   2.128   3.403  11.164  2.1520  0.3524  3.8264
   82TMC2    H1 1281   1.940   3.260  11.522  0.0764 -2.0324 -0.3474
   82TMC2    H2 1282   1.813   3.115  11.144 -0.0825  0.5777 -1.0232
   82TMC2    C7 1283   1.793   3.091  11.416 -0.2330 -0.5191  0.7464
   82TMC2    C8 1284   1.987   3.272  10.997  0.8710 -0.0088 -0.0329
   82TMC2    O1 1285   1.759   3.138  11.524 -0.4504 -0.3688  0.2771
   82TMC2    O2 1286   2.085   3.329  10.953  0.2301 -0.4492 -0.0580
   82TMC2    O5 1287   1.917   3.173  10.939 -0.1532 -0.8349 -0.4887
   82TMC2    H5 1288   1.831   3.164  10.984  0.9113  0.0215  1.6917
   83MPD2     C 1289   1.835   3.750  11.753  0.0740  0.7386 -0.1039
   83MPD2    C1 1290   1.854   3.773  11.616  0.0785  0.8653  0.2846
   83MPD2    C2 1291   1.929   3.685  11.545 -0.6983  0.5724  0.0520
   83MPD2    C3 1292   1.997   3.580  11.608  0.4976  0.0347  0.2023
   83MPD2    C4 1293   1.979   3.564  11.745 -0.0616  0.1510  0.1497
   83MPD2    C5 1294   1.894   3.647  11.815  0.8182  0.1590 -0.1186
   83MPD2     H 1295   1.945   3.704  11.439 -0.7227  1.5731  0.2286
   83MPD2    H1 1296   2.014   3.475  11.796  0.9487 -0.2198 -1.1790
   83MPD2    H2 1297   1.773   3.808  11.820 -0.8653 -0.6703  0.2565
   83MPD2    H3 1298   1.879   3.635  11.921 -0.8104 -1.0201 -0.4705
   83MPD2     N 1299   2.060   3.476  11.540 -0.1343  0.1723  0.0308
   83MPD2    H5 1300   2.082   3.393  11.595  0.2754  0.1981 -0.0948
   83MPD2    N1 1301   1.774   3.868  11.553  0.0055 -0.0677  0.1373
   83MPD2    H7 1302   1.687   3.889  11.601  0.3178 -1.3193  1.2309
   84TMC2    C1 1303   2.778   3.042  11.257 -0.2201 -0.5754  0.8958
   84TMC2    C2 1304   2.678   2.965  11.310 -1.1838  0.0438 -0.4134
   84TMC2    C3 1305   2.638   2.855  11.233 -0.3078  0.6611  0.0745
   84TMC2    C4 1306   2.827   3.012  11.132  0.4431 -0.4541 -0.0414
   84TMC2    C5 1307   2.785   2.910  11.060 -0.0250 -0.2247  0.1910
   84TMC2    C6 1308   2.680   2.837  11.103 -0.1531  0.0829  0.2149
   84TMC2     C 1309   2.758   3.183  11.297  0.3862  0.4776 -0.2802
   84TMC2     O 1310   2.700   3.203  11.400 -0.4578  0.6515 -0.9788
   84TMC2     H 1311   2.634   2.981  11.408 -0.8853  1.4130 -0.5085
   84TMC2    H1 1312   2.904   3.072  11.084  0.4776 -0.4896 -0.0306
   84TMC2    H2 1313   2.662   2.741  11.058 -1.2623  1.0844 -1.4852
   84TMC2    C7 1314   2.884   2.832  10.981  0.3722 -0.4148 -0.1312
   84TMC2    C8 1315   2.538   2.761  11.273 -0.2585 -0.2374 -0.1432
   84TMC2    O1 1316   2.881   2.711  11.010 -0.4978  0.6731 -0.1998
   84TMC2    O2 1317   2.445   2.735  11.201 -0.6429  0.6346 -0.2864
   84TMC2    O5 1318   2.569   2.715  11.392 -0.6693 -0.0407 -0.1757
   84TMC2    H5 1319   2.659   2.747  11.415 -0.8744  0.0100  0.5594
   85TMC2    C1 1320   3.971   1.441  16.045  0.5472 -0.6976  0.2039
   85TMC2    C2 1321   3.913   1.559  16.085  0.6495  0.4171 -0.2761
   85TMC2    C3 1322   3.982   1.675  16.065  0.2227 -1.0370  0.4107
   85TMC2    C4 1323   4.094   1.443  15.977  0.0423  0.2037  0.3431
   85TMC2    C5 1324   4.154   1.569  15.960 -1.1664  0.1988  0.2245
   85TMC2    C6 1325   4.104   1.682  16.007 -0.9690 -0.1210  0.0836
   85TMC2     C 1326   3.916   1.317  16.086 -0.0209  0.5324 -0.1999
   85TMC2     O 1327   3.798   1.314  16.111 -0.2355 -0.1179  0.2465
   85TMC2     H 1328   3.816   1.573  16.131  0.6707  1.2755 -0.4841
   85TMC2    H1 1329   4.150   1.358  15.939  0.1633  0.0639  0.8360
   85TMC2    H2 1330   4.142   1.783  16.011 -0.5785 -0.1876 -2.4554
   85TMC2    C7 1331   4.264   1.593  15.870  0.2073 -0.5877  1.0658
   85TMC2    C8 1332   3.925   1.790  16.121 -0.7995  0.3101 -0.0920
   85TMC2    O1 1333   4.317   1.491  15.822  0.0740 -0.2053 -0.0277
   85TMC2    O2 1334   3.908   1.894  16.058 -0.3421 -0.1309 -0.7841
   85TMC2    O5 1335   3.986   1.776  16.241  0.5670 -0.1324  0.7697
   85TMC2    H5 1336   4.037   1.692  16.245  2.7188  1.0435 -1.7866
   86MPD2     C 1337   3.936   0.810  16.132 -0.2134 -0.1397 -0.3322
   86MPD2    C1 1338   3.830   0.895  16.101  0.5073 -0.4036  0.1659
   86MPD2    C2 1339   3.850   1.028  16.099  0.0746  0.2256  0.3665
   86MPD2    C3 1340   3.978   1.078  16.106 -0.8312  0.7770 -0.0071
   86MPD2    C4 1341   4.085   0.991  16.139  0.6812 -0.2882 -0.7022
   86MPD2    C5 1342   4.065   0.854  16.153 -0.2357  1.1069 -0.5642
   86MPD2     H 1343   3.768   1.090  16.066  1.2843  0.3455 -2.4638
   86MPD2    H1 1344   4.187   1.025  16.151  0.6564 -0.8314  0.9980
   86MPD2    H2 1345   3.914   0.705  16.150  0.4066 -0.3184 -0.6190
   86MPD2    H3 1346   4.138   0.789  16.199 -2.2345 -0.2567  0.7287
   86MPD2     N 1347   4.009   1.215  16.086  0.3829  1.2824  0.1328
   86MPD2    H5 1348   4.106   1.247  16.088  0.2071  1.7882  0.8005
   86MPD2    N1 1349   3.709   0.831  16.073 -0.2145 -0.3417  0.7466
   86MPD2    H7 1350   3.716   0.729  16.078  0.0483 -0.3828 -0.5050
   87TMC2    C1 1351   1.653   4.351   0.984 -0.2902 -0.0013  0.0359
   87TMC2    C2 1352   1.753   4.441   1.008 -0.7762  0.9181 -0.5333
   87TMC2    C3 1353   1.724   4.534   1.101  0.3860  0.7512  0.1823
   87TMC2    C4 1354   1.534   4.345   1.055 -0.1206 -0.7767  0.0771
   87TMC2    C5 1355   1.499   4.448   1.138 -0.3415 -0.1882  0.4632
   87TMC2    C6 1356   1.600   4.543   1.162  0.0855  0.1484  0.2414
   87TMC2     C 1357   1.682   4.256   0.885  0.6602 -0.1750  0.0995
   87TMC2     O 1358   1.728   4.294   0.779  0.1340 -0.1735 -0.4825
   87TMC2     H 1359   1.851   4.446   0.963 -0.1996  1.9008  0.8480
   87TMC2    H1 1360   1.460   4.269   1.028  0.7408 -2.0585  1.3648
   87TMC2    H2 1361   1.581   4.638   1.210  1.7140  0.7590 -0.3258
   87TMC2    C7 1362   1.368   4.480   1.177 -0.8926 -0.2340 -0.4536
   87TMC2    C8 1363   1.837   4.601   1.148  0.0676 -0.3061  1.0024
   87TMC2    O1 1364   1.349   4.583   1.239  0.4220 -0.2282 -0.2161
   87TMC2    O2 1365   1.945   4.549   1.165  0.0648 -0.5072 -0.7245
   87TMC2    O5 1366   1.810   4.733   1.139  0.4934  0.0071 -0.8397
   87TMC2    H5 1367   1.741   0.011   1.071 -1.7311 -1.3418  1.0736
   88MPD2     C 1368   1.041   4.323   1.117 -0.2085 -0.5039  0.1231
   88MPD2    C1 1369   1.136   4.426   1.132 -0.2101 -0.7072 -0.4746
   88MPD2    C2 1370   1.085   4.552   1.126  0.2915  0.1629  0.1882
   88MPD2    C3 1371   0.955   4.582   1.108  0.3972  0.2301  0.4715
   88MPD2    C4 1372   0.863   4.488   1.082 -0.2153  0.1997  0.2397
   88MPD2    C5 1373   0.909   4.356   1.093 -0.5766 -0.0726 -0.3379
   88MPD2     H 1374   1.162   4.625   1.146 -0.3219  1.4991 -2.2564
   88MPD2    H1 1375   0.755   4.498   1.076 -0.1274 -0.4141 -2.1642
   88MPD2    H2 1376   1.072   4.219   1.106  1.8738  0.0599  0.6770
   88MPD2    H3 1377   0.833   4.279   1.081 -0.4168 -0.4628  1.2226
   88MPD2     N 1378   0.904   4.715   1.089  0.3217 -0.7587 -0.0241
   88MPD2    H5 1379   0.806   4.725   1.062  0.3742  2.2334  0.8332
   88MPD2    N1 1380   1.275   4.386   1.138  0.0098 -0.1066 -0.4445
   88MPD2    H7 1381   1.301   4.291   1.116 -1.5935 -1.1681  2.2491
   89TMC2    C1 1382   2.193   2.340   1.344  0.0946 -0.3414  0.7479
   89TMC2    C2 1383   2.122   2.222   1.342 -0.2332  0.3155  0.0593
   89TMC2    C3 1384   2.079   2.191   1.222  0.8622 -0.4056 -0.2625
   89TMC2    C4 1385   2.239   2.404   1.234 -0.4617 -0.0302 -0.5158
   89TMC2    C5 1386   2.195   2.359   1.116  0.2994  0.1270 -0.4909
   89TMC2    C6 1387   2.114   2.252   1.106 -0.3375  0.5695  0.5665
   89TMC2     C 1388   2.216   2.391   1.480  0.7314  0.5338  0.2575
   89TMC2     O 1389   2.300   2.480   1.477 -0.4233 -0.2326  0.5115
   89TMC2     H 1390   2.088   2.160   1.424  0.9252  0.3677  0.5911
   89TMC2    H1 1391   2.324   2.471   1.239 -1.8734  1.8301 -1.3018
   89TMC2    H2 1392   2.132   2.194   1.016 -0.1490  1.3100  0.1261
   89TMC2    C7 1393   2.248   2.418   0.998  0.0974 -0.6961 -0.6012
   89TMC2    C8 1394   2.054   2.047   1.206 -0.0182  0.6983 -1.0243
   89TMC2    O1 1395   2.226   2.350   0.899  0.5331 -0.0511 -0.3913
   89TMC2    O2 1396   2.102   1.961   1.277 -0.7240 -0.3315 -0.0643
   89TMC2    O5 1397   1.949   2.041   1.125  0.7047  0.2534 -0.4530
   89TMC2    H5 1398   1.907   2.123   1.092  1.5391  0.5491 -0.7593
   90MPD2     C 1399   2.183   2.413   1.991  0.1058 -0.5734 -0.0351
   90MPD2    C1 1400   2.081   2.326   1.949 -0.1930 -0.3363 -0.6697
   90MPD2    C2 1401   2.072   2.309   1.812 -0.1376  0.7998  0.1008
   90MPD2    C3 1402   2.152   2.371   1.717 -0.0857  0.1677  0.7500
   90MPD2    C4 1403   2.263   2.444   1.768  0.7072 -0.7112  0.0808
   90MPD2    C5 1404   2.281   2.458   1.907 -0.3302  0.4600  0.3005
   90MPD2     H 1405   1.992   2.244   1.780  0.6041 -0.5482  0.9769
   90MPD2    H1 1406   2.322   2.500   1.697  0.4486 -1.3013 -0.6003
   90MPD2    H2 1407   2.192   2.441   2.095 -0.8696  0.7564 -0.3003
   90MPD2    H3 1408   2.368   2.512   1.941 -0.6205  1.2519 -0.2166
   90MPD2     N 1409   2.132   2.344   1.575 -0.5806  1.1153 -0.0350
   90MPD2    H5 1410   2.050   2.296   1.538  0.7214 -0.6004 -0.6514
   90MPD2    N1 1411   1.975   2.278   2.029  0.6099  0.5632 -0.0146
   90MPD2    H7 1412   1.900   2.219   1.995  1.7335 -0.8151 -0.1023
   91TMC2    C1 1413   4.024   2.109  16.396 -0.1429  0.2280 -0.3580
   91TMC2    C2 1414   4.136   2.037  16.421  0.0689 -0.5640 -0.7590
   91TMC2    C3 1415   4.120   1.939  16.514 -0.4438  0.5338  0.4663
   91TMC2    C4 1416   3.902   2.097  16.463  0.2630  0.7028  0.3806
   91TMC2    C5 1417   3.889   1.988  16.550 -0.0945  0.0396 -0.6368
   91TMC2    C6 1418   4.004   1.920  16.582 -0.1847  0.3067  0.2908
   91TMC2     C 1419   4.045   2.233  16.324 -0.6228 -0.2844  0.1173
   91TMC2     O 1420   3.948   2.279  16.265 -0.3200 -0.1076 -1.2800
   91TMC2     H 1421   4.234   2.050  16.376  0.7292 -0.6480  0.6637
   91TMC2    H1 1422   3.824   2.172  16.452  0.5709  1.0626  0.6209
   91TMC2    H2 1423   4.005   1.848  16.663 -0.1856  0.6072  0.5567
   91TMC2    C7 1424   3.764   1.953  16.620 -0.2348  0.6784 -0.1462
   91TMC2    C8 1425   4.243   1.868  16.549 -0.1621 -0.5453 -0.0695
   91TMC2    O1 1426   3.765   1.893  16.728 -0.4007  0.0391 -0.6489
   91TMC2    O2 1427   4.353   1.917  16.560 -0.5598 -0.2281  0.2941
   91TMC2    O5 1428   4.208   1.742  16.582  0.0005 -0.3925 -0.4118
   91TMC2    H5 1429   4.111   1.731  16.570 -0.5612  1.6063  2.5775
   92MPD2     C 1430   4.163   2.446  16.158 -0.5169  0.4262  0.9506
   92MPD2    C1 1431   4.226   2.377  16.257 -0.1237 -0.5623  0.0701
   92MPD2    C2 1432   4.361   2.418  16.287 -0.1161 -0.2910  0.0136
   92MPD2    C3 1433   4.430   2.518  16.223 -0.4658  0.1836 -0.3708
   92MPD2    C4 1434   4.366   2.587  16.125  0.1939  0.3059  0.3422
   92MPD2    C5 1435   4.236   2.544  16.089 -0.4167 -0.3820  0.2297
   92MPD2     H 1436   4.405   2.366  16.371 -0.1749 -0.1040  0.1609
   92MPD2    H1 1437   4.424   2.655  16.063 -0.0707  0.9214  0.7725
   92MPD2    H2 1438   4.065   2.427  16.116  0.0836 -0.0465 -0.2197
   92MPD2    H3 1439   4.194   2.588  15.999 -0.8370  1.3439  1.2929
   92MPD2     N 1440   4.566   2.533  16.266 -0.1849  0.3994  0.4260
   92MPD2    H5 1441   4.599   2.480  16.346  0.4832 -2.1087 -1.4832
   92MPD2    N1 1442   4.173   2.271  16.333  0.1372  0.6951  0.9176
   92MPD2    H7 1443   4.225   2.225  16.408  0.8916  2.3007  1.3798
   93TMC2    C1 1444   0.873   1.877  14.487  0.7242  0.3091  0.1887
   93TMC2    C2 1445   0.811   1.936  14.594 -1.1574  0.1236 -1.2821
   93TMC2    C3 1446   0.865   2.051  14.638 -0.4929 -0.5775  0.3245
   93TMC2    C4 1447   1.005   1.909  14.448 -0.3170 -0.2106  0.8062
   93TMC2    C5 1448   1.055   2.026  14.512  0.2948  0.0949 -0.0904
   93TMC2    C6 1449   0.980   2.105  14.592  0.3639 -0.6528  0.1208
   93TMC2     C 1450   0.804   1.800  14.389  0.6565  0.1524  0.5085
   93TMC2     O 1451   0.868   1.710  14.337 -0.2878 -0.2360 -0.1146
   93TMC2     H 1452   0.715   1.898  14.629 -0.7730 -0.0872 -0.4604
   93TMC2    H1 1453   1.056   1.858  14.367  2.4992  0.5733  2.0690
   93TMC2    H2 1454   1.025   2.197  14.627 -0.6299  0.0067 -0.3381
   93TMC2    C7 1455   1.179   2.087  14.457 -0.3708 -1.0938 -0.6315
   93TMC2    C8 1456   0.801   2.106  14.751 -0.3856  0.2658 -0.3024
   93TMC2    O1 1457   1.215   2.038  14.352 -0.3844 -0.0626  0.0897
   93TMC2    O2 1458   0.691   2.068  14.773 -0.0742 -0.3322  0.0934
   93TMC2    O5 1459   0.902   2.105  14.839  0.3819  0.4410 -0.3499
   93TMC2    H5 1460   0.992   2.107  14.800 -0.9398  1.0399 -3.4060
   94MPD2     C 1461   0.601   1.663  14.225  0.3094  0.8981 -0.0037
   94MPD2    C1 1462   0.596   1.796  14.260  0.2086  0.0885 -0.2584
   94MPD2    C2 1463   0.498   1.879  14.225 -0.0348  0.0596 -0.1214
   94MPD2    C3 1464   0.405   1.833  14.130  0.3807  0.1852  0.7119
   94MPD2    C4 1465   0.392   1.699  14.109  0.3349  0.1277 -0.5058
   94MPD2    C5 1466   0.495   1.616  14.150 -0.7764 -1.1748 -0.1869
   94MPD2     H 1467   0.508   1.982  14.260 -1.9833  0.3565 -0.4304
   94MPD2    H1 1468   0.330   1.666  14.026 -0.4762  0.2707  0.0465
   94MPD2    H2 1469   0.678   1.600  14.269 -0.4087 -0.6024 -0.8851
   94MPD2    H3 1470   0.506   1.520  14.100 -0.0644 -0.6889 -0.9654
   94MPD2     N 1471   0.317   1.917  14.052 -0.4252 -0.2180 -0.4494
   94MPD2    H5 1472   0.248   1.876  13.990 -2.8154  0.3142  1.8996
   94MPD2    N1 1473   0.689   1.861  14.342 -0.7156 -0.1504 -0.0835
   94MPD2    H7 1474   0.664   1.950  14.382  0.5612  0.2029 -0.0602
   95TMC2    C1 1475   1.114   4.215  16.419 -0.6212  0.6971 -0.0853
   95TMC2    C2 1476   1.011   4.139  16.472 -0.8697  0.7023 -0.1401
   95TMC2    C3 1477   0.966   4.181  16.593  1.2643  0.0596 -0.3649
   95TMC2    C4 1478   1.170   4.323  16.487 -0.1194  0.9970 -0.1685
   95TMC2    C5 1479   1.121   4.360  16.607  0.9693 -0.3954 -0.1639
   95TMC2    C6 1480   1.012   4.291  16.659  0.6766  0.0266  0.6557
   95TMC2     C 1481   1.184   4.174  16.294 -0.2912  0.6844  0.1145
   95TMC2     O 1482   1.261   4.255  16.244  0.3867  0.0306  0.6902
   95TMC2     H 1483   0.956   4.057  16.427  0.3550  0.4243 -1.1576
   95TMC2    H1 1484   1.243   4.379  16.429  1.0011  1.2120  1.4280
   95TMC2    H2 1485   0.949   4.324  16.740 -0.9374 -0.3014 -0.4752
   95TMC2    C7 1486   1.161   4.491  16.657  0.4116  0.5533 -0.8963
   95TMC2    C8 1487   0.845   4.109  16.645 -0.7140 -0.0047  0.0969
   95TMC2    O1 1488   1.194   4.580  16.580  0.0822 -0.3011 -0.1690
   95TMC2    O2 1489   0.771   4.058  16.563 -0.2385 -0.1916  0.4135
   95TMC2    O5 1490   0.823   4.131  16.773 -0.1055 -0.1447 -0.5557
   95TMC2    H5 1491   0.906   4.146  16.823 -0.8918  0.9397  0.4035
   96MPD2     C 1492   1.222   3.871  15.882 -0.3123 -0.2317 -0.2146
   96MPD2    C1 1493   1.278   3.986  15.906  0.3585 -0.3093  0.0037
   96MPD2    C2 1494   1.256   4.040  16.035 -0.9021 -0.7964 -0.4013
   96MPD2    C3 1495   1.176   3.984  16.130  0.2797 -0.4473 -0.1408
   96MPD2    C4 1496   1.118   3.862  16.103  0.0592  0.4721 -0.4771
   96MPD2    C5 1497   1.137   3.812  15.977  0.4708 -0.7413  0.4572
   96MPD2     H 1498   1.281   4.145  16.040 -1.6964 -0.5606 -1.4968
   96MPD2    H1 1499   1.041   3.814  16.163  1.3265 -0.8775  0.0634
   96MPD2    H2 1500   1.232   3.839  15.779 -0.0209  1.6755 -0.7720
   96MPD2    H3 1501   1.072   3.732  15.942  0.5380 -0.5908 -0.0120
   96MPD2     N 1502   1.146   4.044  16.256  0.4899 -0.8771 -0.4618
   96MPD2    H5 1503   1.084   3.988  16.313  0.5568  0.5433  0.9891
   96MPD2    N1 1504   1.369   4.044  15.807  0.0232 -0.3945  0.1487
   96MPD2    H7 1505   1.391   3.984  15.728 -1.4789  1.9176 -2.0568
   97TMC2    C1 1506   3.251   1.747  17.475  0.2179  0.8013 -0.1177
   97TMC2    C2 1507   3.256   1.707  17.343  0.2632  0.8020  0.0298
   97TMC2    C3 1508   3.294   1.801  17.252  0.2759 -0.4019 -0.1975
   97TMC2    C4 1509   3.309   1.862  17.523  0.3897  0.0099  0.2244
   97TMC2    C5 1510   3.347   1.955  17.426  0.0539  1.3803  0.0233
   97TMC2    C6 1511   3.345   1.922  17.292  0.2532  0.3016 -0.2530
   97TMC2     C 1512   3.249   1.641  17.580  0.4096 -0.0725  0.2453
   97TMC2     O 1513   3.282   1.683  17.691 -0.3178 -0.2895 -0.1742
   97TMC2     H 1514   3.200   1.623  17.307 -0.7746  0.8363  1.5752
   97TMC2    H1 1515   3.300   1.887  17.628  1.8612  2.3219 -0.1990
   97TMC2    H2 1516   3.370   1.995  17.215  0.2728  0.8139  0.2324
   97TMC2    C7 1517   3.392   2.087  17.477  0.0266  0.3218  0.2417
   97TMC2    C8 1518   3.299   1.757  17.115  0.1514 -0.7747  0.8569
   97TMC2    O1 1519   3.366   2.112  17.595 -0.1347  0.1092 -0.2053
   97TMC2    O2 1520   3.225   1.664  17.083  0.1132 -0.0344 -0.2244
   97TMC2    O5 1521   3.425   1.766  17.076  0.4435  0.2661 -0.3870
   97TMC2    H5 1522   3.492   1.823  17.120  0.7359 -1.0785  0.9307
   98MPD2     C 1523   3.153   1.165   0.029 -0.8163  0.2369 -0.3099
   98MPD2    C1 1524   3.184   1.286   0.087 -0.4569 -0.1871 -0.3124
   98MPD2    C2 1525   3.213   1.400   0.012 -0.5577 -0.6077 -0.0277
   98MPD2    C3 1526   3.196   1.401  17.629 -0.1397 -0.1567  0.1130
   98MPD2    C4 1527   3.157   1.281  17.578  0.9929 -1.0260 -0.1799
   98MPD2    C5 1528   3.141   1.166  17.648  0.3363  0.0838 -0.1095
   98MPD2     H 1529   3.259   1.489   0.053 -0.1572 -1.5656  1.6497
   98MPD2    H1 1530   3.127   1.270  17.475  3.4462  0.8221 -1.0756
   98MPD2    H2 1531   3.134   1.071   0.080 -1.1870  0.8252  0.6345
   98MPD2    H3 1532   3.112   1.076  17.595  3.6507 -1.2600  0.3738
   98MPD2     N 1533   3.206   1.517  17.543  0.4629  0.2010 -0.0559
   98MPD2    H5 1534   3.164   1.518  17.451  0.5688  1.9835 -0.0789
   98MPD2    N1 1535   3.185   1.290   0.232  0.0836 -0.1659 -0.7602
   98MPD2    H7 1536   3.178   1.207   0.289  0.9489  0.2501 -0.0570
   99TMC2    C1 1537   1.738   3.946   1.656  0.3617 -0.6995 -0.2419
   99TMC2    C2 1538   1.798   3.995   1.769 -0.2335  0.0939 -0.9497
   99TMC2    C3 1539   1.724   4.039   1.871  0.1523  0.0860 -0.1351
   99TMC2    C4 1540   1.597   3.931   1.652 -0.3894 -0.1937 -0.5371
   99TMC2    C5 1541   1.528   3.976   1.757  0.0926  0.1446 -0.5222
   99TMC2    C6 1542   1.589   4.023   1.871 -0.1296  0.3188  0.4271
   99TMC2     C 1543   1.832   3.903   1.557 -0.1696  0.4574 -0.6098
   99TMC2     O 1544   1.950   3.943   1.554 -0.6926  0.7506  0.1026
   99TMC2     H 1545   1.904   4.017   1.778 -0.4656  1.3934 -1.3394
   99TMC2    H1 1546   1.546   3.900   1.561 -0.1817 -0.7189 -0.4729
   99TMC2    H2 1547   1.531   4.094   1.929 -2.1837 -0.5758 -0.5085
   99TMC2    C7 1548   1.383   3.976   1.754  0.6339 -0.2983 -0.0087
   99TMC2    C8 1549   1.795   4.087   1.985  0.0236 -0.0458 -0.2729
   99TMC2    O1 1550   1.322   4.036   1.838  0.1245  1.1222 -0.2420
   99TMC2    O2 1551   1.887   4.167   1.970 -0.5452 -0.5484 -0.5387
   99TMC2    O5 1552   1.714   4.080   2.094 -0.6524 -0.4679  0.1530
   99TMC2    H5 1553   1.653   4.005   2.079  1.1001 -1.9093  0.2014
  100MPD2     C 1554   1.938   3.818   1.297  0.5612 -0.0826 -0.7462
  100MPD2    C1 1555   1.824   3.769   1.356 -0.0916  0.3113 -0.1744
  100MPD2    C2 1556   1.769   3.648   1.299  0.0552 -0.1498 -0.3698
  100MPD2    C3 1557   1.834   3.589   1.194 -0.0397  0.0042  0.3309
  100MPD2    C4 1558   1.946   3.645   1.136 -0.3338 -0.3268  0.4745
  100MPD2    C5 1559   1.999   3.762   1.192  0.8564  0.0141 -0.0914
  100MPD2     H 1560   1.676   3.600   1.328 -0.3132  1.9373  1.9070
  100MPD2    H1 1561   1.993   3.604   1.047  1.0684  3.6037 -0.5636
  100MPD2    H2 1562   1.998   3.901   1.334  0.0621  0.1185 -0.3903
  100MPD2    H3 1563   2.085   3.813   1.150 -1.5888  3.4272 -0.9717
  100MPD2     N 1564   1.775   3.470   1.145 -0.2044  0.2630 -0.1708
  100MPD2    H5 1565   1.683   3.447   1.182 -0.7120  1.5481 -0.6403
  100MPD2    N1 1566   1.767   3.820   1.474  0.3299 -0.0778  0.3891
  100MPD2    H7 1567   1.675   3.785   1.499  0.7503 -1.0046  0.6383
  101TMC2    C1 1568   2.715   4.154  13.247  0.0302  0.3034  0.2343
  101TMC2    C2 1569   2.652   4.112  13.133  0.2925  0.2360 -0.3657
  101TMC2    C3 1570   2.643   4.204  13.029  0.2031 -0.0787  0.0803
  101TMC2    C4 1571   2.766   4.283  13.256 -0.5156 -0.7732  0.2726
  101TMC2    C5 1572   2.746   4.368  13.150  0.1605 -0.4265 -0.6744
  101TMC2    C6 1573   2.686   4.333  13.034  0.0869 -0.0538  0.0383
  101TMC2     C 1574   2.671   4.093  13.374 -0.0285  0.2404 -0.3180
  101TMC2     O 1575   2.568   4.021  13.361  0.0229 -0.1840  0.3115
  101TMC2     H 1576   2.610   4.011  13.134  1.4495 -0.2487 -0.6783
  101TMC2    H1 1577   2.806   4.318  13.350 -1.4978 -0.7242  0.6772
  101TMC2    H2 1578   2.673   4.401  12.951  0.9874 -1.2312 -1.0647
  101TMC2    C7 1579   2.787   4.508  13.158 -0.2386 -0.1841 -0.0050
  101TMC2    C8 1580   2.555   4.167  12.919  0.8433 -0.0704  0.3942
  101TMC2    O1 1581   2.902   4.535  13.183 -0.4353 -0.1257 -0.3190
  101TMC2    O2 1582   2.474   4.076  12.938 -0.1081 -0.0745 -0.1661
  101TMC2    O5 1583   2.627   4.178  12.809 -0.0181  0.4210  0.2344
  101TMC2    H5 1584   2.708   4.231  12.828 -0.2855  0.6447  0.7511
  102MPD2     C 1585   2.811   4.084  13.721  0.6035  0.1361  0.4257
  102MPD2    C1 1586   2.714   4.070  13.615  0.6716  0.5086 -0.1607
  102MPD2    C2 1587   2.594   4.014  13.646 -0.7053  0.7456 -0.0351
  102MPD2    C3 1588   2.576   3.966  13.771 -0.9883  0.7263  0.1901
  102MPD2    C4 1589   2.677   3.968  13.870  0.4612  0.3739 -0.1720
  102MPD2    C5 1590   2.789   4.038  13.849 -0.4871 -0.8035 -0.8674
  102MPD2     H 1591   2.508   3.999  13.582 -0.7803 -1.9098  0.7298
  102MPD2    H1 1592   2.670   3.922  13.968 -1.0649 -0.4046 -0.6539
  102MPD2    H2 1593   2.906   4.132  13.699 -0.1678  0.9562 -1.1391
  102MPD2    H3 1594   2.868   4.046  13.922  0.7928 -2.2788 -2.1079
  102MPD2     N 1595   2.442   3.923  13.799  0.4492  0.1600  0.6374
  102MPD2    H5 1596   2.372   3.938  13.727 -0.5593 -2.7662  0.9915
  102MPD2    N1 1597   2.747   4.119  13.487 -0.2980 -0.1739 -0.4403
  102MPD2    H7 1598   2.840   4.159  13.477  0.2096 -0.9792  1.0057
  103TMC2    C1 1599   0.696   4.446  12.720 -0.4278 -0.8190 -0.3086
  103TMC2    C2 1600   0.759   4.527  12.635  0.6838  0.1711 -0.1090
  103TMC2    C3 1601   0.815   4.640  12.687 -0.0533 -0.3980  0.2747
  103TMC2    C4 1602   0.666   4.476  12.848 -0.1672 -0.2941 -0.8074
  103TMC2    C5 1603   0.714   4.595  12.896  0.4217  0.2566 -0.1126
  103TMC2    C6 1604   0.803   4.672  12.820 -0.1466 -0.1692 -0.4931
  103TMC2     C 1605   0.641   4.329  12.658  0.4454 -0.4890 -0.1122
  103TMC2     O 1606   0.622   4.327  12.534 -0.4868  0.2006  0.2601
  103TMC2     H 1607   0.783   4.484  12.539  0.2485 -1.2087  0.3955
  103TMC2    H1 1608   0.604   4.412  12.908  1.3632 -2.4750 -1.5699
  103TMC2    H2 1609   0.833   0.029  12.859  2.2796 -1.0891 -0.1135
  103TMC2    C7 1610   0.645   4.653  13.011 -0.2484 -0.1618 -0.4928
  103TMC2    C8 1611   0.888   4.724  12.596  0.3715 -0.1078 -0.0401
  103TMC2    O1 1612   0.563   4.580  13.061  0.2611 -0.1420  0.0599
  103TMC2    O2 1613   0.888   4.689  12.478 -0.8651 -0.2978  0.2215
  103TMC2    O5 1614   0.935   0.096  12.655 -0.1359 -0.1620 -0.9502
  103TMC2    H5 1615   0.901   0.101  12.747  3.3337  0.5832  0.2766
  104MPD2     C 1616   0.635   4.001  12.805  0.0138  0.2450 -0.6882
  104MPD2    C1 1617   0.590   4.101  12.722 -0.8108  0.1034  0.1053
  104MPD2    C2 1618   0.484   4.079  12.639 -0.4477 -0.4804 -1.2940
  104MPD2    C3 1619   0.423   3.953  12.630  0.3013  0.4432  0.0760
  104MPD2    C4 1620   0.481   3.852  12.703  0.3843 -0.3137 -0.3429
  104MPD2    C5 1621   0.578   3.877  12.790  0.4971 -0.8022 -0.5422
  104MPD2     H 1622   0.441   4.160  12.582  1.5445  1.4152 -0.0807
  104MPD2    H1 1623   0.433   3.756  12.716 -0.8695  0.3486 -0.0679
  104MPD2    H2 1624   0.727   4.011  12.862  0.9819 -0.9211 -2.0556
  104MPD2    H3 1625   0.613   3.801  12.859  1.4471 -2.0559 -2.3982
  104MPD2     N 1626   0.306   3.945  12.557  0.2769 -0.4183  0.5685
  104MPD2    H5 1627   0.271   4.028  12.511  1.5775 -0.8281 -1.1807
  104MPD2    N1 1628   0.641   4.226  12.744 -0.1583 -0.3109  0.3249
  104MPD2    H7 1629   0.691   4.249  12.830  2.0160 -0.2688 -0.9482
  105TMC2    C1 1630   1.913   3.791   0.127  0.6713 -0.3833 -0.2154
  105TMC2    C2 1631   1.862   3.912   0.082 -0.0860 -0.8424 -0.1255
  105TMC2    C3 1632   1.757   3.968   0.150  0.0965  0.2511  0.8251
  105TMC2    C4 1633   1.867   3.730   0.241  0.3027  0.2359  0.4587
  105TMC2    C5 1634   1.779   3.808   0.311 -0.3879  0.2495 -0.5431
  105TMC2    C6 1635   1.712   3.912   0.266 -0.5338 -0.1800 -0.9651
  105TMC2     C 1636   2.011   3.729   0.042 -0.0201 -0.5083 -1.1404
  105TMC2     O 1637   2.029   3.611   0.057 -0.5709  0.1020  0.0902
  105TMC2     H 1638   1.916   3.973   0.012 -0.8351  1.8906  1.6853
  105TMC2    H1 1639   1.912   3.638   0.276 -0.7526 -0.3799  0.2088
  105TMC2    H2 1640   1.646   3.972   0.328  0.3400 -1.0227  0.7812
  105TMC2    C7 1641   1.763   3.768   0.449  0.3001  0.2923 -0.1310
  105TMC2    C8 1642   1.735   4.113   0.157 -0.3907 -0.0698 -0.5712
  105TMC2    O1 1643   1.811   3.663   0.480  0.0248 -0.0085 -0.0688
  105TMC2    O2 1644   1.716   4.171   0.264 -0.5443  0.5317  0.2336
  105TMC2    O5 1645   1.791   4.178   0.058  0.3535  0.0279  0.1015
  105TMC2    H5 1646   1.768   4.132  17.729 -0.1335  0.4925 -0.0215
  106MPD2     C 1647   2.335   3.736  17.405  0.1303  0.6394 -0.4331
  106MPD2    C1 1648   2.297   3.862  17.429 -0.9521 -0.1154 -0.3533
  106MPD2    C2 1649   2.200   3.879  17.527 -0.8625 -0.8061 -0.4307
  106MPD2    C3 1650   2.152   3.777  17.605  0.0141  0.2986  0.2215
  106MPD2    C4 1651   2.178   3.648  17.562  0.2419  0.1201 -0.2906
  106MPD2    C5 1652   2.261   3.625  17.453  0.0292  0.1284  0.0644
  106MPD2     H 1653   2.163   3.980  17.545  0.9391 -0.3908  0.9218
  106MPD2    H1 1654   2.125   3.568  17.612  3.6682 -3.6973 -2.7226
  106MPD2    H2 1655   2.399   3.719  17.319  2.5690  0.6707  1.3717
  106MPD2    H3 1656   2.293   3.524  17.428 -1.3468  0.1713 -1.8489
  106MPD2     N 1657   2.066   3.815  17.707  0.0840 -0.5543  0.0560
  106MPD2    H5 1658   2.064   3.913  17.732  2.2059 -0.1541 -1.3256
  106MPD2    N1 1659   2.355   3.980  17.369  0.3341  0.9024  0.2695
  106MPD2    H7 1660   2.317   4.069  17.400 -2.4678  0.7541 -2.6766
  107TMC2    C1 1661   2.308   3.769  11.645 -0.1500 -0.6655  0.5222
  107TMC2    C2 1662   2.231   3.880  11.617  0.4539 -0.4558  0.2676
  107TMC2    C3 1663   2.278   3.968  11.525 -1.1619 -0.4286 -0.1516
  107TMC2    C4 1664   2.438   3.755  11.601 -0.4479 -0.4379  0.2572
  107TMC2    C5 1665   2.483   3.851  11.512  0.0874  0.2542  0.1649
  107TMC2    C6 1666   2.399   3.956  11.476 -0.3684 -0.4767  0.7329
  107TMC2     C 1667   2.279   3.718  11.785 -0.5766  0.2334  1.1859
  107TMC2     O 1668   2.215   3.794  11.860  0.4512 -0.3955 -0.3075
  107TMC2     H 1669   2.136   3.893  11.668 -0.3435 -0.1479 -1.2911
  107TMC2    H1 1670   2.508   3.677  11.631  0.4036 -0.4501 -1.7535
  107TMC2    H2 1671   2.436   4.032  11.408 -1.6265 -1.0626 -0.6197
  107TMC2    C7 1672   2.585   3.814  11.409 -0.1433 -0.0753  0.5242
  107TMC2    C8 1673   2.182   4.061  11.457  0.3254  0.5193 -0.5262
  107TMC2    O1 1674   2.631   3.905  11.347  0.1336 -0.2927  0.5130
  107TMC2    O2 1675   2.220   4.131  11.360  0.1164 -0.1218  0.3862
  107TMC2    O5 1676   2.069   4.078  11.528  0.0113 -0.1081  0.2877
  107TMC2    H5 1677   2.060   4.025  11.610 -0.4197  0.0401  0.3359
  108MPD2     C 1678   2.335   3.373  11.889  0.2518 -0.1990  0.6566
  108MPD2    C1 1679   2.298   3.502  11.918  0.5626  0.4964  1.1075
  108MPD2    C2 1680   2.226   3.525  12.033 -0.3936 -0.7668 -0.2451
  108MPD2    C3 1681   2.197   3.425  12.122 -0.5325  0.4213  0.1478
  108MPD2    C4 1682   2.244   3.300  12.099 -0.0349  0.0162  0.5134
  108MPD2    C5 1683   2.301   3.275  11.978  0.1951 -0.0942  0.0212
  108MPD2     H 1684   2.207   3.629  12.055  0.2501 -0.6666 -0.1516
  108MPD2    H1 1685   2.234   3.214  12.165 -1.3235  0.3071  0.7067
  108MPD2    H2 1686   2.394   3.355  11.800 -0.9479  2.4679 -0.6734
  108MPD2    H3 1687   2.341   3.178  11.953 -0.9415 -0.6882  0.4728
  108MPD2     N 1688   2.145   3.446  12.249 -0.5882  0.1924  0.5343
  108MPD2    H5 1689   2.128   3.368  12.311 -1.6359  0.3305  0.4311
  108MPD2    N1 1690   2.320   3.592  11.812  0.1402  0.6307  0.1712
  108MPD2    H7 1691   2.365   3.554  11.729  0.0633  1.4766 -0.2587
  109TMC2    C1 1692   2.263   0.687   0.587  0.1455 -0.5095 -0.6324
  109TMC2    C2 1693   2.286   0.589   0.496 -0.0303  0.4768 -0.0534
  109TMC2    C3 1694   2.406   0.582   0.437  0.4312  0.6091 -0.8031
  109TMC2    C4 1695   2.358   0.768   0.632  0.0703 -0.2933 -0.4145
  109TMC2    C5 1696   2.484   0.747   0.584  0.7463 -0.2548  0.0512
  109TMC2    C6 1697   2.508   0.657   0.487 -0.3421  0.4526  0.1820
  109TMC2     C 1698   2.137   0.720   0.639 -0.2015 -0.2207  0.6934
  109TMC2     O 1699   2.041   0.709   0.562 -0.2402 -0.2367 -0.0781
  109TMC2     H 1700   2.201   0.524   0.476  0.2180  0.6965 -1.8405
  109TMC2    H1 1701   2.335   0.864   0.677  1.3094  0.8313 -2.2190
  109TMC2    H2 1702   2.615   0.646   0.472 -0.1616 -0.5001  2.1011
  109TMC2    C7 1703   2.595   0.828   0.633 -0.8647  0.2009  0.1843
  109TMC2    C8 1704   2.430   0.495   0.329 -0.0100 -0.2252  0.0832
  109TMC2    O1 1705   2.702   0.833   0.571 -0.4381 -0.3147 -0.2998
  109TMC2    O2 1706   2.345   0.427   0.275  0.2461  0.7221 -0.2318
  109TMC2    O5 1707   2.560   0.493   0.286  1.0232 -0.0964 -0.0848
  109TMC2    H5 1708   2.614   0.568   0.320  0.1960  1.1936 -1.6031
  110MPD2     C 1709   1.836   0.849   1.041 -0.6916 -0.4968  0.1345
  110MPD2    C1 1710   1.969   0.856   1.082 -0.5068 -1.4580 -0.7230
  110MPD2    C2 1711   2.067   0.820   0.983 -0.1236  0.0653 -0.1317
  110MPD2    C3 1712   2.035   0.779   0.857 -0.0482 -0.2030  0.1599
  110MPD2    C4 1713   1.897   0.769   0.823  0.1037  0.2976  0.2426
  110MPD2    C5 1714   1.804   0.813   0.912  1.3169  0.3656  0.7686
  110MPD2     H 1715   2.171   0.846   0.999 -0.6760  2.4264 -0.3506
  110MPD2    H1 1716   1.860   0.740   0.726  1.0137 -2.0300  0.5909
  110MPD2    H2 1717   1.755   0.872   1.109 -1.3850 -0.4404 -0.7158
  110MPD2    H3 1718   1.698   0.819   0.887  1.5248 -0.7764 -0.3957
  110MPD2     N 1719   2.143   0.750   0.775 -0.2709  0.0361 -0.4263
  110MPD2    H5 1720   2.232   0.747   0.823 -1.0215  2.5749  1.1687
  110MPD2    N1 1721   2.003   0.895   1.212 -0.4666 -0.6613  0.1473
  110MPD2    H7 1722   1.925   0.934   1.263 -0.2032 -0.1538  0.1602
  111TMC2    C1 1723   2.570   0.024  11.500  0.4117  0.1036  0.0617
  111TMC2    C2 1724   2.484   0.054  11.604 -0.4480 -0.6467  0.0658
  111TMC2    C3 1725   2.490   4.727  11.721  0.4359 -0.1621  0.9965
  111TMC2    C4 1726   2.670   4.679  11.518  0.3192 -0.1593  0.8222
  111TMC2    C5 1727   2.673   4.623  11.645  0.4356 -0.0081 -0.3107
  111TMC2    C6 1728   2.586   4.633  11.748  0.2589  0.2186 -0.2282
  111TMC2     C 1729   2.608   0.143  11.428  0.5400  0.4162  0.8756
  111TMC2     O 1730   2.646   0.130  11.311  0.7372  0.3876 -0.1704
  111TMC2     H 1731   2.408   0.131  11.595  0.4479  0.0071 -1.8654
  111TMC2    H1 1732   2.757   4.680  11.454 -2.2484 -0.8414 -2.6846
  111TMC2    H2 1733   2.576   4.556  11.824  3.1321  0.4111  0.3704
  111TMC2    C7 1734   2.804   4.571  11.676 -0.2180 -0.9261 -0.0512
  111TMC2    C8 1735   2.364   4.716  11.783  0.1485 -0.1586 -0.1085
  111TMC2    O1 1736   2.882   4.552  11.585 -0.7190 -0.5227 -0.3228
  111TMC2    O2 1737   2.260   0.012  11.733 -0.2860 -0.5718 -0.2377
  111TMC2    O5 1738   2.387   4.718  11.917  0.2100 -0.2390  0.0479
  111TMC2    H5 1739   2.478   4.705  11.951 -0.6719 -2.4894  1.6134
  112MPD2     C 1740   2.686   0.656  11.416  0.1209 -0.1735 -0.1046
  112MPD2    C1 1741   2.664   0.564  11.313  0.0656 -0.2933  0.3798
  112MPD2    C2 1742   2.628   0.433  11.343  0.3525  0.1490  0.0457
  112MPD2    C3 1743   2.629   0.388  11.472 -0.1845  0.8570  0.7708
  112MPD2    C4 1744   2.657   0.477  11.570  0.1822 -0.7274  0.3602
  112MPD2    C5 1745   2.676   0.609  11.543  0.2732 -0.0037  0.1541
  112MPD2     H 1746   2.600   0.375  11.257  0.9727  0.8367 -0.6221
  112MPD2    H1 1747   2.673   0.449  11.674  1.0104 -1.0263  0.1555
  112MPD2    H2 1748   2.707   0.761  11.402 -1.1214  0.1869  0.7982
  112MPD2    H3 1749   2.687   0.676  11.628 -0.2022  1.0293 -0.6171
  112MPD2     N 1750   2.601   0.258  11.508  0.3031  0.2045  0.1222
  112MPD2    H5 1751   2.602   0.238  11.607 -0.3475 -0.3552  0.0114
  112MPD2    N1 1752   2.650   0.608  11.179  0.0999  1.2055 -0.2010
  112MPD2    H7 1753   2.638   0.537  11.108  1.3730  0.7531  0.0354
  113TMC2    C1 1754   0.661   3.547   0.519  0.4898  0.2413  0.7126
  113TMC2    C2 1755   0.651   3.645   0.427  0.3358 -0.0207 -0.0321
  113TMC2    C3 1756   0.608   3.610   0.307 -0.9984 -0.4263  0.2665
  113TMC2    C4 1757   0.595   3.427   0.501 -0.6177  0.0938  0.1744
  113TMC2    C5 1758   0.539   3.403   0.375 -0.5228 -0.1239 -0.8784
  113TMC2    C6 1759   0.536   3.499   0.281 -0.9940  0.4661  0.0304
  113TMC2     C 1760   0.725   3.583   0.643  0.6072 -0.4980  0.3199
  113TMC2     O 1761   0.702   3.699   0.681 -0.6038  0.2960  1.0388
  113TMC2     H 1762   0.714   3.733   0.439  0.5380  0.3190 -3.4102
  113TMC2    H1 1763   0.587   3.350   0.577 -0.0565  2.1065  2.2952
  113TMC2    H2 1764   0.517   3.465   0.180  0.1835 -0.6891  0.1981
  113TMC2    C7 1765   0.501   3.267   0.338  0.8502  1.5648 -0.2900
  113TMC2    C8 1766   0.628   3.682   0.193 -0.1384  0.3490  0.0292
  113TMC2    O1 1767   0.421   3.253   0.248  0.2813 -0.3501 -0.3204
  113TMC2    O2 1768   0.730   3.727   0.145 -0.3800 -0.1712 -0.0858
  113TMC2    O5 1769   0.506   3.685   0.135  0.5236  0.2966 -0.6140
  113TMC2    H5 1770   0.434   3.658   0.196  0.4971 -2.1452 -1.7373
  114MPD2     C 1771   1.050   3.518   1.033  0.3380  0.2884  0.1053
  114MPD2    C1 1772   0.971   3.626   1.003 -0.2298  0.0327  0.2218
  114MPD2    C2 1773   0.889   3.608   0.892  0.1670  0.1605 -0.5478
  114MPD2    C3 1774   0.874   3.493   0.823 -0.1793  0.6063  0.4004
  114MPD2    C4 1775   0.944   3.385   0.869  0.8968  0.3553  0.6045
  114MPD2    C5 1776   1.028   3.398   0.973  0.1430 -0.0635  0.7992
  114MPD2     H 1777   0.832   3.697   0.871  0.9195  0.7840  0.0463
  114MPD2    H1 1778   0.943   3.288   0.822 -1.2048  0.3520  0.6722
  114MPD2    H2 1779   1.113   3.528   1.120  2.3360 -0.2012 -1.2714
  114MPD2    H3 1780   1.082   3.310   1.006 -0.0727 -0.2101  0.7612
  114MPD2     N 1781   0.789   3.483   0.711 -0.4414 -0.3070  0.1731
  114MPD2    H5 1782   0.777   3.393   0.666 -0.0381  0.3353 -1.2083
  114MPD2    N1 1783   0.949   3.741   1.082 -0.8016  0.4792 -0.0672
  114MPD2    H7 1784   0.869   3.796   1.054 -1.7744 -1.8715 -1.9100
  115TMC2    C1 1785   2.192   1.345  17.673 -0.0078 -0.7495 -0.0953
  115TMC2    C2 1786   2.301   1.358   0.009  0.1488  0.2100 -0.3157
  115TMC2    C3 1787   2.337   1.485   0.033  0.6661 -0.6841  0.3975
  115TMC2    C4 1788   2.126   1.451  17.626 -0.5120  0.6668  0.1288
  115TMC2    C5 1789   2.164   1.580  17.656 -0.7091  0.1828 -0.3449
  115TMC2    C6 1790   2.274   1.598  17.734  0.3421  0.0529  0.9471
  115TMC2     C 1791   2.135   1.216  17.655  0.3619 -0.3525 -0.1312
  115TMC2     O 1792   2.017   1.213  17.624  0.8499  1.2671  0.3991
  115TMC2     H 1793   2.353   1.283   0.068  2.7399  2.3831  0.1574
  115TMC2    H1 1794   2.049   1.437  17.551  0.4226  0.0406 -0.7072
  115TMC2    H2 1795   2.315   1.695   0.004  1.4244  0.1788 -1.3038
  115TMC2    C7 1796   2.087   1.684  17.598  0.5085  0.4586  0.0521
  115TMC2    C8 1797   2.463   1.509   0.094  0.4202  1.4175  0.2549
  115TMC2    O1 1798   1.977   1.651  17.565  0.2655 -0.1163  0.2232
  115TMC2    O2 1799   2.535   1.600   0.059 -0.1683 -0.4664 -0.3600
  115TMC2    O5 1800   2.461   1.460   0.216  0.0284 -0.6435  0.3176
  115TMC2    H5 1801   2.373   1.426   0.243  0.6123 -1.7234  0.9105
  116MPD2     C 1802   2.126   0.701  17.682 -0.2602 -0.7603 -0.5774
  116MPD2    C1 1803   2.027   0.789  17.639  0.4303  0.1133  0.1829
  116MPD2    C2 1804   2.048   0.930  17.640  0.8016  0.7377 -0.5068
  116MPD2    C3 1805   2.178   0.976  17.664  0.4090  0.7622  1.2960
  116MPD2    C4 1806   2.277   0.885  17.692  0.0848  1.1429 -0.6646
  116MPD2    C5 1807   2.249   0.752  17.698 -0.1413  0.2775 -0.0643
  116MPD2     H 1808   1.968   0.998  17.611 -0.9007 -0.7682  0.6689
  116MPD2    H1 1809   2.374   0.916  17.729  0.1271  0.4430 -0.1796
  116MPD2    H2 1810   2.094   0.599  17.699 -0.0917 -0.8690 -0.8958
  116MPD2    H3 1811   2.331   0.682  17.715  1.0590  1.5916 -0.4608
  116MPD2     N 1812   2.220   1.111  17.666 -0.1891 -0.2044  0.1659
  116MPD2    H5 1813   2.318   1.131  17.682 -0.0408  0.5648 -1.6748
  116MPD2    N1 1814   1.896   0.729  17.615 -0.7707 -0.3704 -0.7249
  116MPD2    H7 1815   1.892   0.628  17.616 -0.7183 -0.3630  0.1328
  117TMC2    C1 1816   0.494   2.393  14.454 -0.4960  0.6358 -0.4332
  117TMC2    C2 1817   0.624   2.362  14.497 -0.5371 -0.3074 -0.2361
  117TMC2    C3 1818   0.696   2.472  14.521 -0.3830  0.5696  0.5749
  117TMC2    C4 1819   0.449   2.522  14.439  0.0242 -0.0446  0.7716
  117TMC2    C5 1820   0.530   2.627  14.480  0.4804 -0.1383  0.2246
  117TMC2    C6 1821   0.654   2.602  14.517 -0.3432 -0.6990 -0.2503
  117TMC2     C 1822   0.410   2.285  14.416 -0.0340  0.7704 -1.5791
  117TMC2     O 1823   0.465   2.177  14.427 -0.2434 -0.4270 -0.2428
  117TMC2     H 1824   0.656   2.260  14.513  0.9317  0.2408  0.3068
  117TMC2    H1 1825   0.359   2.553  14.387  1.0042  0.4207 -0.6537
  117TMC2    H2 1826   0.715   2.680  14.560  0.3731 -3.5505  3.8379
  117TMC2    C7 1827   0.497   2.769  14.465 -0.5898  0.1163 -0.0283
  117TMC2    C8 1828   0.836   2.445  14.533 -0.6776  0.3863  0.1101
  117TMC2    O1 1829   0.577   2.856  14.485  0.3050  0.0672  0.7889
  117TMC2    O2 1830   0.897   2.390  14.630  0.1994  0.3551 -0.3828
  117TMC2    O5 1831   0.887   2.545  14.461 -0.2720  0.1503  0.6682
  117TMC2    H5 1832   0.820   2.577  14.397 -1.0514 -0.6860  1.0536
  118MPD2     C 1833   0.177   2.911  14.341 -0.6043  0.7339 -0.3344
  118MPD2    C1 1834   0.310   2.902  14.359 -0.5555  0.7723  0.0290
  118MPD2    C2 1835   0.388   3.010  14.328  0.7021 -0.0162 -0.0937
  118MPD2    C3 1836   0.330   3.128  14.291  0.5350  0.4960  0.4854
  118MPD2    C4 1837   0.195   3.141  14.307  0.6221  0.0514  0.4018
  118MPD2    C5 1838   0.115   3.030  14.317  0.1019 -0.2327 -0.3714
  118MPD2     H 1839   0.496   3.007  14.329  0.7719  0.0297 -4.8304
  118MPD2    H1 1840   0.142   3.235  14.300  0.7319  0.2891  2.7812
  118MPD2    H2 1841   0.112   2.826  14.353 -1.1272  0.9690 -1.4623
  118MPD2    H3 1842   0.008   3.050  14.320  0.1000 -0.2872 -0.0039
  118MPD2     N 1843   0.406   3.242  14.250 -0.4306  0.1598 -0.4187
  118MPD2    H5 1844   0.352   3.327  14.238  0.9249  0.6962 -2.7595
  118MPD2    N1 1845   0.363   2.785  14.413  0.3625 -0.8223  0.1819
  118MPD2    H7 1846   0.302   2.704  14.407  0.5498 -1.0141  0.8794
  119TMC2    C1 1847   3.509   3.717  13.381 -0.2475 -0.0550  0.3389
  119TMC2    C2 1848   3.608   3.630  13.341 -0.1440  0.0149  0.4229
  119TMC2    C3 1849   3.582   3.495  13.342  0.2584  0.1419 -0.8013
  119TMC2    C4 1850   3.380   3.669  13.409  0.1573  0.1869 -0.3715
  119TMC2    C5 1851   3.360   3.534  13.402  0.4708 -0.6291 -0.5443
  119TMC2    C6 1852   3.461   3.448  13.373 -0.0887  0.0108 -0.7119
  119TMC2     C 1853   3.518   3.862  13.373  0.4070  1.0948  0.2979
  119TMC2     O 1854   3.436   3.928  13.430 -0.1316 -0.2723 -0.4743
  119TMC2     H 1855   3.694   3.681  13.300  1.2934 -0.5297  2.7849
  119TMC2    H1 1856   3.298   3.737  13.431 -0.8411 -1.1535  0.0538
  119TMC2    H2 1857   3.440   3.342  13.364  0.3377 -0.1690  0.4736
  119TMC2    C7 1858   3.223   3.481  13.392 -0.6329  0.4107  0.4045
  119TMC2    C8 1859   3.658   3.421  13.249  0.0953  0.1490  0.1965
  119TMC2    O1 1860   3.222   3.385  13.313  0.8008  0.2333 -0.4742
  119TMC2    O2 1861   3.611   3.341  13.170 -0.3151 -0.1724  0.5895
  119TMC2    O5 1862   3.789   3.457  13.260 -0.1050  0.2704  0.1836
  119TMC2    H5 1863   3.806   3.513  13.339  2.1376  3.2497 -2.4091
  120MPD2     C 1864   3.778   4.307  13.392  0.1058 -0.6984  0.0398
  120MPD2    C1 1865   3.663   4.271  13.447 -0.5121 -0.3265 -0.1259
  120MPD2    C2 1866   3.612   4.145  13.420  0.7469  0.1394  0.4282
  120MPD2    C3 1867   3.688   4.049  13.353  0.0119 -0.0421  0.1383
  120MPD2    C4 1868   3.806   4.091  13.296  0.3880 -0.2809 -0.5510
  120MPD2    C5 1869   3.856   4.214  13.319  0.6648 -0.5197  0.1312
  120MPD2     H 1870   3.510   4.128  13.451  0.9242 -0.9292  0.4118
  120MPD2    H1 1871   3.869   4.024  13.238  0.2216  1.2341 -2.4511
  120MPD2    H2 1872   3.819   4.406  13.410  0.0113 -0.2605 -2.1863
  120MPD2    H3 1873   3.956   4.241  13.285  0.4586  1.6564  1.2677
  120MPD2     N 1874   3.643   3.914  13.328  0.5151 -0.0401  0.1686
  120MPD2    H5 1875   3.712   3.851  13.287  0.3152  0.5797 -1.1312
  120MPD2    N1 1876   3.593   4.372  13.530  0.3895  0.2226 -0.5328
  120MPD2    H7 1877   3.614   4.470  13.515  1.8438 -0.0028  0.0198
  121TMC2    C1 1878   4.598   1.080  14.775  0.2241 -0.8732 -0.1891
  121TMC2    C2 1879   4.561   0.993  14.875  0.2534  0.2118 -0.3109
  121TMC2    C3 1880   4.437   0.938  14.860 -0.3411  0.8824  0.2430
  121TMC2    C4 1881   4.515   1.118  14.675 -1.0370  0.4562  0.0347
  121TMC2    C5 1882   4.389   1.065  14.672  0.2045 -0.2188  0.4206
  121TMC2    C6 1883   4.349   0.965  14.755  0.5284  0.6314 -0.1284
  121TMC2     C 1884   4.727   1.138  14.778 -0.7798  0.2582 -0.3794
  121TMC2     O 1885   0.056   1.118  14.878  0.8110 -0.5978  0.3599
  121TMC2     H 1886   4.625   0.957  14.954 -0.1987 -0.1068 -0.0909
  121TMC2    H1 1887   4.547   1.182  14.593  1.4098 -1.0659 -0.2068
  121TMC2    H2 1888   4.248   0.928  14.761  1.0828 -1.1598 -1.9395
  121TMC2    C7 1889   4.316   1.096  14.556  0.9052 -0.7484 -0.4148
  121TMC2    C8 1890   4.391   0.846  14.962  0.3653 -0.3445 -0.0375
  121TMC2    O1 1891   4.365   1.165  14.467  0.0368 -0.1285  0.5254
  121TMC2    O2 1892   4.271   0.832  14.996 -0.4959  0.4049  0.4971
  121TMC2    O5 1893   4.480   0.750  14.969  0.0553  0.0636  0.0311
  121TMC2    H5 1894   4.571   0.772  14.940 -0.4712  1.4651 -0.5481
  122MPD2     C 1895   0.236   1.272  14.679 -0.3093 -0.0257  0.8817
  122MPD2    C1 1896   0.151   1.200  14.606 -0.6139  0.4299  0.3848
  122MPD2    C2 1897   0.160   1.210  14.470 -0.0961  0.3095 -0.3171
  122MPD2    C3 1898   0.266   1.266  14.409  0.5433  0.3065 -0.3521
  122MPD2    C4 1899   0.366   1.310  14.490  0.3488 -0.2955  0.2491
  122MPD2    C5 1900   0.346   1.326  14.623 -0.3149 -0.5339  0.0292
  122MPD2     H 1901   0.073   1.167  14.422 -0.0113 -0.6256  0.3492
  122MPD2    H1 1902   0.442   1.368  14.438 -0.7955  1.7998  0.9257
  122MPD2    H2 1903   0.217   1.297  14.783 -0.5083  1.0280  0.5991
  122MPD2    H3 1904   0.409   1.389  14.685  0.4982 -0.9098 -0.4250
  122MPD2     N 1905   0.284   1.268  14.271 -0.1409  0.2371 -0.3958
  122MPD2    H5 1906   0.378   1.277  14.235 -0.2716  3.9840  0.2333
  122MPD2    N1 1907   0.033   1.140  14.653  0.4408 -0.3699 -0.5616
  122MPD2    H7 1908   4.721   1.078  14.591 -2.1803 -0.7784  1.9870
  123TMC2    C1 1909   3.420   3.558  10.386  0.0939  0.4248 -0.6510
  123TMC2    C2 1910   3.527   3.641  10.414 -0.2550  0.0486 -0.0902
  123TMC2    C3 1911   3.648   3.582  10.409  0.7620  0.3267  0.1381
  123TMC2    C4 1912   3.428   3.439  10.323 -0.0416  0.4787 -0.8973
  123TMC2    C5 1913   3.553   3.387  10.315 -0.2061  0.2452 -0.3061
  123TMC2    C6 1914   3.667   3.456  10.366 -0.4120 -0.3511  0.1754
  123TMC2     C 1915   3.286   3.619  10.389  0.4634  0.3736  0.2073
  123TMC2     O 1916   3.283   3.741  10.402  0.0845 -0.2855 -0.4131
  123TMC2     H 1917   3.520   3.745  10.443 -1.2994  0.4292 -1.6693
  123TMC2    H1 1918   3.349   3.388  10.269  0.3598 -3.1761  1.9595
  123TMC2    H2 1919   3.765   3.409  10.366 -0.3545 -0.2243 -0.3976
  123TMC2    C7 1920   3.570   3.260  10.254 -0.2246 -0.2444 -0.8622
  123TMC2    C8 1921   3.756   3.662  10.459  0.1264  0.4760  0.0704
  123TMC2    O1 1922   3.480   3.180  10.278 -0.5844 -0.3687 -0.2174
  123TMC2    O2 1923   3.761   3.703  10.576 -0.5033  0.4440 -0.0149
  123TMC2    O5 1924   3.857   3.652  10.370 -0.9003  0.5337 -0.1915
  123TMC2    H5 1925   3.820   3.623  10.284 -1.2130 -0.3635  0.2441
  124MPD2     C 1926   2.786   3.648  10.295  0.4485 -0.5968  0.1576
  124MPD2    C1 1927   2.821   3.521  10.332 -0.1486 -0.3784 -0.1210
  124MPD2    C2 1928   2.949   3.491  10.366 -0.1836  0.4067 -0.1251
  124MPD2    C3 1929   3.054   3.573  10.345 -0.4181  0.5701  0.0805
  124MPD2    C4 1930   3.026   3.696  10.288 -0.3816  0.1699  0.6625
  124MPD2    C5 1931   2.893   3.738  10.275 -0.4967 -0.6034 -0.1965
  124MPD2     H 1932   2.960   3.393  10.410  0.1124 -0.0784 -1.2886
  124MPD2    H1 1933   3.101   3.769  10.260  0.3732 -1.8022 -2.4346
  124MPD2    H2 1934   2.679   3.665  10.281  0.7072  1.6935  0.9193
  124MPD2    H3 1935   2.872   3.842  10.254 -1.2790 -0.7425 -0.1139
  124MPD2     N 1936   3.181   3.532  10.378  0.3992 -0.3753  0.5153
  124MPD2    H5 1937   3.202   3.437  10.407  1.0667 -0.0227  1.1704
  124MPD2    N1 1938   2.715   3.416  10.339 -0.1527 -0.4869  0.0746
  124MPD2    H7 1939   2.621   3.449  10.317  0.4064  0.2367 -1.2392
  125TMC2    C1 1940   3.842   4.584   9.696 -0.1301 -0.2522 -0.0530
  125TMC2    C2 1941   3.888   4.575   9.570  0.4264  0.8079 -0.4245
  125TMC2    C3 1942   3.982   4.673   9.534  0.8265  0.0754 -0.3182
  125TMC2    C4 1943   3.863   4.688   9.782 -0.6303 -0.9316  0.3867
  125TMC2    C5 1944   3.927   0.056   9.734  0.4854 -0.5670 -0.4334
  125TMC2    C6 1945   3.995   0.045   9.615 -1.0483  0.2491 -0.7348
  125TMC2     C 1946   3.743   4.492   9.751  0.1416  0.0087 -0.4787
  125TMC2     O 1947   3.755   4.375   9.716  0.0276  0.1159  0.4726
  125TMC2     H 1948   3.855   4.496   9.504  0.9933 -1.3530  1.8696
  125TMC2    H1 1949   3.819   4.691   9.881 -0.7543  0.4940  0.2952
  125TMC2    H2 1950   4.071   0.117   9.586 -0.0536  0.0157  1.2839
  125TMC2    C7 1951   3.993   0.137   9.844 -0.0793 -0.2958  0.5006
  125TMC2    C8 1952   4.042   4.665   9.403 -0.0349  0.3460 -0.1390
  125TMC2    O1 1953   3.988   0.085   9.954  0.3618  1.2857 -0.2283
  125TMC2    O2 1954   4.165   4.673   9.379 -0.3349 -0.2673 -0.1938
  125TMC2    O5 1955   3.944   4.643   9.310 -0.4278 -0.2127 -0.7696
  125TMC2    H5 1956   3.850   4.649   9.336 -0.2497 -1.6978  0.2173
  126MPD1     C 1957   3.317   4.365   9.998 -0.4057 -0.0807 -0.1112
  126MPD1    C1 1958   3.313   4.501   9.974  0.2319 -0.4002  0.4565
  126MPD1    C2 1959   3.423   4.558   9.907  0.0562 -0.7294 -0.3710
  126MPD1    C3 1960   3.532   4.488   9.872 -0.2012  0.7479  0.0278
  126MPD1    C4 1961   3.536   4.352   9.896  0.0188  0.1615 -0.0752
  126MPD1    C5 1962   3.425   4.287   9.957  0.3564  0.4173  1.3384
  126MPD1     H 1963   3.428   4.663   9.881 -0.7542 -0.2244  1.5441
  126MPD1    H1 1964   3.629   4.300   9.878 -0.1911 -0.0346 -0.6147
  126MPD1    H2 1965   3.251   4.302  10.058  0.6844 -2.8737 -1.8199
  126MPD1    H3 1966   3.430   4.180   9.970  1.4924  0.4128  0.8102
  126MPD1     N 1967   3.636   4.554   9.807  0.0136 -0.1937  0.0500
  126MPD1    H5 1968   3.625   4.654   9.813  1.3229  0.0482 -1.5291
  126MPD1    N1 1969   3.228   4.584  10.054  0.1381  0.3052  0.0686
  126MPD1    H6 1970   3.195   4.660   9.994  0.0421  0.0837 -0.1580
  126MPD1    H7 1971   3.140   4.546  10.088 -0.3934  0.4432 -1.1335
  127TMC2    C1 1972   0.265   4.357  10.102  0.0451 -0.2861 -0.4374
  127TMC2    C2 1973   0.302   4.347  10.233  0.7056 -0.1987 -0.2155
  127TMC2    C3 1974   0.241   4.242  10.303  0.3480  0.1250 -0.2378
  127TMC2    C4 1975   0.182   4.267  10.040 -0.4609  0.4427  0.5975
  127TMC2    C5 1976   0.118   4.173  10.106 -0.0546 -0.2021  0.0315
  127TMC2    C6 1977   0.148   4.159  10.240  0.2776 -0.7109  0.2371
  127TMC2     C 1978   0.344   4.452  10.019  0.5448  0.1141  0.2291
  127TMC2     O 1979   0.425   4.527  10.078 -0.0168 -0.0014 -0.0161
  127TMC2     H 1980   0.372   4.419  10.273 -0.0841 -0.1964  1.1672
  127TMC2    H1 1981   0.175   4.269   9.932  0.6102  1.4424  0.5458
  127TMC2    H2 1982   0.093   4.080  10.290  2.2177 -1.5006  1.1066
  127TMC2    C7 1983   0.045   4.070  10.031  0.1139 -0.1349  0.1795
  127TMC2    C8 1984   0.238   4.238  10.451  0.4508  0.6450  0.5513
  127TMC2    O1 1985   0.059   4.077   9.911 -0.1043 -0.1273 -0.1499
  127TMC2    O2 1986   0.175   4.157  10.520  0.4101 -0.3812  0.3170
  127TMC2    O5 1987   0.302   4.341  10.504 -0.0206 -0.1767  0.4418
  127TMC2    H5 1988   0.320   4.415  10.443  2.1994  0.8289  2.3156
  128MPD2     C 1989   0.274   4.546   9.671 -0.5612 -0.0657  0.0477
  128MPD2    C1 1990   0.333   4.566   9.792 -0.2549  0.1360  0.0044
  128MPD2    C2 1991   0.418   4.667   9.816 -0.1748 -0.4757 -0.7563
  128MPD2    C3 1992   0.443   0.024   9.715  0.0290  0.3487 -0.2771
  128MPD2    C4 1993   0.381   0.007   9.598  0.3214  0.5154  0.2012
  128MPD2    C5 1994   0.303   4.638   9.576  0.4725 -0.8687  0.1783
  128MPD2     H 1995   0.470   4.671   9.910  0.3848  1.9742 -1.1606
  128MPD2    H1 1996   0.398   0.074   9.515 -1.3718 -1.0103 -1.3731
  128MPD2    H2 1997   0.203   4.464   9.661  1.2940 -1.5798 -0.7358
  128MPD2    H3 1998   0.254   4.638   9.479  0.0516 -1.7697  0.3850
  128MPD2     N 1999   0.528   0.137   9.747 -0.1026  0.2140  0.0339
  128MPD2    H5 2000   0.568   0.140   9.840 -0.5583 -1.0452  0.2697
  128MPD2    N1 2001   0.298   4.462   9.887 -0.6145  0.6603 -0.2789
  128MPD2    H7 2002   0.221   4.398   9.870  0.0977 -0.3558  0.3289
  129TMC2    C1 2003   3.672   4.649   1.798 -0.3629  0.2711 -0.2093
  129TMC2    C2 2004   3.671   4.549   1.896  0.1299 -0.2339  0.0251
  129TMC2    C3 2005   3.548   4.510   1.939 -0.2397  0.2060  0.0139
  129TMC2    C4 2006   3.556   4.703   1.739  0.1638  0.3660 -0.4863
  129TMC2    C5 2007   3.438   4.661   1.792 -0.2533  0.1377  0.8778
  129TMC2    C6 2008   3.428   4.570   1.899  0.5096 -0.5285 -0.4833
  129TMC2     C 2009   3.795   4.671   1.726 -0.3110  0.8499 -0.2284
  129TMC2     O 2010   3.892   4.604   1.759  0.0135  0.4721 -0.1445
  129TMC2     H 2011   3.760   4.499   1.934  0.2222 -0.0305  0.0725
  129TMC2    H1 2012   3.557   0.040   1.662  2.3444  2.8368  1.9999
  129TMC2    H2 2013   3.332   4.537   1.937  0.5751  0.7781  0.8421
  129TMC2    C7 2014   3.315   4.730   1.749  0.9534  0.5114 -0.3159
  129TMC2    C8 2015   3.528   4.453   2.074 -1.2640  0.1561 -0.4577
  129TMC2    O1 2016   3.220   4.739   1.828  0.3388  0.1091  0.1389
  129TMC2    O2 2017   3.484   4.340   2.081 -0.0197  0.1803  0.2919
  129TMC2    O5 2018   3.497   4.556   2.149 -0.2251  0.6982  0.1383
  129TMC2    H5 2019   3.528   4.644   2.120  0.5700  0.7725  1.2313
  130MPD2     C 2020   4.028   0.047   1.571  0.0152 -0.5001 -0.3125
  130MPD2    C1 2021   3.899   0.098   1.565  0.1287 -0.0340 -0.0748
  130MPD2    C2 2022   3.873   0.214   1.495 -0.1099  0.5084  0.3057
  130MPD2    C3 2023   3.971   0.280   1.426  0.4542  0.1989  0.7634
  130MPD2    C4 2024   4.091   0.208   1.406 -0.8241 -0.2309 -0.1687
  130MPD2    C5 2025   4.125   0.095   1.483  0.0602 -0.4018 -0.1093
  130MPD2     H 2026   3.785   0.277   1.507  0.0825  0.2782  3.1311
  130MPD2    H1 2027   4.172   0.243   1.343  0.4195 -1.0856  0.9632
  130MPD2    H2 2028   4.056   4.700   1.630  0.6374  0.0969  0.2603
  130MPD2    H3 2029   4.227   0.058   1.477 -0.0041 -0.2594 -2.3116
  130MPD2     N 2030   3.937   0.404   1.355  0.0018 -0.1534 -0.4805
  130MPD2    H5 2031   3.843   0.440   1.364  0.1481  0.6299 -2.0592
  130MPD2    N1 2032   3.791   0.032   1.636  0.6765  0.6690  0.0369
  130MPD2    H7 2033   3.702   0.079   1.624  0.7930  1.0084  0.5253
  131TMC2    C1 2034   2.232   3.771   9.600  0.2702 -0.6398  0.0447
  131TMC2    C2 2035   2.143   3.708   9.516 -0.5128  0.1704  0.3580
  131TMC2    C3 2036   2.159   3.729   9.387 -0.3061  0.4433 -0.6527
  131TMC2    C4 2037   2.345   3.829   9.541  0.2760 -0.0191 -0.4813
  131TMC2    C5 2038   2.352   3.845   9.406 -0.3058 -0.0136 -0.2319
  131TMC2    C6 2039   2.252   3.793   9.325  0.0280 -0.8309  0.4720
  131TMC2     C 2040   2.244   3.732   9.736  0.0805  0.7780 -0.5622
  131TMC2     O 2041   2.358   3.720   9.778  0.1474 -0.1420 -0.6001
  131TMC2     H 2042   2.057   3.656   9.557  0.4179 -2.4653 -1.0357
  131TMC2    H1 2043   2.413   3.881   9.607  1.3875 -1.7773 -0.2223
  131TMC2    H2 2044   2.256   3.801   9.217 -0.4946  1.0339  0.5830
  131TMC2    C7 2045   2.427   3.955   9.349 -0.5635  0.1578 -0.1627
  131TMC2    C8 2046   2.062   3.676   9.306  0.2421  0.2971  0.3348
  131TMC2    O1 2047   2.369   4.017   9.259  0.2673  0.0282  0.1405
  131TMC2    O2 2048   2.041   3.713   9.190  0.2768 -0.3888 -0.2486
  131TMC2    O5 2049   2.047   3.548   9.338  0.6471  0.3233 -0.0226
  131TMC2    H5 2050   2.094   3.518   9.419  0.1375  1.2117  0.6043
  132MPD2     C 2051   1.975   3.604   9.945  0.3201 -0.1226  0.0708
  132MPD2    C1 2052   2.102   3.613   9.897 -0.1681  0.2445 -0.3117
  132MPD2    C2 2053   2.205   3.549   9.967  0.5863  0.3085  0.6294
  132MPD2    C3 2054   2.171   3.445  10.057  0.9774 -0.3773 -0.1500
  132MPD2    C4 2055   2.035   3.437  10.093  0.6055  0.2307 -0.0878
  132MPD2    C5 2056   1.938   3.516  10.043  0.0052  0.5333 -0.9464
  132MPD2     H 2057   2.307   3.558   9.931 -0.8795  1.2499 -3.3007
  132MPD2    H1 2058   2.003   3.396  10.189 -1.8815  1.4237 -0.4070
  132MPD2    H2 2059   1.900   3.672   9.907 -1.9288 -1.8740  1.3857
  132MPD2    H3 2060   1.844   3.517  10.097 -0.5588 -0.0336 -1.9168
  132MPD2     N 2061   2.276   3.376  10.124 -0.7449  0.7219  0.7218
  132MPD2    H5 2062   2.370   3.390  10.086 -0.6612 -1.9960 -0.0213
  132MPD2    N1 2063   2.123   3.698   9.786  0.3939  0.6806 -0.3162
  132MPD2    H7 2064   2.037   3.732   9.743 -0.2120  0.4684  0.7372
  133TMC2    C1 2065   1.811   0.450   9.749 -0.3106 -0.0910  0.4488
  133TMC2    C2 2066   1.705   0.541   9.728  0.1591 -0.2300  0.4360
  133TMC2    C3 2067   1.703   0.659   9.793  0.4299 -0.2710  0.9577
  133TMC2    C4 2068   1.916   0.487   9.835 -0.6499 -0.9350  0.1930
  133TMC2    C5 2069   1.899   0.602   9.909  0.1526 -0.0119 -0.1711
  133TMC2    C6 2070   1.799   0.694   9.887 -0.2616  0.4145  0.6488
  133TMC2     C 2071   1.828   0.334   9.664  0.5353  0.4286  0.0907
  133TMC2     O 2072   1.920   0.257   9.694  0.3085  0.1368  0.1146
  133TMC2     H 2073   1.619   0.509   9.670  0.8483  1.7558 -1.6634
  133TMC2    H1 2074   1.997   0.415   9.848 -1.4214 -1.9360 -0.5638
  133TMC2    H2 2075   1.784   0.785   9.944  0.2964  1.9360 -1.6320
  133TMC2    C7 2076   2.000   0.658   9.995  1.1755  0.0405 -0.8006
  133TMC2    C8 2077   1.623   0.768   9.739  0.2168  0.2361 -0.3642
  133TMC2    O1 2078   2.019   0.774   9.981 -0.6194 -0.9927 -0.3373
  133TMC2    O2 2079   1.511   0.743   9.690  0.2104  0.2401 -1.1848
  133TMC2    O5 2080   1.703   0.866   9.702  0.5084 -0.3432 -0.4446
  133TMC2    H5 2081   1.786   0.878   9.754  0.7579  1.1907 -1.1813
  134MPD2     C 2082   1.647   0.233   9.359  0.0479  0.4286 -0.2914
  134MPD2    C1 2083   1.735   0.221   9.464  0.4988  0.4177 -0.2996
  134MPD2    C2 2084   1.811   0.106   9.476 -0.4267  0.9432  0.8460
  134MPD2    C3 2085   1.782   4.737   9.392  0.8921  0.1821 -0.8997
  134MPD2    C4 2086   1.681   0.012   9.294 -0.7008 -0.1734 -0.1898
  134MPD2    C5 2087   1.626   0.138   9.270 -0.4315  0.4943  0.3390
  134MPD2     H 2088   1.876   0.084   9.561  0.4215 -0.4429 -0.1642
  134MPD2    H1 2089   1.660   4.670   9.226 -0.7520  0.1155 -0.5183
  134MPD2    H2 2090   1.592   0.325   9.341 -0.8189 -0.0504 -0.1123
  134MPD2    H3 2091   1.559   0.162   9.189  0.1432  2.5887  0.4962
  134MPD2     N 2092   1.843   4.605   9.410 -0.1594 -0.4467 -0.0745
  134MPD2    H5 2093   1.817   4.524   9.355  0.2470 -1.0549  0.6165
  134MPD2    N1 2094   1.744   0.326   9.555 -0.1545 -0.4083 -0.3219
  134MPD2    H7 2095   1.695   0.411   9.531 -1.0498 -1.0390 -0.6963
  135TMC2    C1 2096   4.632   1.250   9.915 -0.7570  0.0323 -0.6796
  135TMC2    C2 2097   4.625   1.226  10.046  0.2642 -0.5729  0.8368
  135TMC2    C3 2098   4.512   1.162  10.095 -0.4016  0.0140 -0.6419
  135TMC2    C4 2099   4.522   1.241   9.833 -0.3571  0.5504 -0.0237
  135TMC2    C5 2100   4.408   1.188   9.887  0.3880 -0.6702  0.4734
  135TMC2    C6 2101   4.402   1.145  10.018 -0.0550 -0.3420  1.2166
  135TMC2     C 2102   4.737   1.351   9.879  0.1202  0.8755 -0.3259
  135TMC2     O 2103   0.040   1.425   9.965 -0.0540 -0.7023  0.5200
  135TMC2     H 2104   4.708   1.239  10.114  0.7581  0.3951  0.0468
  135TMC2    H1 2105   4.524   1.258   9.726  0.5317 -2.4548 -0.4775
  135TMC2    H2 2106   4.320   1.087  10.060 -1.4597  1.1444  0.5299
  135TMC2    C7 2107   4.304   1.147   9.793  0.3102 -0.3116 -0.5718
  135TMC2    C8 2108   4.505   1.171  10.239  0.6611  0.3389  0.3271
  135TMC2    O1 2109   4.304   1.205   9.687 -0.7056 -0.4143 -0.4047
  135TMC2    O2 2110   4.529   1.272  10.299 -0.0081  0.0065 -0.1262
  135TMC2    O5 2111   4.422   1.078  10.283 -0.3020  0.2009 -0.1320
  135TMC2    H5 2112   4.403   1.010  10.215 -1.1051 -0.9652  1.2575
  136MPD2     C 2113   0.186   1.526   9.726 -0.0467  0.0985 -0.4724
  136MPD2    C1 2114   0.117   1.424   9.669 -0.0371  0.0747 -0.4383
  136MPD2    C2 2115   0.117   1.403   9.531  0.3759 -0.1001 -0.0715
  136MPD2    C3 2116   0.203   1.493   9.453  0.3016  0.2652 -0.2268
  136MPD2    C4 2117   0.280   1.584   9.516  0.4196  0.1017  0.0858
  136MPD2    C5 2118   0.272   1.602   9.650  0.0167 -0.3815  0.1321
  136MPD2     H 2119   0.072   1.312   9.494 -2.2120  0.9033  0.5980
  136MPD2    H1 2120   0.352   1.635   9.453  0.5544 -0.3103 -0.0939
  136MPD2    H2 2121   0.176   1.550   9.831  0.2229 -1.0507 -0.1910
  136MPD2    H3 2122   0.342   1.667   9.701  1.8943 -0.8854 -1.7884
  136MPD2     N 2123   0.233   1.461   9.321 -0.6045  0.7095 -0.5052
  136MPD2    H5 2124   0.314   1.512   9.288 -0.5678  1.2795  0.4530
  136MPD2    N1 2125   0.025   1.344   9.746 -0.5603  0.1505 -0.2322
  136MPD2    H7 2126   4.719   1.265   9.701 -0.2638  0.5714 -1.2724
  137TMC2    C1 2127   4.286   3.973   9.780  0.6155  0.4260  0.5214
  137TMC2    C2 2128   4.367   4.044   9.692 -0.4403  0.3281 -0.4668
  137TMC2    C3 2129   4.333   4.034   9.557 -0.7375  0.3424  0.6402
  137TMC2    C4 2130   4.174   3.898   9.737 -0.3965  0.2309  0.1951
  137TMC2    C5 2131   4.159   3.883   9.603 -0.2693  0.4002 -0.3974
  137TMC2    C6 2132   4.230   3.957   9.511 -1.3721  1.1073 -0.6103
  137TMC2     C 2133   4.296   4.014   9.917 -0.2868  0.2216 -0.6995
  137TMC2     O 2134   4.379   4.101   9.935 -0.5980  0.2444 -0.1871
  137TMC2     H 2135   4.449   4.104   9.728  0.2038 -1.2257  0.6321
  137TMC2    H1 2136   4.105   3.846   9.802  0.0696 -0.3156  0.2497
  137TMC2    H2 2137   4.209   3.937   9.406  0.1412  0.8917 -0.8811
  137TMC2    C7 2138   4.026   3.863   9.551 -0.0417 -0.7076 -0.6739
  137TMC2    C8 2139   4.411   4.102   9.462 -0.1418 -0.1736  0.8121
  137TMC2    O1 2140   3.986   3.926   9.455  0.1738 -0.0905  0.9635
  137TMC2    O2 2141   4.407   4.073   9.341  0.2029  0.5480  0.2654
  137TMC2    O5 2142   4.392   4.227   9.511  0.0520  0.9028  0.0764
  137TMC2    H5 2143   4.331   4.210   9.586  0.8280 -1.0475  0.2777
  138MPD2     C 2144   4.024   3.994  10.159  0.6478  0.3093 -0.3040
  138MPD2    C1 2145   4.141   4.048  10.111 -0.3823  0.0436 -0.2900
  138MPD2    C2 2146   4.197   4.164  10.164  0.3283 -0.0356  0.2359
  138MPD2    C3 2147   4.129   4.228  10.271  0.2750  0.2357 -0.1613
  138MPD2    C4 2148   4.014   4.168  10.324  0.2232 -0.0560  0.1144
  138MPD2    C5 2149   3.958   4.063  10.255 -0.0548  0.0275  0.2423
  138MPD2     H 2150   4.296   4.192  10.130 -0.8900  0.7368 -2.7115
  138MPD2    H1 2151   3.957   4.210  10.407 -2.5105  0.9399 -2.2607
  138MPD2    H2 2152   3.990   3.902  10.114  1.5226  0.1064 -0.5518
  138MPD2    H3 2153   3.861   4.033  10.294 -0.0191 -0.4623 -0.0459
  138MPD2     N 2154   4.193   4.335  10.334 -0.0154 -0.1467 -0.7366
  138MPD2    H5 2155   4.290   4.355  10.311  0.2378 -1.2765 -0.6361
  138MPD2    N1 2156   4.190   3.976  10.000 -0.3960 -0.4102  0.1668
  138MPD2    H7 2157   4.146   3.888   9.974 -0.6611  0.6224 -2.8261
  139TMC2    C1 2158   4.184   2.971  13.541  0.2581  0.2683 -0.0317
  139TMC2    C2 2159   4.062   2.940  13.597  0.0764 -0.6392  0.1482
  139TMC2    C3 2160   3.957   3.033  13.570  1.1577  0.1548  0.6301
  139TMC2    C4 2161   4.202   3.092  13.476 -0.0719  0.5213 -1.0752
  139TMC2    C5 2162   4.107   3.192  13.472  1.0016 -0.3193  0.3012
  139TMC2    C6 2163   3.980   3.157  13.514 -0.2107  0.0390  0.3207
  139TMC2     C 2164   4.301   2.945  13.624  0.2901 -0.7237 -0.3879
  139TMC2     O 2165   4.381   3.038  13.631 -0.7693  0.6902 -0.3534
  139TMC2     H 2166   4.058   2.848  13.653 -1.5114 -0.4936  0.2862
  139TMC2    H1 2167   4.296   3.116  13.427  1.1960  1.3312  1.7901
  139TMC2    H2 2168   3.899   3.228  13.504 -0.6942 -0.6522 -0.6044
  139TMC2    C7 2169   4.158   3.321  13.521 -0.7662  0.3639  0.0860
  139TMC2    C8 2170   3.826   3.014  13.621 -0.1422 -1.0655 -0.2878
  139TMC2    O1 2171   4.081   3.412  13.536  0.2656  0.8758  0.0212
  139TMC2    O2 2172   3.741   3.100  13.622  0.2561 -0.1648  0.1102
  139TMC2    O5 2173   3.802   2.878  13.618  0.7460  0.4951 -0.2029
  139TMC2    H5 2174   3.877   2.815  13.628  0.7341  0.4269 -0.5497
  140MPD2     C 2175   4.475   2.637  13.734 -0.1988 -0.3866  0.1503
  140MPD2    C1 2176   4.432   2.769  13.741  0.1012 -0.3353  0.3857
  140MPD2    C2 2177   4.504   2.862  13.818 -0.1920 -0.0567 -0.2880
  140MPD2    C3 2178   4.619   2.820  13.884  0.8483  0.3694 -0.2641
  140MPD2    C4 2179   4.656   2.689  13.877  0.5931  0.9812 -0.5185
  140MPD2    C5 2180   4.583   2.595  13.810 -0.5912  0.2328 -0.5490
  140MPD2     H 2181   4.475   2.966  13.828  0.6113  0.1526 -0.1439
  140MPD2    H1 2182   4.735   2.657  13.943 -0.5774  0.0461  0.4391
  140MPD2    H2 2183   4.423   2.562  13.675  0.3056 -1.0071  0.5003
  140MPD2    H3 2184   4.617   2.492  13.812  3.1809  1.4720 -0.0611
  140MPD2     N 2185   4.691   2.919  13.946  0.0008 -0.2384 -0.4913
  140MPD2    H5 2186   4.649   3.007  13.976 -1.5700 -0.9240 -0.7000
  140MPD2    N1 2187   4.323   2.815  13.663 -0.0133 -0.1912 -0.1942
  140MPD2    H7 2188   4.256   2.749  13.625  1.6209 -1.7532 -0.4035
  141TMC2    C1 2189   0.373   0.551  14.405  0.8260  0.9951  0.4328
  141TMC2    C2 2190   0.375   0.675  14.349 -0.0300 -0.0066 -0.3526
  141TMC2    C3 2191   0.357   0.783  14.432 -0.6835  0.0082  0.1815
  141TMC2    C4 2192   0.358   0.535  14.543  0.1659  0.6482 -0.0861
  141TMC2    C5 2193   0.340   0.648  14.619 -0.1514 -0.2170  0.0952
  141TMC2    C6 2194   0.342   0.776  14.569  0.5104 -0.1296 -0.0636
  141TMC2     C 2195   0.350   0.439  14.318 -0.2690  0.3317  0.3890
  141TMC2     O 2196   0.305   0.474  14.212  0.1880 -0.9326  0.1549
  141TMC2     H 2197   0.374   0.696  14.243  3.3985  0.9356 -0.1794
  141TMC2    H1 2198   0.336   0.437  14.583  2.7415  0.6234  1.2643
  141TMC2    H2 2199   0.327   0.866  14.627  1.3154 -0.2420  0.3255
  141TMC2    C7 2200   0.339   0.645  14.757 -0.3775 -0.4595  0.4086
  141TMC2    C8 2201   0.373   0.914  14.369 -0.0030 -0.1605  0.2061
  141TMC2    O1 2202   0.260   0.720  14.814 -0.3931 -0.0845 -0.0811
  141TMC2    O2 2203   0.456   0.996  14.408  0.7659  0.2021  0.2165
  141TMC2    O5 2204   0.277   0.926  14.279  0.2318  0.1523 -0.0688
  141TMC2    H5 2205   0.237   0.837  14.267 -0.8161  0.8593 -1.8412
  142TMC2    C1 2206   3.441   2.386  10.188  0.1366  0.1401  0.1028
  142TMC2    C2 2207   3.547   2.301  10.175  0.1420  0.4194 -0.1416
  142TMC2    C3 2208   3.667   2.356  10.133 -0.7709  0.7643  0.4632
  142TMC2    C4 2209   3.447   2.526  10.179  0.2320 -0.3646  0.2900
  142TMC2    C5 2210   3.574   2.573  10.157  0.6740  0.2092 -0.2629
  142TMC2    C6 2211   3.677   2.491  10.127  0.6486  0.6336 -0.2740
  142TMC2     C 2212   3.313   2.319  10.198  0.6985 -0.0596 -0.5675
  142TMC2     O 2213   3.292   2.204  10.169  0.4613  0.5762 -0.7757
  142TMC2     H 2214   3.540   2.193  10.162  0.0847  0.3645  0.3764
  142TMC2    H1 2215   3.373   2.603  10.196 -0.4091 -0.9180 -0.0055
  142TMC2    H2 2216   3.781   2.520  10.113  1.4591 -1.1052  2.2134
  142TMC2    C7 2217   3.598   2.716  10.173  0.5502  0.5648  0.1585
  142TMC2    C8 2218   3.788   2.276  10.143  0.4927 -0.6721 -0.2899
  142TMC2    O1 2219   3.538   2.774  10.265  0.2947  0.2132  0.0057
  142TMC2    O2 2220   3.899   2.303  10.089 -0.4901  0.3788  0.4625
  142TMC2    O5 2221   3.778   2.192  10.244  0.0603 -0.1018 -0.1096
  142TMC2    H5 2222   3.696   2.194  10.298  0.1110 -0.9963 -0.0090
  143MPD2     C 2223   2.845   2.347  10.426  0.0095 -0.3010 -0.0728
  143MPD2    C1 2224   2.905   2.241  10.359  0.0592 -0.0622 -0.0322
  143MPD2    C2 2225   3.025   2.262  10.293  0.4040  0.8013 -0.9485
  143MPD2    C3 2226   3.089   2.382  10.293  0.7494 -0.3649 -0.3228
  143MPD2    C4 2227   3.020   2.488  10.355 -0.0914  0.5300  0.3208
  143MPD2    C5 2228   2.905   2.468  10.428 -0.3443 -1.0448  0.8930
  143MPD2     H 2229   3.068   2.179  10.237 -1.6781 -1.0279  0.1891
  143MPD2    H1 2230   3.066   2.585  10.344 -0.4430  0.8929  2.1480
  143MPD2    H2 2231   2.750   2.343  10.479  0.1338  0.5262  0.2116
  143MPD2    H3 2232   2.860   2.558  10.469 -0.7346 -1.1226  0.6250
  143MPD2     N 2233   3.221   2.409  10.249  0.6646  0.1413  0.5551
  143MPD2    H5 2234   3.261   2.498  10.274  0.0512  0.6990 -0.4347
  143MPD2    N1 2235   2.840   2.113  10.377  0.1061 -0.0997 -0.3192
  143MPD2    H7 2236   2.754   2.111  10.431  0.1649  3.1433 -0.1064
  144TMC2    C1 2237   1.085   2.266   1.181 -0.0392 -0.2557 -0.0931
  144TMC2    C2 2238   1.158   2.157   1.205 -0.2365 -0.3744 -0.0080
  144TMC2    C3 2239   1.233   2.160   1.311 -0.4598  0.0541  0.7618
  144TMC2    C4 2240   1.061   2.366   1.268 -0.1225  0.2229 -0.0210
  144TMC2    C5 2241   1.138   2.361   1.383 -0.2434 -1.4552 -0.3299
  144TMC2    C6 2242   1.229   2.261   1.408 -0.2220 -1.4974  0.3451
  144TMC2     C 2243   1.020   2.275   1.052  0.3838  0.3978 -0.3045
  144TMC2     O 2244   1.026   2.178   0.975  0.2069  0.6095  0.2244
  144TMC2     H 2245   1.167   2.076   1.133  2.0685  1.3708 -1.6723
  144TMC2    H1 2246   0.986   2.445   1.267 -0.4210 -0.0482  0.5638
  144TMC2    H2 2247   1.283   2.254   1.503  0.6574  0.8141  0.0238
  144TMC2    C7 2248   1.124   2.459   1.494  0.2960 -0.5004  0.2937
  144TMC2    C8 2249   1.311   2.048   1.345  0.6609  0.2516  0.0124
  144TMC2    O1 2250   1.126   2.417   1.608 -0.2195  0.3657  0.0458
  144TMC2    O2 2251   1.393   2.055   1.435  0.4439  1.3191  0.1117
  144TMC2    O5 2252   1.234   1.937   1.335  0.2763 -0.0496  0.0125
  144TMC2    H5 2253   1.157   1.958   1.278 -1.0674 -0.3532  1.7052
  145MPD2     C 2254   0.876   2.550   0.638 -0.6931  0.0682 -0.7196
  145MPD2    C1 2255   0.853   2.415   0.666  0.1634  0.2112  0.1064
  145MPD2    C2 2256   0.896   2.368   0.794 -0.0593  0.5991  0.0305
  145MPD2    C3 2257   0.957   2.451   0.892 -0.0779  0.5391 -0.6129
  145MPD2    C4 2258   0.988   2.586   0.857 -0.7432 -0.5701  0.1575
  145MPD2    C5 2259   0.943   2.626   0.733 -0.6695  0.1537  0.0543
  145MPD2     H 2260   0.877   2.266   0.828 -1.2722  0.5236 -0.8777
  145MPD2    H1 2261   1.060   2.648   0.908 -2.2448  1.5384 -0.3061
  145MPD2    H2 2262   0.852   2.603   0.546 -0.3648  2.6338  0.6725
  145MPD2    H3 2263   0.958   2.729   0.706 -2.7980  0.2335 -0.7589
  145MPD2     N 2264   1.003   2.410   1.020 -0.5434 -0.2866 -0.1673
  145MPD2    H5 2265   1.052   2.475   1.080 -0.3066 -0.1731 -0.4884
  145MPD2    N1 2266   0.789   2.323   0.577  0.3543 -0.2158  0.2125
  145MPD2    H7 2267   0.771   2.231   0.617 -0.6961  0.0497  0.3629
  146TMC2    C1 2268   2.472   1.545  12.828  0.2103 -0.2346  0.0995
  146TMC2    C2 2269   2.375   1.602  12.752 -0.0735  0.3501  0.9991
  146TMC2    C3 2270   2.341   1.558  12.625  0.2323  0.0082  0.9015
  146TMC2    C4 2271   2.541   1.435  12.776  0.8410 -0.0267  0.0411
  146TMC2    C5 2272   2.507   1.392  12.649 -0.2158  0.2353 -0.0326
  146TMC2    C6 2273   2.407   1.445  12.572  0.8340  0.0646  0.0431
  146TMC2     C 2274   2.440   1.560  12.973  0.0083 -0.2990  0.1732
  146TMC2     O 2275   2.378   1.658  13.002  0.0878 -0.3155 -0.7104
  146TMC2     H 2276   2.326   1.692  12.786  1.3011  2.3567 -2.3033
  146TMC2    H1 2277   2.602   1.373  12.840 -0.2576 -0.6021  0.5372
  146TMC2    H2 2278   2.397   1.417  12.468 -0.0605 -0.9759  0.4064
  146TMC2    C7 2279   2.571   1.274  12.588  0.3677 -0.0438 -0.4085
  146TMC2    C8 2280   2.248   1.628  12.532  0.2013  0.0767  0.4106
  146TMC2    O1 2281   2.563   1.263  12.465 -0.0076 -0.1816 -0.2260
  146TMC2    O2 2282   2.256   1.613  12.410 -0.9442  0.1536  0.1102
  146TMC2    O5 2283   2.136   1.622  12.601 -0.0201  0.4130  0.5131
  146TMC2    H5 2284   2.148   1.596  12.695  2.4753 -3.1610 -0.7818
  147MPD2     C 2285   2.876   0.859  12.593  0.2069  0.4182 -0.6149
  147MPD2    C1 2286   2.838   0.885  12.720  0.0543 -0.2825  0.3566
  147MPD2    C2 2287   2.764   1.000  12.740  0.3316 -0.2250  0.3353
  147MPD2    C3 2288   2.710   1.083  12.644 -0.0388 -0.4045  0.7264
  147MPD2    C4 2289   2.744   1.040  12.518  0.1741 -0.1302 -0.2084
  147MPD2    C5 2290   2.827   0.934  12.492  0.2090 -0.6422  0.2592
  147MPD2     H 2291   2.736   1.028  12.841  2.4556  0.8081  0.6369
  147MPD2    H1 2292   2.712   1.092  12.428  1.7075 -1.7172 -1.6671
  147MPD2    H2 2293   2.937   0.775  12.563 -1.3676 -1.6178  1.9007
  147MPD2    H3 2294   2.850   0.919  12.387 -0.0132 -2.5661  0.4913
  147MPD2     N 2295   2.635   1.196  12.680  0.4372 -0.0388  0.1218
  147MPD2    H5 2296   2.620   1.211  12.780 -1.1908  1.3788 -0.3366
  147MPD2    N1 2297   2.889   0.803  12.822  0.8387  0.4203 -0.6065
  147MPD2    H7 2298   2.952   0.730  12.790 -0.9004 -0.8592 -1.1882
  148TMC2    C1 2299   2.881   4.217  10.520  0.0057  0.5239 -0.3546
  148TMC2    C2 2300   3.000   4.217  10.444 -0.2341  0.0893  0.5548
  148TMC2    C3 2301   3.083   4.105  10.438 -0.0404 -0.1562  0.0055
  148TMC2    C4 2302   2.841   4.105  10.582  0.0586  0.2393  0.1347
  148TMC2    C5 2303   2.920   3.991  10.556 -0.6436  0.7587  0.0489
  148TMC2    C6 2304   3.038   3.987  10.484 -0.2397 -0.5229 -0.3357
  148TMC2     C 2305   2.774   4.308  10.478 -0.0165  0.2713  0.8333
  148TMC2     O 2306   2.805   4.425  10.450 -0.5428 -0.7523  0.7067
  148TMC2     H 2307   3.009   4.308  10.386  1.9395 -1.0290 -0.8631
  148TMC2    H1 2308   2.757   4.099  10.650  0.2972  1.3851  0.5369
  148TMC2    H2 2309   3.102   3.902  10.468  0.3041 -0.2858  0.5588
  148TMC2    C7 2310   2.876   3.866  10.627 -0.5073 -0.5209  0.4070
  148TMC2    C8 2311   3.170   4.094  10.320  0.4907  0.8602 -0.2071
  148TMC2    O1 2312   2.768   3.866  10.682  0.5722  0.5208  0.2896
  148TMC2    O2 2313   3.189   3.992  10.255 -0.3414 -0.1203  0.1967
  148TMC2    O5 2314   3.215   4.211  10.289  0.5831  0.4748 -0.3843
  148TMC2    H5 2315   3.193   4.280  10.355 -1.8019 -0.7197  0.0494
  149MPD2     C 2316   2.534   4.435  10.343 -0.5195 -0.1008  0.2109
  149MPD2    C1 2317   2.534   4.311  10.407  0.2277  1.2141  0.0274
  149MPD2    C2 2318   2.412   4.246  10.406 -0.9820  0.4315 -0.6662
  149MPD2    C3 2319   2.294   4.302  10.351  0.3267  0.5774 -0.2259
  149MPD2    C4 2320   2.307   4.425  10.292  0.3241 -0.3279 -0.0264
  149MPD2    C5 2321   2.428   4.486  10.275 -0.8022  0.0601  0.3618
  149MPD2     H 2322   2.412   4.149  10.454 -2.9384  0.2500 -1.0544
  149MPD2    H1 2323   2.227   4.490  10.257 -1.4344 -2.4373  0.0770
  149MPD2    H2 2324   2.625   4.494  10.337  1.2057 -2.5488  2.3384
  149MPD2    H3 2325   2.425   4.574  10.212 -0.5690 -1.2016 -1.4268
  149MPD2     N 2326   2.167   4.246  10.370  0.6021 -0.4480 -0.3102
  149MPD2    H5 2327   2.081   4.285  10.335  1.6180  1.2320 -0.8974
  149MPD2    N1 2328   2.648   4.251  10.468  0.6961 -0.1277  0.8392
  149MPD2    H7 2329   2.636   4.159  10.510  0.7632  0.2408  1.6588
  150TMC2    C1 2330   4.235   4.185  12.563 -0.1584 -0.4913 -0.5313
  150TMC2    C2 2331   4.219   4.267  12.454  0.7886 -0.1796  0.2010
  150TMC2    C3 2332   4.325   4.331  12.397  0.6819  0.8125  0.8052
  150TMC2    C4 2333   4.350   4.189  12.641 -0.2147  0.8344  1.1165
  150TMC2    C5 2334   4.450   4.257  12.580  0.1319 -0.0308 -0.8085
  150TMC2    C6 2335   4.443   4.327  12.466  0.6020 -0.3442 -0.9493
  150TMC2     C 2336   4.122   4.107  12.606  0.3130  0.2184  0.0723
  150TMC2     O 2337   4.108   4.086  12.725 -0.0908 -0.0122  0.3003
  150TMC2     H 2338   4.126   4.259  12.398  1.4725 -1.6408 -0.7383
  150TMC2    H1 2339   4.350   4.127  12.730 -0.9768 -2.4326 -1.1570
  150TMC2    H2 2340   4.528   4.381  12.426 -1.1681 -0.0358 -4.3341
  150TMC2    C7 2341   4.576   4.250  12.649  0.5909 -0.8278  0.7717
  150TMC2    C8 2342   4.298   4.423  12.296 -0.1467 -0.1391  0.1813
  150TMC2    O1 2343   4.643   4.351  12.648 -0.0812  0.0023  0.5190
  150TMC2    O2 2344   4.190   4.432  12.237  0.5315  0.5207  0.1525
  150TMC2    O5 2345   4.393   4.522  12.314 -0.4211 -0.1474 -0.2530
  150TMC2    H5 2346   4.375   4.612  12.280  0.5422  0.6857  1.4282
  151MPD2     C 2347   3.772   3.745  12.516  0.9574  0.8866 -0.8076
  151MPD2    C1 2348   3.839   3.778  12.393  0.1527 -0.5015  0.3844
  151MPD2    C2 2349   3.939   3.873  12.389  0.0279 -0.8408  0.1775
  151MPD2    C3 2350   3.965   3.943  12.507  0.4259  0.5071 -0.0778
  151MPD2    C4 2351   3.898   3.916  12.628 -0.3450 -0.5490  0.4390
  151MPD2    C5 2352   3.807   3.816  12.631  0.2435  0.0639 -0.4554
  151MPD2     H 2353   3.992   3.904  12.299  3.4130  0.3704  2.5633
  151MPD2    H1 2354   3.916   3.973  12.718  0.0875  0.9867 -0.6177
  151MPD2    H2 2355   3.694   3.671  12.529  1.1466  0.8472  0.1118
  151MPD2    H3 2356   3.755   3.790  12.722 -1.0695  1.7978 -0.7021
  151MPD2     N 2357   4.068   4.043  12.498 -0.3851  0.1945 -0.3657
  151MPD2    H5 2358   4.109   4.062  12.407  1.3208  0.5295  0.4743
  151MPD2    N1 2359   3.785   3.718  12.276  0.0074 -0.1902  0.1163
  151MPD2    H7 2360   3.712   3.650  12.293  1.0085 -1.3836 -0.3562
  152TMC2    C1 2361   4.087   3.698  12.829 -0.0050  0.6737 -0.3625
  152TMC2    C2 2362   4.168   3.710  12.723 -0.0615  0.5895 -0.1558
  152TMC2    C3 2363   4.270   3.791  12.751  0.0358 -0.7313 -0.8110
  152TMC2    C4 2364   4.090   3.781  12.939 -0.6026  0.3590 -0.2048
  152TMC2    C5 2365   4.193   3.867  12.955 -0.3024  0.0916  0.1743
  152TMC2    C6 2366   4.280   3.878  12.858 -0.2271  0.5897  0.3148
  152TMC2     C 2367   3.976   3.611  12.816  0.0937 -0.5121  0.7283
  152TMC2     O 2368   3.885   3.619  12.898  0.6113 -0.5340 -0.6984
  152TMC2     H 2369   4.159   3.669  12.623 -2.0275  2.5225 -0.7678
  152TMC2    H1 2370   3.999   3.787  12.998 -0.3828 -1.0786  0.2736
  152TMC2    H2 2371   4.365   3.946  12.858 -0.1549  0.4974  1.4998
  152TMC2    C7 2372   4.190   3.977  13.048  0.2681 -0.3609 -0.1421
  152TMC2    C8 2373   4.369   3.805  12.646 -0.3499  0.5599 -0.1877
  152TMC2    O1 2374   4.090   4.035  13.077  0.1762 -0.1749  0.3535
  152TMC2    O2 2375   4.436   3.906  12.642 -0.0894 -0.0357  0.8316
  152TMC2    O5 2376   4.397   3.687  12.594 -0.2159  0.3527  0.5322
  152TMC2    H5 2377   4.344   3.611  12.626  2.2362 -1.4438  0.3306
  153MPD2     C 2378   3.946   3.334  12.577  0.0095  0.6440 -0.2981
  153MPD2    C1 2379   3.901   3.417  12.675 -0.1496  0.0971  0.6671
  153MPD2    C2 2380   3.771   3.412  12.715  0.6569 -0.3451  0.1810
  153MPD2    C3 2381   3.696   3.302  12.683  0.1056 -0.3004  0.2046
  153MPD2    C4 2382   3.749   3.198  12.601  1.0572 -0.3154 -0.0650
  153MPD2    C5 2383   3.869   3.223  12.544 -0.1400 -0.0689  0.0095
  153MPD2     H 2384   3.734   3.489  12.783  0.2545 -0.4150  0.0441
  153MPD2    H1 2385   3.702   3.104  12.576  0.2060 -0.1202  0.8190
  153MPD2    H2 2386   4.048   3.328  12.540  0.5704 -0.4620  1.4282
  153MPD2    H3 2387   3.918   3.155  12.475 -0.7652 -0.7862  0.2737
  153MPD2     N 2388   3.570   3.300  12.753 -0.2657 -0.2795 -0.0353
  153MPD2    H5 2389   3.537   3.387  12.792  1.5387  0.6448 -0.5499
  153MPD2    N1 2390   3.991   3.527  12.709  0.3855  0.6562 -0.1516
  153MPD2    H7 2391   4.082   3.522  12.666 -0.1369 -0.8526 -1.0853
  154TMC2    C1 2392   1.178   3.850   0.808  0.0907  0.4821 -0.6056
  154TMC2    C2 2393   1.209   3.926   0.922 -0.8157 -0.6181  0.1296
  154TMC2    C3 2394   1.311   3.884   1.006  0.0145 -0.3773 -0.6905
  154TMC2    C4 2395   1.246   3.732   0.781 -0.0344 -0.4073 -0.1092
  154TMC2    C5 2396   1.355   3.703   0.855 -0.2971  0.9496 -0.2755
  154TMC2    C6 2397   1.390   3.774   0.967  0.1003  0.2186 -0.3752
  154TMC2     C 2398   1.060   3.881   0.733 -0.2391 -0.0675  0.3715
  154TMC2     O 2399   0.975   3.957   0.772 -0.6986  0.1827 -0.3356
  154TMC2     H 2400   1.146   4.009   0.952 -0.2373 -0.4701  0.9417
  154TMC2    H1 2401   1.213   3.670   0.697  1.4645 -0.8578 -0.3639
  154TMC2    H2 2402   1.489   3.760   1.010  0.3052  1.0543 -0.5906
  154TMC2    C7 2403   1.442   3.589   0.827  0.6215  0.2080  0.4088
  154TMC2    C8 2404   1.371   3.977   1.095 -0.1377 -0.0618 -0.2855
  154TMC2    O1 2405   1.515   3.553   0.922  0.0038  0.4358 -0.2065
  154TMC2    O2 2406   1.330   4.095   1.113  0.1353 -0.0021  0.2779
  154TMC2    O5 2407   1.449   3.917   1.188 -0.3561 -0.1830  0.3711
  154TMC2    H5 2408   1.460   3.820   1.191  2.5061  0.0783 -1.4292
  155MPD2     C 2409   1.075   3.897   0.361 -0.0017 -0.2404 -0.2976
  155MPD2    C1 2410   1.008   3.894   0.482 -0.2715 -0.3894  0.0533
  155MPD2    C2 2411   0.877   3.940   0.494  0.2193 -0.5696  0.2964
  155MPD2    C3 2412   0.812   3.984   0.374  0.4516  0.0847  0.6110
  155MPD2    C4 2413   0.882   4.016   0.258  0.1854  0.0528 -0.2304
  155MPD2    C5 2414   1.014   3.969   0.256 -0.3722  0.7689  0.0141
  155MPD2     H 2415   0.818   3.926   0.584 -1.1065  0.8080 -0.3453
  155MPD2    H1 2416   0.834   4.048   0.166 -0.5466 -4.7970 -1.5641
  155MPD2    H2 2417   1.178   3.862   0.358  0.3180  0.6264  0.4702
  155MPD2    H3 2418   1.072   3.985   0.165 -1.0790 -0.3283 -0.6347
  155MPD2     N 2419   0.675   4.005   0.406  0.5752  0.0839  0.1931
  155MPD2    H5 2420   0.644   4.001   0.503  0.3199  0.8081  0.1415
  155MPD2    N1 2421   1.083   3.858   0.600 -0.2313 -0.3641  0.2532
  155MPD2    H7 2422   1.175   3.820   0.578 -0.1664 -0.9374  1.5398
  156TMC2    C1 2423   0.250   0.725  12.401  0.6031  0.4762  0.0682
  156TMC2    C2 2424   0.376   0.769  12.413  0.1932  0.0963  0.6261
  156TMC2    C3 2425   0.427   0.834  12.304  0.2500 -0.4632 -0.1257
  156TMC2    C4 2426   0.178   0.720  12.290  0.1082  0.0469 -1.0773
  156TMC2    C5 2427   0.227   0.787  12.185 -0.2010  0.2308  0.0251
  156TMC2    C6 2428   0.352   0.852  12.191 -0.2913  0.1878 -0.1237
  156TMC2     C 2429   0.172   0.748  12.519  0.5130 -0.3769 -0.1960
  156TMC2     O 2430   0.193   0.843  12.596  0.0167  0.1269  0.7098
  156TMC2     H 2431   0.438   0.771  12.501 -0.4796 -0.8996  1.1208
  156TMC2    H1 2432   0.079   0.678  12.293  0.5931 -1.0858 -0.8607
  156TMC2    H2 2433   0.391   0.912  12.109 -0.8609  0.2978 -0.3138
  156TMC2    C7 2434   0.139   0.839  12.077 -0.0956  0.0255  0.0483
  156TMC2    C8 2435   0.562   0.889  12.307 -0.0953 -0.9788 -0.8590
  156TMC2    O1 2436   0.177   0.942  12.021 -0.5968  0.2586  0.3855
  156TMC2    O2 2437   0.601   0.998  12.276  0.0775  0.2000 -0.0839
  156TMC2    O5 2438   0.640   0.782  12.336 -0.0088 -0.2537 -0.0958
  156TMC2    H5 2439   0.579   0.706  12.341  0.8188 -0.9841 -1.2959
  157MPD2     C 2440   4.694   0.493  12.661  0.3398  0.2165 -0.0995
  157MPD2    C1 2441   0.011   0.614  12.660 -0.1477  0.0201 -0.5011
  157MPD2    C2 2442   4.725   0.700  12.758 -0.7711  0.4037 -0.8472
  157MPD2    C3 2443   4.631   0.680  12.852  0.1356  0.0977 -0.5516
  157MPD2    C4 2444   4.555   0.567  12.845 -0.8750  0.2660  0.0714
  157MPD2    C5 2445   4.590   0.475  12.753  0.0652  0.2529 -0.0800
  157MPD2     H 2446   0.036   0.796  12.754  1.7728 -0.9181 -0.5183
  157MPD2    H1 2447   4.477   0.540  12.915 -0.0840  0.5349  1.0609
  157MPD2    H2 2448   4.711   0.416  12.587 -0.6884  0.7790 -0.9194
  157MPD2    H3 2449   4.544   0.377  12.744 -0.7037  0.4903  1.2322
  157MPD2     N 2450   4.626   0.771  12.964  0.8131 -0.9940  0.0217
  157MPD2    H5 2451   4.692   0.848  12.966  1.0292 -1.1876  0.2446
  157MPD2    N1 2452   0.086   0.640  12.546  0.4175 -0.7749 -0.0506
  157MPD2    H7 2453   0.092   0.559  12.486  1.8117 -0.4301 -0.3907
  158TMC2    C1 2454   3.771   0.254  13.717 -0.3475 -0.0455  0.1317
  158TMC2    C2 2455   3.647   0.317  13.689  0.2102  0.4244  0.8214
  158TMC2    C3 2456   3.540   0.287  13.769 -0.8625  0.4520  0.6081
  158TMC2    C4 2457   3.795   0.197  13.836 -0.3430  0.0012  0.2117
  158TMC2    C5 2458   3.687   0.173  13.913  0.2136  0.2008  0.2608
  158TMC2    C6 2459   3.556   0.213  13.878 -0.1051  0.7936  0.8562
  158TMC2     C 2460   3.878   0.282  13.621  0.0439 -0.8938 -0.2074
  158TMC2     O 2461   3.837   0.310  13.511  0.4768 -0.3653 -0.0224
  158TMC2     H 2462   3.627   0.381  13.603  0.0890 -1.0287 -0.2423
  158TMC2    H1 2463   3.890   0.149  13.853 -0.0541  0.2769 -0.6043
  158TMC2    H2 2464   3.478   0.199  13.952 -1.6965 -0.4897 -1.0710
  158TMC2    C7 2465   3.700   0.076  14.014 -0.5566  0.2964 -0.4968
  158TMC2    C8 2466   3.434   0.383  13.762  0.0425  0.4454  0.6193
  158TMC2    O1 2467   3.619   0.091  14.105 -0.4297 -0.1618  0.3589
  158TMC2    O2 2468   3.473   0.499  13.751 -0.0104  0.1323  0.0713
  158TMC2    O5 2469   3.333   0.332  13.838 -0.4743  0.0158 -0.2991
  158TMC2    H5 2470   3.329   0.238  13.810 -0.5098  0.3577 -1.4410
  159MPD2     C 2471   4.365   0.357  13.493  0.0065  0.1298  0.4345
  159MPD2    C1 2472   4.354   0.359  13.629 -1.2125 -0.9370 -0.8722
  159MPD2    C2 2473   4.232   0.336  13.692 -0.3983 -0.1612  0.7540
  159MPD2    C3 2474   4.124   0.323  13.604  0.3377  0.6411  0.5066
  159MPD2    C4 2475   4.132   0.328  13.466 -0.1859  0.3610  0.8502
  159MPD2    C5 2476   4.251   0.347  13.407  0.0486 -0.0062  0.4227
  159MPD2     H 2477   4.234   0.333  13.800 -2.3800 -0.5913  0.7783
  159MPD2    H1 2478   4.052   0.323  13.394  0.0505 -1.3559  0.6909
  159MPD2    H2 2479   4.465   0.380  13.457 -0.0145  0.4901  0.6030
  159MPD2    H3 2480   4.254   0.366  13.301 -3.6902  0.5517  0.4248
  159MPD2     N 2481   4.007   0.289  13.671  0.2705 -0.0907 -0.2661
  159MPD2    H5 2482   4.013   0.280  13.772 -0.3676  0.3810 -0.1887
  159MPD2    N1 2483   4.475   0.351  13.706  0.2968 -0.3466  0.4355
  159MPD2    H7 2484   4.558   0.310  13.665  0.8423  1.3679 -0.1377
  160TMC2    C1 2485   0.135   2.826   1.365 -0.7960 -0.3344  0.4310
  160TMC2    C2 2486   0.186   2.728   1.440 -0.5054 -0.1697  0.0606
  160TMC2    C3 2487   0.238   2.626   1.370  0.0657  0.1216 -0.2806
  160TMC2    C4 2488   0.150   2.842   1.229 -0.7085  0.0154 -0.2771
  160TMC2    C5 2489   0.226   2.743   1.171 -0.9054 -0.4153 -0.5846
  160TMC2    C6 2490   0.265   2.630   1.238  0.0368  0.0721  0.1676
  160TMC2     C 2491   0.076   2.941   1.435  0.1983  0.2347 -0.1208
  160TMC2     O 2492   0.117   2.950   1.552  0.3480 -0.4428 -0.6414
  160TMC2     H 2493   0.165   2.717   1.545 -2.5069  0.5820 -0.2656
  160TMC2    H1 2494   0.112   2.924   1.169 -1.0384  1.7529  2.3076
  160TMC2    H2 2495   0.317   2.555   1.179 -1.1025  0.3503 -1.1842
  160TMC2    C7 2496   0.235   2.742   1.026  0.2346  0.0413 -0.1749
  160TMC2    C8 2497   0.278   2.503   1.440 -0.5080 -0.0485  0.3458
  160TMC2    O1 2498   0.245   2.639   0.965 -0.4856  0.3084 -0.1679
  160TMC2    O2 2499   0.264   2.395   1.384  0.3768 -0.6468  0.4398
  160TMC2    O5 2500   0.376   2.539   1.523 -0.5254 -0.0917 -0.1968
  160TMC2    H5 2501   0.385   2.635   1.541  0.5991 -0.5315  1.6049
  161MPD2     C 2502   4.738   3.231   1.483 -0.2002  0.0307  0.1343
  161MPD2    C1 2503   4.684   3.155   1.382 -0.2994 -0.4575  0.0202
  161MPD2    C2 2504   4.580   3.199   1.297  0.4758  0.2950  0.3597
  161MPD2    C3 2505   4.529   3.329   1.317 -0.2997  0.2371 -0.6130
  161MPD2    C4 2506   4.589   3.409   1.413 -0.2409  0.1430  0.6509
  161MPD2    C5 2507   4.683   3.356   1.498 -0.0174 -0.0996 -0.5418
  161MPD2     H 2508   4.536   3.135   1.222  2.2868  0.6044 -0.9718
  161MPD2    H1 2509   4.551   3.508   1.433  1.3002  0.8830 -0.1500
  161MPD2    H2 2510   0.076   3.195   1.550  1.2894  1.2550 -0.9260
  161MPD2    H3 2511   4.726   3.412   1.581 -2.2257 -1.2078  1.3234
  161MPD2     N 2512   4.423   3.378   1.244  0.2530  0.2332 -0.3057
  161MPD2    H5 2513   4.422   3.479   1.252  0.1190  0.2080 -0.0221
  161MPD2    N1 2514   4.733   3.019   1.356 -0.4788 -0.0071  0.0959
  161MPD2    H7 2515   4.724   2.988   1.260 -1.2914  1.1926 -0.2304
  162TMC2    C1 2516   1.932   0.402   0.875  0.9089 -0.3039 -0.5134
  162TMC2    C2 2517   1.808   0.400   0.810  0.5751  0.0358 -0.2953
  162TMC2    C3 2518   1.702   0.454   0.881 -0.3020 -0.8842  0.8454
  162TMC2    C4 2519   1.938   0.433   1.010  0.0094 -0.3165  0.2510
  162TMC2    C5 2520   1.828   0.489   1.068  0.5781 -0.2047  0.3428
  162TMC2    C6 2521   1.708   0.503   1.004 -0.6273 -0.0902  0.0661
  162TMC2     C 2522   2.043   0.359   0.799  0.2319  0.6933  0.0542
  162TMC2     O 2523   2.033   0.321   0.683 -0.3716 -0.1597  0.3982
  162TMC2     H 2524   1.802   0.381   0.704  3.5231 -3.7392  0.1756
  162TMC2    H1 2525   2.035   0.438   1.058  0.8261  0.0971 -1.4300
  162TMC2    H2 2526   1.622   0.551   1.048 -0.5242  1.2277 -1.1714
  162TMC2    C7 2527   1.834   0.540   1.211 -0.2998  0.0096  0.5595
  162TMC2    C8 2528   1.572   0.446   0.818 -0.2382 -0.1182  0.5109
  162TMC2    O1 2529   1.728   0.574   1.262 -0.3188  0.1210 -0.0130
  162TMC2    O2 2530   1.556   0.418   0.701 -0.8052 -0.0686  0.7937
  162TMC2    O5 2531   1.466   0.459   0.904 -0.3944  0.3412  0.0755
  162TMC2    H5 2532   1.478   0.452   1.001  2.1954 -1.4849 -0.3648
  163MPD2     C 2533   2.548   0.242   0.784 -0.7569 -0.1173 -0.1030
  163MPD2    C1 2534   2.448   0.231   0.687 -0.3059 -0.9417 -0.0979
  163MPD2    C2 2535   2.314   0.274   0.719  0.0765 -0.2072 -0.0821
  163MPD2    C3 2536   2.287   0.333   0.841  0.4573  1.2437  0.6708
  163MPD2    C4 2537   2.383   0.352   0.928 -0.1306  0.8614  0.1701
  163MPD2    C5 2538   2.508   0.305   0.900  0.0067 -0.5147 -0.0268
  163MPD2     H 2539   2.231   0.253   0.652  1.5966 -2.2355 -1.3331
  163MPD2    H1 2540   2.377   0.408   1.020  2.5343 -0.2987  1.0480
  163MPD2    H2 2541   2.650   0.211   0.765 -0.8964 -1.1430  0.8111
  163MPD2    H3 2542   2.589   0.333   0.966 -0.9581  0.9084  0.5836
  163MPD2     N 2543   2.160   0.384   0.874 -0.1672 -0.0727 -0.4160
  163MPD2    H5 2544   2.145   0.429   0.964 -2.5495 -1.8023  0.0323
  163MPD2    N1 2545   2.482   0.170   0.561 -1.0206 -0.5687 -0.3342
  163MPD2    H7 2546   2.582   0.160   0.544 -0.9654 -0.3115 -0.1683
  164TMC2    C1 2547   2.942   4.161  11.124  0.2701 -0.1622 -0.3945
  164TMC2    C2 2548   2.975   4.292  11.112 -0.7986 -0.3733 -0.0178
  164TMC2    C3 2549   2.953   4.373  11.219  0.4248  0.1067  0.5041
  164TMC2    C4 2550   2.887   4.108  11.241  0.0750  0.2967 -0.0716
  164TMC2    C5 2551   2.879   4.190  11.347  0.2047  0.1593  0.4699
  164TMC2    C6 2552   2.896   4.323  11.335  0.4154 -0.3432  0.3550
  164TMC2     C 2553   2.990   4.064  11.024 -0.3921 -0.3626  0.0030
  164TMC2     O 2554   2.946   3.948  11.035 -0.4043  0.3865  0.0404
  164TMC2     H 2555   3.022   4.328  11.021  1.5914 -1.5849  0.7260
  164TMC2    H1 2556   2.877   4.001  11.254  2.9425  0.0359 -0.0137
  164TMC2    H2 2557   2.897   4.388  11.422  0.0500  0.4104 -0.2030
  164TMC2    C7 2558   2.789   4.166  11.455  0.2472  0.6244 -0.6347
  164TMC2    C8 2559   2.953   4.518  11.209 -0.4143  0.2009 -0.2632
  164TMC2    O1 2560   2.823   4.100  11.552  0.0094  0.2030 -0.4806
  164TMC2    O2 2561   3.029   4.597  11.153  0.3009 -0.0013  0.5309
  164TMC2    O5 2562   2.831   4.548  11.256 -0.2747  0.2174  0.0337
  164TMC2    H5 2563   2.768   4.473  11.245  1.0073 -1.2065  2.5067
  165TMC2    C1 2564   4.239   2.111   1.101 -0.7421 -0.7037 -0.3269
  165TMC2    C2 2565   4.203   2.196   1.200 -0.3499  0.3093  0.5139
  165TMC2    C3 2566   4.309   2.267   1.258 -0.4680 -0.1559 -0.3680
  165TMC2    C4 2567   4.364   2.093   1.056 -0.2328  0.0882  0.1664
  165TMC2    C5 2568   4.465   2.167   1.118 -0.2681 -0.3694  0.4951
  165TMC2    C6 2569   4.436   2.255   1.218 -0.3128 -0.3285 -0.3321
  165TMC2     C 2570   4.135   2.050   1.018 -0.3454 -0.0675  0.5876
  165TMC2     O 2571   4.024   2.064   1.063 -0.4141 -0.0676 -0.5914
  165TMC2     H 2572   4.104   2.187   1.243 -0.2692  0.1129  0.6592
  165TMC2    H1 2573   4.389   2.010   0.991 -2.3259 -0.1675 -0.3247
  165TMC2    H2 2574   4.513   2.312   1.269 -0.6300 -1.3145  1.2155
  165TMC2    C7 2575   4.603   2.180   1.059 -0.2878  0.1063  0.4933
  165TMC2    C8 2576   4.271   2.344   1.379  0.0015 -0.0090 -0.6454
  165TMC2    O1 2577   4.683   2.253   1.121 -0.5215 -0.6332 -0.2195
  165TMC2    O2 2578   4.167   2.411   1.387  0.0002  0.4855 -0.4833
  165TMC2    O5 2579   4.348   2.297   1.480 -0.3850  0.0641 -0.3654
  165TMC2    H5 2580   4.388   2.210   1.460 -1.6112 -0.8542  1.2010
  166MPD2     C 2581   3.938   1.751   0.651  0.6589  0.7965  1.2211
  166MPD2    C1 2582   3.888   1.776   0.776  0.6723  0.7381  0.8391
  166MPD2    C2 2583   3.969   1.856   0.861 -0.5094 -0.8641 -0.1816
  166MPD2    C3 2584   4.085   1.919   0.814  0.3471 -0.1696  0.5657
  166MPD2    C4 2585   4.130   1.890   0.684 -1.2789 -0.3066  0.6502
  166MPD2    C5 2586   4.054   1.810   0.602 -0.0918 -0.3627  0.5321
  166MPD2     H 2587   3.938   1.874   0.963  0.0025  0.3981 -0.2450
  166MPD2    H1 2588   4.218   1.942   0.647  0.1568 -4.0280 -1.1271
  166MPD2    H2 2589   3.880   1.690   0.583  1.5418  2.2093 -0.7855
  166MPD2    H3 2590   4.084   1.799   0.498  2.0384 -1.1382  1.2307
  166MPD2     N 2591   4.166   2.004   0.893 -0.6316  0.3746 -0.2350
  166MPD2    H5 2592   4.253   2.028   0.845  0.7084 -0.7635  1.6235
  166MPD2    N1 2593   3.773   1.709   0.813  0.0807 -0.1116  0.2467
  166MPD2    H7 2594   3.732   1.637   0.756 -1.5218  1.2146 -0.2842
  167TMC2    C1 2595   2.308   4.300  13.224 -0.1771 -0.0710  0.5212
  167TMC2    C2 2596   2.313   4.334  13.360  0.4757  0.1400 -0.6674
  167TMC2    C3 2597   2.288   4.227  13.447 -0.1301  0.1901 -0.4754
  167TMC2    C4 2598   2.290   4.171  13.185  0.3709 -0.3232  0.5200
  167TMC2    C5 2599   2.267   4.066  13.270 -0.6093 -0.6645  0.1963
  167TMC2    C6 2600   2.276   4.097  13.402  0.4482  0.5215 -0.0187
  167TMC2     C 2601   2.340   4.406  13.125  0.3112 -0.1029  0.7480
  167TMC2     O 2602   2.397   4.511  13.155  0.3634 -0.0155  0.2644
  167TMC2     H 2603   2.304   4.438  13.388 -0.7628  0.0074 -0.5761
  167TMC2    H1 2604   2.298   4.145  13.080  2.5015  0.4699  0.4709
  167TMC2    H2 2605   2.245   4.029  13.480  0.9840 -0.2862 -0.5092
  167TMC2    C7 2606   2.255   3.930  13.221 -0.2872 -0.3968 -0.1205
  167TMC2    C8 2607   2.257   4.264  13.583 -0.2957  1.1202  0.5958
  167TMC2    O1 2608   2.249   3.847  13.310  0.3232 -0.2220  0.1514
  167TMC2    O2 2609   2.225   4.166  13.650 -0.2169 -0.3120 -0.5001
  167TMC2    O5 2610   2.171   4.368  13.567  0.2598 -0.5417 -0.4301
  167TMC2    H5 2611   2.224   4.446  13.539  1.1309 -0.8159  0.4521
  168MPD2     C 2612   2.375   4.531  12.844 -0.1719 -0.2698 -0.3760
  168MPD2    C1 2613   2.305   4.421  12.878  0.1365 -0.4418  0.5942
  168MPD2    C2 2614   2.251   4.346  12.776  0.3171  0.4294 -0.1989
  168MPD2    C3 2615   2.264   4.379  12.642 -0.0966  0.6294  0.9119
  168MPD2    C4 2616   2.333   4.494  12.615 -0.0071  0.0530  0.5311
  168MPD2    C5 2617   2.381   4.575  12.718  0.2804  1.0848  0.3253
  168MPD2     H 2618   2.197   4.259  12.812 -0.0021  1.2877  1.3622
  168MPD2    H1 2619   2.365   4.519  12.515 -1.5479  1.8587  0.4788
  168MPD2    H2 2620   2.427   4.586  12.922 -1.7044  0.4689  0.1259
  168MPD2    H3 2621   2.433   4.665  12.687 -0.2950  1.1733 -0.3898
  168MPD2     N 2622   2.207   4.291  12.551  0.2227 -0.1484 -0.0655
  168MPD2    H5 2623   2.168   4.206  12.592  0.2800 -0.4303 -0.5972
  168MPD2    N1 2624   2.291   4.367  13.005 -0.0620  0.2190 -0.0720
  168MPD2    H7 2625   2.218   4.297  12.996 -1.2059  1.7209 -2.5254
  169MPD1     C 2626   4.505   3.413   9.300  0.2353  0.1255 -0.3904
  169MPD1    C1 2627   4.464   3.368   9.425  0.2551  0.1418 -0.7952
  169MPD1    C2 2628   4.531   3.422   9.539  0.3931  0.8694 -0.1337
  169MPD1    C3 2629   4.646   3.501   9.531 -0.4627  0.3184 -0.4162
  169MPD1    C4 2630   4.677   3.546   9.402  0.6199  0.0285 -0.1979
  169MPD1    C5 2631   4.607   3.496   9.297 -0.9744 -0.0060  0.7379
  169MPD1     H 2632   4.489   3.393   9.635  0.8500 -0.3450 -0.2887
  169MPD1    H1 2633   0.019   3.615   9.387  2.0563 -1.6135  0.0584
  169MPD1    H2 2634   4.457   3.391   9.206 -1.3105  4.3654 -0.5745
  169MPD1    H3 2635   4.646   3.533   9.203  0.5077 -0.3730  1.1976
  169MPD1     N 2636   4.718   3.532   9.650 -0.6936  0.1553  0.1068
  169MPD1    H5 2637   4.698   3.483   9.737 -0.3237  2.7528  1.6566
  169MPD1    N1 2638   4.348   3.298   9.445 -0.7946 -0.3741  0.3556
  169MPD1    H6 2639   4.359   3.235   9.524 -0.0456 -0.3294  0.2873
  169MPD1    H7 2640   4.315   3.244   9.365  1.3119 -1.6293  0.3176
  170MPD1     C 2641   3.523   1.312  13.196 -0.4411  0.3369 -0.6272
  170MPD1    C1 2642   3.386   1.334  13.218 -0.5228 -0.2696 -0.3704
  170MPD1    C2 2643   3.355   1.449  13.283 -0.3798  0.5339  0.4886
  170MPD1    C3 2644   3.457   1.528  13.342  0.3916 -0.7636 -0.0011
  170MPD1    C4 2645   3.589   1.500  13.328  0.0968  0.2825 -0.2092
  170MPD1    C5 2646   3.622   1.391  13.252  0.2529 -0.4471  0.4955
  170MPD1     H 2647   3.250   1.471  13.292 -0.0446  1.5325  1.9823
  170MPD1    H1 2648   3.668   1.556  13.377 -1.6782  1.6880  1.0471
  170MPD1    H2 2649   3.555   1.225  13.140 -1.9136 -1.8334  1.8806
  170MPD1    H3 2650   3.726   1.366  13.235  0.1031 -0.2035 -0.7720
  170MPD1     N 2651   3.413   1.633  13.424  0.3396  0.1184 -0.2022
  170MPD1    H5 2652   3.312   1.639  13.428  0.3549  1.7240 -1.8068
  170MPD1    N1 2653   3.290   1.255  13.150 -0.0949  0.2623  0.0380
  170MPD1    H6 2654   3.222   1.229  13.222  0.6637 -0.8617  0.3499
  170MPD1    H7 2655   3.326   1.166  13.117  0.5283  0.3101  0.6004
  171MPD1     C 2656   1.245   3.448  15.862 -0.2980 -0.4757 -0.4742
  171MPD1    C1 2657   1.273   3.438  15.995  0.1746 -0.1882  0.1163
  171MPD1    C2 2658   1.380   3.353  16.034 -0.3040  0.6470 -0.2870
  171MPD1    C3 2659   1.468   3.310  15.940  0.0170  0.3226 -0.4816
  171MPD1    C4 2660   1.445   3.335  15.808  0.0255  0.3957 -0.2657
  171MPD1    C5 2661   1.334   3.405  15.768 -0.4059  0.7859 -0.5007
  171MPD1     H 2662   1.380   3.328  16.140 -1.1062 -0.0480 -0.4575
  171MPD1    H1 2663   1.504   3.289  15.730  1.5133 -0.4595  1.3723
  171MPD1    H2 2664   1.148   3.492  15.841  0.6707  1.7961 -0.0967
  171MPD1    H3 2665   1.321   3.422  15.662  1.1998  1.0845 -0.6537
  171MPD1     N 2666   1.577   3.224  15.965 -1.1063 -1.1434 -0.0630
  171MPD1    H5 2667   1.639   3.211  15.886  0.4954 -0.4140  1.0857
  171MPD1    N1 2668   1.181   3.474  16.095  0.6182  0.0181 -0.5823
  171MPD1    H6 2669   1.227   3.487  16.185 -0.3935 -2.4803  0.3175
  171MPD1    H7 2670   1.130   3.558  16.069 -0.3885  0.7175  3.5367
  172MPD1     C 2671   1.430   1.883   1.014 -0.5270 -0.0036  0.2101
  172MPD1    C1 2672   1.503   1.995   1.026 -0.4143  0.3527  0.6031
  172MPD1    C2 2673   1.472   2.111   0.953  0.2950 -0.5159 -0.4611
  172MPD1    C3 2674   1.360   2.121   0.872  0.1383 -0.5132  0.1711
  172MPD1    C4 2675   1.279   2.009   0.869 -0.0878 -0.1772  0.0654
  172MPD1    C5 2676   1.313   1.894   0.937  0.3404  0.7544  0.1939
  172MPD1     H 2677   1.535   2.199   0.944  0.9312 -0.7920  1.3572
  172MPD1    H1 2678   1.192   2.010   0.805  1.0882 -2.2007 -1.5902
  172MPD1    H2 2679   1.453   1.786   1.056  1.1140  0.5407  0.5804
  172MPD1    H3 2680   1.242   1.814   0.920  0.4842  0.9331 -1.2546
  172MPD1     N 2681   1.314   2.243   0.808  0.4806 -0.2024 -0.4472
  172MPD1    H5 2682   1.248   2.225   0.733  1.3568  0.7321 -1.4457
  172MPD1    N1 2683   1.631   1.996   1.087  0.2693 -0.1907  0.0183
  172MPD1    H6 2684   1.663   2.092   1.100 -0.2503  0.1746 -1.3651
  172MPD1    H7 2685   1.627   1.956   1.180 -0.3464 -3.3871 -1.3675
  173MPD1     C 2686   1.858   1.167  13.933 -0.6496 -0.1409  0.1225
  173MPD1    C1 2687   1.960   1.124  14.017  0.0593 -0.0181  0.3755
  173MPD1    C2 2688   2.056   1.218  14.060 -0.5339 -0.0335  0.2991
  173MPD1    C3 2689   2.030   1.351  14.039 -0.7567  0.5769  0.3922
  173MPD1    C4 2690   1.919   1.396  13.972  0.9140 -0.1508 -0.2598
  173MPD1    C5 2691   1.830   1.299  13.914 -0.1094 -0.1703  0.1773
  173MPD1     H 2692   2.146   1.190  14.114  0.3678 -3.4176 -2.9696
  173MPD1    H1 2693   1.891   1.499  13.953  0.1245 -0.1545  0.8685
  173MPD1    H2 2694   1.796   1.105  13.870 -0.2898 -0.3961  0.0184
  173MPD1    H3 2695   1.759   1.326  13.837  1.0068 -0.1804 -0.8538
  173MPD1     N 2696   2.115   1.442  14.098  0.0906 -0.1079 -0.6466
  173MPD1    H5 2697   2.184   1.401  14.160  0.5850  0.0240 -1.1036
  173MPD1    N1 2698   1.992   0.989  14.011 -0.3489 -0.0526 -0.3687
  173MPD1    H6 2699   2.066   0.958  14.074  0.2378 -0.9706 -1.5003
  173MPD1    H7 2700   1.912   0.931  14.035  0.7426 -0.2047  2.9176
  174MPD1     C 2701   2.701   2.187  13.730 -0.6180 -0.1068 -0.4454
  174MPD1    C1 2702   2.752   2.152  13.855  0.1468 -0.7828  0.2035
  174MPD1    C2 2703   2.685   2.066  13.939  0.2361 -0.7010 -0.4454
  174MPD1    C3 2704   2.564   2.015  13.900 -0.2784 -0.0123 -0.3143
  174MPD1    C4 2705   2.500   2.064  13.788 -0.3134 -0.2253  0.2253
  174MPD1    C5 2706   2.579   2.144  13.704 -0.0261 -0.0148 -0.2390
  174MPD1     H 2707   2.734   2.013  14.020 -2.4966 -1.4122  0.7550
  174MPD1    H1 2708   2.407   2.023  13.750 -0.9153  2.1240 -0.7834
  174MPD1    H2 2709   2.752   2.250  13.658 -0.2995  0.5976  0.3854
  174MPD1    H3 2710   2.536   2.157  13.606 -0.9843  0.0818  0.1945
  174MPD1     N 2711   2.487   1.917  13.973 -0.6958 -0.3410  0.4812
  174MPD1    H5 2712   2.389   1.903  13.949 -0.5688  1.6209 -1.1866
  174MPD1    N1 2713   2.892   2.164  13.864  0.8842 -0.4618  0.1970
  174MPD1    H6 2714   2.917   2.250  13.816 -0.3791 -0.0351  0.3056
  174MPD1    H7 2715   2.944   2.101  13.804 -0.3635 -0.6819 -0.6295
  175MPD1     C 2716   0.937   3.087  15.458  0.4619  0.3527  0.8697
  175MPD1    C1 2717   1.005   2.983  15.515 -0.2665 -0.0771  0.4069
  175MPD1    C2 2718   0.979   2.966  15.645 -0.1832  0.0563 -0.0420
  175MPD1    C3 2719   0.877   3.025  15.711  0.4022 -0.3687 -0.0442
  175MPD1    C4 2720   0.800   3.121  15.647 -1.0720  0.1485  0.0666
  175MPD1    C5 2721   0.837   3.158  15.522  0.3988  0.0247  0.3767
  175MPD1     H 2722   1.053   2.901  15.690 -1.5010 -0.9483  0.6777
  175MPD1    H1 2723   0.715   3.165  15.698 -0.6704 -0.4576  1.2538
  175MPD1    H2 2724   0.955   3.111  15.354 -1.4641  0.9814  0.6827
  175MPD1    H3 2725   0.780   3.232  15.467  0.0292  1.5251  2.7904
  175MPD1     N 2726   0.852   2.999  15.849 -0.5173  0.6489 -0.5120
  175MPD1    H5 2727   0.787   3.060  15.897 -0.1525  2.6164 -2.5588
  175MPD1    N1 2728   1.109   2.906  15.445  0.2377 -0.2546 -0.0312
  175MPD1    H6 2729   1.123   2.813  15.485 -1.9434 -1.0276 -1.0613
  175MPD1    H7 2730   1.090   2.892  15.346 -2.2247 -1.5559  0.6354
  176MPD1     C 2731   2.212   0.906   0.352 -0.1021  0.1861  0.8421
  176MPD1    C1 2732   2.221   1.028   0.420  0.2241 -0.2389 -0.0795
  176MPD1    C2 2733   2.342   1.098   0.419  0.0638 -0.5402  0.3107
  176MPD1    C3 2734   2.448   1.043   0.350  0.6571 -0.0376  0.0312
  176MPD1    C4 2735   2.433   0.932   0.274  0.9616  1.0456  0.0030
  176MPD1    C5 2736   2.315   0.867   0.271 -0.0108  0.1191 -0.2954
  176MPD1     H 2737   2.356   1.191   0.472  2.2244  0.4398 -1.9647
  176MPD1    H1 2738   2.517   0.895   0.216  2.2217  2.4011  0.9775
  176MPD1    H2 2739   2.128   0.838   0.351  0.2500 -0.2269 -0.0990
  176MPD1    H3 2740   2.311   0.775   0.214  2.1749  0.6265 -1.2524
  176MPD1     N 2741   2.566   1.128   0.346  0.3764  1.0721 -0.0018
  176MPD1    H5 2742   2.570   1.202   0.416  0.5011  3.5021 -2.5688
  176MPD1    N1 2743   2.111   1.072   0.494  0.6217 -0.0852 -0.9267
  176MPD1    H6 2744   2.028   1.018   0.469  0.5348 -0.5877  0.4170
  176MPD1    H7 2745   2.091   1.169   0.472 -0.6203  0.0899  0.9510
  177MPD1     C 2746   1.216   0.415  10.383 -0.2034 -0.0978  0.0359
  177MPD1    C1 2747   1.085   0.417  10.432  0.1609 -0.1028 -0.3936
  177MPD1    C2 2748   0.979   0.401  10.351  0.1069  0.9249 -0.0825
  177MPD1    C3 2749   0.999   0.406  10.214  0.0418 -0.1524  0.2975
  177MPD1    C4 2750   1.123   0.416  10.165  0.3172  0.0603  0.0772
  177MPD1    C5 2751   1.239   0.424  10.242  0.2317 -0.2285  0.6288
  177MPD1     H 2752   0.878   0.389  10.388 -0.8136  1.8123 -2.3153
  177MPD1    H1 2753   1.143   0.415  10.059 -0.5324 -1.1041 -0.0724
  177MPD1    H2 2754   1.303   0.414  10.448 -0.5611 -3.3019  0.4504
  177MPD1    H3 2755   1.336   0.437  10.194 -0.7028  0.0157 -1.2054
  177MPD1     N 2756   0.887   0.397  10.131 -0.4661  0.0090 -0.0906
  177MPD1    H5 2757   0.804   0.375  10.186  0.9375 -1.3346  1.5084
  177MPD1    N1 2758   1.071   0.381  10.570  0.0937  0.2481 -0.2876
  177MPD1    H6 2759   1.136   0.432  10.630 -1.3733 -0.7932  2.2209
  177MPD1    H7 2760   0.983   0.414  10.611 -0.2461 -2.0170  0.8069
  178MPD1     C 2761   3.474   1.124   0.502  0.4178 -0.5468  0.1226
  178MPD1    C1 2762   3.446   1.017   0.413  0.1088  0.3827  0.8667
  178MPD1    C2 2763   3.471   1.028   0.278  0.2216  0.0858  0.2148
  178MPD1    C3 2764   3.517   1.146   0.231  0.1121  0.2734  0.7463
  178MPD1    C4 2765   3.538   1.255   0.308 -0.2670  0.3899 -0.2487
  178MPD1    C5 2766   3.535   1.234   0.444  0.2927  0.3802 -0.1004
  178MPD1     H 2767   3.448   0.946   0.211  0.6973  1.7213 -1.9292
  178MPD1    H1 2768   3.567   1.350   0.263  1.0039 -0.1608 -0.6069
  178MPD1    H2 2769   3.457   1.126   0.609  0.6727  1.8779  0.1148
  178MPD1    H3 2770   3.567   1.318   0.504  0.9403 -1.1483  1.6740
  178MPD1     N 2771   3.533   1.167   0.093  0.1716 -0.6855  0.4597
  178MPD1    H5 2772   3.583   1.253   0.074 -0.0792 -0.7767 -0.6072
  178MPD1    N1 2773   3.372   0.913   0.466  0.3384  0.5846  0.0941
  178MPD1    H6 2774   3.383   0.903   0.567 -1.3807 -0.2058  0.1957
  178MPD1    H7 2775   3.384   0.822   0.421 -1.8165  0.8006 -0.8786
  179MPD1     C 2776   3.250   4.220  15.543 -0.3030 -0.0761  0.1992
  179MPD1    C1 2777   3.113   4.220  15.534 -0.0414  0.0344  0.3671
  179MPD1    C2 2778   3.039   4.152  15.630 -0.1101  0.2913  0.0323
  179MPD1    C3 2779   3.092   4.072  15.730  0.0003 -0.3552  0.2614
  179MPD1    C4 2780   3.232   4.071  15.741  0.0201 -0.2760  0.2561
  179MPD1    C5 2781   3.301   4.145  15.652  0.5825 -0.6249 -0.5506
  179MPD1     H 2782   2.932   4.156  15.614 -0.2007 -1.8212  0.1705
  179MPD1    H1 2783   3.283   4.016  15.820  1.7150  0.8963 -0.0103
  179MPD1    H2 2784   3.313   4.267  15.469 -0.3860 -0.0022  0.1765
  179MPD1    H3 2785   3.409   4.142  15.659  0.3759  0.5903  3.3260
  179MPD1     N 2786   3.002   4.010  15.827  0.5458  0.0003 -0.1773
  179MPD1    H5 2787   3.047   3.968  15.908 -0.1972  0.1428  0.3095
  179MPD1    N1 2788   3.056   4.282  15.425  0.2530 -0.4257 -0.0844
  179MPD1    H6 2789   2.963   4.318  15.446  0.8281  0.5880  0.7896
  179MPD1    H7 2790   3.105   4.365  15.392 -0.8896  0.1243 -0.3900
  180MPD1     C 2791   2.278   0.701  15.362  0.3101  0.3371 -0.8390
  180MPD1    C1 2792   2.330   0.771  15.253  0.5561 -0.0808  0.1847
  180MPD1    C2 2793   2.288   0.735  15.122  0.4413 -0.5031 -0.2684
  180MPD1    C3 2794   2.198   0.636  15.097  0.0634  0.5840  0.2178
  180MPD1    C4 2795   2.130   0.579  15.203  0.2111 -0.4644  0.1660
  180MPD1    C5 2796   2.178   0.609  15.326  0.1414  0.0442  0.5534
  180MPD1     H 2797   2.330   0.779  15.032 -0.2713 -1.7022 -1.1719
  180MPD1    H1 2798   2.056   0.501  15.194  0.4744 -0.8532  1.3686
  180MPD1    H2 2799   2.308   0.728  15.463  1.2229  0.4867 -1.1583
  180MPD1    H3 2800   2.128   0.556  15.406 -0.4941 -0.0255  0.1138
  180MPD1     N 2801   2.186   0.595  14.957 -0.2710  0.2090  0.3736
  180MPD1    H5 2802   2.246   0.637  14.887  0.5734 -1.1380  0.2789
  180MPD1    N1 2803   2.426   0.874  15.271 -0.5210  0.2809  0.0796
  180MPD1    H6 2804   2.418   0.926  15.358  0.1007  1.9777 -0.8806
  180MPD1    H7 2805   2.407   0.948  15.203  2.6065  0.0852 -0.9870
  181MPD1     C 2806   4.222   2.471  10.608 -0.1915 -0.1484  0.1631
  181MPD1    C1 2807   4.262   2.592  10.572 -0.1250  0.0711 -0.4216
  181MPD1    C2 2808   4.384   2.597  10.508  0.2289 -1.0588  0.1796
  181MPD1    C3 2809   4.456   2.482  10.473  0.3482 -0.4616  0.6177
  181MPD1    C4 2810   4.395   2.354  10.490 -0.1962  0.5637 -0.1629
  181MPD1    C5 2811   4.280   2.355  10.567 -0.0194 -0.7855  0.5747
  181MPD1     H 2812   4.434   2.691  10.494 -0.0538 -1.0047 -0.4666
  181MPD1    H1 2813   4.458   2.269  10.465  0.2765  0.4529  1.3968
  181MPD1    H2 2814   4.129   2.456  10.662 -1.0348 -1.2226 -1.6075
  181MPD1    H3 2815   4.244   2.257  10.596  0.3782 -0.9079  0.6480
  181MPD1     N 2816   4.574   2.478  10.393 -0.0308 -0.1113 -0.2668
  181MPD1    H5 2817   4.619   2.389  10.372 -2.5267 -1.2008 -0.9919
  181MPD1    N1 2818   4.202   2.710  10.619  0.2189 -0.1241 -0.2237
  181MPD1    H6 2819   4.215   2.786  10.552  0.8606  0.2243  0.2921
  181MPD1    H7 2820   4.104   2.702  10.648 -0.3969  2.6744 -1.5011
  182MPD1     C 2821   0.716   1.732   1.033  0.1266 -0.1554 -0.5531
  182MPD1    C1 2822   0.615   1.712   1.132 -0.1799  0.7931 -0.3160
  182MPD1    C2 2823   0.489   1.717   1.096  0.1826 -0.2282  0.8371
  182MPD1    C3 2824   0.449   1.728   0.965 -0.2498 -0.0224  0.4694
  182MPD1    C4 2825   0.547   1.729   0.864 -0.1620 -1.3602  0.3378
  182MPD1    C5 2826   0.676   1.732   0.903  0.6361 -0.1719 -0.0157
  182MPD1     H 2827   0.416   1.713   1.177  0.5988 -0.8050  1.1834
  182MPD1    H1 2828   0.526   1.732   0.758 -0.1807  2.1741  0.4472
  182MPD1    H2 2829   0.820   1.743   1.061 -0.5080 -0.1254  1.8547
  182MPD1    H3 2830   0.750   1.755   0.827 -1.3530 -0.0298 -1.9373
  182MPD1     N 2831   0.317   1.709   0.918  0.2341  0.9211  0.0469
  182MPD1    H5 2832   0.309   1.703   0.817 -0.8877 -0.4315  0.2172
  182MPD1    N1 2833   0.656   1.713   1.266 -0.1409 -0.1990  0.0618
  182MPD1    H6 2834   0.745   1.664   1.277  0.2796  0.0928 -1.8950
  182MPD1    H7 2835   0.585   1.673   1.327 -0.3430  0.1434  0.0516
  183MPD1     C 2836   2.057   2.204  10.419  0.0097  0.3540  0.3439
  183MPD1    C1 2837   1.957   2.285  10.470 -0.3215 -0.0997 -0.5240
  183MPD1    C2 2838   1.831   2.276  10.418  0.3676  0.4708 -0.6650
  183MPD1    C3 2839   1.792   2.180  10.325 -0.4424  0.4131 -0.0859
  183MPD1    C4 2840   1.881   2.086  10.291  0.3135 -0.3633  0.0188
  183MPD1    C5 2841   2.014   2.098  10.340  0.5413  0.5408 -0.2097
  183MPD1     H 2842   1.755   2.345  10.452 -0.7905 -0.5000 -1.2667
  183MPD1    H1 2843   1.866   2.006  10.219 -0.2715 -1.2023  1.0651
  183MPD1    H2 2844   2.161   2.209  10.451  0.7808  0.2007 -2.1270
  183MPD1    H3 2845   2.090   2.023  10.322  2.1673  1.8952  0.9694
  183MPD1     N 2846   1.657   2.188  10.285  0.0925  0.0032 -0.3616
  183MPD1    H5 2847   1.588   2.256  10.314  0.7620 -0.3165  2.0487
  183MPD1    N1 2848   1.982   2.408  10.531  0.4145  0.2616 -0.2606
  183MPD1    H6 2849   2.057   2.409  10.600 -0.5606  0.6460  0.7912
  183MPD1    H7 2850   1.901   2.456  10.571 -0.6453 -1.1172 -0.7870
  184MPD1     C 2851   4.627   4.345  10.451 -0.1030 -0.3007  0.0923
  184MPD1    C1 2852   4.611   4.357  10.312 -0.1534  0.4585 -0.0523
  184MPD1    C2 2853   4.672   4.463  10.240 -0.1780 -0.5031  0.5838
  184MPD1    C3 2854   0.018   4.548  10.315 -0.4366 -0.1631  0.0343
  184MPD1    C4 2855   0.041   4.526  10.445 -0.7293 -0.1868  0.4810
  184MPD1    C5 2856   4.719   4.428  10.510 -0.9761 -0.2172  0.2183
  184MPD1     H 2857   4.644   4.480  10.137 -2.4461 -0.6228  1.1831
  184MPD1    H1 2858   0.110   4.581  10.508 -0.3984 -0.4447  0.3422
  184MPD1    H2 2859   4.581   4.273  10.518  0.4316 -0.6415  0.0929
  184MPD1    H3 2860   0.004   4.409  10.613 -1.6299 -0.8580  0.2618
  184MPD1     N 2861   0.092   4.652  10.258  0.9979  0.2941  0.9035
  184MPD1    H5 2862   0.159   4.700  10.317  0.6765  0.4362  1.1554
  184MPD1    N1 2863   4.511   4.282  10.252  0.6935 -0.1340 -0.1668
  184MPD1    H6 2864   4.520   4.295  10.151  1.1804 -2.6679 -0.4665
  184MPD1    H7 2865   4.516   4.184  10.278 -1.9015  0.4186  2.4076
  185MPD1     C 2866   4.597   0.489   9.463 -0.5663  0.2939  0.4268
  185MPD1    C1 2867   4.716   0.539   9.508  0.3379  0.2711  0.7653
  185MPD1    C2 2868   0.039   0.472   9.610  0.2485 -0.1348 -0.0950
  185MPD1    C3 2869   4.729   0.352   9.655  0.1401  0.0315 -0.7997
  185MPD1    C4 2870   4.614   0.300   9.602  0.0803  0.8675  0.0269
  185MPD1    C5 2871   4.545   0.371   9.508  0.1441 -0.1997  0.0147
  185MPD1     H 2872   0.125   0.527   9.647 -1.4061  2.7964 -0.5873
  185MPD1    H1 2873   4.577   0.205   9.640 -0.3160  0.3271 -1.7377
  185MPD1    H2 2874   4.549   0.559   9.396  0.3879  0.1091 -0.4492
  185MPD1    H3 2875   4.454   0.321   9.477 -0.8848  1.1894  0.7994
  185MPD1     N 2876   0.054   0.289   9.760  0.3515 -0.3411  0.3464
  185MPD1    H5 2877   0.028   0.193   9.777  0.2202 -0.3434  0.1404
  185MPD1    N1 2878   0.016   0.672   9.480  0.8594 -0.2542  0.1512
  185MPD1    H6 2879   4.719   0.701   9.389  0.1143  0.2961  0.6227
  185MPD1    H7 2880   0.118   0.684   9.483  0.5419  2.6334  0.1077
  186MPD1     C 2881   2.720   4.457  15.696  0.0484  0.7909  0.6426
  186MPD1    C1 2882   2.842   4.488  15.643 -0.1690  0.1194 -0.2339
  186MPD1    C2 2883   2.945   4.484  15.737  0.2987  0.1531 -0.0871
  186MPD1    C3 2884   2.923   4.477  15.874  0.4645  0.7140 -0.0523
  186MPD1    C4 2885   2.793   4.457  15.918  0.2634  0.6798  0.1798
  186MPD1    C5 2886   2.700   4.427  15.833 -0.3910 -0.1314 -0.7172
  186MPD1     H 2887   3.044   4.498  15.694  0.1870 -0.9131 -0.6981
  186MPD1    H1 2888   2.762   4.474  16.020  1.6196  1.2221  0.4873
  186MPD1    H2 2889   2.630   4.436  15.638 -1.0304  2.8261  1.5732
  186MPD1    H3 2890   2.607   4.399  15.882  0.2429 -0.6588  0.1736
  186MPD1     N 2891   3.024   4.482  15.969 -0.7493  0.8761  0.7001
  186MPD1    H5 2892   2.981   4.481  16.061 -0.1152 -0.9768  0.9839
  186MPD1    N1 2893   2.865   4.501  15.504  0.3909 -0.9091  0.1241
  186MPD1    H6 2894   2.778   4.510  15.450  0.9768  0.2118 -0.6165
  186MPD1    H7 2895   2.933   4.571  15.478 -0.9933  0.4352  0.1114
  187MPD1     C 2896   3.088   2.075   0.502 -0.4257  0.0008  0.2809
  187MPD1    C1 2897   3.043   1.952   0.456 -0.4150  0.5426  0.1806
  187MPD1    C2 2898   2.949   1.958   0.350  0.8593  0.0815 -0.0528
  187MPD1    C3 2899   2.890   2.081   0.315 -0.1978  0.3592 -0.2608
  187MPD1    C4 2900   2.928   2.197   0.378  0.1720  0.4824  0.5943
  187MPD1    C5 2901   3.029   2.200   0.468  0.6797 -0.0037  0.0561
  187MPD1     H 2902   2.922   1.862   0.307  0.7815 -0.7448  1.8090
  187MPD1    H1 2903   2.886   2.287   0.336  2.4731  0.7610 -1.1301
  187MPD1    H2 2904   3.173   2.072   0.568 -0.7752 -2.4393  0.6158
  187MPD1    H3 2905   3.070   2.296   0.496 -0.3555  0.0514  1.3683
  187MPD1     N 2906   2.804   2.091   0.205  0.5359  0.2613  0.1427
  187MPD1    H5 2907   2.802   2.185   0.166 -2.5127 -1.0115 -2.8044
  187MPD1    N1 2908   3.106   1.833   0.490  0.4340 -0.2933  0.2597
  187MPD1    H6 2909   3.160   1.836   0.576 -1.9046 -0.4375  1.7298
  187MPD1    H7 2910   3.040   1.756   0.481 -2.0664  1.9778 -0.9312
  188MPD1     C 2911   2.906   0.665  10.277 -0.1118  0.0721  0.3408
  188MPD1    C1 2912   3.011   0.598  10.220 -0.3765  0.4847 -0.5036
  188MPD1    C2 2913   2.985   0.466  10.170 -0.1630 -0.1203 -0.1246
  188MPD1    C3 2914   2.854   0.417  10.178 -0.7263  0.1436  0.3986
  188MPD1    C4 2915   2.751   0.489  10.233  0.4610  0.0091 -0.6360
  188MPD1    C5 2916   2.777   0.606  10.298  0.0259 -0.1804 -0.6757
  188MPD1     H 2917   3.063   0.409  10.120  0.0973 -0.4522  0.6629
  188MPD1    H1 2918   2.654   0.447  10.254  0.0862  0.3027 -1.7521
  188MPD1    H2 2919   2.930   0.748  10.342 -1.9865  1.0053 -0.1600
  188MPD1    H3 2920   2.695   0.649  10.355  1.2176 -0.1915  1.0162
  188MPD1     N 2921   2.817   0.287  10.140  0.2970 -0.6190 -0.0857
  188MPD1    H5 2922   2.718   0.267  10.145  0.3872 -0.7028  1.2634
  188MPD1    N1 2923   3.139   0.650  10.226 -0.2066 -0.7886 -0.5191
  188MPD1    H6 2924   3.165   0.678  10.320  0.7080  0.8957 -1.2704
  188MPD1    H7 2925   3.210   0.592  10.182  1.4808  2.3989 -1.9670
  189MPD1     C 2926   3.939   2.248   0.727  0.5456  0.1225  0.1535
  189MPD1    C1 2927   3.825   2.203   0.667 -0.0047 -0.7847 -0.4991
  189MPD1    C2 2928   3.756   2.304   0.596  0.0139  0.2848  0.3951
  189MPD1    C3 2929   3.819   2.415   0.546  0.1776 -0.3786  0.5403
  189MPD1    C4 2930   3.945   2.441   0.600  0.4479  0.3048  0.2857
  189MPD1    C5 2931   4.008   2.359   0.686 -0.7077 -0.0332  0.0479
  189MPD1     H 2932   3.654   2.291   0.561 -0.2204 -0.3403  1.3160
  189MPD1    H1 2933   4.001   2.528   0.568  0.1783 -0.0607 -1.1596
  189MPD1    H2 2934   3.989   2.176   0.792 -2.0864 -1.4253  0.4757
  189MPD1    H3 2935   4.105   2.385   0.726 -0.2705 -2.8757  0.8689
  189MPD1     N 2936   3.751   2.503   0.463 -0.0372  0.5217  0.5925
  189MPD1    H5 2937   3.654   2.479   0.449 -0.7847  4.6668 -1.4761
  189MPD1    N1 2938   3.763   2.084   0.698 -0.2637  0.4764 -0.1866
  189MPD1    H6 2939   3.833   2.014   0.724  1.0737  2.2702  1.1101
  189MPD1    H7 2940   3.704   2.047   0.624  0.3794 -2.6780  0.8598
  190MPD1     C 2941   3.008   1.512  15.082  0.3367 -0.3349  0.1468
  190MPD1    C1 2942   3.139   1.535  15.106  0.0724  0.7266 -0.5373
  190MPD1    C2 2943   3.200   1.430  15.176 -0.4906 -0.2062 -0.7049
  190MPD1    C3 2944   3.138   1.313  15.211  1.1177 -0.1260 -0.0085
  190MPD1    C4 2945   3.009   1.293  15.163 -0.0911  0.6862 -0.4094
  190MPD1    C5 2946   2.949   1.391  15.095  0.5734  0.2448 -0.5657
  190MPD1     H 2947   3.301   1.443  15.214 -0.5484  0.6721 -0.8520
  190MPD1    H1 2948   2.955   1.204  15.192  2.2868 -0.9477 -0.9512
  190MPD1    H2 2949   2.938   1.587  15.047  2.4128  1.3422 -0.4129
  190MPD1    H3 2950   2.845   1.384  15.065  0.4300  2.1858 -0.5206
  190MPD1     N 2951   3.211   1.216  15.288 -0.2126 -0.6507 -0.0718
  190MPD1    H5 2952   3.306   1.242  15.312 -0.3030 -0.0261 -0.3766
  190MPD1    N1 2953   3.197   1.656  15.088  0.1048 -0.4346  0.3110
  190MPD1    H6 2954   3.154   1.700  15.006  0.0369  0.4423  0.8139
  190MPD1    H7 2955   3.294   1.648  15.058 -0.1693  0.0323 -0.7284
  191MPD1     C 2956   1.189   2.989  13.209 -0.3407  0.0872  0.1325
  191MPD1    C1 2957   1.188   3.066  13.099 -0.0574 -0.5811 -0.5131
  191MPD1    C2 2958   1.299   3.057  13.014  0.4303 -0.2500  1.2274
  191MPD1    C3 2959   1.403   2.968  13.037  0.2406  0.4594 -0.4391
  191MPD1    C4 2960   1.404   2.890  13.154  0.2187 -0.2202 -0.1981
  191MPD1    C5 2961   1.292   2.902  13.237 -0.1545 -0.4207 -0.0610
  191MPD1     H 2962   1.297   3.127  12.932  0.5062 -0.0933  1.3588
  191MPD1    H1 2963   1.486   2.821  13.175 -0.6539 -1.6676 -1.5660
  191MPD1    H2 2964   1.113   2.986  13.286  0.0083  0.5194  0.4876
  191MPD1    H3 2965   1.284   2.847  13.330 -0.2507 -2.0937 -1.0526
  191MPD1     N 2966   1.509   2.957  12.944 -0.1679  0.1678  0.2847
  191MPD1    H5 2967   1.479   2.987  12.852 -1.8442 -1.3281  0.3386
  191MPD1    N1 2968   1.074   3.147  13.064  0.4132 -0.6851  0.0553
  191MPD1    H6 2969   1.104   3.234  13.020 -0.1264 -1.2507 -1.4106
  191MPD1    H7 2970   1.025   3.176  13.149  0.1034 -0.8836 -0.0567
  192MPD1     C 2971   1.877   3.252  12.063  0.8236 -0.0120  0.4460
  192MPD1    C1 2972   1.808   3.308  12.168  0.7763 -0.0886 -0.5003
  192MPD1    C2 2973   1.807   3.241  12.286  0.1571 -0.2181  0.3482
  192MPD1    C3 2974   1.862   3.119  12.307  0.6924  0.3415 -0.1205
  192MPD1    C4 2975   1.944   3.071  12.198 -0.0392 -0.7806 -0.4698
  192MPD1    C5 2976   1.944   3.136  12.074 -0.1433  0.3402 -0.4306
  192MPD1     H 2977   1.761   3.292  12.369 -0.0285 -0.4442  0.3820
  192MPD1    H1 2978   1.999   2.978  12.203  1.5547  0.3557  2.5108
  192MPD1    H2 2979   1.889   3.300  11.967 -2.3134  0.1531  0.1154
  192MPD1    H3 2980   1.999   3.098  11.990  1.4317  1.0767  0.2670
  192MPD1     N 2981   1.865   3.042  12.426  0.3758 -0.2729 -0.5039
  192MPD1    H5 2982   1.916   2.954  12.428 -0.2659 -0.6748 -2.0616
  192MPD1    N1 2983   1.766   3.445  12.157  0.2597  0.2323  0.2280
  192MPD1    H6 2984   1.695   3.464  12.227  1.7377 -1.3482  2.1792
  192MPD1    H7 2985   1.735   3.481  12.067 -1.4233 -3.6490 -0.7356
  193MPD1     C 2986   1.746   2.767  16.248  0.0655  0.4276  0.3838
  193MPD1    C1 2987   1.682   2.864  16.315  0.7114 -1.2976  0.2825
  193MPD1    C2 2988   1.739   2.915  16.431  0.0776  0.3663 -0.1140
  193MPD1    C3 2989   1.864   2.878  16.473  0.5234  0.4162 -0.0338
  193MPD1    C4 2990   1.930   2.783  16.395  0.4929 -0.2498  0.0208
  193MPD1    C5 2991   1.869   2.724  16.286 -0.5443  0.2900  1.1610
  193MPD1     H 2992   1.687   2.980  16.500  0.5828 -0.4435  1.0359
  193MPD1    H1 2993   2.032   2.752  16.416  0.0436 -1.4337  0.4782
  193MPD1    H2 2994   1.698   2.712  16.168 -0.7433  1.8200 -0.0919
  193MPD1    H3 2995   1.912   2.647  16.222 -3.1034  0.1073 -0.3571
  193MPD1     N 2996   1.948   2.929  16.575 -0.5296  0.2368 -0.4561
  193MPD1    H5 2997   2.045   2.900  16.567 -0.8463 -0.4189 -1.9098
  193MPD1    N1 2998   1.550   2.891  16.289  0.3360  0.4090  0.0702
  193MPD1    H6 2999   1.517   2.979  16.327 -1.0854  0.4887 -1.3554
  193MPD1    H7 3000   1.531   2.872  16.191  1.7300  0.0375 -0.1260
  194MPD1     C 3001   4.040   0.341  16.540  0.1857  0.5203  0.4876
  194MPD1    C1 3002   4.066   0.214  16.506 -0.4892 -0.7273 -0.8018
  194MPD1    C2 3003   4.154   0.140  16.586  0.2193  0.3928 -0.8076
  194MPD1    C3 3004   4.221   0.203  16.692 -0.1345  0.5241 -0.2322
  194MPD1    C4 3005   4.192   0.335  16.725 -0.8662 -0.3171 -0.2928
  194MPD1    C5 3006   4.104   0.401  16.644  0.5150  0.9303  0.3085
  194MPD1     H 3007   4.178   0.038  16.557  2.0344  0.4194  0.5807
  194MPD1    H1 3008   4.266   0.385  16.786  2.0150 -1.5194 -2.7814
  194MPD1    H2 3009   3.972   0.391  16.472  2.6225  1.2415 -1.4143
  194MPD1    H3 3010   4.093   0.507  16.662  1.8799  1.1136  0.0952
  194MPD1     N 3011   4.310   0.133  16.780 -0.4579 -0.6197  0.0004
  194MPD1    H5 3012   4.357   0.190  16.849  0.1084 -1.1452  0.0530
  194MPD1    N1 3013   3.984   0.160  16.413 -0.4464  0.4847 -0.2602
  194MPD1    H6 3014   4.008   0.068  16.376 -1.4205  0.9053 -1.8956
  194MPD1    H7 3015   3.958   0.238  16.355  2.5896 -1.3289 -4.0770
  195MPD1     C 3016   1.843   2.644   0.818 -0.3089  0.1616 -0.2396
  195MPD1    C1 3017   1.746   2.549   0.825  0.0793 -0.5063  0.1254
  195MPD1    C2 3018   1.784   2.413   0.800  0.3587  0.6411 -0.2550
  195MPD1    C3 3019   1.911   2.379   0.755  0.3075  0.1759  0.6179
  195MPD1    C4 3020   1.995   2.483   0.732  0.1368 -0.4691 -0.2661
  195MPD1    C5 3021   1.966   2.613   0.761 -0.6294  0.2151  0.2360
  195MPD1     H 3022   1.709   2.337   0.818  1.0795 -0.3154 -1.2579
  195MPD1    H1 3023   2.096   2.474   0.694  0.2142  1.3101 -0.5159
  195MPD1    H2 3024   1.829   2.744   0.859 -1.4651  0.0200 -0.2832
  195MPD1    H3 3025   2.039   2.691   0.743 -1.3568  0.6843 -0.7102
  195MPD1     N 3026   1.953   2.251   0.726  0.2467  0.1824  0.0117
  195MPD1    H5 3027   2.048   2.241   0.693 -0.0631 -0.2675 -0.7528
  195MPD1    N1 3028   1.630   2.574   0.900  0.2648  0.6031 -0.7012
  195MPD1    H6 3029   1.597   2.670   0.905  0.5411  0.5920  1.2894
  195MPD1    H7 3030   1.549   2.512   0.897 -0.3381  1.4585 -2.0914
  196MPD1     C 3031   0.948   1.010   0.436 -0.0279 -0.0240 -0.1915
  196MPD1    C1 3032   1.041   1.113   0.432 -0.1534 -0.2240  0.3307
  196MPD1    C2 3033   1.115   1.141   0.549 -0.0411 -0.2957  0.2276
  196MPD1    C3 3034   1.094   1.074   0.664 -0.5539 -0.0041 -0.2330
  196MPD1    C4 3035   1.000   0.968   0.664 -0.4608 -0.7529 -0.3158
  196MPD1    C5 3036   0.936   0.934   0.548 -0.1723 -0.1706 -0.2429
  196MPD1     H 3037   1.190   1.220   0.551  0.0260 -0.3275 -1.1204
  196MPD1    H1 3038   0.970   0.908   0.749 -0.0092  0.5845  0.7884
  196MPD1    H2 3039   0.891   0.985   0.347  2.1295  0.7779 -1.7895
  196MPD1    H3 3040   0.860   0.858   0.560 -0.7808  0.4799  0.0297
  196MPD1     N 3041   1.160   1.104   0.785  0.8283 -1.0133  0.1611
  196MPD1    H5 3042   1.126   1.041   0.856 -0.6520 -0.6168 -0.1873
  196MPD1    N1 3043   1.079   1.174   0.311 -0.2117 -0.3724 -0.9898
  196MPD1    H6 3044   1.005   1.175   0.240  0.1588 -0.8025 -1.3831
  196MPD1    H7 3045   1.099   1.273   0.324  2.6028 -0.8497 -1.8531
  197MPD1     C 3046   1.043   2.721  17.743 -0.3458  0.1469 -0.5445
  197MPD1    C1 3047   1.108   2.827   0.046 -0.4891  0.2410 -0.0269
  197MPD1    C2 3048   1.101   2.949  17.739  0.4439  0.2094 -0.6142
  197MPD1    C3 3049   1.021   2.965  17.625 -0.1036  0.1466  0.5860
  197MPD1    C4 3050   0.949   2.853  17.574 -0.0897 -0.9425  0.1387
  197MPD1    C5 3051   0.955   2.732  17.641  0.1317 -0.0115 -0.2163
  197MPD1     H 3052   1.178   3.023   0.004  0.4509  0.0721 -0.1100
  197MPD1    H1 3053   0.890   2.851  17.484  0.7315 -1.0749 -0.3937
  197MPD1    H2 3054   1.063   2.620   0.021  0.6365  0.0192 -1.5202
  197MPD1    H3 3055   0.900   2.648  17.601  1.3991 -0.8607 -0.1671
  197MPD1     N 3056   1.034   3.072  17.532  0.3548 -0.4313  0.3640
  197MPD1    H5 3057   0.978   3.057  17.449  3.5272 -1.0837 -1.6808
  197MPD1    N1 3058   1.213   2.793   0.127  0.5304  0.0158  0.3942
  197MPD1    H6 3059   1.178   2.726   0.195  1.7529  1.2313  2.2089
  197MPD1    H7 3060   1.235   2.877   0.179 -2.6275  0.5989  0.7862
  198MPD1     C 3061   2.198   2.160  15.932 -0.0016 -0.4474  0.0282
  198MPD1    C1 3062   2.304   2.199  15.850 -0.5433 -0.1063  0.1030
  198MPD1    C2 3063   2.432   2.155  15.889 -0.0002  0.2858  0.1578
  198MPD1    C3 3064   2.465   2.099  16.015  0.9502 -0.0440 -0.3390
  198MPD1    C4 3065   2.358   2.070  16.091 -0.2249  0.1769  0.2895
  198MPD1    C5 3066   2.232   2.094  16.048 -0.0287 -0.6626  0.1895
  198MPD1     H 3067   2.510   2.169  15.814 -0.5574  1.1669 -0.2573
  198MPD1    H1 3068   2.369   2.025  16.189  1.3604  1.9220  0.9252
  198MPD1    H2 3069   2.096   2.181  15.900  0.6837  2.8722  0.0168
  198MPD1    H3 3070   2.150   2.062  16.111 -0.3919 -2.7306 -1.3597
  198MPD1     N 3071   2.600   2.061  16.035  0.0392 -0.6653  0.3846
  198MPD1    H5 3072   2.663   2.074  15.957 -2.9549 -0.6983 -2.0392
  198MPD1    N1 3073   2.275   2.251  15.723 -0.6993  0.4006 -0.5982
  198MPD1    H6 3074   2.204   2.321  15.743 -0.2837  0.5059  0.5232
  198MPD1    H7 3075   2.358   2.283  15.673  0.1514 -0.8491  0.0285
  199MPD1     C 3076   3.709   2.455  10.540  0.4902 -0.5400  0.0671
  199MPD1    C1 3077   3.710   2.575  10.484  0.3448  0.2325  0.5782
  199MPD1    C2 3078   3.820   2.623  10.419  0.3622 -0.1045  0.5613
  199MPD1    C3 3079   3.927   2.534  10.392  0.8045  0.2717 -0.6412
  199MPD1    C4 3080   3.919   2.407  10.443  0.0311 -1.2336 -0.7152
  199MPD1    C5 3081   3.808   2.368  10.520  0.5543  0.1203  0.3812
  199MPD1     H 3082   3.810   2.720  10.372 -2.1789 -1.3187 -1.3732
  199MPD1    H1 3083   4.002   2.338  10.449  0.8117 -0.3510 -1.2600
  199MPD1    H2 3084   3.633   2.433  10.615  0.9214 -1.3087  0.2876
  199MPD1    H3 3085   3.814   2.275  10.576  0.2987 -0.0182  0.1739
  199MPD1     N 3086   4.050   2.570  10.325 -0.0590  0.1658  0.4396
  199MPD1    H5 3087   4.117   2.493  10.327  0.2592  0.3877 -1.0924
  199MPD1    N1 3088   3.608   2.662  10.516  0.2662 -0.6924 -0.9642
  199MPD1    H6 3089   3.606   2.735  10.444 -1.2320 -0.9925 -1.2397
  199MPD1    H7 3090   3.516   2.617  10.521 -0.6193  1.1115 -0.8467
  200MPD1     C 3091   3.898   4.056  14.804 -0.0969  0.2064  0.0623
  200MPD1    C1 3092   3.976   4.044  14.683 -0.6709 -0.4518 -0.0689
  200MPD1    C2 3093   4.058   3.932  14.670 -0.6867 -0.2619  0.1193
  200MPD1    C3 3094   4.069   3.831  14.762  0.2735 -0.5763 -0.0628
  200MPD1    C4 3095   3.981   3.842  14.875  0.4304  0.2923  0.9467
  200MPD1    C5 3096   3.897   3.950  14.888 -0.3845  0.5402  0.0576
  200MPD1     H 3097   4.128   3.927  14.587 -1.1818 -0.0993 -0.3107
  200MPD1    H1 3098   3.978   3.769  14.955  0.7137 -0.9353 -0.1592
  200MPD1    H2 3099   3.847   4.150  14.817 -0.2840  0.2830 -1.2095
  200MPD1    H3 3100   3.832   3.950  14.975 -0.2655 -3.7983  0.1436
  200MPD1     N 3101   4.159   3.724  14.745  0.4434  0.1707 -0.6627
  200MPD1    H5 3102   4.225   3.735  14.669  1.1968  0.7274  0.0815
  200MPD1    N1 3103   3.976   4.145  14.582 -0.4519  0.1966 -0.2920
  200MPD1    H6 3104   3.892   4.201  14.579 -1.3568 -1.2074 -1.1244
  200MPD1    H7 3105   3.976   4.107  14.488  1.3526 -0.4370 -0.0534
  201MPD1     C 3106   0.905   2.175  13.108 -0.1053 -0.0263 -0.3519
  201MPD1    C1 3107   0.875   2.056  13.048 -0.2403  0.6951 -0.3151
  201MPD1    C2 3108   0.972   1.959  13.045 -0.0342 -0.5795 -0.4838
  201MPD1    C3 3109   1.103   1.982  13.098  0.5105 -0.1935 -0.4917
  201MPD1    C4 3110   1.127   2.102  13.155 -0.1899 -0.0737 -0.5224
  201MPD1    C5 3111   1.026   2.194  13.168  0.6402  0.2671 -0.2450
  201MPD1     H 3112   0.943   1.863  13.004  0.4472 -2.2415  2.9842
  201MPD1    H1 3113   1.224   2.127  13.196  0.2020 -1.9942 -0.2991
  201MPD1    H2 3114   0.833   2.256  13.111  0.6864  0.6799 -0.5948
  201MPD1    H3 3115   1.048   2.288  13.217  1.4987  1.0675 -2.2105
  201MPD1     N 3116   1.191   1.871  13.100  0.0413 -0.7846 -0.0241
  201MPD1    H5 3117   1.162   1.796  13.038  0.5592 -0.3880 -0.7389
  201MPD1    N1 3118   0.745   2.032  13.000  0.4735 -0.3944 -0.2538
  201MPD1    H6 3119   0.741   1.974  12.916  0.6619  0.2204 -0.6933
  201MPD1    H7 3120   0.694   2.115  12.970 -1.3248 -1.0081  1.1035
  202MPD1     C 3121   1.195   0.808   9.245 -0.3653 -0.0639  0.0304
  202MPD1    C1 3122   1.136   0.922   9.299  0.2743 -0.3553  0.3463
  202MPD1    C2 3123   1.196   0.968   9.414 -0.2257  0.4734 -0.8031
  202MPD1    C3 3124   1.270   0.878   9.498 -0.5490  0.5130 -0.1210
  202MPD1    C4 3125   1.319   0.765   9.447  0.2875  0.0083 -0.1939
  202MPD1    C5 3126   1.273   0.727   9.325  0.1269  0.1170  0.2925
  202MPD1     H 3127   1.142   1.055   9.450  0.9233  0.7405  0.3220
  202MPD1    H1 3128   1.381   0.700   9.508 -1.1337 -0.2862  0.9437
  202MPD1    H2 3129   1.161   0.765   9.151  0.5162 -0.1537 -0.2522
  202MPD1    H3 3130   1.291   0.626   9.291 -2.4782 -0.5629  0.9177
  202MPD1     N 3131   1.292   0.898   9.641 -0.2207  0.1085  0.8075
  202MPD1    H5 3132   1.352   0.829   9.686 -2.0426 -1.8281  0.2566
  202MPD1    N1 3133   1.081   1.017   9.211 -0.1047  0.3531 -0.4040
  202MPD1    H6 3134   1.021   0.966   9.148 -0.5482 -1.1316  1.2114
  202MPD1    H7 3135   1.025   1.081   9.267 -0.9553 -0.4548 -0.3353
  203MPD1     C 3136   4.576   2.102  12.463  0.7872 -1.0564  0.0860
  203MPD1    C1 3137   4.707   2.120  12.434 -1.0350 -1.1469  0.4616
  203MPD1    C2 3138   0.066   2.081  12.524 -0.3228  0.9564 -0.1186
  203MPD1    C3 3139   0.028   2.015  12.638 -0.5716  0.3320 -0.1197
  203MPD1    C4 3140   4.636   1.983  12.661  0.1671 -0.4673 -0.3864
  203MPD1    C5 3141   4.541   2.017  12.567 -0.7442  0.5780  0.4177
  203MPD1     H 3142   0.170   2.108  12.508 -0.1452  1.4165  1.8787
  203MPD1    H1 3143   4.601   1.915  12.738  0.1357  1.9638  1.7370
  203MPD1    H2 3144   4.496   2.145  12.404  1.1737 -1.1169 -0.4798
  203MPD1    H3 3145   4.437   1.993  12.585 -0.3747 -1.4699 -0.0844
  203MPD1     N 3146   0.129   1.980  12.726 -0.1411  1.0659 -0.3974
  203MPD1    H5 3147   0.224   2.008  12.703  0.3877 -0.8070 -0.4123
  203MPD1    N1 3148   0.002   2.208  12.330  0.3150 -0.2408 -0.1869
  203MPD1    H6 3149   4.678   2.192  12.252 -0.0683  0.2375  0.0302
  203MPD1    H7 3150   0.094   2.191  12.290 -1.0494  0.3945 -3.5503
  204MPD1     C 3151   4.162   3.996  17.513 -0.6656 -0.7759 -0.1078
  204MPD1    C1 3152   4.259   3.966  17.420 -0.1737 -0.2881  0.0630
  204MPD1    C2 3153   4.349   3.870  17.450 -0.2908 -0.2683  0.5268
  204MPD1    C3 3154   4.343   3.792  17.558  0.0888  0.4014  0.4508
  204MPD1    C4 3155   4.240   3.814  17.649  0.1342 -0.4013 -0.1776
  204MPD1    C5 3156   4.162   3.925  17.630  0.6454 -0.9507  0.3930
  204MPD1     H 3157   4.426   3.843  17.378  2.2631  3.7595  1.7369
  204MPD1    H1 3158   4.220   3.746  17.731  2.3624 -1.2360 -0.3101
  204MPD1    H2 3159   4.100   4.085  17.511 -0.7537 -0.8627 -1.2332
  204MPD1    H3 3160   4.082   3.948  17.699 -0.5743 -1.3930 -0.8952
  204MPD1     N 3161   4.434   3.688  17.578  0.1441  0.1214 -0.2478
  204MPD1    H5 3162   4.491   3.679  17.494  2.0879 -1.5646  1.2441
  204MPD1    N1 3163   4.292   4.051  17.312  1.0600 -0.6521  0.0635
  204MPD1    H6 3164   4.335   4.013  17.228  1.2673 -1.1035  0.3748
  204MPD1    H7 3165   4.208   4.095  17.276  0.3583 -3.8286 -2.1681
  205MPD1     C 3166   4.581   2.462  16.759  0.0357 -0.9965 -0.5969
  205MPD1    C1 3167   4.573   2.339  16.828  0.8446  0.3869  0.1087
  205MPD1    C2 3168   4.507   2.337  16.949  0.9286  0.2185 -0.6106
  205MPD1    C3 3169   4.446   2.447  17.003  0.1261 -0.3175 -0.1597
  205MPD1    C4 3170   4.447   2.564  16.936  0.6198  0.0471 -0.1311
  205MPD1    C5 3171   4.524   2.575  16.822  0.2913 -0.0163 -1.0879
  205MPD1     H 3172   4.497   2.244  17.002 -0.1224  0.1933 -0.8667
  205MPD1    H1 3173   4.395   2.648  16.980 -0.6715 -0.7615 -0.1078
  205MPD1    H2 3174   4.619   2.483  16.660 -1.3642  0.3610 -0.8493
  205MPD1    H3 3175   4.529   2.674  16.779  2.4999 -0.2529 -1.3705
  205MPD1     N 3176   4.372   2.445  17.129 -0.0263 -0.3395 -0.1685
  205MPD1    H5 3177   4.330   2.533  17.157  0.3579 -0.1867 -0.0722
  205MPD1    N1 3178   4.604   2.215  16.761  0.6409 -0.3512  0.3036
  205MPD1    H6 3179   4.613   2.145  16.834  2.7477  0.1350  0.5011
  205MPD1    H7 3180   4.689   2.218  16.704  0.9883 -3.4278  0.6521
  206MPD1     C 3181   0.218   0.040  16.905  1.1298 -0.4923  0.5344
  206MPD1    C1 3182   0.153   4.670  16.860  0.6633 -0.6086  0.2199
  206MPD1    C2 3183   0.069   4.687  16.755  0.5135  0.1014 -0.2204
  206MPD1    C3 3184   0.018   0.072  16.732 -0.0365  0.1952  0.0028
  206MPD1    C4 3185   0.080   0.183  16.786 -0.6227  0.3977 -0.2522
  206MPD1    C5 3186   0.181   0.169  16.873  1.0373 -0.2185  0.1626
  206MPD1     H 3187   0.019   4.605  16.705  0.6718  1.6534 -2.8991
  206MPD1    H1 3188   0.060   0.281  16.745 -2.4891  0.2185  0.2142
  206MPD1    H2 3189   0.311   0.035  16.960  0.7360 -1.4014  1.1279
  206MPD1    H3 3190   0.233   0.258  16.908  2.3179 -0.7753 -0.3267
  206MPD1     N 3191   4.662   0.103  16.628 -0.1084  0.5062 -0.0389
  206MPD1    H5 3192   4.629   0.198  16.617  0.8066  0.7983 -0.2082
  206MPD1    N1 3193   0.191   4.543  16.907 -0.0835  0.0286 -0.6130
  206MPD1    H6 3194   0.114   4.477  16.899  0.9026 -1.1281 -0.4638
  206MPD1    H7 3195   0.223   4.547  17.004  0.4437  1.0981 -0.8253
  207MPD1     C 3196   3.010   1.024  10.369 -0.5704 -0.3542 -0.0048
  207MPD1    C1 3197   2.957   1.103  10.265 -0.1426 -0.1007  0.0119
  207MPD1    C2 3198   2.920   1.232  10.288 -0.2335 -0.0889 -0.5418
  207MPD1    C3 3199   2.947   1.295  10.403  0.2408  0.1156  1.4274
  207MPD1    C4 3200   3.004   1.221  10.505  0.5002 -0.0751 -0.3141
  207MPD1    C5 3201   3.038   1.092  10.487  0.6521  0.7948  0.1897
  207MPD1     H 3202   2.869   1.285  10.209 -0.6547  1.1900  0.6022
  207MPD1    H1 3203   3.022   1.264  10.603  0.8466  2.3062 -1.4281
  207MPD1    H2 3204   3.028   0.917  10.366 -1.2425 -0.4376 -0.9282
  207MPD1    H3 3205   3.079   1.035  10.570 -0.9183  0.9463  1.0741
  207MPD1     N 3206   2.912   1.424  10.436 -0.1258 -0.6310 -0.3507
  207MPD1    H5 3207   2.922   1.449  10.534  0.4014 -0.3851 -0.4692
  207MPD1    N1 3208   2.914   1.037  10.149 -0.3885 -0.6783 -0.2748
  207MPD1    H6 3209   2.902   1.099  10.069  1.1241  1.3335  1.0757
  207MPD1    H7 3210   2.983   0.966  10.126 -0.8269 -0.8940 -0.9522
  208MPD1     C 3211   4.194   0.637   0.280 -0.1785 -0.1223  0.7370
  208MPD1    C1 3212   4.307   0.691   0.336 -0.0330 -0.3791  0.6023
  208MPD1    C2 3213   4.363   0.802   0.270 -0.3337  0.2784  0.5453
  208MPD1    C3 3214   4.318   0.855   0.145 -0.0488  0.0737  0.5352
  208MPD1    C4 3215   4.208   0.791   0.083  0.5979 -0.4139 -0.0473
  208MPD1    C5 3216   4.147   0.692   0.156 -0.4445  0.2409  0.1759
  208MPD1     H 3217   4.452   0.850   0.311 -0.1851  0.8720 -0.4579
  208MPD1    H1 3218   4.143   0.827   0.004  0.2952 -0.5261  0.1490
  208MPD1    H2 3219   4.138   0.552   0.319 -1.7124  0.2576 -0.6484
  208MPD1    H3 3220   4.060   0.643   0.112 -0.3047  0.0610  0.0995
  208MPD1     N 3221   4.382   0.966   0.081  0.1709  0.6191  0.4152
  208MPD1    H5 3222   4.458   1.010   0.132  2.1201 -4.2843  1.6677
  208MPD1    N1 3223   4.380   0.633   0.437  0.4594 -0.1655  0.4397
  208MPD1    H6 3224   4.335   0.559   0.490 -0.3697  1.4997  2.0481
  208MPD1    H7 3225   4.430   0.695   0.500  0.1564  1.2357 -0.7092
  209MPD1     C 3226   1.492   1.750  11.043  0.1573 -0.4052  0.0461
  209MPD1    C1 3227   1.504   1.720  11.178  0.3848 -1.1123  0.6173
  209MPD1    C2 3228   1.622   1.750  11.232  0.1753  0.3497 -0.1920
  209MPD1    C3 3229   1.717   1.825  11.165  0.6651 -0.4098 -0.5163
  209MPD1    C4 3230   1.701   1.863  11.040  0.0818 -0.5402 -0.7363
  209MPD1    C5 3231   1.586   1.828  10.974  0.0139 -0.2220 -0.2931
  209MPD1     H 3232   1.642   1.725  11.335  0.6968  1.7755  0.0539
  209MPD1    H1 3233   1.773   1.925  10.989  0.8748  0.2685  1.3742
  209MPD1    H2 3234   1.410   1.713  10.982  1.4285 -3.2031  0.0394
  209MPD1    H3 3235   1.572   1.851  10.869 -0.5467  3.0475  0.4925
  209MPD1     N 3236   1.834   1.863  11.240 -0.0979 -0.6258  0.2612
  209MPD1    H5 3237   1.841   1.839  11.338  0.3253  0.0615  0.3989
  209MPD1    N1 3238   1.400   1.652  11.248 -0.2955  0.6571  0.7781
  209MPD1    H6 3239   1.309   1.680  11.211 -0.6861  0.4266  1.5680
  209MPD1    H7 3240   1.390   1.675  11.347 -0.2157 -0.7504  1.1053
  210MPD1     C 3241   1.835   2.137  12.045  0.0184 -0.3095 -0.2649
  210MPD1    C1 3242   1.962   2.177  12.009 -0.0009  0.2831 -0.2250
  210MPD1    C2 3243   2.014   2.136  11.893 -0.2758  0.7712  0.0069
  210MPD1    C3 3244   1.951   2.045  11.811 -0.6700  0.1730  0.0875
  210MPD1    C4 3245   1.828   1.992  11.850 -0.4445 -0.2725 -0.2722
  210MPD1    C5 3246   1.770   2.046  11.970  0.6423 -0.5679 -0.6423
  210MPD1     H 3247   2.111   2.176  11.867 -0.9319  1.8191 -0.8348
  210MPD1    H1 3248   1.762   1.930  11.791 -2.3001  1.2933  0.1508
  210MPD1    H2 3249   1.789   2.203  12.117 -0.5346 -2.2002  1.1139
  210MPD1    H3 3250   1.665   2.022  11.986  0.4889  0.0339 -0.7539
  210MPD1     N 3251   2.007   2.009  11.688 -0.1174  0.2857 -0.0751
  210MPD1    H5 3252   1.962   1.933  11.637  0.8337 -1.2374  1.3847
  210MPD1    N1 3253   2.011   2.296  12.066 -1.1257 -0.4540 -0.5092
  210MPD1    H6 3254   2.110   2.308  12.048 -1.1873  1.2780  0.3702
  210MPD1    H7 3255   1.980   2.312  12.162  1.6666  2.2014 -0.0308
  211MPD1     C 3256   0.643   2.051  16.200 -0.2470  0.1837 -0.1298
  211MPD1    C1 3257   0.711   2.164  16.234 -1.2252 -1.0042  0.2418
  211MPD1    C2 3258   0.639   2.276  16.266  0.1456 -0.2272  0.2649
  211MPD1    C3 3259   0.507   2.276  16.248 -0.1869 -0.3063  0.0655
  211MPD1    C4 3260   0.434   2.167  16.205 -0.1311 -0.5692 -0.9923
  211MPD1    C5 3261   0.505   2.053  16.183  0.8623  0.0960  0.7168
  211MPD1     H 3262   0.683   2.368  16.304 -2.2381  1.0179 -0.0113
  211MPD1    H1 3263   0.328   2.159  16.184 -0.4863 -1.8937  1.2935
  211MPD1    H2 3264   0.684   1.952  16.186 -3.2401 -0.9927 -0.7110
  211MPD1    H3 3265   0.454   1.964  16.149  0.9715  1.0961 -2.0073
  211MPD1     N 3266   0.436   2.393  16.277  0.4056  0.1079  1.3948
  211MPD1    H5 3267   0.479   2.460  16.339 -1.6974  2.1018  0.6818
  211MPD1    N1 3268   0.855   2.173  16.244 -0.3981 -0.1990  0.7533
  211MPD1    H6 3269   0.877   2.248  16.309  0.8264 -1.1176  1.3838
  211MPD1    H7 3270   0.880   2.219  16.157  2.2600 -1.5340  0.8300
  212MPD1     C 3271   3.916   0.856  16.667  0.2824 -0.2116  0.3880
  212MPD1    C1 3272   3.934   0.849  16.806  0.7890 -0.1517  0.1206
  212MPD1    C2 3273   3.910   0.732  16.875 -0.3561  0.2459 -0.2467
  212MPD1    C3 3274   3.852   0.625  16.811  0.3141 -0.9205  0.5627
  212MPD1    C4 3275   3.824   0.643  16.677  0.5299 -0.6526 -0.0781
  212MPD1    C5 3276   3.863   0.749  16.598  0.2372  0.1477 -0.7122
  212MPD1     H 3277   3.945   0.716  16.976  0.2303  1.6190 -0.2393
  212MPD1    H1 3278   3.770   0.562  16.628 -1.0009 -2.3002  4.3167
  212MPD1    H2 3279   3.944   0.940  16.604 -2.1149 -0.4122 -0.9574
  212MPD1    H3 3280   3.850   0.752  16.490 -1.5803 -1.7577 -0.5546
  212MPD1     N 3281   3.823   0.507  16.877 -0.2397 -0.6288 -0.1961
  212MPD1    H5 3282   3.836   0.518  16.977 -2.0235 -0.5014  0.0129
  212MPD1    N1 3283   3.994   0.958  16.869  0.0645  0.6135 -0.0595
  212MPD1    H6 3284   3.949   1.046  16.847  0.2174  0.6901 -0.0671
  212MPD1    H7 3285   3.987   0.940  16.969 -0.5106 -0.0298 -0.2187
  213MPD1     C 3286   3.601   1.808  15.377 -0.3307  0.5211  0.6629
  213MPD1    C1 3287   3.490   1.833  15.299  0.8620  0.3681 -0.0640
  213MPD1    C2 3288   3.369   1.783  15.345  0.5236  0.3347  0.0752
  213MPD1    C3 3289   3.355   1.692  15.446 -0.7103 -0.6312  0.1549
  213MPD1    C4 3290   3.467   1.667  15.520  0.1351 -0.0644 -0.3710
  213MPD1    C5 3291   3.593   1.708  15.480  0.6709 -0.7311  0.5240
  213MPD1     H 3292   3.273   1.809  15.302 -0.5879 -0.4310  2.0965
  213MPD1    H1 3293   3.468   1.590  15.596 -1.0038  0.2173 -0.0767
  213MPD1    H2 3294   3.698   1.832  15.336  1.5807 -4.0970  2.4482
  213MPD1    H3 3295   3.681   1.663  15.525  1.2938  0.0071  0.0548
  213MPD1     N 3296   3.231   1.630  15.472  0.2854 -0.2711 -0.3189
  213MPD1    H5 3297   3.149   1.665  15.423  1.0097  1.5845 -0.2204
  213MPD1    N1 3298   3.493   1.952  15.223 -0.2096  0.5359  0.1633
  213MPD1    H6 3299   3.423   1.951  15.149 -1.2209 -0.8595  1.1299
  213MPD1    H7 3300   3.581   1.977  15.178 -0.9330  2.1511 -0.3416
  214MPD1     C 3301   2.637   0.731  15.659 -0.7663 -0.5830 -0.1125
  214MPD1    C1 3302   2.724   0.785  15.749 -0.0502 -0.5734  0.6604
  214MPD1    C2 3303   2.771   0.912  15.728 -0.1287 -0.0173 -0.1443
  214MPD1    C3 3304   2.745   0.982  15.611 -0.0409  0.3156  0.3880
  214MPD1    C4 3305   2.662   0.920  15.519  0.2710  0.4481  0.3265
  214MPD1    C5 3306   2.605   0.795  15.544  0.2278  0.4163  0.5437
  214MPD1     H 3307   2.828   0.966  15.803 -0.2368 -1.2671  0.8255
  214MPD1    H1 3308   2.639   0.962  15.421 -0.3083  0.3333  0.4177
  214MPD1    H2 3309   2.587   0.638  15.684 -1.3400 -0.3712 -0.4553
  214MPD1    H3 3310   2.538   0.756  15.469 -0.3868 -2.8023  2.7689
  214MPD1     N 3311   2.792   1.106  15.580  0.0285 -0.4506 -0.2860
  214MPD1    H5 3312   2.764   1.148  15.492  0.1042 -2.5382 -1.3087
  214MPD1    N1 3313   2.739   0.725  15.875 -0.3327 -0.4252 -0.4977
  214MPD1    H6 3314   2.821   0.752  15.929 -1.5226 -0.7037  1.4366
  214MPD1    H7 3315   2.730   0.624  15.866 -1.4266 -0.3585 -0.1423
  215MPD1     C 3316   3.187   0.544  11.194  0.5546 -0.2457  0.5986
  215MPD1    C1 3317   3.085   0.579  11.277 -0.4766  0.8490  0.3662
  215MPD1    C2 3318   3.011   0.691  11.245  0.5603 -0.5435 -0.3396
  215MPD1    C3 3319   3.037   0.760  11.132  0.0181 -0.2361 -0.7735
  215MPD1    C4 3320   3.133   0.719  11.039 -0.0882  0.1246  0.0403
  215MPD1    C5 3321   3.212   0.616  11.083  0.1674 -0.0599 -0.0615
  215MPD1     H 3322   2.925   0.711  11.309  0.6206 -2.4161  0.3471
  215MPD1    H1 3323   3.162   0.772  10.949 -0.2844 -1.7404 -1.1213
  215MPD1    H2 3324   3.250   0.458  11.216  1.8237  0.0492 -1.8780
  215MPD1    H3 3325   3.298   0.579  11.027 -1.5005  1.9995 -4.0202
  215MPD1     N 3326   2.954   0.879  11.108 -0.1554  0.0538 -0.3041
  215MPD1    H5 3327   2.891   0.900  11.184  0.4456  0.3938  0.1028
  215MPD1    N1 3328   3.068   0.517  11.403  0.1457  0.2991  0.8649
  215MPD1    H6 3329   2.972   0.528  11.436 -0.0503  1.8658 -0.2728
  215MPD1    H7 3330   3.081   0.419  11.380 -0.1038  0.4638  0.0399
  216MPD1     C 3331   4.295   0.683  17.081 -0.3482 -0.7093 -0.4557
  216MPD1    C1 3332   4.364   0.637  17.190 -0.2316  0.0836 -0.9248
  216MPD1    C2 3333   4.323   0.518  17.242 -0.2567  0.8824 -0.2935
  216MPD1    C3 3334   4.236   0.438  17.175 -0.2391 -0.4312  0.0414
  216MPD1    C4 3335   4.188   0.469  17.052 -0.0498  0.9415 -0.2055
  216MPD1    C5 3336   4.216   0.594  17.005  0.3228  0.7090 -0.4399
  216MPD1     H 3337   4.355   0.481  17.339  1.1649  2.2267 -0.2485
  216MPD1    H1 3338   4.117   0.403  17.003  0.2257  0.5511 -0.0845
  216MPD1    H2 3339   4.312   0.785  17.050 -1.4548 -0.8620 -1.5722
  216MPD1    H3 3340   4.162   0.628  16.917  2.4006  3.4725 -0.6492
  216MPD1     N 3341   4.224   0.313  17.235 -0.2964 -0.0212  0.1571
  216MPD1    H5 3342   4.265   0.300  17.327 -1.1871 -1.0782  0.4102
  216MPD1    N1 3343   4.444   0.722  17.267  0.3580 -0.1482  0.5632
  216MPD1    H6 3344   4.491   0.795  17.215 -2.5138  1.0494 -0.3465
  216MPD1    H7 3345   4.493   0.684  17.348 -0.2409  0.8653  1.3917
  217MPD1     C 3346   4.351   0.961   8.843  0.4470 -0.0762 -0.1688
  217MPD1    C1 3347   4.465   0.898   8.858 -0.3789 -0.5785  0.3434
  217MPD1    C2 3348   4.586   0.967   8.866  0.4506  0.4234  0.0777
  217MPD1    C3 3349   4.584   1.106   8.853  0.1639  0.2132  0.7746
  217MPD1    C4 3350   4.465   1.165   8.843  0.3836  0.1935  0.4578
  217MPD1    C5 3351   4.357   1.094   8.834 -0.6037 -0.3434 -0.4372
  217MPD1     H 3352   4.673   0.912   8.902  0.1228  1.7234  2.8733
  217MPD1    H1 3353   4.455   1.272   8.826 -1.6594  0.0892  1.0477
  217MPD1    H2 3354   4.254   0.913   8.847 -0.5024  1.7758 -0.9251
  217MPD1    H3 3355   4.262   1.141   8.813  1.3499  2.2038 -3.4836
  217MPD1     N 3356   4.701   1.187   8.858 -0.1705 -0.0192 -0.1929
  217MPD1    H5 3357   4.697   1.288   8.868  0.5688  0.0798 -0.8572
  217MPD1    N1 3358   4.464   0.767   8.910  0.4817 -0.6662 -0.0613
  217MPD1    H6 3359   4.385   0.706   8.888 -0.7646  0.2190  1.9206
  217MPD1    H7 3360   4.552   0.718   8.896 -0.8680 -2.9896 -0.5924
  218MPD1     C 3361   2.677   1.413  11.997  0.1388  0.3760 -0.0372
  218MPD1    C1 3362   2.630   1.399  12.127  0.1893  0.6122 -0.8936
  218MPD1    C2 3363   2.533   1.490  12.179 -0.2397 -0.5659  0.4904
  218MPD1    C3 3364   2.476   1.579  12.089 -0.0934  0.4727  0.4704
  218MPD1    C4 3365   2.519   1.589  11.960 -0.2831  0.4031  0.7102
  218MPD1    C5 3366   2.616   1.499  11.914  0.3292  0.2489  0.9291
  218MPD1     H 3367   2.500   1.486  12.283  1.3882 -1.8320  0.9411
  218MPD1    H1 3368   2.475   1.663  11.894  1.1393 -1.6049 -2.5278
  218MPD1    H2 3369   2.761   1.356  11.959 -0.3637 -0.7016  0.4748
  218MPD1    H3 3370   2.651   1.512  11.812 -0.8684 -1.4726  0.2895
  218MPD1     N 3371   2.385   1.666  12.146 -0.0654  0.0971  0.2475
  218MPD1    H5 3372   2.369   1.657  12.245  0.2208 -1.2049  0.1776
  218MPD1    N1 3373   2.689   1.308  12.214  0.0082  0.4679  0.2725
  218MPD1    H6 3374   2.629   1.277  12.290 -1.4865  2.1138 -0.2362
  218MPD1    H7 3375   2.715   1.224  12.163 -0.8571  0.3042  0.1029
  219MPD1     C 3376   1.439   1.646  12.104  0.1369 -0.2954 -0.8918
  219MPD1    C1 3377   1.460   1.768  12.168  0.0617 -0.6621  0.1424
  219MPD1    C2 3378   1.588   1.813  12.212 -0.2218 -0.0853  0.0266
  219MPD1    C3 3379   1.695   1.733  12.185  0.7309  0.1840  0.1254
  219MPD1    C4 3380   1.673   1.606  12.137 -0.3455 -0.0711 -0.2916
  219MPD1    C5 3381   1.549   1.571  12.092 -0.3217  0.6879  0.6695
  219MPD1     H 3382   1.599   1.911  12.257 -0.0722  0.0873 -0.3833
  219MPD1    H1 3383   1.754   1.536  12.125 -0.3837 -0.3590  1.0516
  219MPD1    H2 3384   1.345   1.607  12.066 -0.7275  1.1669 -0.2616
  219MPD1    H3 3385   1.544   1.468  12.058  0.9239  1.3072 -1.3926
  219MPD1     N 3386   1.835   1.766  12.202  0.5142 -0.7988 -0.4962
  219MPD1    H5 3387   1.903   1.692  12.187  2.1209 -0.3331  4.4870
  219MPD1    N1 3388   1.356   1.860  12.182 -0.2898 -0.2805 -0.3034
  219MPD1    H6 3389   1.371   1.919  12.264 -3.0571  0.9962 -0.7023
  219MPD1    H7 3390   1.274   1.802  12.200 -1.0541  0.3258 -1.8591
  220MPD1     C 3391   2.331   2.359  11.263 -0.0405 -0.1616  0.3151
  220MPD1    C1 3392   2.202   2.367  11.222  0.0175 -0.4854  0.1738
  220MPD1    C2 3393   2.157   2.295  11.112 -0.0228  0.4965  0.5521
  220MPD1    C3 3394   2.236   2.221  11.032  0.2703 -0.7008  0.6220
  220MPD1    C4 3395   2.375   2.213  11.077  0.7773 -0.7315  0.2760
  220MPD1    C5 3396   2.417   2.281  11.188 -0.8476  0.6847 -0.3821
  220MPD1     H 3397   2.054   2.313  11.085 -0.0657  0.4077  0.6548
  220MPD1    H1 3398   2.453   2.155  11.028  2.0006  1.1234  0.0557
  220MPD1    H2 3399   2.374   2.418  11.343 -2.5951  1.5224  0.4238
  220MPD1    H3 3400   2.521   2.289  11.218 -0.6503 -1.0814 -0.5941
  220MPD1     N 3401   2.182   2.161  10.914 -0.2902  0.6115 -0.3325
  220MPD1    H5 3402   2.085   2.179  10.891 -0.0833  0.9674 -0.9199
  220MPD1    N1 3403   2.118   2.457  11.284  0.5282  0.3589 -0.0658
  220MPD1    H6 3404   2.021   2.429  11.271  0.9865 -1.5173  0.5397
  220MPD1    H7 3405   2.143   2.473  11.381 -1.2054 -1.0447  0.6054
  221MPD1     C 3406   4.637   0.725  16.810 -0.0284 -0.3402  0.1403
  221MPD1    C1 3407   4.631   0.856  16.795  0.3847 -0.1207 -0.2491
  221MPD1    C2 3408   0.004   0.914  16.727  0.2296  0.4350  0.3944
  221MPD1    C3 3409   0.099   0.835  16.672 -0.0631  0.0322 -0.3191
  221MPD1    C4 3410   0.093   0.700  16.687  0.1939  0.0287 -0.2668
  221MPD1    C5 3411   0.001   0.646  16.769 -0.5741  0.3705 -0.0200
  221MPD1     H 3412   0.007   1.021  16.714 -2.0428  0.3790 -0.6542
  221MPD1    H1 3413   0.165   0.632  16.643  0.3226 -0.7726  1.1633
  221MPD1    H2 3414   4.552   0.677  16.857 -0.0835 -0.0818  0.3017
  221MPD1    H3 3415   4.735   0.537  16.776  1.1289  0.1271 -2.4223
  221MPD1     N 3416   0.202   0.889  16.593  0.0323 -0.1643  0.4045
  221MPD1    H5 3417   0.265   0.828  16.541 -0.2092  0.9262 -1.1858
  221MPD1    N1 3418   4.533   0.927  16.864  0.7908 -0.9854 -0.1061
  221MPD1    H6 3419   4.448   0.872  16.870  1.4735 -1.9832  0.3014
  221MPD1    H7 3420   4.515   1.010  16.806  0.2968  0.7772  2.5894
  222MPD1     C 3421   3.584   4.452   0.174 -0.2118  0.1729 -0.1158
  222MPD1    C1 3422   3.645   4.520   0.070 -1.2484  0.1719  0.6019
  222MPD1    C2 3423   3.681   4.654   0.092  0.0905 -0.1226 -0.3333
  222MPD1    C3 3424   3.630   4.723   0.208 -0.2726  0.1108  0.0151
  222MPD1    C4 3425   3.571   4.648   0.306 -0.0468  0.6950  0.1304
  222MPD1    C5 3426   3.562   4.514   0.294  0.3081 -0.1363  1.2282
  222MPD1     H 3427   3.739   4.716   0.025  1.2663  0.2827  1.0599
  222MPD1    H1 3428   3.530   4.696   0.394  0.7090  0.1847  0.7541
  222MPD1    H2 3429   3.552   4.349   0.164 -0.2284  0.0191  1.5073
  222MPD1    H3 3430   3.512   4.457   0.371  3.2530 -2.3591  1.4755
  222MPD1     N 3431   3.658   0.123   0.234  0.2569  0.1360 -0.0360
  222MPD1    H5 3432   3.634   0.162   0.325  3.1423  1.4463  0.1780
  222MPD1    N1 3433   3.689   4.451  17.711 -0.1151 -0.0131 -0.1627
  222MPD1    H6 3434   3.678   4.506  17.626  1.3329 -0.8775 -0.9037
  222MPD1    H7 3435   3.662   4.354  17.698 -0.4517  0.0999 -0.3080
  223MPD1     C 3436   3.495   0.860   0.817 -0.5625  0.4786 -0.3054
  223MPD1    C1 3437   3.593   0.918   0.745  0.2755  0.0034  0.1191
  223MPD1    C2 3438   3.663   0.836   0.654 -0.1584 -0.6259  0.5313
  223MPD1    C3 3439   3.613   0.712   0.616 -0.5221 -0.4992  0.6330
  223MPD1    C4 3440   3.503   0.662   0.682  0.2010  0.3136  0.3939
  223MPD1    C5 3441   3.440   0.742   0.773  0.3854  0.2327  0.0327
  223MPD1     H 3442   3.742   0.872   0.588 -0.0746 -1.2156  0.2983
  223MPD1    H1 3443   3.443   0.583   0.639 -0.4801  2.3319 -2.3719
  223MPD1    H2 3444   3.433   0.918   0.886 -1.5510 -2.0914  0.9582
  223MPD1    H3 3445   3.340   0.714   0.804  0.3031 -1.0213 -1.3116
  223MPD1     N 3446   3.671   0.650   0.502 -0.7734 -0.0170 -0.3424
  223MPD1    H5 3447   3.740   0.710   0.459 -1.6310  1.3835  0.2504
  223MPD1    N1 3448   3.648   1.035   0.795  0.6163 -0.3557  0.3647
  223MPD1    H6 3449   3.720   1.075   0.735  1.0452 -0.8776  0.5350
  223MPD1    H7 3450   3.589   1.111   0.829 -0.3545  0.1640 -2.4596
  224MPD1     C 3451   1.374   2.443   9.870 -0.1778  0.6513 -0.1139
  224MPD1    C1 3452   1.408   2.311   9.859  0.3612 -0.2211  0.4146
  224MPD1    C2 3453   1.317   2.219   9.895  0.2517 -0.2657  0.1261
  224MPD1    C3 3454   1.184   2.245   9.940  0.0544 -0.0795  0.5531
  224MPD1    C4 3455   1.149   2.382   9.942  0.1000 -0.1408 -0.1866
  224MPD1    C5 3456   1.244   2.480   9.898  0.3874 -0.0021  0.3924
  224MPD1     H 3457   1.343   2.114   9.885  0.7674 -0.4779  3.6799
  224MPD1    H1 3458   1.053   2.415   9.978  0.5215 -0.2163  1.0122
  224MPD1    H2 3459   1.436   2.530   9.854 -1.3646  1.4866 -0.1449
  224MPD1    H3 3460   1.229   2.587   9.907  0.1379 -0.0129  0.1018
  224MPD1     N 3461   1.083   2.151   9.967 -0.2853 -0.1520  0.6028
  224MPD1    H5 3462   0.989   2.186   9.979  0.0720  0.2595  2.1856
  224MPD1    N1 3463   1.530   2.264   9.790  0.1701 -0.2672  0.5056
  224MPD1    H6 3464   1.553   2.167   9.808 -0.7299 -0.8819 -1.5597
  224MPD1    H7 3465   1.612   2.320   9.811  0.2968 -0.1254 -0.3546
  225MPD1     C 3466   1.564   3.535  12.872 -0.6116  0.0810  0.2382
  225MPD1    C1 3467   1.591   3.401  12.880 -0.0363  1.1075  0.2152
  225MPD1    C2 3468   1.513   3.315  12.802  0.2113 -0.0306 -0.3255
  225MPD1    C3 3469   1.406   3.353  12.730  0.2177 -0.2487  1.1473
  225MPD1    C4 3470   1.386   3.488  12.721 -0.0775  0.0110  0.2948
  225MPD1    C5 3471   1.467   3.581  12.786 -0.5737  0.4850  0.1301
  225MPD1     H 3472   1.538   3.209  12.809 -0.0028 -0.0083  0.7673
  225MPD1    H1 3473   1.296   3.523  12.670  0.7228 -0.8321 -1.6854
  225MPD1    H2 3474   1.616   3.605  12.937 -0.6826 -1.2808  1.7505
  225MPD1    H3 3475   1.442   3.687  12.783 -0.8752  0.4494  1.6558
  225MPD1     N 3476   1.324   3.267  12.655  0.0277 -0.0625  0.4666
  225MPD1    H5 3477   1.249   3.316  12.607 -1.1308 -0.9229  1.3784
  225MPD1    N1 3478   1.663   3.347  12.985 -0.2916 -0.3967 -0.9849
  225MPD1    H6 3479   1.754   3.392  12.983  0.5559 -2.0147  2.5479
  225MPD1    H7 3480   1.690   3.251  12.966 -2.0929 -0.4709 -3.1830
  226MPD1     C 3481   0.336   2.200   9.864 -0.2391  0.3317  0.1477
  226MPD1    C1 3482   0.425   2.193   9.971  0.7582  0.2920  0.6834
  226MPD1    C2 3483   0.466   2.319  10.018  0.3910  0.1528 -0.1820
  226MPD1    C3 3484   0.414   2.443   9.971  0.5248  0.9974 -0.1387
  226MPD1    C4 3485   0.319   2.441   9.863  0.1421 -0.3626 -0.0097
  226MPD1    C5 3486   0.282   2.314   9.811  0.6422 -0.0535  0.5970
  226MPD1     H 3487   0.536   2.323  10.100  0.7497  1.2012 -0.5463
  226MPD1    H1 3488   0.271   2.529   9.822  1.6751 -0.1450 -1.3149
  226MPD1    H2 3489   0.302   2.113   9.809 -1.9762  0.9390  0.2705
  226MPD1    H3 3490   0.208   2.307   9.732  0.6311 -1.1948  0.6997
  226MPD1     N 3491   0.446   2.565  10.038  0.5059  0.0359 -0.1747
  226MPD1    H5 3492   0.528   2.556  10.098  0.8567 -0.0362 -0.6705
  226MPD1    N1 3493   0.487   2.071  10.010 -0.0977 -0.0805  0.3291
  226MPD1    H6 3494   0.425   1.993   9.990 -1.0206  1.3625 -2.4221
  226MPD1    H7 3495   0.516   2.072  10.108  2.4009 -0.4189 -0.4256
  227MPD1     C 3496   0.291   3.386   9.570  0.4187  0.2486  0.2396
  227MPD1    C1 3497   0.209   3.279   9.585  0.1749  0.4418 -0.8314
  227MPD1    C2 3498   0.227   3.197   9.697 -0.1600 -0.5520  0.0925
  227MPD1    C3 3499   0.328   3.234   9.784  0.0174 -1.1598  0.3657
  227MPD1    C4 3500   0.391   3.359   9.770 -0.7394  0.2904 -0.1186
  227MPD1    C5 3501   0.373   3.436   9.660 -0.4340 -0.4588 -0.1294
  227MPD1     H 3502   0.176   3.102   9.689 -2.2552  0.4931  1.0865
  227MPD1    H1 3503   0.471   3.395   9.834  0.1654  1.4789 -1.9161
  227MPD1    H2 3504   0.275   3.449   9.482 -2.2181 -0.2205  0.4039
  227MPD1    H3 3505   0.428   3.529   9.652  0.0846 -0.8055 -0.5110
  227MPD1     N 3506   0.346   3.147   9.898 -0.0722  0.3670  0.4167
  227MPD1    H5 3507   0.291   3.061   9.894 -0.2095  0.3965  1.6443
  227MPD1    N1 3508   0.123   3.240   9.481 -0.2551 -0.1514 -0.2721
  227MPD1    H6 3509   0.079   3.314   9.427 -0.9269  0.2674  0.8745
  227MPD1    H7 3510   0.055   3.169   9.508 -0.0310  0.1971  1.2095
  228MPD1     C 3511   3.715   0.597  12.869  0.1583  0.2472 -0.1981
  228MPD1    C1 3512   3.658   0.709  12.817 -0.8834  0.5056  0.0984
  228MPD1    C2 3513   3.527   0.729  12.854 -0.1207  0.1357 -0.4658
  228MPD1    C3 3514   3.476   0.645  12.954  0.2704 -0.2693 -0.1463
  228MPD1    C4 3515   3.547   0.546  13.019 -0.1115  0.3115  0.2687
  228MPD1    C5 3516   3.664   0.515  12.961 -0.1115  0.2949  0.2506
  228MPD1     H 3517   3.466   0.805  12.806  0.4352  0.3481 -0.8281
  228MPD1    H1 3518   3.509   0.469  13.085  2.6384  0.2850  1.8306
  228MPD1    H2 3519   3.816   0.576  12.837 -0.0396 -0.1862 -0.5359
  228MPD1    H3 3520   3.717   0.424  12.984 -0.5442 -0.3132 -1.1525
  228MPD1     N 3521   3.343   0.673  12.993 -0.4396 -0.7961  0.3785
  228MPD1    H5 3522   3.298   0.734  12.926 -1.2044 -0.7693  0.9241
  228MPD1    N1 3523   3.715   0.772  12.701 -0.2367  0.4988 -0.6254
  228MPD1    H6 3524   3.702   0.873  12.709 -0.0813  0.5024 -0.3879
  228MPD1    H7 3525   3.816   0.763  12.708 -0.5803 -1.8743  1.2297
  229MPD1     C 3526   3.706   3.903  14.117  0.0894 -0.3780  0.7194
  229MPD1    C1 3527   3.591   3.951  14.179 -0.4864  0.3122 -0.1800
  229MPD1    C2 3528   3.515   3.872  14.270 -0.2699  0.8528 -1.0640
  229MPD1    C3 3529   3.560   3.743  14.303 -0.2639  0.7068  0.5436
  229MPD1    C4 3530   3.664   3.690  14.235 -0.3124  0.5926 -0.2606
  229MPD1    C5 3531   3.731   3.773  14.140  0.3510  0.0934  0.1493
  229MPD1     H 3532   3.426   3.905  14.322  0.5679  1.6263 -0.1182
  229MPD1    H1 3533   3.699   3.589  14.247 -0.7628  0.5026  0.2901
  229MPD1    H2 3534   3.763   3.965  14.048 -3.0073  1.5279 -0.1383
  229MPD1    H3 3535   3.822   3.730  14.100 -0.4196 -2.1695  0.8098
  229MPD1     N 3536   3.501   3.673  14.413  0.1239  0.0848  0.3667
  229MPD1    H5 3537   3.439   3.730  14.470 -0.2445 -1.2073  1.2689
  229MPD1    N1 3538   3.559   4.088  14.160  0.1504  0.1718 -0.3182
  229MPD1    H6 3539   3.459   4.107  14.166  0.1921  0.6411 -1.2328
  229MPD1    H7 3540   3.597   4.122  14.072  2.5888 -0.1119  0.6340
  230MPD1     C 3541   2.718   3.824  14.627  0.2385  0.8936 -0.0624
  230MPD1    C1 3542   2.797   3.799  14.510  0.0500 -0.0360 -0.5172
  230MPD1    C2 3543   2.927   3.745  14.534  0.1651 -0.0133 -0.3611
  230MPD1    C3 3544   2.963   3.696  14.655 -0.2514  0.0202 -0.2522
  230MPD1    C4 3545   2.870   3.699  14.753 -0.1784 -0.2855  0.2095
  230MPD1    C5 3546   2.750   3.767  14.745  0.1220  0.6448 -0.4193
  230MPD1     H 3547   2.996   3.756  14.451  2.4951 -1.3179  1.4145
  230MPD1    H1 3548   2.887   3.654  14.850 -2.6948  0.9961  1.2553
  230MPD1    H2 3549   2.627   3.882  14.614 -2.2876 -2.6505  2.0487
  230MPD1    H3 3550   2.686   3.772  14.832 -0.4954 -0.0931 -0.8279
  230MPD1     N 3551   3.097   3.643  14.669 -0.0956 -0.6232 -0.2184
  230MPD1    H5 3552   3.142   3.627  14.580  0.7527 -0.7472  0.2285
  230MPD1    N1 3553   2.775   3.884  14.391 -0.1024 -0.5451  0.0455
  230MPD1    H6 3554   2.677   3.903  14.367 -0.0222  0.3954  0.4709
  230MPD1    H7 3555   2.814   3.845  14.306 -0.5442 -1.3233  0.1939
  231MPD1     C 3556   1.311   1.116  15.684 -0.2223  0.2671  0.1922
  231MPD1    C1 3557   1.253   1.062  15.568  0.3285 -0.3761  0.3032
  231MPD1    C2 3558   1.322   1.105  15.456 -0.1722  1.1711  0.2024
  231MPD1    C3 3559   1.442   1.175  15.448  0.0867  0.4225  0.0067
  231MPD1    C4 3560   1.486   1.226  15.568  0.0381  0.5070 -0.2043
  231MPD1    C5 3561   1.417   1.197  15.681  0.9436 -0.3961  0.0539
  231MPD1     H 3562   1.286   1.072  15.359 -0.0643 -1.9541  1.2329
  231MPD1    H1 3563   1.567   1.296  15.584 -1.0573  1.8094 -0.3101
  231MPD1    H2 3564   1.250   1.103  15.773  0.1562 -1.5260  0.1914
  231MPD1    H3 3565   1.449   1.224  15.781  0.8642  1.4030 -0.4093
  231MPD1     N 3566   1.498   1.199  15.325  0.2580  0.0593 -0.6834
  231MPD1    H5 3567   1.449   1.171  15.241 -1.8392 -1.1476  0.9277
  231MPD1    N1 3568   1.128   1.005  15.557 -0.5743  0.3656  0.1358
  231MPD1    H6 3569   1.107   0.942  15.480  1.4963 -0.6951  0.4465
  231MPD1    H7 3570   1.127   0.938  15.634  1.8462  1.0097  0.7227
  232MPD1     C 3571   3.569   4.023   0.530  0.3784 -0.3096 -0.7753
  232MPD1    C1 3572   3.525   3.891   0.525 -0.5573  1.2527 -0.0856
  232MPD1    C2 3573   3.411   3.866   0.454  0.2825 -0.5101  0.9759
  232MPD1    C3 3574   3.329   3.970   0.415  0.2665  0.3693  0.0408
  232MPD1    C4 3575   3.363   4.102   0.441 -0.5131 -0.1173 -0.6053
  232MPD1    C5 3576   3.485   4.128   0.497  0.4405  0.6283 -0.9122
  232MPD1     H 3577   3.381   3.764   0.433 -0.8661 -0.0289  0.2955
  232MPD1    H1 3578   3.306   4.193   0.428  2.2834  1.1997 -3.7706
  232MPD1    H2 3579   3.664   4.056   0.571  0.2227 -3.0057  1.6820
  232MPD1    H3 3580   3.524   4.229   0.508  2.2056  0.1191 -2.4407
  232MPD1     N 3581   3.215   3.948   0.335  0.4544 -0.7145  0.4629
  232MPD1    H5 3582   3.201   3.854   0.297 -2.4492  0.0814 -0.4849
  232MPD1    N1 3583   3.629   3.790   0.541  0.7075  0.6612  0.4601
  232MPD1    H6 3584   3.585   3.699   0.553 -0.4305  0.9720 -1.4098
  232MPD1    H7 3585   3.667   3.821   0.631  1.3139  0.0212  0.4236
  233MPD1     C 3586   3.682   2.666   1.253  0.2178 -0.0546 -0.6320
  233MPD1    C1 3587   3.620   2.547   1.274  0.0383 -0.4157  0.0010
  233MPD1    C2 3588   3.691   2.445   1.334  0.1908  0.2578 -0.9223
  233MPD1    C3 3589   3.827   2.457   1.361  0.5910  0.0076 -0.4808
  233MPD1    C4 3590   3.880   2.583   1.347  0.1803 -0.7602  0.3546
  233MPD1    C5 3591   3.809   2.685   1.298 -0.4256 -0.4556 -0.1125
  233MPD1     H 3592   3.643   2.349   1.343  1.1531 -0.0549  0.8416
  233MPD1    H1 3593   3.986   2.602   1.365  0.2922  1.5813 -2.7543
  233MPD1    H2 3594   3.651   2.757   1.202 -0.0456  1.0172  1.4554
  233MPD1    H3 3595   3.867   2.777   1.291 -0.3365 -0.6446 -1.7562
  233MPD1     N 3596   3.902   2.356   1.407 -0.2228 -0.5404 -0.1601
  233MPD1    H5 3597   4.003   2.366   1.414 -0.0707  0.9258 -4.4605
  233MPD1    N1 3598   3.489   2.519   1.228  0.2932  0.3989 -0.3774
  233MPD1    H6 3599   3.439   2.445   1.276  1.0286  0.2251  0.1146
  233MPD1    H7 3600   3.431   2.601   1.209 -1.8530 -0.8912  0.6566
  234MPD1     C 3601   1.324   0.135   9.436  0.0967  0.1496 -0.0276
  234MPD1    C1 3602   1.231   0.184   9.346  0.6924  0.1299 -0.1472
  234MPD1    C2 3603   1.156   0.296   9.381  0.1447 -0.5389  0.4247
  234MPD1    C3 3604   1.191   0.362   9.502 -0.3396 -0.1274 -0.0985
  234MPD1    C4 3605   1.302   0.327   9.577  0.1303 -0.5964 -0.2613
  234MPD1    C5 3606   1.369   0.211   9.546  0.2008  0.0421  0.6843
  234MPD1     H 3607   1.073   0.326   9.318  1.7784  0.5805 -1.1919
  234MPD1    H1 3608   1.328   0.387   9.663 -1.2439 -0.2654 -0.0815
  234MPD1    H2 3609   1.378   0.042   9.423 -2.5892 -1.7789  2.6964
  234MPD1    H3 3610   1.449   0.177   9.610  0.1456  2.1171  1.8550
  234MPD1     N 3611   1.107   0.476   9.534  0.0483 -0.1481 -0.2649
  234MPD1    H5 3612   1.015   0.475   9.491 -0.1550  0.2271  0.1648
  234MPD1    N1 3613   1.184   0.115   9.232  0.0932  0.5100 -0.2316
  234MPD1    H6 3614   1.147   0.178   9.161  1.1247  1.4144  0.0306
  234MPD1    H7 3615   1.269   0.070   9.199 -1.2537  0.0438 -3.0364
  235MPD1     C 3616   2.517   2.610  10.875 -0.2759  0.4317  0.0498
  235MPD1    C1 3617   2.614   2.603  10.777  0.6776 -0.7821 -0.0556
  235MPD1    C2 3618   2.608   2.677  10.661  0.4869  0.0276  0.3153
  235MPD1    C3 3619   2.510   2.769  10.644 -0.3741 -0.4792  0.1663
  235MPD1    C4 3620   2.405   2.780  10.739  0.3914 -0.4544 -0.0667
  235MPD1    C5 3621   2.409   2.693  10.848 -0.0131  0.6320 -0.0917
  235MPD1     H 3622   2.689   2.671  10.589 -0.4087 -0.8776 -0.6186
  235MPD1    H1 3623   2.317   2.843  10.729 -0.1078 -1.2018 -0.4629
  235MPD1    H2 3624   2.511   2.549  10.964  0.5785  1.1112  0.5669
  235MPD1    H3 3625   2.327   2.684  10.918  1.5120 -1.6139  1.4127
  235MPD1     N 3626   2.524   2.854  10.531 -0.7598 -0.9760 -0.0607
  235MPD1    H5 3627   2.588   2.821  10.460 -0.7630  1.5607 -1.2471
  235MPD1    N1 3628   2.706   2.502  10.782 -0.6505 -0.3303 -0.3541
  235MPD1    H6 3629   2.798   2.516  10.740 -0.2977 -0.0095  0.5289
  235MPD1    H7 3630   2.721   2.493  10.882 -0.5921  1.6324 -0.1954
  236MPD1     C 3631   1.266   4.490  10.474 -0.3413  0.1324 -0.5012
  236MPD1    C1 3632   1.393   4.546  10.473 -0.3373 -0.6923 -0.2316
  236MPD1    C2 3633   1.503   4.464  10.506  0.0005  0.8041 -0.6497
  236MPD1    C3 3634   1.476   4.325  10.510 -0.7694 -0.1773 -0.2428
  236MPD1    C4 3635   1.358   4.269  10.495 -0.3778  0.2940 -0.8255
  236MPD1    C5 3636   1.252   4.352  10.483  0.1539 -0.1584  0.6840
  236MPD1     H 3637   1.600   4.511  10.521  1.5309 -2.2391 -0.9578
  236MPD1    H1 3638   1.328   4.166  10.506  1.5602 -0.0825  0.8095
  236MPD1    H2 3639   1.174   4.546  10.478  1.2672  2.8090 -0.9761
  236MPD1    H3 3640   1.150   4.313  10.481  0.8605 -2.0113  0.5350
  236MPD1     N 3641   1.588   4.233  10.520  0.3342  0.0470 -0.4633
  236MPD1    H5 3642   1.582   4.131  10.519 -1.0724  0.1259 -0.4727
  236MPD1    N1 3643   1.409   4.687  10.465 -0.4769 -0.1011 -0.3814
  236MPD1    H6 3644   1.500   4.728  10.445 -0.6874  0.0713 -0.9752
  236MPD1    H7 3645   1.342   4.731  10.403  0.1009  2.3350  0.7434
  237MPD1     C 3646   2.219   2.757  15.126 -0.3521 -0.1178 -0.0828
  237MPD1    C1 3647   2.196   2.664  15.030  0.0393 -0.5188 -0.0745
  237MPD1    C2 3648   2.095   2.567  15.042  0.3610  0.6965  0.0173
  237MPD1    C3 3649   2.015   2.580  15.152  0.2700  0.7251 -0.2628
  237MPD1    C4 3650   2.044   2.672  15.257  0.2306  0.1980  0.8968
  237MPD1    C5 3651   2.148   2.762  15.245  0.2382  0.2672 -0.1864
  237MPD1     H 3652   2.087   2.491  14.965 -1.1486 -0.8298  1.7113
  237MPD1    H1 3653   1.984   2.673  15.347  0.3888 -0.2739  1.0109
  237MPD1    H2 3654   2.297   2.831  15.115 -2.5402  1.9941 -1.3053
  237MPD1    H3 3655   2.167   2.839  15.319  1.7238 -2.4453  2.2836
  237MPD1     N 3656   1.899   2.501  15.173 -0.1730 -0.5422  0.0413
  237MPD1    H5 3657   1.844   2.519  15.256 -0.2734 -1.3026  0.1349
  237MPD1    N1 3658   2.277   2.672  14.915  0.8668  0.0749 -0.2448
  237MPD1    H6 3659   2.273   2.590  14.855  1.2032  0.9558 -1.4805
  237MPD1    H7 3660   2.376   2.678  14.940  1.1132 -1.6223 -0.8419
  238MPD1     C 3661   3.537   1.817  14.902  0.1332  0.0034  0.3162
  238MPD1    C1 3662   3.581   1.699  14.945  0.4252  0.0575  0.1557
  238MPD1    C2 3663   3.523   1.582  14.898 -0.2783  0.2333 -0.7609
  238MPD1    C3 3664   3.393   1.585  14.839  0.3740 -0.0290  0.0715
  238MPD1    C4 3665   3.349   1.712  14.804  0.0946 -0.6218  0.0076
  238MPD1    C5 3666   3.418   1.824  14.829 -0.4976  0.4020  0.0541
  238MPD1     H 3667   3.563   1.489  14.934  2.4939  0.5221 -3.0995
  238MPD1    H1 3668   3.252   1.721  14.758  0.1994 -0.4072 -0.1685
  238MPD1    H2 3669   3.605   1.901  14.915  1.6561 -1.8743  4.4447
  238MPD1    H3 3670   3.382   1.918  14.789  0.3044  0.3788 -0.7256
  238MPD1     N 3671   3.312   1.475  14.813 -0.8787 -0.3444 -0.3987
  238MPD1    H5 3672   3.233   1.492  14.752 -0.4712  1.8254 -0.3204
  238MPD1    N1 3673   3.706   1.696  15.003 -0.1564 -0.3164 -0.1036
  238MPD1    H6 3674   3.723   1.777  15.061 -0.8095 -0.7796  0.7413
  238MPD1    H7 3675   3.708   1.619  15.070  1.3160  0.6840  1.0052
  239MPD1     C 3676   3.653   2.116  14.747  0.5562 -0.4403  0.1678
  239MPD1    C1 3677   3.588   2.219  14.811 -0.4104  0.2292  0.6036
  239MPD1    C2 3678   3.473   2.273  14.749 -0.2952 -1.0533 -0.3036
  239MPD1    C3 3679   3.417   2.212  14.639  0.3621 -1.0891  0.5531
  239MPD1    C4 3680   3.474   2.101  14.592  0.2107  0.0199  0.4586
  239MPD1    C5 3681   3.591   2.056  14.637  0.2765  0.4136  0.1960
  239MPD1     H 3682   3.435   2.360  14.801  0.8191 -1.6315  1.4732
  239MPD1    H1 3683   3.440   2.057  14.498 -1.2980 -1.8239  1.8796
  239MPD1    H2 3684   3.755   2.086  14.768  0.3148 -0.7515  0.8986
  239MPD1    H3 3685   3.650   1.990  14.574 -1.1499 -0.3437 -0.3211
  239MPD1     N 3686   3.306   2.267  14.563 -0.1717  0.0145 -0.6714
  239MPD1    H5 3687   3.279   2.222  14.476 -0.1100 -1.8544  0.2861
  239MPD1    N1 3688   3.661   2.291  14.907 -0.1161 -0.1451 -0.0098
  239MPD1    H6 3689   3.725   2.227  14.954  0.0011  0.2866  0.4182
  239MPD1    H7 3690   3.603   2.337  14.977 -0.0678  0.0468 -0.0986
  240MPD1     C 3691   2.816   1.755  13.881 -0.1273  0.0114  0.6436
  240MPD1    C1 3692   2.916   1.758  13.978 -0.1166 -0.0414 -0.7034
  240MPD1    C2 3693   2.904   1.675  14.088 -0.1602  0.0366  0.1008
  240MPD1    C3 3694   2.794   1.599  14.112  0.6596  0.3929  0.0311
  240MPD1    C4 3695   2.694   1.601  14.016  0.2212  0.6774 -0.3565
  240MPD1    C5 3696   2.709   1.671  13.896 -0.1097 -0.8909  0.3600
  240MPD1     H 3697   2.984   1.670  14.161  0.4915 -2.3023 -0.7448
  240MPD1    H1 3698   2.603   1.541  14.017  2.0433 -2.0980  1.8319
  240MPD1    H2 3699   2.816   1.820  13.794  0.6162 -1.4437 -0.4470
  240MPD1    H3 3700   2.622   1.701  13.840 -1.8901 -0.9622  3.0926
  240MPD1     N 3701   2.796   1.523  14.234  0.1011 -0.2384  0.0524
  240MPD1    H5 3702   2.875   1.528  14.298 -0.8978  1.5052  1.1551
  240MPD1    N1 3703   3.037   1.827  13.941  0.6487 -0.2330  0.2212
  240MPD1    H6 3704   3.097   1.849  14.021 -0.9621  0.2352  1.2979
  240MPD1    H7 3705   3.022   1.913  13.888 -3.8553  1.3559  4.0009
  241MPD1     C 3706   2.997   1.954  14.938  0.2409  0.1011 -0.0183
  241MPD1    C1 3707   2.880   1.897  14.983 -0.0912  0.1507 -0.1824
  241MPD1    C2 3708   2.850   1.776  14.922 -0.7867  0.2466 -0.0661
  241MPD1    C3 3709   2.916   1.727  14.809  0.2166 -0.1934  0.8421
  241MPD1    C4 3710   3.020   1.800  14.755  0.5334  0.0558 -0.0329
  241MPD1    C5 3711   3.054   1.914  14.819 -0.1094  0.6961  0.1136
  241MPD1     H 3712   2.773   1.717  14.970 -1.4334  0.2857 -1.0676
  241MPD1    H1 3713   3.067   1.781  14.659  0.0491  0.5010 -0.3520
  241MPD1    H2 3714   3.026   2.044  14.991  0.3919 -0.5897  1.0727
  241MPD1    H3 3715   3.136   1.972  14.778  0.2282 -0.3246 -0.6724
  241MPD1     N 3716   2.878   1.618  14.727 -0.0119  0.4018  0.3479
  241MPD1    H5 3717   2.933   1.600  14.644 -2.1237 -2.4091 -0.4308
  241MPD1    N1 3718   2.819   1.932  15.102 -0.3140 -0.2836  0.0662
  241MPD1    H6 3719   2.722   1.904  15.095  0.6108 -3.1214 -1.4970
  241MPD1    H7 3720   2.822   2.033  15.112  0.6544 -0.4566  1.5685
  242MPD1     C 3721   2.900   0.182  16.153 -0.5638  0.1792 -0.2440
  242MPD1    C1 3722   3.038   0.208  16.157  0.2715  0.2069 -0.6682
  242MPD1    C2 3723   3.108   0.169  16.034 -0.5516  0.0709  0.1549
  242MPD1    C3 3724   3.034   0.114  15.924  0.4925  0.1323 -0.3882
  242MPD1    C4 3725   2.897   0.095  15.935 -0.1355 -0.9382  0.0036
  242MPD1    C5 3726   2.830   0.126  16.048  1.1058  0.1186  0.0523
  242MPD1     H 3727   3.214   0.191  16.033 -0.8092  1.2741 -0.6888
  242MPD1    H1 3728   2.831   0.061  15.856 -0.6942 -0.4858  0.2754
  242MPD1    H2 3729   2.840   0.212  16.239  1.7902 -1.7327  2.0699
  242MPD1    H3 3730   2.722   0.126  16.060  1.0745  0.8098 -0.2117
  242MPD1     N 3731   3.098   0.085  15.801 -0.0450 -0.4618 -0.2578
  242MPD1    H5 3732   3.031   0.056  15.731 -1.2792 -0.5723  0.9689
  242MPD1    N1 3733   3.109   0.256  16.269  0.4113 -0.8763  0.1716
  242MPD1    H6 3734   3.058   0.320  16.329 -2.4869  0.0579 -3.2533
  242MPD1    H7 3735   3.201   0.288  16.242  1.0165 -2.9895 -0.3155
  243MPD1     C 3736   3.264   3.834  17.700 -0.0251 -0.0651 -0.1391
  243MPD1    C1 3737   3.276   3.696  17.700 -0.2657  0.6132 -0.0277
  243MPD1    C2 3738   3.400   3.636  17.700 -0.3057  0.5421  0.1187
  243MPD1    C3 3739   3.519   3.712  17.694 -0.0871  0.7988 -0.1462
  243MPD1    C4 3740   3.506   3.850  17.708 -0.0067 -0.1610 -0.3870
  243MPD1    C5 3741   3.380   3.907  17.711 -0.3861  0.2400  0.1835
  243MPD1     H 3742   3.416   3.531  17.719  0.1419  0.5367 -0.2673
  243MPD1    H1 3743   3.587   3.921  17.699 -1.8929  1.9207 -1.0974
  243MPD1    H2 3744   3.170   3.886  17.709  0.7608  1.3317  0.0234
  243MPD1    H3 3745   3.367   4.013  17.729 -0.4772  0.1929  0.3961
  243MPD1     N 3746   3.643   3.647  17.676  0.2437 -0.4613 -0.7649
  243MPD1    H5 3747   3.641   3.545  17.667 -0.3978 -0.5097 -0.0900
  243MPD1    N1 3748   3.173   3.614  17.744  0.1451 -0.5736  0.5297
  243MPD1    H6 3749   3.171   3.519  17.710  0.4911 -0.9431  1.5597
  243MPD1    H7 3750   3.088   3.663  17.717  0.6923  0.1330  0.0881
  244MPD1     C 3751   4.338   3.201   0.441  0.5673  0.0707 -0.3163
  244MPD1    C1 3752   4.393   3.317   0.399 -0.7647  0.7584 -0.0391
  244MPD1    C2 3753   4.347   3.378   0.284  0.0254 -0.1580  0.1863
  244MPD1    C3 3754   4.238   3.328   0.225  0.8747  0.0395 -0.2590
  244MPD1    C4 3755   4.172   3.218   0.272  0.8016  0.0721 -0.1053
  244MPD1    C5 3756   4.228   3.157   0.380 -0.3639 -0.4227 -0.1174
  244MPD1     H 3757   4.399   3.465   0.244 -3.0793  1.7226  0.2677
  244MPD1    H1 3758   4.074   3.181   0.243  0.1444  1.2933  0.5244
  244MPD1    H2 3759   4.376   3.145   0.525  0.2738  0.2565 -0.0619
  244MPD1    H3 3760   4.179   3.065   0.409 -0.4851 -1.2110 -2.8253
  244MPD1     N 3761   4.175   3.397   0.116  0.3399 -0.3676  0.6858
  244MPD1    H5 3762   4.223   3.478   0.078  0.1267 -0.2173  0.7377
  244MPD1    N1 3763   4.512   3.355   0.455  0.5035 -0.1154 -0.2414
  244MPD1    H6 3764   4.502   3.364   0.556 -0.2261 -0.9555 -0.2376
  244MPD1    H7 3765   4.549   3.442   0.417 -1.1953  0.7704  0.0948
  245MPD1     C 3766   1.815   3.383  13.454 -0.3211 -0.2862  0.7432
  245MPD1    C1 3767   1.895   3.418  13.556  0.6229  1.1614 -0.3077
  245MPD1    C2 3768   1.834   3.473  13.674 -0.1319  0.3272 -0.1075
  245MPD1    C3 3769   1.705   3.521  13.672  0.2139 -0.5951  0.1514
  245MPD1    C4 3770   1.629   3.496  13.555 -0.0569  0.2896  0.1003
  245MPD1    C5 3771   1.684   3.425  13.456 -0.5331  0.2287 -0.2843
  245MPD1     H 3772   1.891   3.494  13.763  1.3603  0.2227 -1.0420
  245MPD1    H1 3773   1.523   3.518  13.548 -0.1167  0.1434  0.5481
  245MPD1    H2 3774   1.851   3.328  13.368 -0.3628  0.8981 -0.0422
  245MPD1    H3 3775   1.617   3.405  13.374 -1.5038  1.9196  0.0849
  245MPD1     N 3776   1.651   3.604  13.778 -0.3418 -0.0086 -0.1238
  245MPD1    H5 3777   1.705   3.615  13.864 -0.2575 -0.1781 -0.1549
  245MPD1    N1 3778   2.013   3.347  13.567  0.6898  0.5171  0.4377
  245MPD1    H6 3779   2.057   3.318  13.480  0.6680  2.1331 -0.1015
  245MPD1    H7 3780   2.014   3.266  13.630  0.6920  1.3796  1.5541
  246MPD1     C 3781   2.383   0.611  10.331 -0.4807  0.5861 -0.0312
  246MPD1    C1 3782   2.315   0.497  10.337  0.1697 -0.9719  0.3839
  246MPD1    C2 3783   2.220   0.491  10.239 -0.5251 -0.0807 -0.0374
  246MPD1    C3 3784   2.174   0.597  10.162  0.1725 -0.0875 -0.3864
  246MPD1    C4 3785   2.238   0.716  10.173 -0.3688 -0.0855  0.2775
  246MPD1    C5 3786   2.345   0.719  10.258  0.3165  0.7876  0.0203
  246MPD1     H 3787   2.167   0.398  10.220 -0.5756 -0.0818  0.1067
  246MPD1    H1 3788   2.217   0.798  10.104 -0.2345 -0.7548 -0.5646
  246MPD1    H2 3789   2.475   0.619  10.389 -0.6364  0.9304  0.1707
  246MPD1    H3 3790   2.423   0.794  10.253  1.4526 -0.4749 -1.1469
  246MPD1     N 3791   2.066   0.564  10.075 -0.1276  0.2584  0.2001
  246MPD1    H5 3792   2.027   0.471  10.070 -2.2584  1.1034  1.2391
  246MPD1    N1 3793   2.375   0.378  10.385 -0.1224  0.2966  0.3881
  246MPD1    H6 3794   2.316   0.295  10.382  1.4016 -0.7863  0.2804
  246MPD1    H7 3795   2.426   0.392  10.472  1.2081  2.3821 -0.7329
  247MPD1     C 3796   1.216   0.053  17.061  0.5473 -0.6603 -0.3628
  247MPD1    C1 3797   1.211   0.092  16.932 -0.0421 -0.1541 -0.1257
  247MPD1    C2 3798   1.185   4.734  16.837  0.5773 -0.2168  0.0946
  247MPD1    C3 3799   1.173   4.602  16.882 -0.0650 -0.3011 -0.3539
  247MPD1    C4 3800   1.163   4.572  17.013 -0.0228 -0.3512 -0.5494
  247MPD1    C5 3801   1.182   4.668  17.105 -0.3001 -0.1927  0.3181
  247MPD1     H 3802   1.173   0.019  16.732 -1.2546 -1.5472 -0.0134
  247MPD1    H1 3803   1.139   4.474  17.054  2.4573 -0.8684 -0.3306
  247MPD1    H2 3804   1.235   0.129  17.136 -0.6486  0.1335 -0.8742
  247MPD1    H3 3805   1.182   4.646  17.211 -2.5906 -0.9310  0.1548
  247MPD1     N 3806   1.145   4.492  16.794 -0.6239 -0.4971  0.0886
  247MPD1    H5 3807   1.122   4.402  16.836 -2.1228  0.0465  0.4272
  247MPD1    N1 3808   1.214   0.233  16.903  0.0664  0.3304 -1.4476
  247MPD1    H6 3809   1.274   0.283  16.967  1.3634 -0.6562 -1.8967
  247MPD1    H7 3810   1.247   0.250  16.808  0.6919 -0.5207 -1.3816
  248MPD1     C 3811   1.662   3.282   0.494  0.2384  0.3352 -0.4523
  248MPD1    C1 3812   1.531   3.305   0.453 -0.6677  0.5222  0.6997
  248MPD1    C2 3813   1.453   3.388   0.525 -0.5080 -0.0585 -0.2457
  248MPD1    C3 3814   1.494   3.435   0.646 -0.3404 -0.1820  0.0776
  248MPD1    C4 3815   1.618   3.402   0.693 -0.0317 -0.0718  0.0483
  248MPD1    C5 3816   1.695   3.341   0.610 -0.6170 -0.1534  0.3057
  248MPD1     H 3817   1.356   3.418   0.488 -2.0960 -2.9033  1.6009
  248MPD1    H1 3818   1.666   3.438   0.783  1.5247 -0.8183 -0.4721
  248MPD1    H2 3819   1.724   3.238   0.416  0.3105 -1.3144  0.5367
  248MPD1    H3 3820   1.801   3.348   0.635 -0.8803  0.8709  1.1467
  248MPD1     N 3821   1.410   3.532   0.708  0.1153 -0.0608  0.1782
  248MPD1    H5 3822   1.324   3.555   0.660 -0.0895 -0.6673  0.2561
  248MPD1    N1 3823   1.496   3.266   0.323 -0.0271 -0.0395 -0.0342
  248MPD1    H6 3824   1.553   3.188   0.291  2.1386  1.4977  0.0544
  248MPD1    H7 3825   1.398   3.248   0.300 -0.2230  0.7015  0.2256
  249MPD1     C 3826   3.804   1.660  10.379  0.1760 -0.0032  0.4768
  249MPD1    C1 3827   3.690   1.608  10.438 -0.1305  0.9181  0.1045
  249MPD1    C2 3828   3.590   1.692  10.482 -0.5634  0.1640  0.1600
  249MPD1    C3 3829   3.600   1.829  10.461  0.0409 -0.0037 -0.6409
  249MPD1    C4 3830   3.726   1.875  10.415  0.3295  0.1336  0.2331
  249MPD1    C5 3831   3.822   1.793  10.376  0.5932 -0.1799  0.1920
  249MPD1     H 3832   3.495   1.654  10.517 -0.3619 -0.8272 -0.3603
  249MPD1    H1 3833   3.747   1.981  10.409 -1.3425  0.5423  1.3358
  249MPD1    H2 3834   3.876   1.591  10.334  1.5297  1.8350 -0.1783
  249MPD1    H3 3835   3.922   1.826  10.348  0.4528  1.0519  1.1330
  249MPD1     N 3836   3.496   1.919  10.503 -0.0170  0.9728 -0.8037
  249MPD1    H5 3837   3.428   1.869  10.558  0.0579  1.8282  0.0793
  249MPD1    N1 3838   3.666   1.464  10.431 -0.1560 -0.1511 -0.2554
  249MPD1    H6 3839   3.611   1.418  10.503  1.8457 -2.3453 -0.1328
  249MPD1    H7 3840   3.763   1.431  10.425  0.2568  0.6785  1.7881
  250MPD2     C 3841   4.525   2.039  13.285 -0.2552  0.1964  0.4883
  250MPD2    C1 3842   4.464   2.129  13.204 -0.3748  0.4612 -1.1815
  250MPD2    C2 3843   4.398   2.080  13.088 -0.0191  1.0616 -0.0115
  250MPD2    C3 3844   4.426   1.953  13.046 -0.1840 -0.1100  0.5215
  250MPD2    C4 3845   4.496   1.867  13.126  0.4204 -0.2370 -0.1296
  250MPD2    C5 3846   4.549   1.912  13.247  0.7694  0.3301  0.5784
  250MPD2     H 3847   4.338   2.139  13.019  0.1737  1.7842  0.4425
  250MPD2    H1 3848   4.509   1.762  13.103 -1.2819 -0.4654 -0.0400
  250MPD2    H2 3849   4.568   2.079  13.376  1.8299  0.2511 -0.5255
  250MPD2    H3 3850   4.610   1.847  13.308  3.2226  1.4614 -0.6733
  250MPD2     N 3851   4.367   1.891  12.929  0.5750 -0.3904  0.4229
  250MPD2    H5 3852   4.385   1.791  12.928 -1.2903 -0.7057 -1.3193
  250MPD2    N1 3853   4.447   2.259  13.257  0.1109 -1.0093  0.2346
  250MPD2    H7 3854   4.463   2.288  13.353  1.8939 -0.3083 -0.2753
  251TMC3    C1 3855   4.336   2.465  13.278  0.2178  0.2134 -0.9723
  251TMC3    C2 3856   4.212   2.515  13.240  0.8054  0.0937 -0.0179
  251TMC3    C3 3857   4.189   2.655  13.233  0.1022 -0.0133 -0.0657
  251TMC3    C4 3858   4.442   2.562  13.304  0.2009 -0.1872 -0.1817
  251TMC3    C5 3859   4.414   2.698  13.301  0.4376  0.2560  0.6053
  251TMC3    C6 3860   4.292   2.747  13.268 -0.7078 -0.0917  0.9404
  251TMC3     C 3861   4.371   2.354  13.196 -0.1873 -0.3288  0.1539
  251TMC3     O 3862   4.337   2.356  13.078  0.4827  0.3891 -0.0092
  251TMC3     H 3863   4.141   2.440  13.206  2.4552 -0.4673 -2.1818
  251TMC3    H1 3864   4.538   2.520  13.333 -0.4361 -0.9726  0.7871
  251TMC3    H2 3865   4.274   2.853  13.286  4.0492  0.5719  1.8885
  251TMC3    C7 3866   4.514   2.789  13.352  0.0206  0.3182  1.2497
  251TMC3    C8 3867   4.061   2.702  13.247  0.3094  0.4809 -0.3830
  251TMC3    O1 3868   4.596   2.738  13.429  0.0299  0.1440  0.0253
  251TMC3    O2 3869   3.973   2.626  13.282  0.2675  0.2089  0.0897
  252TMC3    C1 3870   0.150   3.625   9.789 -0.1663 -0.1128  0.1294
  252TMC3    C2 3871   0.228   3.739   9.818 -0.2162 -0.2736  0.2698
  252TMC3    C3 3872   0.259   3.770   9.948  0.7349 -0.2851  0.1312
  252TMC3    C4 3873   0.130   3.524   9.887 -0.3120 -0.1805  0.3302
  252TMC3    C5 3874   0.167   3.555  10.015 -0.3390 -0.4254  0.1333
  252TMC3    C6 3875   0.224   3.679  10.045  0.4534 -0.4189  0.0011
  252TMC3     C 3876   0.080   3.621   9.661  0.1273 -0.1227 -0.1254
  252TMC3     O 3877   0.123   3.698   9.577  0.2565  0.3411  0.1891
  252TMC3     H 3878   0.257   3.807   9.739 -0.5152  1.7374  1.8959
  252TMC3    H1 3879   0.098   3.429   9.846 -0.8993  0.7504 -1.3764
  252TMC3    H2 3880   0.240   3.694  10.151 -0.1136 -1.1210  0.1891
  252TMC3    C7 3881   0.142   3.468  10.127  0.1023 -0.5197 -0.5673
  252TMC3    C8 3882   0.337   3.889   9.977  0.0867 -0.2587 -0.3597
  252TMC3    O1 3883   0.215   3.490  10.225  0.1649 -0.1039  0.2977
  252TMC3    O2 3884   0.391   3.937   9.878  0.5401 -0.3344 -0.2261
  253MPD2     C 3885   1.013   2.652  15.120  0.4490 -0.3498  0.4020
  253MPD2    C1 3886   0.876   2.687  15.153 -0.3960  1.0874 -0.3810
  253MPD2    C2 3887   0.836   2.685  15.282  0.2208  0.6668 -0.5931
  253MPD2    C3 3888   0.923   2.641  15.383 -0.1877  0.8496 -0.0215
  253MPD2    C4 3889   1.052   2.601  15.347  0.3360 -0.3080  1.3474
  253MPD2    C5 3890   1.093   2.607  15.221 -0.0272  1.0702  0.0934
  253MPD2     H 3891   0.735   2.718  15.302 -0.3325 -2.1972  1.4196
  253MPD2    H1 3892   1.129   2.572  15.418 -0.6360 -2.1155  1.6620
  253MPD2    H2 3893   1.059   2.648  15.022 -0.6339  1.0662 -0.1503
  253MPD2    H3 3894   1.200   2.590  15.214 -0.4576 -1.1759 -0.9217
  253MPD2     N 3895   0.889   2.635  15.516 -0.0419  0.7047 -0.0085
  253MPD2    H5 3896   0.969   2.607  15.572 -0.5050 -0.2932  0.1469
  253MPD2    N1 3897   0.789   2.748  15.060  0.0600 -0.0951  0.2636
  253MPD2    H7 3898   0.698   2.773  15.098  0.6149  1.8718  0.3324
  254TMC3    C1 3899   0.752   2.669  15.712  0.1495 -0.1698  0.0384
  254TMC3    C2 3900   0.628   2.699  15.760 -0.9178 -0.6619  0.7222
  254TMC3    C3 3901   0.596   2.650  15.888 -0.5126 -0.1543  0.4382
  254TMC3    C4 3902   0.839   2.594  15.785  0.4495 -0.1758 -0.6296
  254TMC3    C5 3903   0.799   2.549  15.907  0.4884  0.0587  0.4549
  254TMC3    C6 3904   0.676   2.568  15.959 -0.5447 -0.7713  0.9634
  254TMC3     C 3905   0.774   2.687  15.565  0.0464  0.4875 -0.0789
  254TMC3     O 3906   0.665   2.715  15.511  0.1087 -0.6917 -0.2214
  254TMC3     H 3907   0.556   2.763  15.710  0.6899 -0.3420 -1.1660
  254TMC3    H1 3908   0.926   2.544  15.746  0.4965  0.0948 -0.8659
  254TMC3    H2 3909   0.651   2.533  16.059 -0.0196  0.1022  1.4080
  254TMC3    C7 3910   0.904   2.508  16.004 -0.5573 -0.6021  0.2131
  254TMC3    C8 3911   0.525   2.735  15.984 -0.3901 -0.2077  0.3341
  254TMC3    O1 3912   0.873   2.400  16.061 -0.3119  0.0016 -0.7215
  254TMC3    O2 3913   0.519   2.683  16.093  0.1064 -0.1964  0.1688
  255MPD2     C 3914   3.872   0.505  10.417 -0.6092 -0.0661 -0.1179
  255MPD2    C1 3915   3.882   0.407  10.316 -0.2506  0.3526  0.4283
  255MPD2    C2 3916   3.967   0.301  10.340 -0.1168  0.0271  0.1396
  255MPD2    C3 3917   4.026   0.275  10.460 -0.5475 -0.5002  0.1445
  255MPD2    C4 3918   4.016   0.376  10.549  0.1651 -0.0709 -0.4331
  255MPD2    C5 3919   3.936   0.487  10.535 -0.8563  0.1149 -0.5609
  255MPD2     H 3920   3.976   0.230  10.258  0.4720  0.3562 -0.0758
  255MPD2    H1 3921   4.055   0.371  10.650  0.3333 -1.8813 -0.5829
  255MPD2    H2 3922   3.820   0.598  10.399 -3.1251 -1.5764 -0.6113
  255MPD2    H3 3923   3.933   0.560  10.614  1.3078  0.4138 -0.7455
  255MPD2     N 3924   4.095   0.153  10.479  0.1708 -0.3557  0.3734
  255MPD2    H5 3925   4.086   0.086  10.403 -0.7676 -0.3481  0.4821
  255MPD2    N1 3926   3.821   0.424  10.190  0.4351 -0.0503 -0.9080
  255MPD2    H7 3927   3.770   0.511  10.177  1.7579  1.3100  2.6625
  256TMC3    C1 3928   3.752   0.361   9.973  0.0493 -0.3448  0.0725
  256TMC3    C2 3929   3.789   0.483   9.928  0.5428  0.2016 -0.3550
  256TMC3    C3 3930   3.740   0.513   9.805 -0.1144  0.0692 -0.9163
  256TMC3    C4 3931   3.666   0.272   9.903 -0.5802 -0.6895 -0.7613
  256TMC3    C5 3932   3.620   0.310   9.785  0.1241 -0.4356 -0.6006
  256TMC3    C6 3933   3.665   0.429   9.733  0.8220 -0.5648  0.4014
  256TMC3     C 3934   3.795   0.323  10.108 -0.2761 -0.0981 -0.6983
  256TMC3     O 3935   3.781   0.202  10.138 -0.2096  0.5415 -0.3090
  256TMC3     H 3936   3.855   0.544   9.988 -0.7992  0.9763  0.3336
  256TMC3    H1 3937   3.631   0.174   9.934 -0.7796 -0.1528  0.6984
  256TMC3    H2 3938   3.638   0.459   9.633 -0.2767  0.3601  0.9622
  256TMC3    C7 3939   3.564   0.202   9.707  1.0554 -0.4757 -0.0382
  256TMC3    C8 3940   3.764   0.644   9.743  0.4096  0.5087  0.0510
  256TMC3    O1 3941   3.589   0.085   9.737  0.9159 -0.2168  0.5513
  256TMC3    O2 3942   3.698   0.679   9.647 -0.6676 -0.2436  0.3463
  257MPD2     C 3943   2.655   2.117  13.334  0.1724 -0.1657  0.0815
  257MPD2    C1 3944   2.764   2.142  13.248 -0.0242  0.4597 -0.4200
  257MPD2    C2 3945   2.889   2.088  13.282 -0.2222  0.2316 -0.9568
  257MPD2    C3 3946   2.905   2.025  13.404  0.1319 -0.1698  0.9043
  257MPD2    C4 3947   2.795   1.995  13.479 -0.6853 -0.3169  0.0344
  257MPD2    C5 3948   2.671   2.029  13.438 -0.1307  0.9849  0.3802
  257MPD2     H 3949   2.980   2.109  13.227  2.7768 -3.3942  2.5743
  257MPD2    H1 3950   2.795   1.939  13.572 -2.3975 -0.1374  0.1448
  257MPD2    H2 3951   2.551   2.146  13.328 -0.1328 -1.3532 -0.4550
  257MPD2    H3 3952   2.587   1.997  13.498  1.4467  0.4293  2.2857
  257MPD2     N 3953   3.033   1.983  13.441 -0.3123 -0.4551 -1.1084
  257MPD2    H5 3954   3.106   1.980  13.371  0.9306  2.4403  0.0252
  257MPD2    N1 3955   2.738   2.234  13.139 -0.2907 -0.0430 -0.3073
  257MPD2    H7 3956   2.641   2.264  13.131 -0.6161 -1.1892 -0.6449
  258TMC3    C1 3957   3.208   1.943  13.599 -0.6973  0.0816 -0.0837
  258TMC3    C2 3958   3.278   1.844  13.529  0.3404 -0.7326  0.2887
  258TMC3    C3 3959   3.398   1.809  13.576  0.4385 -0.3841  0.4374
  258TMC3    C4 3960   3.256   2.002  13.710 -0.3041  0.2725 -0.4871
  258TMC3    C5 3961   3.389   1.978  13.741 -1.1322  0.3863 -0.6922
  258TMC3    C6 3962   3.455   1.875  13.677  0.1974 -0.0977  0.3798
  258TMC3     C 3963   3.067   1.965  13.575 -0.3099  0.4634 -0.7805
  258TMC3     O 3964   3.008   2.006  13.676  0.2485  0.1851 -0.2767
  258TMC3     H 3965   3.247   1.818  13.428  1.9134 -1.6623  0.0434
  258TMC3    H1 3966   3.202   2.078  13.766  0.7613 -0.8108  1.9981
  258TMC3    H2 3967   3.554   1.843  13.705  0.9505  1.1301 -0.8625
  258TMC3    C7 3968   3.442   2.067  13.838 -0.3242  0.0516 -0.5477
  258TMC3    C8 3969   3.485   1.724  13.501  0.5176 -0.2916  0.4389
  258TMC3    O1 3970   3.378   2.170  13.846 -0.5328  0.0531  0.1521
  258TMC3    O2 3971   3.608   1.734  13.505  0.1040  0.0388 -0.2852
  259MPD2     C 3972   2.100   4.636   0.879 -0.1441  0.2645  0.0338
  259MPD2    C1 3973   2.091   4.502   0.853 -0.7221  0.1296 -0.1014
  259MPD2    C2 3974   2.084   4.469   0.719  0.6069 -0.0899 -0.2866
  259MPD2    C3 3975   2.083   4.566   0.621 -0.6818  0.2249  0.0001
  259MPD2    C4 3976   2.087   4.700   0.648 -0.1787  0.3122  0.7242
  259MPD2    C5 3977   2.099   4.731   0.782 -0.2047 -0.6612  0.1012
  259MPD2     H 3978   2.086   4.363   0.701 -1.4579 -0.3594  1.0947
  259MPD2    H1 3979   2.069   0.041   0.577  1.7344 -0.2036 -0.3302
  259MPD2    H2 3980   2.112   4.669   0.981 -1.8818  1.1181 -0.0391
  259MPD2    H3 3981   2.097   0.093   0.820  2.7142 -0.0010 -1.4765
  259MPD2     N 3982   2.069   4.517   0.490  0.4113 -0.7771  0.3277
  259MPD2    H5 3983   2.095   4.419   0.487 -0.1817 -0.9288  0.2396
  259MPD2    N1 3984   2.106   4.406   0.959  0.4401 -0.2445  1.0300
  259MPD2    H7 3985   2.120   4.455   1.047  0.7733  3.7271 -1.2364
  260TMC3    C1 3986   2.027   4.498   0.256  0.7234 -0.1943 -0.2052
  260TMC3    C2 3987   2.074   4.562   0.145 -0.0421  0.0862 -0.5102
  260TMC3    C3 3988   2.120   4.487   0.040 -0.2353  0.8337 -0.4874
  260TMC3    C4 3989   2.019   4.364   0.266  0.2788 -0.3154 -0.5681
  260TMC3    C5 3990   2.077   4.296   0.161  0.8837  0.3467  0.8392
  260TMC3    C6 3991   2.122   4.344   0.045 -0.1757  0.0591 -0.6919
  260TMC3     C 3992   2.019   4.580   0.381  0.9938 -0.3553  0.8443
  260TMC3     O 3993   1.982   4.692   0.364 -0.2189  0.1576  0.2120
  260TMC3     H 3994   2.073   4.671   0.143  1.2013  0.1453  1.6803
  260TMC3    H1 3995   1.986   4.326   0.362  0.0304 -1.6106 -1.1560
  260TMC3    H2 3996   2.154   4.274  17.723 -2.4633 -0.2103 -1.3846
  260TMC3    C7 3997   2.116   4.155   0.184  0.0508  0.4151  0.3278
  260TMC3    C8 3998   2.246   4.548   0.009 -0.0938 -0.0873  0.6363
  260TMC3    O1 3999   2.161   4.090   0.087  0.2969 -0.4127 -0.2962
  260TMC3    O2 4000   2.250   4.668   0.015  0.0824  0.4153  0.6468
  261MPD2     C 4001   3.626   1.964  12.546 -0.2483 -0.9616  0.3266
  261MPD2    C1 4002   3.752   1.993  12.508 -0.2243  0.3939 -0.2191
  261MPD2    C2 4003   3.767   2.094  12.416  0.1419 -0.1849  0.1807
  261MPD2    C3 4004   3.670   2.182  12.380  0.0394  0.1875 -0.2441
  261MPD2    C4 4005   3.544   2.153  12.422 -0.0751 -0.3283 -0.0879
  261MPD2    C5 4006   3.521   2.046  12.503 -1.2640 -0.0584  0.0305
  261MPD2     H 4007   3.867   2.108  12.377  0.9344 -2.2948  1.4281
  261MPD2    H1 4008   3.456   2.206  12.386 -0.0589 -1.1566 -1.3399
  261MPD2    H2 4009   3.601   1.893  12.624  0.5396 -1.4187  0.1698
  261MPD2    H3 4010   3.422   2.013  12.532 -0.4531 -3.6244 -1.1872
  261MPD2     N 4011   3.700   2.277  12.282  0.3553 -0.3571  0.2997
  261MPD2    H5 4012   3.794   2.276  12.244 -0.5050 -0.3170 -1.8196
  261MPD2    N1 4013   3.873   1.929  12.550 -0.3064  0.4231  0.1169
  261MPD2    H7 4014   3.956   1.971  12.509  0.3768 -0.4466  0.5851
  262TMC3    C1 4015   3.667   2.431  12.113 -0.1945 -0.2976 -0.3908
  262TMC3    C2 4016   3.619   2.561  12.089 -0.9975 -0.0981  0.2192
  262TMC3    C3 4017   3.652   2.631  11.975  0.2675 -0.1359 -0.5607
  262TMC3    C4 4018   3.761   2.378  12.031  0.0783  0.6171 -0.0557
  262TMC3    C5 4019   3.798   2.448  11.920 -0.0111 -0.8863 -0.1938
  262TMC3    C6 4020   3.744   2.572  11.890  0.1277 -0.6579  0.8648
  262TMC3     C 4021   3.622   2.379  12.236  0.8496  0.2421  0.5514
  262TMC3     O 4022   3.507   2.404  12.275 -0.1578 -0.2783 -0.0227
  262TMC3     H 4023   3.544   2.592  12.160 -1.6616  2.6894 -1.6840
  262TMC3    H1 4024   3.791   2.277  12.057  0.5970  0.5827 -0.8065
  262TMC3    H2 4025   3.757   2.618  11.792 -0.4064 -0.5485  0.8405
  262TMC3    C7 4026   3.899   2.385  11.839  0.1558  0.1318  0.3156
  262TMC3    C8 4027   3.623   2.765  11.946 -0.1597 -0.8529 -0.5485
  262TMC3    O1 4028   3.924   2.270  11.869  0.2458 -0.2418  0.2936
  262TMC3    O2 4029   3.696   2.823  11.868 -0.2494  0.1766 -0.0898
  263MPD2     C 4030   0.042   1.047  11.691  0.2104  0.4222 -0.0198
  263MPD2    C1 4031   0.091   1.171  11.712  0.4705  0.0134  0.3994
  263MPD2    C2 4032   0.057   1.270  11.618  1.1354  0.2996  0.1158
  263MPD2    C3 4033   0.031   1.235  11.483  0.0139 -0.1088 -0.5317
  263MPD2    C4 4034   0.007   1.103  11.457  0.7581  0.1973  0.0637
  263MPD2    C5 4035   0.007   1.014  11.562  0.2524 -0.5282 -0.2854
  263MPD2     H 4036   0.057   1.375  11.642 -1.6434  0.0204  1.4140
  263MPD2    H1 4037   4.715   1.067  11.359  2.1373  4.2656 -1.8949
  263MPD2    H2 4038   0.048   0.972  11.770  0.6349 -0.0282 -0.4741
  263MPD2    H3 4039   4.712   0.915  11.533 -0.8501  0.9350 -3.9659
  263MPD2     N 4040   0.042   1.342  11.386 -0.1398 -0.4293 -0.5958
  263MPD2    H5 4041   0.047   1.438  11.417  1.4459 -0.9210  0.6596
  263MPD2    N1 4042   0.144   1.192  11.843  0.1445  0.1088 -0.0106
  263MPD2    H7 4043   0.172   1.113  11.900  0.6260  0.1331 -0.2159
  264TMC3    C1 4044   0.081   1.433  11.165  0.0853 -0.3991 -0.5928
  264TMC3    C2 4045   0.024   1.552  11.204  0.0693  0.8600  0.4102
  264TMC3    C3 4046   0.020   1.650  11.110 -0.0297  0.0735  0.0900
  264TMC3    C4 4047   0.128   1.406  11.040 -0.6944  0.0403  0.0097
  264TMC3    C5 4048   0.135   1.515  10.953  0.8107  0.7528 -0.5623
  264TMC3    C6 4049   0.065   1.631  10.983 -0.3218  0.7467 -0.0985
  264TMC3     C 4050   0.061   1.315  11.249  0.7063  0.5379 -0.4962
  264TMC3     O 4051   0.075   1.205  11.192  0.1466 -0.0151  0.1559
  264TMC3     H 4052   4.704   1.571  11.294  0.6207  3.5519  0.2144
  264TMC3    H1 4053   0.189   1.318  11.021 -0.9909  0.0993 -1.2523
  264TMC3    H2 4054   0.072   1.709  10.908 -1.1097  0.1126 -0.8282
  264TMC3    C7 4055   0.257   1.534  10.879  0.3061  0.8207  0.6227
  264TMC3    C8 4056   0.006   1.795  11.132 -0.0241 -0.9238  1.1115
  264TMC3    O1 4057   0.343   1.450  10.904 -0.3874 -0.3496 -0.2582
  264TMC3    O2 4058   0.003   1.875  11.039 -0.2658 -0.3459 -0.3408
  265MPD2     C 4059   1.971   2.621  15.761  0.1195  0.0246  0.0927
  265MPD2    C1 4060   2.062   2.731  15.776 -0.3919 -0.0557 -0.0287
  265MPD2    C2 4061   2.169   2.726  15.691 -0.4625 -0.2599  0.2040
  265MPD2    C3 4062   2.192   2.625  15.606  0.0433  0.7102  0.7001
  265MPD2    C4 4063   2.099   2.524  15.599  0.4274 -0.3646 -0.2632
  265MPD2    C5 4064   1.996   2.517  15.682 -0.3124 -0.3078  0.6331
  265MPD2     H 4065   2.227   2.817  15.683  0.2545 -0.6541  0.8941
  265MPD2    H1 4066   2.113   2.444  15.527 -1.1837 -0.1878 -0.7592
  265MPD2    H2 4067   1.898   2.609  15.841  0.0765  1.7914  0.3276
  265MPD2    H3 4068   1.927   2.433  15.686  0.4370 -0.8714  2.0138
  265MPD2     N 4069   2.311   2.603  15.535  0.1740 -0.9487  0.7169
  265MPD2    H5 4070   2.335   2.513  15.496  0.6385  0.1029 -1.4603
  265MPD2    N1 4071   2.032   2.826  15.872  0.2502 -0.5655 -0.1979
  265MPD2    H7 4072   2.108   2.889  15.896  0.9021 -1.4291  0.0081
  266TMC3    C1 4073   1.893   2.972  15.993  0.1229 -0.2318  0.5048
  266TMC3    C2 4074   1.992   3.000  16.080 -0.2249 -0.5211 -0.0219
  266TMC3    C3 4075   1.965   3.095  16.178  0.2643 -0.7230  0.2073
  266TMC3    C4 4076   1.777   3.038  15.984  0.0061 -0.0279  0.2721
  266TMC3    C5 4077   1.753   3.124  16.089 -0.5918  0.5638  0.5507
  266TMC3    C6 4078   1.843   3.158  16.182  0.0143  0.3384 -0.0751
  266TMC3     C 4079   1.903   2.856  15.907 -0.4667 -0.2015  0.2768
  266TMC3     O 4080   1.800   2.816  15.855 -0.0572  0.9149 -0.4334
  266TMC3     H 4081   2.090   2.955  16.067  0.9930  2.0741  0.2079
  266TMC3    H1 4082   1.695   3.004  15.922 -1.1112 -1.7555  2.6973
  266TMC3    H2 4083   1.802   3.230  16.252  2.1096 -0.1027  1.6223
  266TMC3    C7 4084   1.628   3.204  16.089  0.0228 -0.5456  0.4675
  266TMC3    C8 4085   2.057   3.101  16.288  0.1874  0.4807 -0.2370
  266TMC3    O1 4086   1.584   3.244  16.195  0.2877  0.3363 -0.2352
  266TMC3    O2 4087   2.137   3.008  16.302 -0.2110 -0.1176 -0.0872
  267MPD2     C 4088   4.222   0.210   0.253  0.2136 -0.0506 -0.2701
  267MPD2    C1 4089   4.286   0.090   0.225  0.7928  0.0892 -0.0925
  267MPD2    C2 4090   4.258   0.038   0.105  0.2502 -0.5408  0.3848
  267MPD2    C3 4091   4.151   0.093   0.029  0.3444 -0.9028 -0.8479
  267MPD2    C4 4092   4.084   0.205   0.059 -0.2955  0.2915 -0.6935
  267MPD2    C5 4093   4.131   0.269   0.173 -0.8322 -0.3753  0.0073
  267MPD2     H 4094   4.324   4.702   0.061 -2.3964 -1.4462 -2.0350
  267MPD2    H1 4095   4.003   0.243  17.753 -0.8124  1.7210  0.8906
  267MPD2    H2 4096   4.266   0.272   0.331 -3.5345  2.2901 -0.0182
  267MPD2    H3 4097   4.077   0.361   0.196 -1.8305 -1.8627  3.5306
  267MPD2     N 4098   4.111   0.049  17.658  0.0584  0.0714  0.6620
  267MPD2    H5 4099   4.038   0.100  17.609 -0.3303 -2.4655 -1.4046
  267MPD2    N1 4100   4.382   0.038   0.318  0.3247 -0.0157 -0.2005
  267MPD2    H7 4101   4.418   0.102   0.388  1.5898 -1.2178  0.2418
  268TMC3    C1 4102   4.580   4.662   0.366  0.5513  0.6762  0.3600
  268TMC3    C2 4103   4.656   0.006   0.293  0.0034  0.5652  0.0680
  268TMC3    C3 4104   0.018   4.699   0.217  0.5809 -0.1132 -0.9503
  268TMC3    C4 4105   4.612   4.528   0.361  0.2437 -0.6606 -0.5972
  268TMC3    C5 4106   4.709   4.485   0.277  0.3186  0.1521 -0.8674
  268TMC3    C6 4107   0.047   4.571   0.208 -0.2744 -0.5084  0.6114
  268TMC3     C 4108   4.453   4.663   0.299 -0.8676 -0.0416  0.6767
  268TMC3     O 4109   4.419   4.558   0.241  0.2031 -0.2440 -0.6599
  268TMC3     H 4110   4.616   0.107   0.289 -0.8930  0.2414  0.6741
  268TMC3    H1 4111   4.547   4.464   0.420 -1.9155  0.8605 -1.2936
  268TMC3    H2 4112   0.134   4.540   0.152  0.7100  0.6946  1.4625
  268TMC3    C7 4113   0.010   4.344   0.296  0.4421  0.5430 -0.1114
  268TMC3    C8 4114   0.055   0.049   0.108  0.4707  0.0530  0.7437
  268TMC3    O1 4115   4.716   4.287   0.395 -0.1299  0.0181 -0.4289
  268TMC3    O2 4116   0.078   0.163   0.149  0.4319  0.3118 -0.9593
  269MPD2     C 4117   0.292   3.165  15.309  0.2431  0.0801 -0.1758
  269MPD2    C1 4118   0.177   3.161  15.386  0.4219  0.2036 -0.2876
  269MPD2    C2 4119   0.093   3.270  15.383  0.2952 -0.1345  0.7410
  269MPD2    C3 4120   0.133   3.387  15.320 -0.2878 -0.0744  0.0913
  269MPD2    C4 4121   0.253   3.398  15.247  0.3473  0.4781 -0.3651
  269MPD2    C5 4122   0.334   3.288  15.252 -0.4902 -0.2883  0.1395
  269MPD2     H 4123   4.736   3.265  15.432 -0.1475  2.5432  0.1528
  269MPD2    H1 4124   0.288   3.490  15.202 -2.5428  2.0752  0.6626
  269MPD2    H2 4125   0.371   3.091  15.311  0.7665  0.6492  0.3227
  269MPD2    H3 4126   0.429   3.286  15.200 -1.5103 -0.5680 -1.7198
  269MPD2     N 4127   0.055   3.504  15.333 -0.0091  0.0256  0.3170
  269MPD2    H5 4128   4.718   3.503  15.400 -1.8042  1.3115 -1.7253
  269MPD2    N1 4129   0.158   3.042  15.462 -0.7642  0.2766  0.5065
  269MPD2    H7 4130   0.215   2.959  15.465 -0.9201  0.1798  0.8244
  270TMC3    C1 4131   0.061   2.912  15.643  0.0809  0.3475  0.4132
  270TMC3    C2 4132   4.683   2.884  15.715  0.9571  0.4086 -0.3822
  270TMC3    C3 4133   4.671   2.774  15.801 -0.0492  0.0090  0.3401
  270TMC3    C4 4134   0.171   2.826  15.657 -0.1933  0.1579 -1.0339
  270TMC3    C5 4135   0.153   2.719  15.749 -0.4718 -0.0937 -0.7493
  270TMC3    C6 4136   0.038   2.690  15.816 -0.5359  0.1861  0.2646
  270TMC3     C 4137   0.070   3.038  15.568 -0.5666 -0.1622  0.0293
  270TMC3     O 4138   4.713   3.114  15.586 -0.1369  0.1367 -0.0772
  270TMC3     H 4139   4.591   2.932  15.683  0.2318  0.3782  1.6874
  270TMC3    H1 4140   0.261   2.833  15.597  0.4236  0.0285 -0.1336
  270TMC3    H2 4141   0.062   2.635  15.906 -1.8597  1.0703  1.1541
  270TMC3    C7 4142   0.247   2.609  15.738 -0.1524 -0.3360  0.7320
  270TMC3    C8 4143   4.561   2.690  15.775 -0.6138 -0.0804  0.0260
  270TMC3    O1 4144   0.364   2.616  15.686 -0.7582 -0.1869 -0.5111
  270TMC3    O2 4145   4.510   2.706  15.666 -0.2244  0.1297 -0.7251
  271MPD2     C 4146   4.122   2.130  14.080 -0.3441  0.0656 -0.2051
  271MPD2    C1 4147   4.067   2.214  14.165 -0.5045 -0.5447 -1.0059
  271MPD2    C2 4148   3.952   2.293  14.135  0.8745  0.2993  0.1641
  271MPD2    C3 4149   3.895   2.273  14.011 -0.3488  0.0479 -0.0548
  271MPD2    C4 4150   3.952   2.178  13.932  0.1728 -0.9858 -0.0815
  271MPD2    C5 4151   4.064   2.107  13.960  0.5952 -0.3336 -0.1944
  271MPD2     H 4152   3.907   2.358  14.209  0.9089  2.4760 -1.6787
  271MPD2    H1 4153   3.909   2.147  13.837  0.4706  0.9723 -0.8594
  271MPD2    H2 4154   4.210   2.071  14.105 -0.5201  0.1801  0.6743
  271MPD2    H3 4155   4.108   2.039  13.888 -0.6939 -1.3872  0.0176
  271MPD2     N 4156   3.781   2.336  13.946 -0.0428 -0.8918  0.0533
  271MPD2    H5 4157   3.759   2.294  13.856 -0.6399  1.1939 -0.7844
  271MPD2    N1 4158   4.131   2.234  14.291  0.0831 -0.5406 -0.0776
  271MPD2    H7 4159   4.097   2.305  14.355  1.8410  1.1453 -1.0260
  272TMC3    C1 4160   4.290   2.209  14.477 -0.4191 -0.5417  0.4991
  272TMC3    C2 4161   4.419   2.188  14.508  0.2961 -0.6555 -0.6100
  272TMC3    C3 4162   4.454   2.168  14.639 -0.2919  0.1856 -0.6812
  272TMC3    C4 4163   4.193   2.212  14.580  0.1287  0.1280  0.3689
  272TMC3    C5 4164   4.234   2.182  14.703 -0.3394 -0.2031 -0.1809
  272TMC3    C6 4165   4.364   2.165  14.738 -0.1877  0.2727 -0.1114
  272TMC3     C 4166   4.253   2.183  14.331 -0.4575  0.4119 -0.0511
  272TMC3     O 4167   4.338   2.120  14.267  0.1201  0.0596 -0.2491
  272TMC3     H 4168   4.497   2.173  14.434  2.4265  1.6375  1.1833
  272TMC3    H1 4169   4.089   2.240  14.565  0.8304  1.5776 -1.7583
  272TMC3    H2 4170   4.392   2.125  14.834  1.3912  0.8165 -0.3531
  272TMC3    C7 4171   4.148   2.208  14.812  0.3450  0.8498 -0.4363
  272TMC3    C8 4172   4.595   2.150  14.667 -0.2141  0.4218  0.3925
  272TMC3    O1 4173   4.034   2.165  14.810 -0.2825  0.8657  0.0067
  272TMC3    O2 4174   4.662   2.189  14.573  0.1274 -0.0722 -0.0222
  273MPD2     C 4175   0.842   0.221  12.228  0.3174  0.6696  0.1830
  273MPD2    C1 4176   0.881   0.344  12.193 -0.2864  0.3489 -0.3479
  273MPD2    C2 4177   0.858   0.390  12.067 -0.0904 -0.2412  0.0759
  273MPD2    C3 4178   0.807   0.299  11.972 -0.0624 -0.0634  0.2143
  273MPD2    C4 4179   0.758   0.181  12.013 -0.7379  0.4510  0.1045
  273MPD2    C5 4180   0.781   0.139  12.143 -0.4731  0.2726  0.1225
  273MPD2     H 4181   0.885   0.488  12.030 -2.3083 -0.3078 -1.6685
  273MPD2    H1 4182   0.697   0.112  11.956  0.6079 -0.9442  0.3584
  273MPD2    H2 4183   0.851   0.194  12.333  0.5790  3.0891  0.7884
  273MPD2    H3 4184   0.743   0.044  12.177 -2.0154 -0.1895 -2.9444
  273MPD2     N 4185   0.798   0.354  11.844 -0.4451  0.1168  0.0755
  273MPD2    H5 4186   0.843   0.444  11.831 -0.3256 -0.1491 -1.4397
  273MPD2    N1 4187   0.943   0.421  12.295 -0.1981  0.1990 -0.3859
  273MPD2    H7 4188   0.968   0.390  12.389 -0.7221 -1.0466 -0.6564
  274TMC3    C1 4189   0.755   0.390  11.626 -0.3073 -0.0171 -1.1256
  274TMC3    C2 4190   0.639   0.411  11.551 -0.1161  0.2117 -0.5545
  274TMC3    C3 4191   0.623   0.532  11.483  0.8993 -0.4627 -0.1974
  274TMC3    C4 4192   0.846   0.490  11.630  0.0907 -0.4464 -0.2988
  274TMC3    C5 4193   0.813   0.610  11.573 -0.1577  0.2510 -0.4148
  274TMC3    C6 4194   0.715   0.628  11.480  0.2503  0.5601 -0.0774
  274TMC3     C 4195   0.731   0.308  11.742 -0.2950 -0.3346 -0.3858
  274TMC3     O 4196   0.667   0.205  11.732  0.4126  0.0079  0.0632
  274TMC3     H 4197   0.565   0.332  11.550  1.1876 -1.0015 -1.1015
  274TMC3    H1 4198   0.937   0.488  11.690  0.5027 -0.4345 -0.9179
  274TMC3    H2 4199   0.700   0.731  11.450  3.4823 -0.2705 -4.5295
  274TMC3    C7 4200   0.811   0.719  11.674 -0.3162 -0.6745 -0.4365
  274TMC3    C8 4201   0.524   0.533  11.381 -0.4633 -0.1805 -1.0175
  274TMC3    O1 4202   0.720   0.796  11.660 -0.0388  0.4033  0.3011
  274TMC3    O2 4203   0.433   0.453  11.372  0.3138  0.1539 -0.0306
  275MPD2     C 4204   1.012   3.236  14.545  0.0626  0.7206  0.5588
  275MPD2    C1 4205   0.922   3.336  14.560 -0.2637  0.4060 -0.0743
  275MPD2    C2 4206   0.786   3.316  14.552  0.6634 -0.4702  0.3143
  275MPD2    C3 4207   0.735   3.192  14.536 -0.1628  0.4367  0.3973
  275MPD2    C4 4208   0.821   3.082  14.525 -0.2645 -0.0013 -1.2798
  275MPD2    C5 4209   0.956   3.108  14.539  0.1502 -0.2595 -0.4096
  275MPD2     H 4210   0.729   3.407  14.539 -0.3883 -1.3243 -1.1675
  275MPD2    H1 4211   0.769   2.988  14.513 -1.7602  0.5630  0.6604
  275MPD2    H2 4212   1.120   3.244  14.549  0.1319  0.9661 -1.8280
  275MPD2    H3 4213   1.023   3.023  14.546 -1.6147 -1.6791 -0.9709
  275MPD2     N 4214   0.596   3.166  14.551  0.6426 -0.2509 -0.6227
  275MPD2    H5 4215   0.565   3.070  14.539  0.8468 -0.0306 -2.8567
  275MPD2    N1 4216   0.962   3.476  14.588 -0.7504 -0.7129  0.2612
  275MPD2    H7 4217   0.887   3.543  14.599  0.4932  0.8961 -1.1324
  276TMC3    C1 4218   1.102   3.641  14.695  0.3450  0.3240 -0.2195
  276TMC3    C2 4219   0.981   3.721  14.711  1.0351 -0.6724 -0.3680
  276TMC3    C3 4220   0.973   3.802  14.824 -0.2429  0.0972  0.2252
  276TMC3    C4 4221   1.208   3.664  14.777 -0.2352  0.9897 -0.0146
  276TMC3    C5 4222   1.197   3.755  14.885  0.2139 -0.1573 -0.2056
  276TMC3    C6 4223   1.084   3.818  14.906  0.1139 -0.4640  0.5472
  276TMC3     C 4224   1.090   3.506  14.635 -0.4842 -0.5316 -0.5891
  276TMC3     O 4225   1.189   3.441  14.641  0.5413 -0.2021  0.1637
  276TMC3     H 4226   0.889   3.697  14.660  1.3302 -2.0636 -0.2329
  276TMC3    H1 4227   1.303   3.618  14.752 -0.7413  0.0844 -0.2680
  276TMC3    H2 4228   1.069   3.857  15.006 -2.4876 -1.9115  0.7361
  276TMC3    C7 4229   1.306   3.795  14.969  1.0581  0.0992 -0.0665
  276TMC3    C8 4230   0.858   3.775  14.905  0.2439  0.0011 -0.3846
  276TMC3    O1 4231   1.289   3.911  15.006 -0.1071  0.0217 -0.9186
  276TMC3    O2 4232   0.816   3.873  14.965  0.1021  0.1349  0.3823
  277MPD2     C 4233   2.235   2.634  13.543  0.2663 -0.1493  0.2263
  277MPD2    C1 4234   2.138   2.690  13.624  0.5623  0.6444 -0.5663
  277MPD2    C2 4235   2.087   2.623  13.731 -0.7553 -0.6413  0.0018
  277MPD2    C3 4236   2.127   2.492  13.751 -0.0820  0.0018 -0.5173
  277MPD2    C4 4237   2.225   2.442  13.675  0.0148  0.1129 -0.0616
  277MPD2    C5 4238   2.282   2.515  13.574 -0.2534  0.9850  0.0449
  277MPD2     H 4239   2.002   2.664  13.783 -1.7738  0.8976 -2.8520
  277MPD2    H1 4240   2.262   2.345  13.706  0.1723 -0.2785 -1.4732
  277MPD2    H2 4241   2.272   2.684  13.454 -0.3398 -0.8954 -0.4513
  277MPD2    H3 4242   2.369   2.469  13.527  0.6751  0.6418  2.0594
  277MPD2     N 4243   2.061   2.420  13.847 -0.3467  0.3881  0.4522
  277MPD2    H5 4244   1.983   2.463  13.895 -0.0596  0.6907  0.6427
  277MPD2    N1 4245   2.086   2.810  13.575  0.5450  0.2671 -0.0513
  277MPD2    H7 4246   2.132   2.853  13.495 -2.1973  0.0772 -1.7358
  278TMC3    C1 4247   1.951   2.237  13.955 -0.2472 -0.5385 -0.6309
  278TMC3    C2 4248   1.899   2.111  13.928  0.0409  0.7229  0.0355
  278TMC3    C3 4249   1.814   2.055  14.019  0.0650  0.1248 -0.6250
  278TMC3    C4 4250   1.917   2.303  14.072 -0.2348  0.0793  0.3409
  278TMC3    C5 4251   1.840   2.244  14.163 -0.2734  0.5478 -0.4969
  278TMC3    C6 4252   1.790   2.116  14.137 -0.0611  0.4638  0.0271
  278TMC3     C 4253   2.052   2.286  13.865  0.0643  0.2250 -0.3916
  278TMC3     O 4254   2.120   2.202  13.800  0.0620 -0.3063 -0.8038
  278TMC3     H 4255   1.916   2.060  13.834  0.2344 -1.7473  1.3898
  278TMC3    H1 4256   1.957   2.402  14.095  0.0287 -0.1504  0.8706
  278TMC3    H2 4257   1.735   2.052  14.205  1.4196  0.3329  1.0768
  278TMC3    C7 4258   1.783   2.316  14.276  0.0641  0.2418 -0.1296
  278TMC3    C8 4259   1.763   1.919  14.006 -0.1194 -0.0852  0.1357
  278TMC3    O1 4260   1.862   2.377  14.344 -0.3330 -0.2726  0.2905
  278TMC3    O2 4261   1.738   1.860  14.109 -0.2622 -0.1844 -0.0232
  279MPD2     C 4262   1.813   2.350   0.400 -0.2594  1.1488 -0.5290
  279MPD2    C1 4263   1.700   2.398   0.335  0.2925  0.5057 -0.4982
  279MPD2    C2 4264   1.707   2.428   0.202  0.9722  0.5453 -0.0730
  279MPD2    C3 4265   1.822   2.417   0.130  0.3384 -0.1519 -0.0572
  279MPD2    C4 4266   1.936   2.383   0.192 -0.5964 -0.0985  0.5856
  279MPD2    C5 4267   1.932   2.354   0.328 -0.8661 -0.0204  0.1526
  279MPD2     H 4268   1.621   2.473   0.155 -1.0105  0.3694  3.4596
  279MPD2    H1 4269   2.038   2.392   0.157  0.3414 -0.5571  3.2307
  279MPD2    H2 4270   1.805   2.336   0.507  0.8274 -1.3576 -0.7705
  279MPD2    H3 4271   2.021   2.325   0.382 -1.2253  0.0386  0.7768
  279MPD2     N 4272   1.834   2.439  17.748 -0.5580 -0.8482  0.2237
  279MPD2    H5 4273   1.927   2.467  17.716 -1.2207  1.1102  0.0055
  279MPD2    N1 4274   1.586   2.412   0.413  0.5723  0.5538  0.1824
  279MPD2    H7 4275   1.587   2.376   0.508 -1.8459  0.5634  0.2095
  280TMC3    C1 4276   1.385   2.494   0.482 -0.1277 -0.1121  0.5296
  280TMC3    C2 4277   1.386   2.404   0.583 -0.4298  0.0788 -0.6250
  280TMC3    C3 4278   1.339   2.456   0.705  0.3907 -0.0336  0.2448
  280TMC3    C4 4279   1.330   2.615   0.484  0.2844 -0.2763  0.7431
  280TMC3    C5 4280   1.277   2.652   0.601 -0.6272  0.1481 -0.2025
  280TMC3    C6 4281   1.295   2.581   0.714  0.3373  0.3518  0.1464
  280TMC3     C 4282   1.472   2.472   0.372  0.1942  0.2471  0.2888
  280TMC3     O 4283   1.446   2.536   0.272  0.4370 -0.6103 -0.1122
  280TMC3     H 4284   1.424   2.303   0.575 -1.2410 -0.2162 -0.7684
  280TMC3    H1 4285   1.339   2.684   0.401  3.7094 -0.8218  0.6601
  280TMC3    H2 4286   1.262   2.614   0.812  0.1528  0.6556 -0.0172
  280TMC3    C7 4287   1.254   2.793   0.620  0.1017  0.8394 -0.6466
  280TMC3    C8 4288   1.356   2.372   0.823  0.4393  0.4111  0.0217
  280TMC3    O1 4289   1.296   2.843   0.723  0.2639  0.0800  0.6937
  280TMC3    O2 4290   1.417   2.422   0.915 -0.1474  0.1121  0.1778
  281TMC3    C1 4291   0.143   3.045  13.973 -0.4387  0.7662 -0.6222
  281TMC3    C2 4292   0.094   3.125  13.873 -0.3080 -0.2061 -0.1414
  281TMC3    C3 4293   0.180   3.204  13.800  0.7090  0.6025  0.1981
  281TMC3    C4 4294   0.279   3.039  13.985 -0.4674 -0.1431  0.1580
  281TMC3    C5 4295   0.365   3.103  13.901 -0.5039  0.3294 -0.1444
  281TMC3    C6 4296   0.317   3.199  13.810  0.1744 -0.4726 -0.3093
  281TMC3     C 4297   0.086   2.914  13.971  0.4776  0.1769 -0.3494
  281TMC3     O 4298   0.164   2.825  13.937  0.1318 -0.0063  0.1745
  281TMC3     H 4299   4.729   3.146  13.850 -0.7461 -1.8841  0.3273
  281TMC3    H1 4300   0.317   2.963  14.053  0.4668 -0.5348 -0.8032
  281TMC3    H2 4301   0.383   3.247  13.738  0.3962  0.6149  0.6220
  281TMC3    C7 4302   0.478   3.025  13.843 -0.8060  0.1695 -0.4963
  281TMC3    C8 4303   0.132   3.232  13.668 -0.6766 -0.4064 -0.2145
  281TMC3    O1 4304   0.584   3.073  13.798 -0.0938  0.4788  0.0534
  281TMC3    O2 4305   0.166   3.342  13.619  0.4003 -0.2007 -0.2131
  282MPD2     C 4306   2.193   4.017  15.072  0.3457 -0.8610 -0.2883
  282MPD2    C1 4307   2.079   4.040  15.151 -0.0938  0.1333 -0.3322
  282MPD2    C2 4308   1.950   4.005  15.097  0.8687  0.4019  0.6667
  282MPD2    C3 4309   1.943   3.947  14.975 -0.7872  0.1934  0.5048
  282MPD2    C4 4310   2.054   3.931  14.899  0.8402 -0.3358 -0.2607
  282MPD2    C5 4311   2.183   3.958  14.943  0.6308 -0.9251  0.1148
  282MPD2     H 4312   1.856   4.014  15.152 -0.2585 -0.2098 -1.1675
  282MPD2    H1 4313   2.040   3.889  14.800  0.5069 -0.2530 -0.2502
  282MPD2    H2 4314   2.290   4.052  15.103 -0.0165 -0.5527  0.5015
  282MPD2    H3 4315   2.275   3.950  14.885  0.0641 -1.3452 -0.7202
  282MPD2     N 4316   1.810   3.947  14.919  0.1280 -0.4454 -0.3483
  282MPD2    H5 4317   1.739   3.997  14.971 -0.2640 -0.9406 -0.4134
  282MPD2    N1 4318   2.092   4.081  15.281  0.5656 -0.3328 -0.3627
  282MPD2    H7 4319   2.004   4.070  15.331  1.9548 -0.5702  2.0571
  283TMC3    C1 4320   2.169   4.145  15.490  1.0295  0.2464  0.0186
  283TMC3    C2 4321   2.242   4.252  15.544  0.1892 -0.7367 -0.5740
  283TMC3    C3 4322   2.222   4.266  15.681  0.2699  0.9563  0.1271
  283TMC3    C4 4323   2.083   4.061  15.553  0.0086 -0.1924  0.6905
  283TMC3    C5 4324   2.070   4.079  15.688 -0.1558  0.4379 -0.4032
  283TMC3    C6 4325   2.127   4.186  15.753  0.1143  0.0601  0.5855
  283TMC3     C 4326   2.207   4.123  15.347 -0.6020 -0.6766 -0.3320
  283TMC3     O 4327   2.320   4.157  15.309  0.0062  0.0935 -0.3127
  283TMC3     H 4328   2.320   4.305  15.491 -0.0191  0.5369  0.3848
  283TMC3    H1 4329   2.048   3.971  15.504 -1.4202  0.1686  1.0259
  283TMC3    H2 4330   2.109   4.207  15.857  1.7295  1.6722  0.5543
  283TMC3    C7 4331   1.976   4.002  15.772 -0.0494 -0.8225 -0.1422
  283TMC3    C8 4332   2.291   4.365  15.755  0.2418 -0.2478 -0.4716
  283TMC3    O1 4333   1.962   4.034  15.889 -0.7696 -0.2069 -0.2930
  283TMC3    O2 4334   2.309   4.339  15.872  0.0508  0.5892 -0.8107
  284MPD2     C 4335   4.177   3.110  12.125 -0.0673  0.0674  0.0510
  284MPD2    C1 4336   4.296   3.044  12.122 -0.2673 -0.2671  0.1908
  284MPD2    C2 4337   4.340   2.968  12.226 -0.3277  1.2260  0.0199
  284MPD2    C3 4338   4.266   2.972  12.341  0.5063  0.7865 -0.0917
  284MPD2    C4 4339   4.145   3.036  12.344  0.1672 -0.7055 -0.1510
  284MPD2    C5 4340   4.096   3.100  12.239 -0.2925  0.1405  0.3748
  284MPD2     H 4341   4.443   2.932  12.223 -0.5363  0.6328  0.0930
  284MPD2    H1 4342   4.090   3.030  12.438  0.0167 -2.4505 -0.3578
  284MPD2    H2 4343   4.137   3.169  12.043 -0.2452  2.4780  1.8636
  284MPD2    H3 4344   4.008   3.162  12.246  0.9454  1.5857  3.0173
  284MPD2     N 4345   4.310   2.924  12.464  0.5141 -0.1274 -0.1581
  284MPD2    H5 4346   4.265   2.949  12.552 -0.4014 -1.8420 -0.1408
  284MPD2    N1 4347   4.396   3.060  12.015  0.3319  0.2249 -0.2548
  284MPD2    H7 4348   4.466   2.987  12.002 -1.9732 -1.7948 -1.1523
  285TMC3    C1 4349   4.525   3.198  11.871  0.1332  0.8010 -0.4114
  285TMC3    C2 4350   4.617   3.097  11.859 -0.2595  0.7689  0.3489
  285TMC3    C3 4351   0.006   3.138  11.860  0.2434  0.3361 -0.3313
  285TMC3    C4 4352   4.556   3.334  11.872 -0.4345  1.0274 -0.3823
  285TMC3    C5 4353   4.685   3.366  11.856  0.1329 -0.9395  0.2237
  285TMC3    C6 4354   0.041   3.273  11.848 -0.5864 -0.0344  0.0402
  285TMC3     C 4355   4.399   3.178  11.938 -0.5422 -0.5628  0.7826
  285TMC3     O 4356   4.314   3.266  11.912  0.4013 -0.0439 -0.2702
  285TMC3     H 4357   4.591   2.992  11.856  0.2285  0.7235 -2.5882
  285TMC3    H1 4358   4.474   3.405  11.879 -1.2593  0.0362  0.0970
  285TMC3    H2 4359   0.141   3.308  11.826 -1.3959  1.0023 -2.0277
  285TMC3    C7 4360   4.718   3.503  11.891 -0.1734 -0.2459 -0.3402
  285TMC3    C8 4361   0.089   3.043  11.799  0.4107  0.0525 -1.4835
  285TMC3    O1 4362   4.645   3.593  11.851 -0.1441 -0.7044 -0.6750
  285TMC3    O2 4363   0.039   2.936  11.764 -0.4073  0.0553  0.1999
  286MPD2     C 4364   0.688   2.502   1.442  0.2483  0.0002  0.5130
  286MPD2    C1 4365   0.713   2.406   1.349 -0.9688  0.2827  0.8517
  286MPD2    C2 4366   0.764   2.286   1.394 -0.1786 -0.0223 -0.3911
  286MPD2    C3 4367   0.810   2.277   1.520  0.0056  0.1625 -0.0521
  286MPD2    C4 4368   0.780   2.372   1.615 -0.3513 -0.4448 -0.4441
  286MPD2    C5 4369   0.720   2.487   1.574 -0.0484  0.8571 -0.1273
  286MPD2     H 4370   0.774   2.201   1.328 -1.8367 -1.4947  1.2693
  286MPD2    H1 4371   0.803   2.356   1.720 -0.4337 -1.0170 -0.5131
  286MPD2    H2 4372   0.643   2.595   1.411 -2.6899 -1.1514  1.2488
  286MPD2    H3 4373   0.706   2.565   1.648  1.5592  0.4422  0.6269
  286MPD2     N 4374   0.857   2.154   1.568  0.1289 -0.2266  0.3084
  286MPD2    H5 4375   0.906   2.157   1.656  0.2718 -2.5759  0.3169
  286MPD2    N1 4376   0.689   2.416   1.213 -0.4561  0.2061  0.0003
  286MPD2    H7 4377   0.713   2.332   1.162  0.5532  0.7844 -0.4773
  287TMC3    C1 4378   0.933   1.922   1.564 -0.4461  0.2949 -0.2288
  287TMC3    C2 4379   0.911   1.798   1.516 -0.6533 -0.2787 -1.0489
  287TMC3    C3 4380   1.006   1.701   1.516 -0.4282 -0.4840 -0.4427
  287TMC3    C4 4381   1.062   1.958   1.595  0.1994 -0.0301 -0.8449
  287TMC3    C5 4382   1.152   1.861   1.613 -0.3111  0.1854  0.2003
  287TMC3    C6 4383   1.131   1.729   1.571 -0.1241  0.0023 -0.3315
  287TMC3     C 4384   0.846   2.026   1.511  0.1687 -0.1092  0.1203
  287TMC3     O 4385   0.781   1.984   1.415 -0.0141  0.0660 -0.4171
  287TMC3     H 4386   0.815   1.768   1.476 -0.0677 -0.4322 -2.3307
  287TMC3    H1 4387   1.081   2.058   1.634  3.3656 -0.4263 -1.4035
  287TMC3    H2 4388   1.209   1.654   1.574 -1.0461 -0.8323  2.2460
  287TMC3    C7 4389   1.263   1.890   1.701 -0.7933  0.1371 -0.7633
  287TMC3    C8 4390   0.993   1.615   1.404  0.5633 -0.2345  1.2121
  287TMC3    O1 4391   1.242   1.980   1.785 -0.1248 -0.5378 -0.2001
  287TMC3    O2 4392   0.881   1.568   1.393  0.2227 -0.3915 -0.8356
  288TMC3    C1 4393   2.423   1.762  14.148 -0.6156 -1.0057  0.2096
  288TMC3    C2 4394   2.453   1.718  14.275  0.0976 -0.3528  0.3294
  288TMC3    C3 4395   2.359   1.642  14.344  0.0532  0.7367  0.0297
  288TMC3    C4 4396   2.302   1.728  14.090  0.2157 -0.3664  0.2255
  288TMC3    C5 4397   2.220   1.647  14.157  0.4248  0.1477 -0.1208
  288TMC3    C6 4398   2.239   1.604  14.288 -0.5246  0.1020 -0.3785
  288TMC3     C 4399   2.522   1.864  14.093  0.3121 -0.6737  0.5271
  288TMC3     O 4400   2.626   1.885  14.157  0.5260 -0.1086 -0.0318
  288TMC3     H 4401   2.557   1.715  14.305  0.3540 -1.2480 -0.6478
  288TMC3    H1 4402   2.294   1.755  13.985  1.6079  0.3908  0.3071
  288TMC3    H2 4403   2.168   1.537  14.334 -0.5175  1.0577  0.9996
  288TMC3    C7 4404   2.120   1.580  14.072  0.9680  0.8602 -0.2893
  288TMC3    C8 4405   2.374   1.635  14.491  0.2078  0.2417  0.7016
  288TMC3    O1 4406   2.066   1.645  13.981  0.4894 -0.3558 -0.7999
  288TMC3    O2 4407   2.474   1.687  14.541  0.4313  0.4158 -0.0015
  289MPD2     C 4408   2.315   1.083  14.923  0.1868  0.3293  0.5364
  289MPD2    C1 4409   2.332   1.086  14.784  0.2920 -0.2551 -0.5993
  289MPD2    C2 4410   2.235   1.032  14.699 -0.1296 -0.7026  0.0679
  289MPD2    C3 4411   2.120   0.981  14.747  0.1567 -0.0791 -1.1223
  289MPD2    C4 4412   2.097   0.989  14.884 -0.4079  0.2286 -0.1592
  289MPD2    C5 4413   2.197   1.032  14.973 -0.3748 -0.3693  0.2931
  289MPD2     H 4414   2.265   1.008  14.598 -0.3617 -1.2488  0.1273
  289MPD2    H1 4415   2.001   0.951  14.918  0.7915  0.0182  2.9742
  289MPD2    H2 4416   2.385   1.127  14.993  0.5679 -0.6828  0.7917
  289MPD2    H3 4417   2.186   1.024  15.080  0.7058 -1.1335  0.3502
  289MPD2     N 4418   2.017   0.922  14.668 -0.3536  0.4514  0.2157
  289MPD2    H5 4419   1.930   0.902  14.717  0.3014 -3.0664 -0.0795
  289MPD2    N1 4420   2.440   1.158  14.737 -0.2840 -0.5604  0.2249
  289MPD2    H7 4421   2.512   1.188  14.803 -2.1865 -0.2184  2.1774
  290TMC3    C1 4422   1.885   0.912  14.474  0.3401 -0.0579  0.0830
  290TMC3    C2 4423   1.861   0.993  14.365 -0.4146 -0.1965 -0.2577
  290TMC3    C3 4424   1.729   1.005  14.323 -0.2616 -0.2089 -0.2141
  290TMC3    C4 4425   1.792   0.830  14.530 -0.1557 -0.1518 -0.9228
  290TMC3    C5 4426   1.665   0.835  14.474  0.3378 -0.1318 -0.4506
  290TMC3    C6 4427   1.629   0.934  14.391 -0.0728 -0.3199 -0.8119
  290TMC3     C 4428   2.018   0.928  14.533 -0.2390  0.1706  0.0171
  290TMC3     O 4429   2.102   0.981  14.458  0.4550 -0.4281 -0.0521
  290TMC3     H 4430   1.933   1.057  14.315 -0.2603  0.1034  0.3530
  290TMC3    H1 4431   1.821   0.754  14.602 -1.6970 -0.0136 -0.1567
  290TMC3    H2 4432   1.526   0.929  14.359 -0.7753  2.8558  0.9765
  290TMC3    C7 4433   1.566   0.740  14.507  0.2132 -0.2968 -0.0247
  290TMC3    C8 4434   1.689   1.123  14.247 -0.2357  0.1220  0.2578
  290TMC3    O1 4435   1.452   0.788  14.526  0.3908 -0.2232 -0.0706
  290TMC3    O2 4436   1.582   1.108  14.195 -0.2020  0.3239  0.9784
  291MPD2     C 4437   1.546   1.461   0.231 -0.2775 -0.0892  0.2534
  291MPD2    C1 4438   1.594   1.414   0.351 -0.2935  0.0739 -0.1322
  291MPD2    C2 4439   1.671   1.499   0.429 -0.1342  0.0577 -0.5217
  291MPD2    C3 4440   1.685   1.638   0.404 -0.9658  0.5113 -0.1405
  291MPD2    C4 4441   1.629   1.688   0.296 -0.4145 -0.0317  0.5432
  291MPD2    C5 4442   1.562   1.596   0.216  0.8521 -0.0430 -0.0541
  291MPD2     H 4443   1.711   1.445   0.514 -2.0336  1.0079  0.9596
  291MPD2    H1 4444   1.656   1.788   0.264  0.8647 -1.1799 -1.9538
  291MPD2    H2 4445   1.480   1.417   0.157 -1.1656 -0.0488  1.0157
  291MPD2    H3 4446   1.524   1.651   0.130 -0.1094  1.9982  1.6693
  291MPD2     N 4447   1.761   1.721   0.487  0.1340 -0.4822 -0.0139
  291MPD2    H5 4448   1.761   1.819   0.464  2.1721 -0.6643 -0.7569
  291MPD2    N1 4449   1.566   1.286   0.397 -0.0671  0.2310  0.3731
  291MPD2    H7 4450   1.587   1.269   0.495  3.6031  1.3631 -0.2258
  292TMC3    C1 4451   1.486   1.065   0.401  0.4729 -0.4684  0.3538
  292TMC3    C2 4452   1.507   1.064   0.537 -0.0630  0.0126 -0.1674
  292TMC3    C3 4453   1.500   0.944   0.595 -0.1761 -0.5994 -0.1642
  292TMC3    C4 4454   1.477   0.954   0.324 -0.3741 -0.2601  0.7313
  292TMC3    C5 4455   1.482   0.840   0.391 -0.6960  0.3462 -0.3773
  292TMC3    C6 4456   1.495   0.827   0.523 -0.0751  0.0734 -1.0688
  292TMC3     C 4457   1.511   1.186   0.321  0.5982  0.0951 -0.2361
  292TMC3     O 4458   1.468   1.179   0.207  0.1961 -0.0860 -0.5004
  292TMC3     H 4459   1.490   1.152   0.598 -3.1266  0.4702 -1.6777
  292TMC3    H1 4460   1.477   0.955   0.216 -2.3502 -1.0441  0.7347
  292TMC3    H2 4461   1.497   0.731   0.574  2.7277 -0.4265 -2.1138
  292TMC3    C7 4462   1.476   0.720   0.307 -0.5711  0.4042 -0.0363
  292TMC3    C8 4463   1.486   0.936   0.738  0.2830  0.2101 -0.2431
  292TMC3    O1 4464   1.527   0.620   0.353  0.1528 -1.1882  0.3007
  292TMC3    O2 4465   1.546   1.011   0.814 -0.1538 -0.0191  0.0096
  293MPD2     C 4466   3.538   2.427  12.628  0.2842  0.5401 -0.1377
  293MPD2    C1 4467   3.411   2.412  12.683  0.5349  0.1655  0.5098
  293MPD2    C2 4468   3.389   2.395  12.822  0.5756  0.4866  0.6245
  293MPD2    C3 4469   3.505   2.371  12.901  0.0925 -0.1772 -0.6106
  293MPD2    C4 4470   3.632   2.383  12.841  0.2073  0.4609 -0.4874
  293MPD2    C5 4471   3.646   2.414  12.711  0.1032 -0.2736  0.0095
  293MPD2     H 4472   3.288   2.397  12.862  0.4417  1.8426  0.2144
  293MPD2    H1 4473   3.719   2.388  12.906  0.0689 -1.1052 -0.1635
  293MPD2    H2 4474   3.565   2.451  12.526 -2.2326  0.2580 -0.8849
  293MPD2    H3 4475   3.750   2.413  12.681  0.6424 -1.2106  1.9187
  293MPD2     N 4476   3.495   2.322  13.034 -0.6744 -0.4872  0.0521
  293MPD2    H5 4477   3.399   2.318  13.068 -1.3778 -0.3011 -1.8967
  293MPD2    N1 4478   3.310   2.422  12.589  0.2547  0.0843  0.8657
  293MPD2    H7 4479   3.341   2.431  12.493  1.3454 -2.0848  1.0248
  294TMC3    C1 4480   3.108   2.379  12.481  0.0365 -0.4601 -0.7459
  294TMC3    C2 4481   2.997   2.298  12.504  0.4385 -0.0691  0.4090
  294TMC3    C3 4482   2.936   2.233  12.397 -0.2525  0.8105  0.5069
  294TMC3    C4 4483   3.189   2.366  12.370  0.3889 -0.1211  0.1216
  294TMC3    C5 4484   3.132   2.279  12.275 -0.6322  0.3934 -0.1715
  294TMC3    C6 4485   3.008   2.227  12.283  0.5471  0.1468 -0.6119
  294TMC3     C 4486   3.176   2.407  12.606  0.2828  0.3218  0.2506
  294TMC3     O 4487   3.117   2.386  12.707 -0.1995  0.3007  0.7375
  294TMC3     H 4488   2.947   2.295  12.600  1.2780  0.8448  0.8668
  294TMC3    H1 4489   3.277   2.420  12.339  0.6537 -0.3809  0.4097
  294TMC3    H2 4490   2.970   2.187  12.190  2.2429 -0.5243 -1.0294
  294TMC3    C7 4491   3.179   2.296  12.140  0.1733 -0.4149 -0.2293
  294TMC3    C8 4492   2.848   2.118  12.428 -0.6910  0.1610  0.8514
  294TMC3    O1 4493   3.101   2.329  12.048 -0.1525 -0.1771 -0.1076
  294TMC3    O2 4494   2.782   2.128  12.530  0.3594 -0.3668 -0.0126
  295MPD2     C 4495   4.503   1.048   0.819  0.8621  0.2354 -0.0078
  295MPD2    C1 4496   4.385   1.033   0.748 -0.3262 -0.9646  0.0715
  295MPD2    C2 4497   4.288   0.967   0.808 -0.3829 -0.1260  0.3588
  295MPD2    C3 4498   4.304   0.907   0.929 -0.1252 -0.3907 -0.2929
  295MPD2    C4 4499   4.424   0.912   0.996 -0.6267 -0.0639 -0.3205
  295MPD2    C5 4500   4.526   0.984   0.944 -0.4958 -0.4572 -0.4845
  295MPD2     H 4501   4.192   0.959   0.758  0.8117 -0.1239 -1.9056
  295MPD2    H1 4502   4.434   0.863   1.093  0.9816  0.5773 -0.1640
  295MPD2    H2 4503   4.583   1.109   0.778 -0.0326  0.6452 -1.1305
  295MPD2    H3 4504   4.619   0.991   0.999  0.5925 -0.0734 -2.3779
  295MPD2     N 4505   4.199   0.849   1.002  0.8654 -0.3419 -0.2873
  295MPD2    H5 4506   4.223   0.834   1.100 -0.5985 -0.1581  0.1010
  295MPD2    N1 4507   4.354   1.109   0.633 -0.0032 -0.3283  0.3211
  295MPD2    H7 4508   4.259   1.100   0.599  0.4038 -0.6991 -0.7133
  296TMC3    C1 4509   3.986   0.778   1.069 -0.0416  0.5210  0.1610
  296TMC3    C2 4510   3.848   0.775   1.041  0.0121  0.5794 -0.5678
  296TMC3    C3 4511   3.773   0.693   1.120 -0.6245  0.0455  0.2224
  296TMC3    C4 4512   4.046   0.683   1.146  0.7637 -0.7027  0.0335
  296TMC3    C5 4513   3.961   0.593   1.211  0.5451 -0.6047 -0.0240
  296TMC3    C6 4514   3.825   0.600   1.206 -0.7236  0.0771  0.4135
  296TMC3     C 4515   4.070   0.841   0.962  0.6467 -0.0212 -0.3400
  296TMC3     O 4516   4.011   0.860   0.855  0.0761 -0.7907 -0.0686
  296TMC3     H 4517   3.805   0.852   0.978 -0.8951 -1.1240 -2.0210
  296TMC3    H1 4518   4.153   0.674   1.165  0.6497  0.2890  1.1197
  296TMC3    H2 4519   3.763   0.540   1.270  2.0064 -0.9061  2.1483
  296TMC3    C7 4520   4.023   0.475   1.279  0.6171 -0.2296 -0.4056
  296TMC3    C8 4521   3.638   0.735   1.150  0.4119  0.3780 -0.3266
  296TMC3    O1 4522   4.146   0.460   1.267 -0.3012 -0.4033 -0.3798
  296TMC3    O2 4523   3.565   0.655   1.207  0.1923 -0.0797  0.2611
  297MPD2     C 4524   1.274   2.926  16.561 -0.5171  0.3845 -0.0913
  297MPD2    C1 4525   1.246   3.007  16.459  0.5354  0.0015 -0.1651
  297MPD2    C2 4526   1.330   3.112  16.429  0.0689  0.0336 -0.0607
  297MPD2    C3 4527   1.428   3.149  16.521  0.5053 -0.9709 -0.0153
  297MPD2    C4 4528   1.453   3.073  16.626 -0.3055 -0.2011 -0.5439
  297MPD2    C5 4529   1.372   2.966  16.650 -0.1792  0.7759  0.6314
  297MPD2     H 4530   1.318   3.168  16.337  6.1182  0.0951 -0.7517
  297MPD2    H1 4531   1.544   3.087  16.682 -0.9152 -1.2551  0.6985
  297MPD2    H2 4532   1.223   2.834  16.586 -1.0281  0.9041  0.7815
  297MPD2    H3 4533   1.392   2.894  16.729 -0.5127  0.7219  0.6689
  297MPD2     N 4534   1.486   3.277  16.499 -0.9910 -0.7935  0.0580
  297MPD2    H5 4535   1.482   3.324  16.409  0.5460  1.8559  1.3559
  297MPD2    N1 4536   1.137   2.984  16.369  0.5404 -0.1294  0.2018
  297MPD2    H7 4537   1.133   3.054  16.296 -3.3448 -1.0105 -0.4498
  298TMC3    C1 4538   0.935   2.899  16.294 -0.1371  0.1873 -0.5272
  298TMC3    C2 4539   0.980   2.902  16.169 -0.0155  0.2419  0.1579
  298TMC3    C3 4540   0.890   2.934  16.069  0.0089 -0.4249 -0.6321
  298TMC3    C4 4541   0.815   2.930  16.336  0.7626 -0.5042  0.1769
  298TMC3    C5 4542   0.731   2.986  16.239 -0.1285  1.0497  0.0877
  298TMC3    C6 4543   0.764   2.988  16.107  0.1751  0.0483 -0.0257
  298TMC3     C 4544   1.032   2.897  16.398  0.5356  0.5158  0.7035
  298TMC3     O 4545   1.006   2.854  16.510 -0.1396 -0.6997 -0.6288
  298TMC3     H 4546   1.078   2.863  16.145 -0.3395 -0.4858  0.0035
  298TMC3    H1 4547   0.791   2.951  16.439 -1.2837  1.1112 -0.6036
  298TMC3    H2 4548   0.692   3.013  16.030 -0.2701 -0.2324  0.3014
  298TMC3    C7 4549   0.620   3.068  16.288  0.2790 -0.2023  0.7683
  298TMC3    C8 4550   0.923   2.916  15.934 -0.2640 -0.4175 -0.0796
  298TMC3    O1 4551   0.628   3.100  16.406  1.1451  0.2990  0.0852
  298TMC3    O2 4552   1.028   2.858  15.916 -0.1036  0.2911 -0.1183
  299MPD2     C 4553   1.689   2.162  11.557  0.5356 -0.2367  0.0948
  299MPD2    C1 4554   1.714   2.261  11.470 -0.1727 -0.0020  0.0222
  299MPD2    C2 4555   1.671   2.253  11.340  0.2520 -0.1410 -0.6765
  299MPD2    C3 4556   1.606   2.138  11.301 -0.1034  0.5678 -1.0714
  299MPD2    C4 4557   1.592   2.038  11.404 -0.7384 -0.4242 -0.4571
  299MPD2    C5 4558   1.627   2.047  11.531 -0.4358 -0.1518  0.1458
  299MPD2     H 4559   1.685   2.338  11.274  0.5831  0.9062  0.7379
  299MPD2    H1 4560   1.523   1.954  11.398 -1.3416  0.0053  0.4852
  299MPD2    H2 4561   1.722   2.171  11.660 -1.5093  0.6393  0.6742
  299MPD2    H3 4562   1.613   1.969  11.605 -1.0959 -1.4712 -1.3751
  299MPD2     N 4563   1.538   2.129  11.176 -0.2534 -0.3232 -1.2472
  299MPD2    H5 4564   1.464   2.060  11.175  2.0362 -2.8095  0.4647
  299MPD2    N1 4565   1.764   2.376  11.532 -0.4025 -0.3290 -0.4450
  299MPD2    H7 4566   1.769   2.374  11.633  1.6488 -0.8911 -0.5548
  300TMC3    C1 4567   1.468   2.215  10.968 -0.1676  0.1109  0.8853
  300TMC3    C2 4568   1.447   2.344  10.929  0.1304  0.7266 -0.2891
  300TMC3    C3 4569   1.316   2.388  10.907 -0.3582 -0.2854 -0.5871
  300TMC3    C4 4570   1.356   2.131  10.980 -0.2031 -0.2487  0.0949
  300TMC3    C5 4571   1.234   2.185  10.957  0.3048  0.2167 -0.2786
  300TMC3    C6 4572   1.210   2.313  10.920 -0.6077  0.4844  1.8497
  300TMC3     C 4573   1.574   2.203  11.064 -0.7393  0.6543 -0.4677
  300TMC3     O 4574   1.671   2.281  11.061  0.2871  0.0722  0.5767
  300TMC3     H 4575   1.530   2.413  10.920  1.9796 -1.0120  3.3082
  300TMC3    H1 4576   1.357   2.026  11.009 -0.7529 -0.7348 -1.6878
  300TMC3    H2 4577   1.107   2.344  10.907 -0.1857  0.6327 -1.1112
  300TMC3    C7 4578   1.121   2.096  10.967  0.0022  0.7093 -0.5687
  300TMC3    C8 4579   1.302   2.530  10.890  0.0990  0.1880 -0.3429
  300TMC3    O1 4580   1.143   1.980  10.944  0.2095 -0.1341 -0.3119
  300TMC3    O2 4581   1.384   2.595  10.954  0.2508  0.0461  0.4676
  301MPD2     C 4582   4.288   4.209   1.226 -0.7287  0.4710  0.7079
  301MPD2    C1 4583   4.165   4.146   1.217  0.2233 -0.3013 -0.0648
  301MPD2    C2 4584   4.152   4.011   1.193  0.1320  0.1350 -0.3653
  301MPD2    C3 4585   4.263   3.939   1.163  0.5074  0.9089  0.2131
  301MPD2    C4 4586   4.391   3.997   1.177  0.2720  0.5443  0.7544
  301MPD2    C5 4587   4.392   4.131   1.203  0.0087 -0.3127  0.0642
  301MPD2     H 4588   4.053   3.966   1.202  0.1601  0.0596 -0.4282
  301MPD2    H1 4589   4.481   3.941   1.156 -1.8618 -2.2210 -1.0040
  301MPD2    H2 4590   4.315   4.311   1.250 -0.0225  0.0562  1.6778
  301MPD2    H3 4591   4.492   4.172   1.210 -0.4755  1.0177 -0.8637
  301MPD2     N 4592   4.259   3.805   1.120  0.3855  0.1851  0.4203
  301MPD2    H5 4593   4.351   3.762   1.120  0.8415  1.1827  1.7646
  301MPD2    N1 4594   4.049   4.202   1.265 -0.0299 -0.1287  0.1868
  301MPD2    H7 4595   3.971   4.137   1.266 -0.6499  0.6224  1.1613
  302TMC3    C1 4596   4.166   3.600   1.043  0.5336  0.1822  0.2953
  302TMC3    C2 4597   4.266   3.524   1.093 -0.0875  1.0664  0.3541
  302TMC3    C3 4598   4.253   3.384   1.094  0.4958 -1.0753 -0.0509
  302TMC3    C4 4599   4.058   3.546   0.971 -0.5009  0.4661  0.0742
  302TMC3    C5 4600   4.042   3.408   0.979  1.3488 -0.1379 -0.4811
  302TMC3    C6 4601   4.139   3.323   1.034  0.3856 -0.6268  0.6318
  302TMC3     C 4602   4.146   3.742   1.079  0.2353  0.0516  0.4608
  302TMC3     O 4603   4.054   3.798   1.022  0.0103  0.4122  0.0706
  302TMC3     H 4604   4.350   3.575   1.138 -1.2227  3.2081  0.0420
  302TMC3    H1 4605   3.993   3.616   0.920  1.6150  2.2291 -0.2036
  302TMC3    H2 4606   4.139   3.216   1.018 -0.0905 -0.8343  1.9804
  302TMC3    C7 4607   3.926   3.348   0.916 -0.0523  0.5176  0.7808
  302TMC3    C8 4608   4.340   3.298   1.169  0.1202 -0.1124  0.1797
  302TMC3    O1 4609   3.928   3.229   0.888 -0.3427 -0.1414 -0.2974
  302TMC3    O2 4610   4.324   3.177   1.168 -0.6215  0.0251 -0.5402
  303MPD2     C 4611   3.878   1.948  10.749  0.3534 -0.6768  0.3076
  303MPD2    C1 4612   3.906   1.815  10.741  1.0025  0.1839 -0.7788
  303MPD2    C2 4613   4.019   1.765  10.678  0.3677  1.1243 -0.2946
  303MPD2    C3 4614   4.091   1.852  10.598 -0.2486  0.2172  0.3368
  303MPD2    C4 4615   4.073   1.981  10.614 -0.0117  0.3862  0.0223
  303MPD2    C5 4616   3.967   2.030  10.685 -0.5457  0.3900 -0.5706
  303MPD2     H 4617   4.033   1.658  10.677 -1.6380  0.8540 -0.4002
  303MPD2    H1 4618   4.136   2.050  10.560  0.4508  0.7247  1.0041
  303MPD2    H2 4619   3.787   1.987  10.793  0.0732 -1.0665  0.0787
  303MPD2    H3 4620   3.950   2.137  10.695 -1.4193  0.2738 -0.8176
  303MPD2     N 4621   4.199   1.815  10.513 -0.2907  0.8322  0.0830
  303MPD2    H5 4622   4.252   1.893  10.474 -0.9880  0.2386 -2.0337
  303MPD2    N1 4623   3.805   1.733  10.803  0.7832  1.0458 -0.2875
  303MPD2    H7 4624   3.734   1.786  10.851 -1.4146 -2.3061  0.0971
  304TMC3    C1 4625   3.688   1.551  10.890  0.3848 -0.2777  0.3096
  304TMC3    C2 4626   3.571   1.600  10.836  0.0624 -0.3658 -0.0208
  304TMC3    C3 4627   3.455   1.529  10.814  0.3086 -0.2943  0.0744
  304TMC3    C4 4628   3.691   1.418  10.911 -0.0734  0.8413  0.2989
  304TMC3    C5 4629   3.575   1.348  10.898  0.0169 -0.2854 -0.1371
  304TMC3    C6 4630   3.454   1.406  10.859  0.5552 -0.3541 -0.0654
  304TMC3     C 4631   3.810   1.601  10.831 -0.2655 -0.2380 -0.2093
  304TMC3     O 4632   3.901   1.518  10.812 -0.6333  0.0800  0.4316
  304TMC3     H 4633   3.572   1.703  10.804 -0.6763 -0.6041 -0.8123
  304TMC3    H1 4634   3.782   1.360  10.918  0.0121  0.8608 -0.6111
  304TMC3    H2 4635   3.370   1.338  10.845 -0.9428  0.8283  3.1272
  304TMC3    C7 4636   3.596   1.239  10.801 -0.1503  0.6186  0.0472
  304TMC3    C8 4637   3.358   1.573  10.716  0.3076  0.2688  0.3469
  304TMC3    O1 4638   3.542   1.266  10.691 -0.1989  0.4170  0.3512
  304TMC3    O2 4639   3.325   1.692  10.700 -0.3062 -0.1653 -0.1037
  305MPD2     C 4640   2.201   4.361  14.457  0.2092  0.1661 -0.1614
  305MPD2    C1 4641   2.268   4.245  14.493  0.4890  0.7718 -0.1869
  305MPD2    C2 4642   2.249   4.135  14.416 -0.0451 -0.3378  0.0574
  305MPD2    C3 4643   2.163   4.149  14.304  0.7133  0.2237  0.0006
  305MPD2    C4 4644   2.104   4.269  14.265 -0.1466  0.0415  0.0080
  305MPD2    C5 4645   2.135   4.378  14.343 -0.0208 -0.1816 -0.5860
  305MPD2     H 4646   2.279   4.038  14.455 -0.4125 -0.6499 -0.4253
  305MPD2    H1 4647   2.044   4.282  14.176 -1.8772  1.5116  1.3894
  305MPD2    H2 4648   2.214   4.446  14.524 -0.2492  0.2519 -0.1849
  305MPD2    H3 4649   2.085   4.471  14.320 -0.5461 -0.3271 -0.0391
  305MPD2     N 4650   2.126   4.044  14.226  0.7879 -0.8399 -0.4352
  305MPD2    H5 4651   2.071   4.075  14.147  1.0142  0.4052 -0.0972
  305MPD2    N1 4652   2.361   4.252  14.595  0.0315  0.5596  0.1914
  305MPD2    H7 4653   2.362   4.339  14.647 -1.3424 -1.2578  3.3030
  306TMC3    C1 4654   2.524   4.178  14.762 -0.4716  0.2785 -0.0746
  306TMC3    C2 4655   2.545   4.066  14.850 -0.5509  0.2305 -0.1688
  306TMC3    C3 4656   2.612   4.093  14.966  1.3825  0.9178  0.3357
  306TMC3    C4 4657   2.576   4.306  14.792  0.0154 -0.5228  0.2661
  306TMC3    C5 4658   2.639   4.328  14.909 -0.2082  0.3128  0.1688
  306TMC3    C6 4659   2.648   4.224  14.999  0.4760  0.2154  0.0077
  306TMC3     C 4660   2.447   4.148  14.639  0.3098  0.5731  0.0326
  306TMC3     O 4661   2.451   4.030  14.608 -0.0061 -0.3019 -0.4632
  306TMC3     H 4662   2.503   3.971  14.819 -1.3380 -0.3394  2.6385
  306TMC3    H1 4663   2.572   4.383  14.715  1.3036 -3.1707 -2.4588
  306TMC3    H2 4664   2.659   4.256  15.102  0.9712  0.0628  0.0018
  306TMC3    C7 4665   2.630   4.467  14.951 -0.0550 -0.7979 -0.3015
  306TMC3    C8 4666   2.640   3.993  15.070  0.5100  0.0777 -0.0167
  306TMC3    O1 4667   2.534   4.523  14.903  0.2169 -0.1056  0.4341
  306TMC3    O2 4668   2.589   3.884  15.061  0.4718  0.0626  0.0925
  307MPD2     C 4669   0.069   2.830   0.116  0.3503 -0.2805 -0.4647
  307MPD2    C1 4670   0.055   2.951   0.177  0.1088 -0.4911 -0.1589
  307MPD2    C2 4671   4.733   2.949   0.298  0.0575 -0.1272  0.8683
  307MPD2    C3 4672   4.693   2.828   0.365 -0.2230 -0.6682 -0.0629
  307MPD2    C4 4673   4.715   2.710   0.291  0.1007 -0.2074 -0.0006
  307MPD2    C5 4674   0.039   2.718   0.170  0.0625  0.6744 -0.3678
  307MPD2     H 4675   4.722   3.042   0.352  3.0133  0.1375  1.0248
  307MPD2    H1 4676   4.675   2.613   0.320 -0.2531  0.2326  0.9821
  307MPD2    H2 4677   0.095   2.817   0.012 -0.8631  1.2923 -0.9694
  307MPD2    H3 4678   0.059   2.629   0.111  1.9265  0.6694  0.2987
  307MPD2     N 4679   4.632   2.834   0.489 -0.1088 -0.4242 -1.1058
  307MPD2    H5 4680   4.627   2.925   0.534 -0.8233 -0.7561 -0.5133
  307MPD2    N1 4681   0.097   3.077   0.124  0.0296  0.3806  0.1784
  307MPD2    H7 4682   0.073   3.157   0.181  0.6774 -0.1802  1.2222
  308TMC3    C1 4683   4.498   2.655   0.899  0.3775 -0.7302 -0.0076
  308TMC3    C2 4684   4.541   2.764   0.963 -0.4090  0.8503  0.3639
  308TMC3    C3 4685   4.596   2.871   0.897 -0.4083  0.5332  0.2201
  308TMC3    C4 4686   4.483   2.651   0.767 -0.6747 -0.4748  0.5535
  308TMC3    C5 4687   4.543   2.755   0.694  0.0405  0.3047 -0.1606
  308TMC3    C6 4688   4.593   2.874   0.756 -0.3529 -0.6950 -0.2515
  308TMC3     C 4689   4.391   2.591   0.971  0.2586  0.5505  0.2054
  308TMC3     O 4690   4.411   2.548   1.085  0.9010 -0.2281 -0.2633
  308TMC3     H 4691   4.569   2.750   1.067 -1.0729 -0.7708  0.3177
  308TMC3    H1 4692   4.433   2.571   0.714 -0.9552 -0.2376  0.4637
  308TMC3    H2 4693   4.645   2.949   0.699  0.1231 -1.6415 -1.0629
  308TMC3    C7 4694   4.567   2.728   0.553  0.4225  0.6169 -0.4203
  308TMC3    C8 4695   4.603   2.997   0.968 -0.5229 -0.2999 -0.2145
  308TMC3    O1 4696   4.542   2.614   0.515  0.0900  0.1385 -0.0891
  308TMC3    O2 4697   4.668   3.000   1.072  0.3230  0.1182  0.1707
  309MPD2     C 4698   4.116   3.098  17.529 -0.6060  0.4026  0.6786
  309MPD2    C1 4699   4.046   3.129  17.408 -0.1417  0.0955  0.9602
  309MPD2    C2 4700   3.914   3.117  17.392  0.1977  0.2428 -0.8200
  309MPD2    C3 4701   3.836   3.082  17.501 -0.5734  0.4271  0.2699
  309MPD2    C4 4702   3.896   3.049  17.621  0.0454 -0.5054 -0.4015
  309MPD2    C5 4703   4.034   3.059  17.635 -0.0377 -0.7597  0.0899
  309MPD2     H 4704   3.881   3.147  17.293 -1.2573 -0.3849 -0.5328
  309MPD2    H1 4705   3.840   3.023  17.710  2.4077  1.2453  1.6165
  309MPD2    H2 4706   4.219   3.117  17.554 -0.2500  1.4271 -1.5641
  309MPD2    H3 4707   4.088   3.039  17.726 -0.5974 -3.7991 -0.2711
  309MPD2     N 4708   3.694   3.088  17.501 -1.0257 -0.0489  0.0825
  309MPD2    H5 4709   3.644   3.071  17.588 -2.0993  2.4509 -0.0683
  309MPD2    N1 4710   4.126   3.169  17.293 -0.0955  0.1456  0.3777
  309MPD2    H7 4711   4.068   3.172  17.210  0.6253 -0.9271 -0.1668
  310TMC3    C1 4712   4.312   3.217  17.149  0.3105 -0.2346  0.1918
  310TMC3    C2 4713   4.223   3.271  17.064  0.4594 -0.0736  0.4112
  310TMC3    C3 4714   4.252   3.279  16.930 -0.1314  0.1001 -0.9842
  310TMC3    C4 4715   4.433   3.167  17.102 -0.1746  0.8040 -0.4902
  310TMC3    C5 4716   4.456   3.178  16.967 -0.0400  0.1353  0.5662
  310TMC3    C6 4717   4.371   3.240  16.886  0.3785 -0.1063  0.4732
  310TMC3     C 4718   4.266   3.179  17.283  0.0282  0.7745 -0.5400
  310TMC3     O 4719   4.354   3.144  17.362  0.3146 -0.1908 -0.5913
  310TMC3     H 4720   4.127   3.312  17.094 -0.4309 -0.5505 -1.7660
  310TMC3    H1 4721   4.509   3.125  17.167  0.1302  0.3310 -1.1492
  310TMC3    H2 4722   4.391   3.239  16.779 -0.8330  2.1049  0.2275
  310TMC3    C7 4723   4.553   3.082  16.905  0.4595 -0.6742  0.7452
  310TMC3    C8 4724   4.145   3.304  16.832 -0.3051 -0.4085 -0.1401
  310TMC3    O1 4725   4.562   3.097  16.784 -0.2936  0.6558 -0.2849
  310TMC3    O2 4726   4.036   3.263  16.867  0.4208  0.4096  0.0900
  311MPD2     C 4727   0.957   3.845  13.149  0.7612  0.1257 -0.1114
  311MPD2    C1 4728   0.973   3.981  13.154 -0.6273  0.4251  0.2956
  311MPD2    C2 4729   0.862   4.055  13.176  0.2914  0.8792  0.3292
  311MPD2    C3 4730   0.737   3.998  13.175 -0.3888  0.9381  0.3111
  311MPD2    C4 4731   0.719   3.859  13.161 -0.2917 -0.0408 -0.6586
  311MPD2    C5 4732   0.835   3.784  13.148  0.2378  0.2853 -0.6863
  311MPD2     H 4733   0.865   4.163  13.191 -1.5340  0.6470  2.3719
  311MPD2    H1 4734   0.621   3.812  13.157 -0.5752  0.3964  1.1588
  311MPD2    H2 4735   1.048   3.786  13.146  1.9417  1.8204  2.3564
  311MPD2    H3 4736   0.819   3.677  13.156  0.1661  0.4378  1.2741
  311MPD2     N 4737   0.632   4.086  13.192  0.3353  0.0567 -0.1756
  311MPD2    H5 4738   0.660   4.183  13.201 -1.1301  0.4133  0.4492
  311MPD2    N1 4739   1.095   4.052  13.157 -1.0401  0.1344  0.3725
  311MPD2    H7 4740   1.095   4.150  13.180  0.0559 -0.1416  1.5318
  312TMC3    C1 4741   0.408   4.146  13.244 -0.1590  0.8229  0.4407
  312TMC3    C2 4742   0.271   4.117  13.217  0.4348 -0.6642  0.2710
  312TMC3    C3 4743   0.178   4.215  13.247 -0.8891  0.0439 -1.0632
  312TMC3    C4 4744   0.437   4.257  13.320 -0.0822  0.7392 -0.8723
  312TMC3    C5 4745   0.339   4.347  13.346 -0.7798  0.1455  0.4812
  312TMC3    C6 4746   0.210   4.332  13.303 -0.0062 -0.0237  0.0102
  312TMC3     C 4747   0.503   4.056  13.189 -0.4555  0.8194 -0.0367
  312TMC3     O 4748   0.449   3.957  13.145  0.1059  0.2312  0.2358
  312TMC3     H 4749   0.239   4.025  13.168 -0.0171  0.5365 -1.7322
  312TMC3    H1 4750   0.537   4.279  13.356  0.3091 -0.5139 -1.1852
  312TMC3    H2 4751   0.144   4.412  13.337 -1.9567 -0.9162 -1.7301
  312TMC3    C7 4752   0.366   4.462  13.426 -0.4472  0.2085 -0.3360
  312TMC3    C8 4753   0.038   4.181  13.223  0.4313 -0.5923  0.3659
  312TMC3    O1 4754   0.333   4.572  13.390 -0.4239 -0.4757 -0.1875
  312TMC3    O2 4755   0.026   4.064  13.194  0.0521 -0.1500 -0.3443
  313MPD2     C 4756   0.157   3.153  11.433  0.5546  0.2010  0.1363
  313MPD2    C1 4757   0.276   3.209  11.459 -0.7011  0.2200  0.3574
  313MPD2    C2 4758   0.388   3.153  11.399 -0.3403 -1.2971 -0.8912
  313MPD2    C3 4759   0.384   3.038  11.325 -0.4215  0.4174  0.4853
  313MPD2    C4 4760   0.262   2.972  11.301 -0.0814  0.0654 -0.0617
  313MPD2    C5 4761   0.155   3.031  11.359 -0.4946  0.3485  0.3325
  313MPD2     H 4762   0.485   3.200  11.412 -1.7801  1.5313 -0.3100
  313MPD2    H1 4763   0.255   2.885  11.236 -2.3705  0.1419  0.0556
  313MPD2    H2 4764   0.063   3.189  11.473  0.9870  2.1614 -0.6075
  313MPD2    H3 4765   0.055   2.991  11.358 -0.5337  0.5407 -3.3291
  313MPD2     N 4766   0.508   2.986  11.274  0.3224  0.1467  0.3233
  313MPD2    H5 4767   0.596   3.029  11.303  0.1688 -0.5694  1.8241
  313MPD2    N1 4768   0.276   3.327  11.544  0.3257  0.2638 -0.0739
  313MPD2    H7 4769   0.185   3.365  11.567  0.5134 -0.1631  1.3596
  314TMC3    C1 4770   0.368   3.525  11.639  0.1881 -0.0079 -0.5433
  314TMC3    C2 4771   0.470   3.577  11.719 -0.2572 -0.5546  0.1709
  314TMC3    C3 4772   0.458   3.707  11.761  1.0421 -0.5950  0.6956
  314TMC3    C4 4773   0.269   3.604  11.603  0.4843  0.5484  0.6648
  314TMC3    C5 4774   0.264   3.735  11.638  0.8622 -0.5199  0.4381
  314TMC3    C6 4775   0.352   3.780  11.727  0.9214  0.2516 -0.6920
  314TMC3     C 4776   0.392   3.398  11.577 -0.1198 -0.4937 -0.0681
  314TMC3     O 4777   0.506   3.352  11.584  0.1993  0.0497 -0.0316
  314TMC3     H 4778   0.555   3.511  11.731 -1.1952 -2.0777 -1.4678
  314TMC3    H1 4779   0.198   3.564  11.531 -0.0383  1.6970  0.5300
  314TMC3    H2 4780   0.339   3.886  11.746 -0.7368  0.0358 -0.6316
  314TMC3    C7 4781   0.262   3.815  11.523  0.7823 -0.0801 -1.3244
  314TMC3    C8 4782   0.580   3.783  11.763 -0.6622 -0.3901  0.1344
  314TMC3    O1 4783   0.356   3.888  11.497  0.1378  0.1553  0.4132
  314TMC3    O2 4784   0.572   3.903  11.739 -0.2857  0.1084 -0.1038
  315MPD2     C 4785   0.378   2.566  17.669 -0.4439  0.2614 -0.3495
  315MPD2    C1 4786   0.482   2.583   0.008 -0.2940 -0.2696  0.3018
  315MPD2    C2 4787   0.553   2.698   0.023  0.5306  0.4312  0.2647
  315MPD2    C3 4788   0.521   2.808  17.704 -0.2060 -0.5881  0.3603
  315MPD2    C4 4789   0.408   2.800  17.618  1.2101 -0.2803 -0.8304
  315MPD2    C5 4790   0.349   2.677  17.595  0.4850  1.1395  0.5290
  315MPD2     H 4791   0.634   2.700   0.095  0.9429 -1.3038 -0.1663
  315MPD2    H1 4792   0.383   2.882  17.552  1.2041  1.6003  1.5167
  315MPD2    H2 4793   0.317   2.477  17.668  0.2638 -0.2161 -0.3033
  315MPD2    H3 4794   0.274   2.682  17.517  0.1672 -2.6514  0.5999
  315MPD2     N 4795   0.596   2.926  17.729 -0.2570  0.0043  0.3166
  315MPD2    H5 4796   0.668   2.929   0.046  0.7905 -0.6901 -0.7085
  315MPD2    N1 4797   0.516   2.476   0.100  0.2860 -0.4689 -0.6760
  315MPD2    H7 4798   0.591   2.506   0.162 -0.0929  0.3925 -0.6293
  316TMC3    C1 4799   0.677   3.146  17.686  0.0469 -0.3219  0.9697
  316TMC3    C2 4800   0.736   3.154   0.055 -0.6927  0.1591  0.0265
  316TMC3    C3 4801   0.795   3.271   0.086 -0.1567 -0.4469 -0.4841
  316TMC3    C4 4802   0.682   3.253  17.600 -0.4817  0.4655 -0.3489
  316TMC3    C5 4803   0.756   3.365  17.633 -0.0310  0.1922  0.4940
  316TMC3    C6 4804   0.806   3.380   0.003 -0.4295 -0.2108 -0.1250
  316TMC3     C 4805   0.586   3.041  17.655  0.5148 -0.4026 -0.3760
  316TMC3     O 4806   0.508   3.056  17.560  0.1369  0.2137 -0.4884
  316TMC3     H 4807   0.721   3.072   0.125  0.8457 -0.2740 -0.1471
  316TMC3    H1 4808   0.641   3.246  17.500  0.5064 -1.4908 -0.5991
  316TMC3    H2 4809   0.855   3.471   0.033  2.5348 -1.3765 -1.4169
  316TMC3    C7 4810   0.749   3.487  17.557 -0.4082 -0.6226  0.5137
  316TMC3    C8 4811   0.861   3.272   0.214  0.3311  0.0533 -0.4987
  316TMC3    O1 4812   0.810   3.583  17.605 -0.3660  0.3492  0.7826
  316TMC3    O2 4813   0.851   3.381   0.268  0.1592 -0.2852 -0.1030
  317MPD2     C 4814   2.325   1.492  13.249  0.1755 -0.0021  0.1134
  317MPD2    C1 4815   2.416   1.420  13.179 -0.3375 -0.1171  0.2735
  317MPD2    C2 4816   2.454   1.297  13.239 -0.4562 -0.4386  0.5323
  317MPD2    C3 4817   2.404   1.245  13.357 -0.7129  0.4686 -0.2362
  317MPD2    C4 4818   2.301   1.313  13.412 -0.2733  0.4671 -0.1175
  317MPD2    C5 4819   2.274   1.445  13.368  0.0689 -0.1199 -0.0148
  317MPD2     H 4820   2.523   1.236  13.181 -1.1486  0.0565 -0.8262
  317MPD2    H1 4821   2.256   1.287  13.508  0.5027 -2.1013 -0.4580
  317MPD2    H2 4822   2.290   1.592  13.223  1.8692  0.1132 -1.7223
  317MPD2    H3 4823   2.207   1.510  13.424  1.5249  0.4582  1.0749
  317MPD2     N 4824   2.467   1.127  13.416 -0.4207  0.3218 -0.1035
  317MPD2    H5 4825   2.548   1.082  13.374 -0.9711  0.7348 -1.5949
  317MPD2    N1 4826   2.468   1.444  13.046 -0.2089 -0.8117  0.0530
  317MPD2    H7 4827   2.522   1.374  12.997 -0.6676  0.7841 -2.7379
  318TMC3    C1 4828   2.493   0.943  13.550 -0.1271  0.7811  0.7477
  318TMC3    C2 4829   2.426   0.832  13.592 -0.0245 -0.1594  0.1632
  318TMC3    C3 4830   2.500   0.717  13.617  0.3462 -0.5136 -0.9643
  318TMC3    C4 4831   2.624   0.953  13.554 -0.5659  0.1246  0.1180
  318TMC3    C5 4832   2.697   0.843  13.580  0.5753  0.0569  0.2869
  318TMC3    C6 4833   2.636   0.721  13.617 -0.1484 -0.5935  0.5878
  318TMC3     C 4834   2.410   1.059  13.517 -0.2586  0.0684  0.1328
  318TMC3     O 4835   2.294   1.062  13.557  0.4796 -0.5425  1.4973
  318TMC3     H 4836   2.318   0.834  13.602 -0.1091 -0.2943 -0.7689
  318TMC3    H1 4837   2.664   1.054  13.555 -0.3368  0.0511 -1.1678
  318TMC3    H2 4838   2.695   0.632  13.638  2.2760  1.4837  2.5896
  318TMC3    C7 4839   2.816   0.880  13.638  0.7645  0.2157 -0.5725
  318TMC3    C8 4840   2.436   0.603  13.565 -0.5384 -0.4258  0.3006
  318TMC3    O1 4841   2.878   0.959  13.572  0.1260 -0.3823 -0.0399
  318TMC3    O2 4842   2.482   0.491  13.584 -0.3395  0.3609  0.3806
  319MPD2     C 4843   3.495   2.333  16.615 -0.3793 -0.8139 -0.2903
  319MPD2    C1 4844   3.442   2.287  16.736  0.2163 -0.6489  0.0053
  319MPD2    C2 4845   3.309   2.278  16.742 -0.4894 -0.6537  0.1754
  319MPD2    C3 4846   3.224   2.302  16.634 -0.0426  0.1466  0.1217
  319MPD2    C4 4847   3.279   2.339  16.517 -0.8523 -0.0732  0.1136
  319MPD2    C5 4848   3.412   2.357  16.504 -0.0258  0.0020 -0.4580
  319MPD2     H 4849   3.256   2.255  16.834  0.3262 -1.5583  0.4130
  319MPD2    H1 4850   3.211   2.365  16.437 -1.6003  0.7859  1.0318
  319MPD2    H2 4851   3.602   2.334  16.596 -0.5794  0.6190 -1.3684
  319MPD2    H3 4852   3.456   2.396  16.413  0.1304  2.0086  0.4892
  319MPD2     N 4853   3.086   2.289  16.633 -0.0034  0.0641 -0.3690
  319MPD2    H5 4854   3.043   2.302  16.542 -1.2948 -0.8517  0.1093
  319MPD2    N1 4855   3.520   2.271  16.853 -0.6912 -0.0692  0.7514
  319MPD2    H7 4856   3.471   2.228  16.930 -0.6310 -0.3795  0.6171
  320TMC3    C1 4857   2.867   2.244  16.690  0.4568  0.2800 -0.0575
  320TMC3    C2 4858   2.829   2.335  16.594  0.0780  0.0382  0.5712
  320TMC3    C3 4859   2.698   2.322  16.547 -0.0184  0.5218 -0.0318
  320TMC3    C4 4860   2.794   2.139  16.725 -0.3920 -0.5605 -0.1222
  320TMC3    C5 4861   2.660   2.139  16.685  0.0625  0.3472  0.0227
  320TMC3    C6 4862   2.614   2.228  16.598 -0.1393  0.1048 -0.4624
  320TMC3     C 4863   2.999   2.252  16.735  0.5319 -0.6267 -0.0972
  320TMC3     O 4864   3.018   2.220  16.851 -0.0641 -0.7693  0.1677
  320TMC3     H 4865   2.889   2.413  16.548  1.8754 -0.6884  1.7032
  320TMC3    H1 4866   2.829   2.063  16.793  1.5646 -1.1007 -1.7664
  320TMC3    H2 4867   2.511   2.223  16.564 -0.4018 -2.9545  0.7764
  320TMC3    C7 4868   2.612   2.007  16.642  0.0149 -0.3316 -0.6862
  320TMC3    C8 4869   2.650   2.420  16.453 -0.2674 -0.5793 -0.6604
  320TMC3    O1 4870   2.523   1.998  16.560 -0.2197  0.2224 -0.2771
  320TMC3    O2 4871   2.720   2.518  16.430 -0.2159 -0.7102 -0.3774
  321TMC3    C1 4872   3.725   2.235  16.984 -0.6881  0.1657  0.1014
  321TMC3    C2 4873   3.702   2.102  17.002  0.2107 -0.6891 -0.5030
  321TMC3    C3 4874   3.789   2.038  17.075 -0.3005 -0.3561  0.7928
  321TMC3    C4 4875   3.821   2.306  17.044 -0.5648 -0.8554  0.8496
  321TMC3    C5 4876   3.920   2.236  17.102  0.6776  0.6684  0.8295
  321TMC3    C6 4877   3.907   2.104  17.120 -0.0505 -0.0431  0.5191
  321TMC3     C 4878   3.655   2.301  16.872  0.0290 -0.7713  0.0034
  321TMC3     O 4879   3.718   2.383  16.810 -0.2631 -0.1188 -0.3137
  321TMC3     H 4880   3.607   2.066  16.964 -0.7038  0.4571  0.6727
  321TMC3    H1 4881   3.806   2.413  17.040  0.4508 -0.7484 -0.1350
  321TMC3    H2 4882   3.984   2.043  17.165 -0.8194 -0.9156  0.6420
  321TMC3    C7 4883   3.977   2.299  17.215 -0.2407  0.0659 -0.0619
  321TMC3    C8 4884   3.729   1.976  17.188 -0.0782 -0.1827 -0.4487
  321TMC3    O1 4885   3.987   2.224  17.307 -0.4062  0.0642 -0.6293
  321TMC3    O2 4886   3.615   1.925  17.162  0.2277 -0.2854 -0.3230
  322MPD2     C 4887   2.495   3.400  13.096 -0.7186 -0.0449 -0.1673
  322MPD2    C1 4888   2.489   3.340  13.222 -0.5440 -0.2710 -0.2635
  322MPD2    C2 4889   2.528   3.207  13.231 -0.1691 -0.2868  0.0674
  322MPD2    C3 4890   2.548   3.129  13.121 -0.0345  0.3851 -0.9253
  322MPD2    C4 4891   2.533   3.187  12.993 -0.0268  0.4390  0.1724
  322MPD2    C5 4892   2.521   3.327  12.986 -0.3258  0.7391  0.3068
  322MPD2     H 4893   2.546   3.157  13.325  0.6320  0.6625  0.4236
  322MPD2    H1 4894   2.541   3.139  12.897 -2.9206  2.0786 -0.8862
  322MPD2    H2 4895   2.477   3.504  13.072  0.3807  0.2191  0.1291
  322MPD2    H3 4896   2.512   3.375  12.890 -0.2414  0.1885  0.0258
  322MPD2     N 4897   2.568   2.993  13.145  0.4038 -0.0180  0.7455
  322MPD2    H5 4898   2.561   2.964  13.242 -0.6212 -1.6760  0.1667
  322MPD2    N1 4899   2.470   3.422  13.331 -0.3422  0.6682  0.8223
  322MPD2    H7 4900   2.477   3.521  13.307  1.3131  0.6044  1.0271
  323TMC3    C1 4901   2.457   3.486  13.561  0.3596  0.4568  0.0531
  323TMC3    C2 4902   2.570   3.568  13.539 -0.3746 -0.3932 -0.7299
  323TMC3    C3 4903   2.642   3.610  13.655 -0.1574 -0.1844  0.4208
  323TMC3    C4 4904   2.415   3.444  13.684  0.3599  0.2855  0.2104
  323TMC3    C5 4905   2.489   3.493  13.792 -0.1410  0.0377 -0.4057
  323TMC3    C6 4906   2.595   3.581  13.783  0.1794 -0.0019  0.1765
  323TMC3     C 4907   2.437   3.384  13.459 -0.3987  0.0313 -0.7678
  323TMC3     O 4908   2.391   3.270  13.482 -0.5489  0.1812  0.2598
  323TMC3     H 4909   2.616   3.559  13.441 -0.0370 -2.5918 -0.3738
  323TMC3    H1 4910   2.325   3.384  13.683  0.4815  0.0981  0.3517
  323TMC3    H2 4911   2.640   3.626  13.870 -1.5152 -0.3764  1.2466
  323TMC3    C7 4912   2.453   3.443  13.924 -0.2556 -0.4041 -0.3066
  323TMC3    C8 4913   2.757   3.699  13.639  0.4353 -0.0724  0.5153
  323TMC3    O1 4914   2.378   3.345  13.932 -0.2836  0.0719  0.0453
  323TMC3    O2 4915   2.825   3.718  13.738 -0.0396 -0.5547  0.0177
  324MPD2     C 4916   3.804   4.695  14.683  0.5809  0.4181  0.0851
  324MPD2    C1 4917   3.761   0.073  14.732 -0.0986 -0.2416 -0.1640
  324MPD2    C2 4918   3.632   0.121  14.703  0.1603  0.3452 -0.1813
  324MPD2    C3 4919   3.547   0.039  14.630 -0.8257 -0.3889  0.2564
  324MPD2    C4 4920   3.594   4.660  14.582 -0.4543  0.6431  0.6986
  324MPD2    C5 4921   3.724   4.627  14.604 -0.2138  0.1879 -0.0403
  324MPD2     H 4922   3.592   0.202  14.761 -0.4050  0.9633 -1.4276
  324MPD2    H1 4923   3.531   4.590  14.527  2.0963 -0.6762 -0.5519
  324MPD2    H2 4924   3.893   4.643  14.717  1.2359  0.2633 -1.9219
  324MPD2    H3 4925   3.761   4.534  14.563  1.1168  0.0267  1.5545
  324MPD2     N 4926   3.416   0.077  14.616 -0.4098 -0.1589  0.4212
  324MPD2    H5 4927   3.356   0.013  14.566 -1.0094 -1.0578  2.2791
  324MPD2    N1 4928   3.841   0.159  14.801  0.5309  0.1491 -0.4321
  324MPD2    H7 4929   3.791   0.247  14.816  0.4705 -0.2306  1.5520
  325TMC3    C1 4930   3.223   0.200  14.581 -0.1652  0.0551  0.2379
  325TMC3    C2 4931   3.142   0.084  14.589  1.3786 -0.1385 -0.6384
  325TMC3    C3 4932   3.008   0.100  14.571  0.2695  0.5777  0.4018
  325TMC3    C4 4933   3.169   0.324  14.557 -0.4779  0.1671 -0.3290
  325TMC3    C5 4934   3.034   0.327  14.544  0.9183 -0.4607 -0.6531
  325TMC3    C6 4935   2.958   0.223  14.543 -0.4080  0.6147  0.2402
  325TMC3     C 4936   3.349   0.194  14.652  0.3862 -0.2691  0.8285
  325TMC3     O 4937   3.387   0.291  14.707 -0.2808  0.1825  0.4133
  325TMC3     H 4938   3.189   4.728  14.610 -0.9462 -0.9901  0.7264
  325TMC3    H1 4939   3.234   0.411  14.565 -1.5045  0.7254  1.9212
  325TMC3    H2 4940   2.860   0.231  14.499 -0.3629 -0.9254 -0.1613
  325TMC3    C7 4941   2.979   0.429  14.450  0.0136  0.1464  0.2706
  325TMC3    C8 4942   2.934   4.724  14.522 -0.1991 -0.6693 -0.8697
  325TMC3    O1 4943   3.042   0.443  14.345  0.4544  0.1466  0.2154
  325TMC3    O2 4944   2.998   4.639  14.463  0.0066 -0.2071 -0.3426
  326MPD2     C 4945   4.728   0.572  11.522  0.5120 -0.6422  0.4274
  326MPD2    C1 4946   0.026   0.615  11.397 -0.0132 -0.2480 -0.2210
  326MPD2    C2 4947   0.127   0.709  11.382  0.4561  0.1614  0.6983
  326MPD2    C3 4948   0.198   0.749  11.496 -0.3087  0.1109  0.3802
  326MPD2    C4 4949   0.172   0.701  11.618  0.0986  0.6176 -0.1702
  326MPD2    C5 4950   0.068   0.610  11.625  0.1097  0.3143 -0.8021
  326MPD2     H 4951   0.139   0.747  11.281 -1.0419 -3.2528 -0.7626
  326MPD2    H1 4952   0.240   0.719  11.700  1.6662 -0.8079 -1.1637
  326MPD2    H2 4953   4.652   0.497  11.541  0.1556 -0.6001 -0.8446
  326MPD2    H3 4954   0.034   0.573  11.721  1.4178  1.8729  0.2661
  326MPD2     N 4955   0.297   0.846  11.489  0.6479  0.5002 -0.3904
  326MPD2    H5 4956   0.352   0.862  11.573  1.0625  1.3336 -0.8330
  326MPD2    N1 4957   4.697   0.575  11.282 -0.1043  0.8504 -0.3645
  326MPD2    H7 4958   4.719   0.616  11.192  1.7414  1.1528  0.2175
  327TMC3    C1 4959   4.554   0.477  11.142 -0.1836  0.2135  0.4575
  327TMC3    C2 4960   4.460   0.562  11.091  0.1642 -0.2753 -0.1144
  327TMC3    C3 4961   4.480   0.621  10.962 -0.3145 -0.8001 -0.0222
  327TMC3    C4 4962   4.671   0.465  11.073 -0.1485  0.7008  0.0425
  327TMC3    C5 4963   4.692   0.522  10.947 -0.0614  0.9957 -0.1728
  327TMC3    C6 4964   4.595   0.597  10.893 -0.1205  0.3774 -0.0986
  327TMC3     C 4965   4.584   0.500  11.283 -0.5043  0.8136  0.0550
  327TMC3     O 4966   4.501   0.479  11.373 -0.3123 -0.2202  0.4638
  327TMC3     H 4967   4.365   0.576  11.140  0.1985 -0.6684  0.0606
  327TMC3    H1 4968   0.008   0.400  11.114  0.6144 -0.1356 -2.6634
  327TMC3    H2 4969   4.617   0.654  10.803  0.9349 -0.3564 -0.3104
  327TMC3    C7 4970   0.083   0.566  10.915 -0.8251 -0.3447  0.5197
  327TMC3    C8 4971   4.404   0.734  10.916 -0.0094  0.3121 -0.1320
  327TMC3    O1 4972   0.100   0.608  10.799 -0.3899 -0.5405  0.4650
  327TMC3    O2 4973   4.426   0.771  10.803 -0.3916  0.2848  0.8915
  328MPD2     C 4974   2.959   1.820  17.639  0.0756 -0.1484 -0.1886
  328MPD2    C1 4975   2.914   1.693  17.635  0.3302  0.1938  0.0010
  328MPD2    C2 4976   2.871   1.652  17.515 -0.5440  0.1997 -0.1026
  328MPD2    C3 4977   2.860   1.735  17.401 -0.2351 -0.2704  0.8395
  328MPD2    C4 4978   2.916   1.859  17.409 -0.0712  0.4784 -0.5607
  328MPD2    C5 4979   2.965   1.898  17.526  0.0071  0.3777 -0.4346
  328MPD2     H 4980   2.832   1.552  17.502 -0.7165  0.6287 -2.8149
  328MPD2    H1 4981   2.908   1.929  17.326  2.7560 -0.3512 -1.5268
  328MPD2    H2 4982   2.989   1.861  17.734  2.7738  1.0611 -1.5387
  328MPD2    H3 4983   2.997   2.002  17.527 -1.9616  0.9830 -1.4300
  328MPD2     N 4984   2.806   1.695  17.278 -0.5320  0.0741 -0.8701
  328MPD2    H5 4985   2.813   1.766  17.206 -2.1952 -0.5274 -1.6136
  328MPD2    N1 4986   2.909   1.605  17.750 -0.7744 -0.0986 -0.7695
  328MPD2    H7 4987   2.941   1.638   0.086  1.1537 -1.4815 -0.9401
  329TMC3    C1 4988   2.871   1.407   0.121 -0.5990  0.0362 -0.1008
  329TMC3    C2 4989   2.890   1.483   0.234  0.3882  0.4334  0.0330
  329TMC3    C3 4990   2.836   1.433   0.348 -0.8003  0.4910  0.4939
  329TMC3    C4 4991   2.798   1.290   0.127  0.2834  0.6372 -0.0928
  329TMC3    C5 4992   2.737   1.247   0.246  0.6356 -0.9171  0.6498
  329TMC3    C6 4993   2.762   1.313   0.362 -0.3073  0.7115  0.1580
  329TMC3     C 4994   2.863   1.477  17.750 -0.7971 -0.6649  0.4403
  329TMC3     O 4995   2.788   1.416  17.675 -0.1251  0.0970  0.3547
  329TMC3     H 4996   2.930   1.583   0.243 -3.3293  2.0727 -1.7955
  329TMC3    H1 4997   2.799   1.225   0.040 -0.9743 -1.9901  1.8640
  329TMC3    H2 4998   2.726   1.284   0.460 -1.4229 -2.6925 -1.2673
  329TMC3    C7 4999   2.663   1.129   0.249  1.0527  0.2777 -0.2361
  329TMC3    C8 5000   2.840   1.532   0.463 -0.0645  0.9741  0.4601
  329TMC3    O1 5001   2.673   1.065   0.144  0.1884 -0.4906  0.1786
  329TMC3    O2 5002   2.946   1.584   0.488 -0.3693 -0.3561 -0.3451
  330TMC3    C1 5003   0.590   0.538   9.880  0.1248 -0.4774 -0.1421
  330TMC3    C2 5004   0.552   0.467   9.775 -0.1485  0.2101  0.3894
  330TMC3    C3 5005   0.614   0.349   9.753 -0.0197  0.6204  0.4979
  330TMC3    C4 5006   0.695   0.505   9.965 -0.4639 -0.4932 -0.5314
  330TMC3    C5 5007   0.758   0.386   9.941  0.6297  0.5193  0.4185
  330TMC3    C6 5008   0.717   0.308   9.835  0.5855  0.2209 -0.2968
  330TMC3     C 5009   0.515   0.660   9.914 -0.0831 -0.0768 -0.4532
  330TMC3     O 5010   0.572   0.750   9.977  0.0061 -0.8876  0.2505
  330TMC3     H 5011   0.480   0.506   9.704 -0.5634  0.3188  0.8722
  330TMC3    H1 5012   0.709   0.558  10.059  2.0771 -1.5604 -0.3007
  330TMC3    H2 5013   0.773   0.221   9.803  0.1968  0.6061 -2.0686
  330TMC3    C7 5014   0.888   0.365  10.001  0.7848  0.0070  0.2604
  330TMC3    C8 5015   0.549   0.251   9.669 -0.4337 -0.0908 -0.1305
  330TMC3    O1 5016   0.976   0.331   9.923 -0.4609  0.4407 -0.1317
  330TMC3    O2 5017   0.489   0.282   9.564 -0.1439  0.3883  0.0382
  331MPD2     C 5018   3.598   3.918  12.985  0.4286 -0.4651 -0.0495
  331MPD2    C1 5019   3.461   3.914  12.999 -0.2138  0.4347 -0.0269
  331MPD2    C2 5020   3.398   3.797  13.005 -0.0602 -0.5508  0.0928
  331MPD2    C3 5021   3.477   3.683  13.008  0.1096 -0.1399 -0.2916
  331MPD2    C4 5022   3.610   3.683  13.007  0.3111 -0.2189 -0.5243
  331MPD2    C5 5023   3.674   3.803  12.992 -0.0400 -0.3237 -0.0103
  331MPD2     H 5024   3.290   3.792  13.000 -0.0707  0.0267 -0.1719
  331MPD2    H1 5025   3.667   3.591  13.005  0.6001 -0.0527  0.0629
  331MPD2    H2 5026   3.666   4.002  12.992  1.0696 -0.7216 -3.1299
  331MPD2    H3 5027   3.782   3.801  12.985 -0.0663 -1.5916 -0.0910
  331MPD2     N 5028   3.426   3.557  13.024  0.2474 -0.0432  0.1979
  331MPD2    H5 5029   3.484   3.476  13.002  3.0534  1.8756  0.6090
  331MPD2    N1 5030   3.401   4.041  12.994 -0.0300 -0.0961 -0.2016
  331MPD2    H7 5031   3.460   4.123  12.998  1.0977 -0.9207  0.1333
  332TMC3    C1 5032   3.267   3.385  12.973  0.2627 -0.1010  0.0805
  332TMC3    C2 5033   3.150   3.380  12.903 -0.0533  0.5031  0.1927
  332TMC3    C3 5034   3.142   3.288  12.802 -0.0463 -0.2797 -0.0949
  332TMC3    C4 5035   3.378   3.307  12.942 -0.1041 -0.3414  0.1545
  332TMC3    C5 5036   3.366   3.230  12.827 -0.0977  0.2596  0.3761
  332TMC3    C6 5037   3.248   3.208  12.764  0.8494 -0.3739  0.5159
  332TMC3     C 5038   3.288   3.521  13.024 -0.0830 -0.3731 -0.3718
  332TMC3     O 5039   3.192   3.594  13.038 -0.3006 -0.0719  0.3453
  332TMC3     H 5040   3.064   3.437  12.936  0.2867  0.4883  1.1122
  332TMC3    H1 5041   3.478   3.320  12.983 -0.1395 -0.9246  0.4248
  332TMC3    H2 5042   3.237   3.146  12.676  0.4583  1.1951 -0.5465
  332TMC3    C7 5043   3.474   3.205  12.740  0.0184 -0.1121  0.1864
  332TMC3    C8 5044   3.069   3.342  12.685  0.2671 -0.3864 -0.2494
  332TMC3    O1 5045   3.467   3.124  12.654  0.1925  0.2728 -0.1778
  332TMC3    O2 5046   3.106   3.299  12.576  0.3235  0.0694 -0.2120
  333MPD2     C 5047   3.330   4.312  11.341  0.2535 -0.2181 -0.1510
  333MPD2    C1 5048   3.361   4.230  11.237  0.8261 -0.1012  0.7430
  333MPD2    C2 5049   3.290   4.114  11.223 -0.0771 -0.9202  0.2596
  333MPD2    C3 5050   3.200   4.067  11.319  0.4077 -0.1060  0.1210
  333MPD2    C4 5051   3.176   4.147  11.430 -0.5264 -0.0096  0.9359
  333MPD2    C5 5052   3.238   4.274  11.440  0.4306 -0.2236  0.2710
  333MPD2     H 5053   3.313   4.047  11.141 -2.1245  0.2776 -1.2767
  333MPD2    H1 5054   3.100   4.131  11.506 -1.2425  1.1637  0.4713
  333MPD2    H2 5055   3.385   4.406  11.345  2.1978 -1.4367  1.6744
  333MPD2    H3 5056   3.214   4.348  11.515 -0.5900 -0.4972  0.2158
  333MPD2     N 5057   3.164   3.929  11.309  0.3089  0.2689 -0.2957
  333MPD2    H5 5058   3.209   3.886  11.228 -0.9789 -2.3801  0.4250
  333MPD2    N1 5059   3.446   4.277  11.139  0.9914 -0.1004 -0.4617
  333MPD2    H7 5060   3.479   4.374  11.142  2.5944 -0.6428 -0.4537
  334TMC3    C1 5061   3.573   4.278  10.949  0.4903 -0.9081 -0.3352
  334TMC3    C2 5062   3.673   4.207  10.886 -0.1613  0.2922 -0.0799
  334TMC3    C3 5063   3.786   4.279  10.848  0.4207 -0.6173  0.3627
  334TMC3    C4 5064   3.577   4.415  10.963 -0.1942  0.0078 -0.3654
  334TMC3    C5 5065   3.693   4.475  10.927  0.2897 -0.6853 -0.0514
  334TMC3    C6 5066   3.802   4.417  10.865  0.0529 -0.8656  0.2723
  334TMC3     C 5067   3.501   4.197  11.047  0.5238 -0.4432  0.4607
  334TMC3     O 5068   3.492   4.076  11.025 -0.6847  0.4662 -0.1027
  334TMC3     H 5069   3.667   4.099  10.877 -2.4141  0.6254 -2.5286
  334TMC3    H1 5070   3.500   4.467  11.018 -0.6721 -0.1281 -0.9053
  334TMC3    H2 5071   3.891   4.477  10.848 -0.3626 -0.1188  0.7119
  334TMC3    C7 5072   3.712   4.620  10.948 -0.6475 -0.3211  0.4565
  334TMC3    C8 5073   3.897   4.211  10.788 -0.4059 -0.3801  0.4910
  334TMC3    O1 5074   3.823   4.665  10.955 -0.5501 -0.5861  0.1385
  334TMC3    O2 5075   3.880   4.123  10.705  0.2796  0.0981  0.5161
  335TMC3    C1 5076   3.530   1.148  17.612 -0.6518 -0.1905 -0.8293
  335TMC3    C2 5077   3.505   1.074  17.500 -0.1090  0.4916  0.5164
  335TMC3    C3 5078   3.519   1.141  17.377  0.0341 -0.9550 -0.4651
  335TMC3    C4 5079   3.576   1.276  17.596  0.1450 -0.3328  0.4975
  335TMC3    C5 5080   3.588   1.334  17.473 -0.2514  0.2891 -0.5941
  335TMC3    C6 5081   3.575   1.263  17.358 -0.3103  0.3751  0.1040
  335TMC3     C 5082   3.494   1.089  17.739  0.1217  0.4161 -0.2503
  335TMC3     O 5083   3.446   0.978  17.741  0.5507 -0.6056  0.5612
  335TMC3     H 5084   3.460   0.975  17.510 -2.0224  1.2073 -1.0491
  335TMC3    H1 5085   3.590   1.346  17.677 -1.4611 -1.0360  1.3730
  335TMC3    H2 5086   3.583   1.302  17.257 -0.2978 -0.5998 -0.2679
  335TMC3    C7 5087   3.676   1.451  17.468 -0.4307  0.2028  0.4118
  335TMC3    C8 5088   3.555   1.053  17.261  0.3764  0.2280 -1.0451
  335TMC3    O1 5089   3.679   1.514  17.573 -0.3885  0.2312  0.0927
  335TMC3    O2 5090   3.655   1.075  17.202 -0.3095  0.3291  0.3121
  336MPD2     C 5091   3.065   3.590  16.448  0.1199  0.5763 -0.0973
  336MPD2    C1 5092   3.004   3.532  16.335 -0.5484 -0.5991 -0.5904
  336MPD2    C2 5093   3.002   3.398  16.323 -0.0312  0.0434  0.6086
  336MPD2    C3 5094   3.065   3.320  16.422 -0.0121 -0.0731  0.8331
  336MPD2    C4 5095   3.135   3.381  16.528  0.0452 -0.4619 -0.4009
  336MPD2    C5 5096   3.144   3.511  16.531 -0.2744  0.4490 -0.1119
  336MPD2     H 5097   2.946   3.353  16.242  0.2221  0.8635 -0.0338
  336MPD2    H1 5098   3.196   3.332  16.602  0.2387  0.1304 -0.1748
  336MPD2    H2 5099   3.060   3.697  16.462  0.7986  0.5803  0.1001
  336MPD2    H3 5100   3.191   3.556  16.617 -1.2715  2.6919 -0.7316
  336MPD2     N 5101   3.067   3.177  16.420  0.1309 -0.1435  0.7766
  336MPD2    H5 5102   3.114   3.133  16.498  1.2760  0.0047  0.1609
  336MPD2    N1 5103   2.928   3.600  16.233  0.3364 -0.7964 -0.1175
  336MPD2    H7 5104   2.896   3.543  16.155 -0.6576 -1.3654  0.6953
  337TMC3    C1 5105   2.859   3.762  16.087  0.4952 -0.2872  0.6201
  337TMC3    C2 5106   2.756   3.683  16.056 -0.5087 -0.2702  0.0682
  337TMC3    C3 5107   2.692   3.699  15.940 -0.7966 -0.1797  0.1759
  337TMC3    C4 5108   2.895   3.868  16.011 -0.1098  0.0164 -0.7975
  337TMC3    C5 5109   2.821   3.894  15.898 -0.2024 -0.1155 -0.2647
  337TMC3    C6 5110   2.719   3.808  15.860 -0.5198 -0.7864 -0.2245
  337TMC3     C 5111   2.935   3.734  16.208  0.0265 -0.6078 -0.3989
  337TMC3     O 5112   2.997   3.819  16.274  0.2195 -0.2506  0.0576
  337TMC3     H 5113   2.725   3.598  16.116  1.1367 -0.6191  0.4083
  337TMC3    H1 5114   2.983   3.925  16.039  1.7277 -1.8927 -2.6434
  337TMC3    H2 5115   2.656   3.832  15.775 -0.3464  1.9401  0.3991
  337TMC3    C7 5116   2.865   4.001  15.813 -0.3411  0.2813  0.0467
  337TMC3    C8 5117   2.598   3.601  15.900  0.3389 -0.1052 -0.9233
  337TMC3    O1 5118   2.793   4.042  15.723  0.0872  0.4651  0.3337
  337TMC3    O2 5119   2.567   3.515  15.979 -0.2038 -0.2323  0.4374
  338MPD2     C 5120   3.131   2.949   1.159 -0.5081 -0.8026 -0.5046
  338MPD2    C1 5121   3.136   3.002   1.033  0.0076  1.1213  0.3208
  338MPD2    C2 5122   3.040   3.090   0.998 -0.1963 -0.1343  0.3614
  338MPD2    C3 5123   2.935   3.130   1.083  0.1603  0.0906  0.3706
  338MPD2    C4 5124   2.938   3.086   1.213 -0.0477 -0.1185 -0.7647
  338MPD2    C5 5125   3.036   2.992   1.245 -0.6861 -0.5237  0.4650
  338MPD2     H 5126   3.040   3.125   0.896  1.3810  0.1079  0.4555
  338MPD2    H1 5127   2.874   3.109   1.297  0.1135  0.4015 -0.7834
  338MPD2    H2 5128   3.194   2.869   1.196  1.4348  1.4233  0.9972
  338MPD2    H3 5129   3.026   2.953   1.346  0.9781  0.1123  0.8682
  338MPD2     N 5130   2.834   3.199   1.018  0.9933  0.5302 -0.5590
  338MPD2    H5 5131   2.834   3.212   0.917 -3.2302  0.7075 -0.5597
  338MPD2    N1 5132   3.238   2.964   0.943 -0.4922 -0.0174  0.1332
  338MPD2    H7 5133   3.242   3.016   0.856 -1.6939  1.2862  0.8691
  339TMC3    C1 5134   2.625   3.301   0.991 -0.5579  0.0751  0.3403
  339TMC3    C2 5135   2.505   3.234   0.966 -0.1691  0.0036  0.5529
  339TMC3    C3 5136   2.465   3.225   0.838  1.2808  0.1081 -0.9187
  339TMC3    C4 5137   2.690   3.364   0.886  0.2263 -0.2107  0.1951
  339TMC3    C5 5138   2.648   3.340   0.758 -0.0603  0.0920  0.1006
  339TMC3    C6 5139   2.531   3.277   0.735  0.3106 -0.2247  0.8459
  339TMC3     C 5140   2.710   3.228   1.079  0.4567  0.2281  0.3561
  339TMC3     O 5141   2.664   3.184   1.184 -0.1922  0.4969  0.2883
  339TMC3     H 5142   2.453   3.187   1.048 -1.1329  0.4690  0.2137
  339TMC3    H1 5143   2.790   3.405   0.897 -0.0538  0.2499  1.0444
  339TMC3    H2 5144   2.500   3.263   0.632  3.8645 -0.9672 -0.1101
  339TMC3    C7 5145   2.723   3.390   0.650 -0.1908  0.2125  0.2345
  339TMC3    C8 5146   2.379   3.114   0.794  0.0863 -0.6540  0.1866
  339TMC3    O1 5147   2.787   3.495   0.664  0.2725 -0.2256 -0.1346
  339TMC3    O2 5148   2.343   3.123   0.677 -0.5456  0.9059 -0.4448
  340MPD2     C 5149   3.218   0.036   9.365 -0.5097 -0.7049 -0.1405
  340MPD2    C1 5150   3.314   4.698   9.438 -1.0196  0.6504  0.3996
  340MPD2    C2 5151   3.404   0.028   9.515 -0.6099 -0.5859 -0.4136
  340MPD2    C3 5152   3.416   0.169   9.510  0.5023  0.2473 -0.0317
  340MPD2    C4 5153   3.329   0.244   9.431  0.2008  1.1682 -0.1039
  340MPD2    C5 5154   3.220   0.174   9.367 -0.3743  0.2256 -0.2623
  340MPD2     H 5155   3.478   4.715   9.575  1.4835  0.4605 -2.1026
  340MPD2    H1 5156   3.339   0.347   9.399 -0.5715  0.5908 -2.1961
  340MPD2    H2 5157   3.134   4.728   9.313 -0.4842  0.5934 -1.3610
  340MPD2    H3 5158   3.155   0.232   9.303 -0.1668 -0.4911 -1.1095
  340MPD2     N 5159   3.494   0.246   9.597  0.2127  0.0791  0.3524
  340MPD2    H5 5160   3.477   0.346   9.590 -0.6538 -0.0968 -0.1489
  340MPD2    N1 5161   3.300   4.555   9.448 -0.0594 -0.0499 -0.2598
  340MPD2    H7 5162   3.212   4.521   9.410 -0.1610 -0.0302 -0.0427
  341TMC3    C1 5163   3.359   4.331   9.509  0.1802  0.0590 -0.0201
  341TMC3    C2 5164   3.228   4.289   9.479 -0.1163 -0.2479 -0.1578
  341TMC3    C3 5165   3.199   4.153   9.487 -0.6938 -0.0674 -0.4590
  341TMC3    C4 5166   3.457   4.236   9.551 -1.0237  0.1872  0.2153
  341TMC3    C5 5167   3.417   4.107   9.555 -0.1518  0.5991 -0.9499
  341TMC3    C6 5168   3.293   4.057   9.514  0.5440 -0.2880  0.5635
  341TMC3     C 5169   3.399   4.472   9.485 -0.4966 -0.2506  0.0148
  341TMC3     O 5170   3.519   4.504   9.494 -0.3961  0.5224 -0.5342
  341TMC3     H 5171   3.153   4.366   9.465  0.3935  0.5503  1.4731
  341TMC3    H1 5172   3.561   4.261   9.570 -0.3749 -0.0357 -3.0639
  341TMC3    H2 5173   3.274   3.950   9.517 -0.6280 -0.1516 -2.1940
  341TMC3    C7 5174   3.536   4.025   9.538  0.1683 -0.4326 -0.1616
  341TMC3    C8 5175   3.070   4.106   9.453  0.4970  0.3057 -0.5372
  341TMC3    O1 5176   3.637   4.067   9.478 -0.3776  0.1957  0.0807
  341TMC3    O2 5177   3.042   3.991   9.478 -0.0498 -0.1294  0.0451
  342MPD2     C 5178   1.337   4.027   0.154  0.0636  0.0280  0.2856
  342MPD2    C1 5179   1.404   4.042   0.033 -0.6444  0.6433 -0.6627
  342MPD2    C2 5180   1.449   4.170  17.747 -0.1029 -0.5137  0.3768
  342MPD2    C3 5181   1.415   4.284   0.067  0.6848 -0.5831  0.5051
  342MPD2    C4 5182   1.346   4.261   0.187  0.1342 -0.6736 -0.6865
  342MPD2    C5 5183   1.313   4.137   0.228 -0.0415 -1.1399 -0.1174
  342MPD2     H 5184   1.504   4.182  17.654  0.1446 -2.1151  0.3197
  342MPD2    H1 5185   1.319   4.348   0.245 -1.7392  0.5464 -3.3963
  342MPD2    H2 5186   1.328   3.929   0.198 -0.8864 -0.4878 -1.0535
  342MPD2    H3 5187   1.273   4.123   0.328  1.7031  0.3112  0.7853
  342MPD2     N 5188   1.461   4.415   0.038 -0.0278  0.0470  0.3496
  342MPD2    H5 5189   1.455   4.488   0.109 -1.6522 -1.2800  1.5875
  342MPD2    N1 5190   1.430   3.937  17.706  0.1182  0.2437 -0.3771
  342MPD2    H7 5191   1.475   3.958  17.617 -0.3648  0.0157 -0.6759
  343TMC3    C1 5192   1.451   3.720  17.622 -0.1307 -0.9504 -0.2877
  343TMC3    C2 5193   1.528   3.781  17.533 -0.7671  0.2222 -0.5796
  343TMC3    C3 5194   1.560   3.705  17.423  0.1305 -0.3815 -0.6392
  343TMC3    C4 5195   1.403   3.594  17.621  0.5492  0.3607  0.4743
  343TMC3    C5 5196   1.433   3.519  17.506 -0.1217  0.0803 -0.4871
  343TMC3    C6 5197   1.510   3.577  17.409  0.2536  0.7007 -0.1152
  343TMC3     C 5198   1.399   3.804  17.725  0.5463 -0.3119  0.0960
  343TMC3     O 5199   1.333   3.756   0.065 -0.5164  0.3755  0.5536
  343TMC3     H 5200   1.582   3.874  17.543  1.5394 -0.9172 -2.4904
  343TMC3    H1 5201   1.348   3.550  17.703  1.3519 -0.3103  0.6611
  343TMC3    H2 5202   1.526   3.525  17.315 -1.0979 -0.2561  0.1954
  343TMC3    C7 5203   1.437   3.377  17.504 -0.6318  0.1076 -0.5331
  343TMC3    C8 5204   1.686   3.747  17.357 -0.4259  0.0129  0.0146
  343TMC3    O1 5205   1.414   3.316  17.400  0.1154  0.1580  0.3434
  343TMC3    O2 5206   1.742   3.843  17.401  0.5356 -0.3608 -0.5298
  344MPD2     C 5207   2.265   3.044  11.537 -0.2756  0.8038 -0.3900
  344MPD2    C1 5208   2.188   2.978  11.440 -0.1308  0.0558 -0.0677
  344MPD2    C2 5209   2.216   2.997  11.305  0.8104 -0.1044 -0.9278
  344MPD2    C3 5210   2.321   3.081  11.270 -0.8687 -0.4368 -0.3401
  344MPD2    C4 5211   2.399   3.137  11.364  0.1868 -0.6489 -0.2327
  344MPD2    C5 5212   2.373   3.120  11.499 -0.0857 -0.6683  0.9930
  344MPD2     H 5213   2.157   2.943  11.232  0.8928 -1.1167 -0.2509
  344MPD2    H1 5214   2.484   3.199  11.337  1.0796 -1.4399  0.7782
  344MPD2    H2 5215   2.261   3.004  11.637 -0.3801 -2.3679 -1.6536
  344MPD2    H3 5216   2.447   3.154  11.571  0.2201  0.1331  0.3054
  344MPD2     N 5217   2.358   3.102  11.135 -0.3283 -0.4225  0.3745
  344MPD2    H5 5218   2.433   3.169  11.123 -0.8928 -0.3528 -2.7287
  344MPD2    N1 5219   2.069   2.905  11.473 -0.3016  0.2802 -0.3162
  344MPD2    H7 5220   2.019   2.857  11.399  2.0402 -1.9471 -0.4536
  345TMC3    C1 5221   2.364   3.125  10.906 -0.2019  0.2395  0.7539
  345TMC3    C2 5222   2.503   3.148  10.911  0.0462  0.2156 -0.0093
  345TMC3    C3 5223   2.551   3.219  10.806 -0.0327  0.7079  0.4370
  345TMC3    C4 5224   2.284   3.171  10.806  0.0833 -0.3816 -0.2063
  345TMC3    C5 5225   2.343   3.247  10.706  0.1959  0.2708  0.0074
  345TMC3    C6 5226   2.475   3.264  10.699 -0.0374 -0.1007  0.2510
  345TMC3     C 5227   2.293   3.061  11.021 -0.0829 -0.0870 -0.5632
  345TMC3     O 5228   2.191   2.999  11.004 -0.0809  0.6123 -0.0511
  345TMC3     H 5229   2.568   3.109  10.989  0.7070  2.3668  0.5202
  345TMC3    H1 5230   2.178   3.154  10.815 -0.5495  3.1274 -1.0022
  345TMC3    H2 5231   2.516   3.327  10.621 -0.9188  0.3308  0.1425
  345TMC3    C7 5232   2.266   3.350  10.633 -0.0527 -0.3956  0.4916
  345TMC3    C8 5233   2.692   3.258  10.808  0.3936  0.0057 -0.1226
  345TMC3    O1 5234   2.318   3.384  10.530  0.0410 -0.4618  0.0198
  345TMC3    O2 5235   2.764   3.205  10.893 -0.6435 -0.4422 -0.3710
  346MPD2     C 5236   2.013   4.645  14.144  0.1070 -0.0542  0.5811
  346MPD2    C1 5237   2.117   4.734  14.127  0.0215  0.6026 -0.7810
  346MPD2    C2 5238   2.133   0.095  14.223 -0.3364  0.0377  0.5796
  346MPD2    C3 5239   2.045   0.124  14.317  0.2362 -0.1400 -0.2945
  346MPD2    C4 5240   1.947   0.036  14.336 -0.7846  0.2597 -0.0811
  346MPD2    C5 5241   1.925   4.671  14.245  0.0037  0.7411  0.0879
  346MPD2     H 5242   2.209   0.173  14.222  1.7962 -2.0726 -1.2428
  346MPD2    H1 5243   1.868   0.036  14.411 -0.4664 -0.2515  0.2557
  346MPD2    H2 5244   1.994   4.558  14.082  0.0229 -1.4471  2.5615
  346MPD2    H3 5245   1.839   4.607  14.264 -0.6351  0.9811 -2.0421
  346MPD2     N 5246   2.081   0.233  14.402 -0.0126 -0.3154 -1.1653
  346MPD2    H5 5247   2.163   0.287  14.373 -0.4701  0.7416 -0.4824
  346MPD2    N1 5248   2.208   4.737  14.021  0.2712  0.2951  0.6036
  346MPD2    H7 5249   2.276   0.073  14.017  0.7731 -0.1119  1.4833
  347TMC3    C1 5250   2.068   0.394  14.573  0.2147 -0.7809 -0.1803
  347TMC3    C2 5251   2.155   0.472  14.502  0.4405 -0.6227 -0.1268
  347TMC3    C3 5252   2.214   0.573  14.569  0.4458 -0.2571 -0.1524
  347TMC3    C4 5253   2.046   0.406  14.707  0.3583  0.0848  0.2246
  347TMC3    C5 5254   2.084   0.521  14.765 -0.1924 -0.2522 -0.0213
  347TMC3    C6 5255   2.169   0.602  14.696 -0.2365  0.1123 -0.9807
  347TMC3     C 5256   2.006   0.278  14.505 -0.2434 -0.2630 -1.3524
  347TMC3     O 5257   1.897   0.243  14.546 -0.8093 -0.3068  0.2943
  347TMC3     H 5258   2.183   0.457  14.399  0.5012  1.4384 -0.4105
  347TMC3    H1 5259   1.995   0.331  14.766  0.5297  0.3753  0.7430
  347TMC3    H2 5260   2.207   0.694  14.740 -0.0471 -0.3235 -0.2324
  347TMC3    C7 5261   2.087   0.518  14.907 -0.4472 -0.3160  0.0423
  347TMC3    C8 5262   2.351   0.605  14.557  0.9961  0.2566  0.0398
  347TMC3    O1 5263   1.995   0.457  14.965  0.1703  0.0998 -0.0080
  347TMC3    O2 5264   2.407   0.633  14.661  0.5260 -0.5141  0.2465
  348MPD2     C 5265   1.296   0.010  12.561 -0.6457 -0.2456  0.1648
  348MPD2    C1 5266   1.251   4.684  12.454  0.2460 -0.2181  0.1475
  348MPD2    C2 5267   1.236   0.015  12.339 -0.9299 -0.9731  0.2122
  348MPD2    C3 5268   1.254   0.149  12.326  0.1339 -0.2837 -0.2609
  348MPD2    C4 5269   1.313   0.213  12.431 -0.3071  0.8851  0.3296
  348MPD2    C5 5270   1.339   0.143  12.546 -0.9527 -0.3777 -0.1319
  348MPD2     H 5271   1.196   4.699  12.254 -1.7689  1.1079 -0.7398
  348MPD2    H1 5272   1.323   0.321  12.428 -1.4990  0.9836 -0.0420
  348MPD2    H2 5273   1.302   4.704  12.660 -0.8500  2.3473  1.3688
  348MPD2    H3 5274   1.377   0.196  12.632 -0.8370  2.8749 -2.1965
  348MPD2     N 5275   1.218   0.212  12.205 -0.4863  0.1865 -0.2051
  348MPD2    H5 5276   1.202   0.148  12.128  0.9281 -1.2554  0.7022
  348MPD2    N1 5277   1.213   4.549  12.461  0.2200  0.0395 -0.1873
  348MPD2    H7 5278   1.175   4.515  12.373  0.7534 -0.4497 -0.2283
  349TMC3    C1 5279   1.119   4.344  12.543  0.3418 -0.5136 -0.3033
  349TMC3    C2 5280   1.131   4.240  12.624 -0.0796  0.6095  0.4599
  349TMC3    C3 5281   1.069   4.125  12.589  0.1539 -0.0718  0.1801
  349TMC3    C4 5282   1.028   4.353  12.443  0.0392 -0.3844  0.6126
  349TMC3    C5 5283   0.960   4.233  12.423 -0.1530 -0.0301  0.0515
  349TMC3    C6 5284   0.988   4.116  12.479 -0.1431  0.5092 -0.3314
  349TMC3     C 5285   1.199   4.461  12.568 -0.4027  0.1131 -0.2667
  349TMC3     O 5286   1.244   4.476  12.678  0.7648 -0.4529 -0.0740
  349TMC3     H 5287   1.204   4.241  12.704  0.6286 -3.0346 -0.1788
  349TMC3    H1 5288   1.003   4.447  12.396 -0.8178 -0.5455  0.7283
  349TMC3    H2 5289   0.926   4.030  12.457 -1.2433  1.3897 -0.6883
  349TMC3    C7 5290   0.884   4.228  12.293 -0.0527  0.3695  0.1292
  349TMC3    C8 5291   1.097   4.009  12.667 -0.1866 -0.3428 -0.1452
  349TMC3    O1 5292   0.813   4.132  12.271  0.5356 -0.1261 -0.0951
  349TMC3    O2 5293   1.180   4.025  12.756 -0.1415  0.0285 -0.4658
  350MPD2     C 5294   0.503   3.018  10.459  0.4593 -0.6113 -0.3599
  350MPD2    C1 5295   0.513   2.885  10.497  0.1588  1.0283 -0.5939
  350MPD2    C2 5296   0.605   2.853  10.602 -0.3006 -0.4790  0.3838
  350MPD2    C3 5297   0.678   2.949  10.668 -0.7012 -0.7096  0.9648
  350MPD2    C4 5298   0.660   3.085  10.632 -0.9224  0.8257  0.3742
  350MPD2    C5 5299   0.572   3.116  10.531  0.1204  0.5079  0.5107
  350MPD2     H 5300   0.629   2.750  10.627 -2.5083 -1.2727 -0.6911
  350MPD2    H1 5301   0.710   3.166  10.683 -0.8969  0.8285  0.3448
  350MPD2    H2 5302   0.446   3.063  10.378 -0.0889  0.5436  0.6737
  350MPD2    H3 5303   0.558   3.221  10.507  0.5983  0.4053 -0.2237
  350MPD2     N 5304   0.750   2.910  10.785  0.1610  0.1386  0.3336
  350MPD2    H5 5305   0.743   2.809  10.800 -0.6954  0.0077 -0.9140
  350MPD2    N1 5306   0.451   2.773  10.430 -0.3134 -0.6825 -0.1275
  350MPD2    H7 5307   0.485   2.682  10.462  1.6966 -0.4164 -1.4866
  351TMC3    C1 5308   0.265   2.664  10.330 -0.0475  0.1806 -0.1462
  351TMC3    C2 5309   0.326   2.545  10.354  0.9107  0.0925 -0.1474
  351TMC3    C3 5310   0.245   2.437  10.358  0.5820  0.0283  0.0286
  351TMC3    C4 5311   0.128   2.670  10.303  0.5611 -0.0896 -0.0153
  351TMC3    C5 5312   0.044   2.561  10.312  0.2232  0.7563  0.3453
  351TMC3    C6 5313   0.105   2.444  10.340  0.5666 -0.0101  0.1623
  351TMC3     C 5314   0.338   2.785  10.347  0.2030 -0.6479 -0.0395
  351TMC3     O 5315   0.289   2.887  10.304  0.7213  0.4069 -0.5323
  351TMC3     H 5316   0.435   2.543  10.362  0.8928  2.2968  0.5823
  351TMC3    H1 5317   0.078   2.766  10.304  2.4735  0.9682 -4.5690
  351TMC3    H2 5318   0.040   2.358  10.353  2.1335 -1.0468  1.1696
  351TMC3    C7 5319   4.644   2.589  10.353  0.8304  0.5289  0.4814
  351TMC3    C8 5320   0.313   2.315  10.338 -0.2896 -0.0333  0.1029
  351TMC3    O1 5321   4.602   2.704  10.350  0.4209 -0.3262  0.0296
  351TMC3    O2 5322   0.433   2.324  10.348 -0.0999 -0.0764  0.4178
  352MPD2     C 5323   3.663   0.330   1.130  0.0157  0.6894  0.0758
  352MPD2    C1 5324   3.584   0.296   1.237  0.1011  0.0491  0.4142
  352MPD2    C2 5325   3.603   0.166   1.294  0.0380  0.1314 -0.2626
  352MPD2    C3 5326   3.700   0.080   1.246  0.0828  0.0172 -0.0572
  352MPD2    C4 5327   3.784   0.126   1.146  0.2745 -0.1553  0.0331
  352MPD2    C5 5328   3.769   0.253   1.091 -0.1909  0.8207 -0.6453
  352MPD2     H 5329   3.533   0.129   1.369 -1.2588  0.4850 -1.3069
  352MPD2    H1 5330   3.875   0.073   1.119  0.9279 -0.0560  2.0502
  352MPD2    H2 5331   3.652   0.430   1.091  0.0353  1.1216  1.1721
  352MPD2    H3 5332   3.833   0.285   1.010 -0.4878  2.1390 -0.3612
  352MPD2     N 5333   3.724   4.687   1.291 -0.5595  0.2638 -0.1496
  352MPD2    H5 5334   3.792   4.635   1.238 -0.1670 -0.1558  0.7615
  352MPD2    N1 5335   3.488   0.392   1.275 -0.0883 -0.2301 -0.1565
  352MPD2    H7 5336   3.476   0.473   1.215 -0.5799  1.4785  2.2721
  353TMC3    C1 5337   3.708   4.484   1.398  0.7347 -1.1001 -0.0344
  353TMC3    C2 5338   3.841   4.468   1.388  0.0683  0.3848  0.3095
  353TMC3    C3 5339   3.888   4.342   1.353 -0.2896  0.0643 -0.5180
  353TMC3    C4 5340   3.623   4.378   1.399  0.0454 -0.5371 -0.9397
  353TMC3    C5 5341   3.673   4.255   1.372  0.1651 -0.0100 -0.0944
  353TMC3    C6 5342   3.803   4.233   1.345 -0.1429 -1.1091 -0.3153
  353TMC3     C 5343   3.644   4.613   1.371  0.2930 -0.8120  0.6603
  353TMC3     O 5344   3.552   4.651   1.435 -0.3200 -0.0796  0.0058
  353TMC3     H 5345   3.907   4.553   1.398  2.3621 -1.3146 -0.5120
  353TMC3    H1 5346   3.516   4.390   1.400  0.1254  0.4145 -5.1052
  353TMC3    H2 5347   3.834   4.129   1.352 -0.6171 -1.3177 -1.3060
  353TMC3    C7 5348   3.575   4.157   1.322  0.0445  0.1435  0.5162
  353TMC3    C8 5349   4.024   4.326   1.323 -0.5372  0.2361 -0.2038
  353TMC3    O1 5350   3.614   4.081   1.235  0.1122  0.6156  0.4235
  353TMC3    O2 5351   4.101   4.415   1.348  0.2784  0.1112 -0.5327
  354TMC3    C1 5352   0.202   1.276  14.042  0.5544 -1.1617 -0.8192
  354TMC3    C2 5353   0.144   1.385  13.979 -0.4630 -0.1745  0.1310
  354TMC3    C3 5354   0.194   1.426  13.861 -0.2868 -0.5860 -0.0181
  354TMC3    C4 5355   0.309   1.209  13.988 -0.4376  0.2318  1.0856
  354TMC3    C5 5356   0.356   1.266  13.869 -0.0844  0.4921 -0.4128
  354TMC3    C6 5357   0.294   1.359  13.793  0.0051  0.8757 -0.6464
  354TMC3     C 5358   0.178   1.280  14.183 -0.1021  0.2370 -0.2230
  354TMC3     O 5359   0.065   1.308  14.221  0.1796  0.1384  0.5624
  354TMC3     H 5360   0.088   1.458  14.035 -0.2542  0.2168 -0.1679
  354TMC3    H1 5361   0.356   1.130  14.045  1.0753  0.0814 -0.3581
  354TMC3    H2 5362   0.312   1.391  13.691  1.3340 -3.0510 -1.6066
  354TMC3    C7 5363   0.461   1.190  13.802 -0.0199 -0.2778 -0.2652
  354TMC3    C8 5364   0.119   1.533  13.801 -0.5978  0.2203 -0.1722
  354TMC3    O1 5365   0.460   1.072  13.827 -0.2205 -0.0631  0.1671
  354TMC3    O2 5366   0.005   1.545  13.849  0.0016 -0.0539  0.4755
  355MPD2     C 5367   4.699   1.733  12.196  0.1195  0.5685 -0.1012
  355MPD2    C1 5368   0.055   1.752  12.098 -0.5359 -0.3354  0.2570
  355MPD2    C2 5369   0.182   1.787  12.136 -0.7800 -0.2158  0.1589
  355MPD2    C3 5370   0.211   1.806  12.271  0.1586 -0.4068 -0.5087
  355MPD2    C4 5371   0.120   1.799  12.371 -0.0963 -0.2436  0.0936
  355MPD2    C5 5372   4.731   1.756  12.331 -0.2402 -0.2251  0.2432
  355MPD2     H 5373   0.262   1.790  12.063 -0.3586  0.3416  0.6481
  355MPD2    H1 5374   0.118   1.843  12.470  1.8942  0.9009 -0.3885
  355MPD2    H2 5375   4.596   1.718  12.164  0.2666 -0.3305 -0.1691
  355MPD2    H3 5376   4.651   1.762  12.404 -2.1011  1.5955 -1.9575
  355MPD2     N 5377   0.342   1.855  12.293 -0.1856 -0.1467  0.3683
  355MPD2    H5 5378   0.395   1.880  12.210 -0.9839  1.6164  0.4038
  355MPD2    N1 5379   4.737   1.735  11.969 -0.3811  0.1005 -0.3114
  355MPD2    H7 5380   4.642   1.700  11.967 -0.5839  0.6328 -0.0489
  356TMC3    C1 5381   0.506   1.985  12.393 -0.9594  0.5250 -0.3694
  356TMC3    C2 5382   0.544   2.023  12.266  0.5254  0.0240  0.1767
  356TMC3    C3 5383   0.650   2.105  12.247 -0.7568  0.0885  0.5616
  356TMC3    C4 5384   0.574   2.021  12.503 -0.4692  0.1426 -0.6049
  356TMC3    C5 5385   0.685   2.104  12.476 -0.3071  0.5857 -0.6774
  356TMC3    C6 5386   0.725   2.146  12.355 -0.0113 -0.1580 -0.3036
  356TMC3     C 5387   0.384   1.912  12.412  0.0033  0.3961 -0.0760
  356TMC3     O 5388   0.334   1.906  12.520  0.3721  0.4334 -0.2703
  356TMC3     H 5389   0.471   2.016  12.186  1.2473 -1.9727 -0.2997
  356TMC3    H1 5390   0.556   1.997  12.607 -1.6143 -1.0438 -1.0857
  356TMC3    H2 5391   0.814   2.204  12.334 -0.4231  0.7010  0.3332
  356TMC3    C7 5392   0.760   2.152  12.590 -0.6654  0.2831  0.4663
  356TMC3    C8 5393   0.678   2.153  12.113 -0.1605 -0.1256 -0.0946
  356TMC3    O1 5394   0.745   2.080  12.693  0.2276 -0.3632  0.4733
  356TMC3    O2 5395   0.643   2.079  12.022 -0.4645 -0.8742 -0.1231
  357MPD2     C 5396   4.130   1.555   0.985  0.3033  0.2123 -0.0635
  357MPD2    C1 5397   4.233   1.635   1.022 -0.5661  0.3869  0.2734
  357MPD2    C2 5398   4.203   1.720   1.125 -0.0823  0.1957  0.9674
  357MPD2    C3 5399   4.075   1.722   1.187  0.4439  0.0283 -0.4316
  357MPD2    C4 5400   3.978   1.641   1.141  0.5198  0.5306 -0.0783
  357MPD2    C5 5401   4.003   1.570   1.032 -1.1530 -0.2738  0.0026
  357MPD2     H 5402   4.281   1.789   1.154 -0.4965  0.5569  1.2139
  357MPD2    H1 5403   3.873   1.644   1.169  0.1986 -0.1680 -1.1921
  357MPD2    H2 5404   4.133   1.497   0.894  1.7119  1.7581 -0.9932
  357MPD2    H3 5405   3.916   1.514   1.001 -0.5414 -1.8069  1.0449
  357MPD2     N 5406   4.053   1.799   1.306 -0.3552  0.5438 -0.2601
  357MPD2    H5 5407   3.959   1.799   1.344  0.3663 -0.6928  1.5015
  357MPD2    N1 5408   4.359   1.620   0.954  0.8201 -0.3666 -0.4391
  357MPD2    H7 5409   4.375   1.546   0.886  1.7438  1.9874 -2.8011
  358TMC3    C1 5410   4.594   1.636   0.925  0.3123 -0.7663  0.0723
  358TMC3    C2 5411   4.590   1.579   0.796  0.2587 -0.3652 -0.6653
  358TMC3    C3 5412   4.715   1.571   0.742  0.0803 -0.0669 -0.1016
  358TMC3    C4 5413   4.708   1.680   0.989  0.0251  0.4253 -0.0357
  358TMC3    C5 5414   0.090   1.661   0.925  0.0439  0.0437 -0.6529
  358TMC3    C6 5415   0.095   1.598   0.807 -0.0265  0.1391 -0.1498
  358TMC3     C 5416   4.472   1.691   0.982 -0.5479 -0.9085  0.3103
  358TMC3     O 5417   4.482   1.782   1.063  0.1641  0.0111 -0.2196
  358TMC3     H 5418   4.496   1.568   0.743  0.4891  0.8031 -1.3201
  358TMC3    H1 5419   4.697   1.735   1.082 -0.2685 -2.7705  1.8207
  358TMC3    H2 5420   0.185   1.612   0.748  0.9166  0.8318  1.4450
  358TMC3    C7 5421   0.208   1.714   0.992 -0.2762 -0.4008 -0.4134
  358TMC3    C8 5422   4.723   1.517   0.605  0.1996  0.5107  0.0490
  358TMC3    O1 5423   0.197   1.763   1.103 -0.8087 -0.1659  0.7180
  358TMC3    O2 5424   4.626   1.546   0.539 -0.2513  0.2846  0.1612
  359MPD2     C 5425   0.543   0.858  12.744 -0.2170  0.4446  0.6240
  359MPD2    C1 5426   0.598   0.733  12.737 -0.5147  0.2608  0.2863
  359MPD2    C2 5427   0.538   0.617  12.788 -0.1259 -0.3202  0.8382
  359MPD2    C3 5428   0.405   0.629  12.833  0.0792 -0.7232  0.4617
  359MPD2    C4 5429   0.345   0.755  12.839 -1.4165 -0.1482 -0.2405
  359MPD2    C5 5430   0.414   0.866  12.791  0.6725  0.2897  0.0081
  359MPD2     H 5431   0.586   0.520  12.785 -1.1836 -0.8403  0.6990
  359MPD2    H1 5432   0.242   0.767  12.871 -1.3852 -0.0777 -0.1644
  359MPD2    H2 5433   0.592   0.949  12.712  0.3322 -0.6802 -1.7240
  359MPD2    H3 5434   0.368   0.964  12.796  0.3187 -0.0258  2.7245
  359MPD2     N 5435   0.348   0.514  12.881 -0.1605 -0.3305 -0.1915
  359MPD2    H5 5436   0.398   0.426  12.871  1.7113  0.3971  2.9692
  359MPD2    N1 5437   0.733   0.706  12.685 -0.3427 -0.0284 -0.0573
  359MPD2    H7 5438   0.763   0.610  12.676 -0.8599 -0.4230  2.2762
  360TMC3    C1 5439   0.933   0.758  12.560 -0.0692 -0.7225  0.1600
  360TMC3    C2 5440   1.021   0.854  12.531  0.1394  0.5280  0.1877
  360TMC3    C3 5441   1.122   0.822  12.451 -0.8887  0.3691  0.1348
  360TMC3    C4 5442   0.920   0.640  12.495 -0.2904 -0.0585  0.1987
  360TMC3    C5 5443   1.020   0.613  12.404 -0.4965 -0.8889  0.5415
  360TMC3    C6 5444   1.123   0.698  12.386  0.5623  0.4850 -0.5365
  360TMC3     C 5445   0.821   0.802  12.641  0.3685  0.1343 -0.4109
  360TMC3     O 5446   0.814   0.925  12.668  0.0490  0.2451 -0.4043
  360TMC3     H 5447   1.027   0.940  12.597  1.2599  0.7696 -0.2253
  360TMC3    H1 5448   0.842   0.570  12.523 -1.8389  1.9236  0.7863
  360TMC3    H2 5449   1.191   0.671  12.306  0.4246 -1.7008  0.0943
  360TMC3    C7 5450   0.983   0.551  12.280 -0.0258 -0.2711 -0.2942
  360TMC3    C8 5451   1.218   0.923  12.408 -0.3411  0.2295 -0.2700
  360TMC3    O1 5452   1.006   0.608  12.174 -0.0496  0.4378 -0.4518
  360TMC3    O2 5453   1.195   1.036  12.446  0.2588 -0.6194 -0.0067
  361MPD2     C 5454   2.626   4.692  16.655  0.1614 -0.2119  0.0546
  361MPD2    C1 5455   2.568   4.664  16.769  0.6232  0.3727 -0.6015
  361MPD2    C2 5456   2.631   4.581  16.864 -0.0201  0.3540  0.7961
  361MPD2    C3 5457   2.753   4.521  16.832 -0.4887  0.1231 -0.3168
  361MPD2    C4 5458   2.807   4.545  16.710  0.2174  0.3087  0.5354
  361MPD2    C5 5459   2.746   4.636  16.628 -0.1817  0.2939 -0.8217
  361MPD2     H 5460   2.575   4.557  16.953 -0.6668 -1.6395 -0.1273
  361MPD2    H1 5461   2.903   4.498  16.688 -1.4776 -2.7672 -0.3333
  361MPD2    H2 5462   2.588   0.021  16.580 -1.6062 -1.6243 -0.3026
  361MPD2    H3 5463   2.784   4.663  16.530 -0.7573  0.6559 -0.9463
  361MPD2     N 5464   2.815   4.433  16.921 -0.4242 -0.4509 -0.4047
  361MPD2    H5 5465   2.896   4.379  16.893  1.4431  0.4489  3.3130
  361MPD2    N1 5466   2.434   4.705  16.776  0.0426  0.6327 -0.0306
  361MPD2    H7 5467   2.402   0.026  16.700  1.9220  0.0733 -1.2455
  362TMC3    C1 5468   2.207   4.704  16.841 -0.5565  0.8423 -0.6210
  362TMC3    C2 5469   2.119   4.694  16.945 -0.5168  0.3337 -0.1092
  362TMC3    C3 5470   1.989   4.681  16.914  0.3315 -0.7070  0.0000
  362TMC3    C4 5471   2.175   4.704  16.710 -0.3837 -0.1265  0.6164
  362TMC3    C5 5472   2.043   4.688  16.681  0.8474  0.2512  1.1230
  362TMC3    C6 5473   1.952   4.670  16.785  0.1042 -0.2795  0.4932
  362TMC3     C 5474   2.346   4.680  16.878  0.2662  0.7070  0.5360
  362TMC3     O 5475   2.368   4.644  16.995  0.1613  0.7300  0.2943
  362TMC3     H 5476   2.147   4.699  17.050 -0.4174  1.6230 -0.1957
  362TMC3    H1 5477   2.248   4.695  16.631 -2.4843  0.6514 -1.4040
  362TMC3    H2 5478   1.846   4.655  16.766  0.1868  1.2860 -1.1671
  362TMC3    C7 5479   1.991   4.712  16.550  0.1551 -0.3439  0.0162
  362TMC3    C8 5480   1.883   4.680  17.015  0.4174  0.5140 -0.3844
  362TMC3    O1 5481   1.894   4.640  16.513 -0.0152 -0.0130  0.1551
  362TMC3    O2 5482   1.790   4.617  16.971 -0.5314 -0.4913  0.0181
  363TMC3    C1 5483   1.452   2.113  10.216  0.0814 -0.2965  0.3282
  363TMC3    C2 5484   1.387   1.991  10.238 -0.0912  0.2133 -0.5684
  363TMC3    C3 5485   1.258   2.001  10.275 -0.0768  0.0879  0.3159
  363TMC3    C4 5486   1.381   2.232  10.220 -0.4031 -0.2213  0.6686
  363TMC3    C5 5487   1.243   2.225  10.256  0.1710 -0.4508 -0.1630
  363TMC3    C6 5488   1.182   2.112  10.289 -0.0022  0.5008  0.3890
  363TMC3     C 5489   1.594   2.110  10.194  0.1097  0.2300 -0.1744
  363TMC3     O 5490   1.628   2.010  10.125  0.4396 -0.1129 -0.5535
  363TMC3     H 5491   1.449   1.903  10.233  0.6808  0.7492 -0.4946
  363TMC3    H1 5492   1.419   2.325  10.178  2.5081 -1.2501  1.0300
  363TMC3    H2 5493   1.074   2.100  10.287  0.1754 -0.9897 -0.3613
  363TMC3    C7 5494   1.153   2.344  10.269 -0.7210  0.3332  0.6497
  363TMC3    C8 5495   1.189   1.884  10.312  0.3655 -0.2795  0.7631
  363TMC3    O1 5496   1.030   2.326  10.273 -0.6399  0.0912 -0.4688
  363TMC3    O2 5497   1.119   1.893  10.410  0.2310 -0.0179  0.1210
  364MPD2     C 5498   4.110   1.147  10.979  0.6615 -0.3151 -0.7731
  364MPD2    C1 5499   4.216   1.129  10.889 -0.8145 -0.0688  0.5905
  364MPD2    C2 5500   4.285   1.005  10.898  0.3107  0.9049 -0.3914
  364MPD2    C3 5501   4.267   0.919  11.002 -0.4621 -0.4093  0.4239
  364MPD2    C4 5502   4.176   0.950  11.101  0.5943 -0.0692 -0.4965
  364MPD2    C5 5503   4.100   1.064  11.083 -0.1904  0.5844 -0.2596
  364MPD2     H 5504   4.357   0.981  10.821 -0.7401  1.1535 -1.4614
  364MPD2    H1 5505   4.149   0.885  11.184 -1.6056  2.8527  1.0912
  364MPD2    H2 5506   4.042   1.232  10.979 -0.9609 -1.6413  1.8987
  364MPD2    H3 5507   4.023   1.089  11.155 -1.4637 -0.7247 -1.1641
  364MPD2     N 5508   4.335   0.797  11.014  0.7487 -0.1002  1.1253
  364MPD2    H5 5509   4.341   0.753  11.105  0.6138  0.7210  1.5232
  364MPD2    N1 5510   4.249   1.236  10.803 -0.0969 -0.0620 -0.3835
  364MPD2    H7 5511   4.200   1.323  10.820 -0.7311  0.0193 -2.6098
  365TMC3    C1 5512   4.387   1.384  10.682  0.3335 -0.2145  0.3648
  365TMC3    C2 5513   4.489   1.407  10.596 -0.5706 -0.4310  0.5102
  365TMC3    C3 5514   4.562   1.527  10.595  0.2624  0.1679 -0.1242
  365TMC3    C4 5515   4.358   1.476  10.781  0.0486  0.0237 -0.3231
  365TMC3    C5 5516   4.427   1.593  10.770 -0.1104  0.0850 -0.3226
  365TMC3    C6 5517   4.523   1.629  10.675 -0.3953 -0.5505 -0.1096
  365TMC3     C 5518   4.356   1.251  10.716 -0.1399  0.1137  0.0902
  365TMC3     O 5519   4.439   1.162  10.685 -0.1465 -0.6262  0.7821
  365TMC3     H 5520   4.511   1.333  10.520  3.5534 -0.3570  1.6339
  365TMC3    H1 5521   4.290   1.455  10.863  0.7707  0.8776  0.4934
  365TMC3    H2 5522   4.573   1.725  10.673  2.6827 -2.1042  1.9623
  365TMC3    C7 5523   4.406   1.689  10.869  0.0064 -0.0291 -0.3940
  365TMC3    C8 5524   4.677   1.548  10.511 -0.7619  0.7440  0.2541
  365TMC3    O1 5525   4.397   1.808  10.835  0.3337  0.1670 -0.3848
  365TMC3    O2 5526   0.006   1.649  10.522 -0.1775  0.8500 -0.1253
  366MPD2     C 5527   2.505   2.626  15.878 -0.5480  0.2069  0.5807
  366MPD2    C1 5528   2.586   2.715  15.813  0.6626 -0.1933 -0.4084
  366MPD2    C2 5529   2.717   2.677  15.773 -0.3862 -0.2155 -0.6188
  366MPD2    C3 5530   2.751   2.541  15.773 -0.4180 -0.4935  0.1181
  366MPD2    C4 5531   2.656   2.443  15.833  0.3096  0.0008  0.5113
  366MPD2    C5 5532   2.536   2.490  15.881  0.0312 -0.3015 -0.0559
  366MPD2     H 5533   2.789   2.741  15.724 -2.8844  2.4932 -0.7635
  366MPD2    H1 5534   2.667   2.335  15.836 -0.2168 -0.0554  0.3690
  366MPD2    H2 5535   2.417   2.667  15.925 -1.2548 -2.0513  1.2247
  366MPD2    H3 5536   2.472   2.419  15.931  1.2610 -1.6623 -0.4361
  366MPD2     N 5537   2.866   2.501  15.709  0.0318  0.1233  0.6039
  366MPD2    H5 5538   2.927   2.566  15.661  0.4713 -1.6153 -1.2047
  366MPD2    N1 5539   2.544   2.849  15.807  0.2732 -0.3074 -0.2566
  366MPD2    H7 5540   2.447   2.872  15.825  0.0580 -1.4251  0.0171
  367TMC3    C1 5541   2.571   3.075  15.766 -0.4317  0.0459  0.1255
  367TMC3    C2 5542   2.631   3.164  15.852 -0.5208 -0.6011 -0.0521
  367TMC3    C3 5543   2.711   3.262  15.799  0.0570 -0.2827  0.6067
  367TMC3    C4 5544   2.580   3.097  15.631 -0.0631 -0.4800 -0.0149
  367TMC3    C5 5545   2.669   3.188  15.587  0.7607 -0.2137 -0.0296
  367TMC3    C6 5546   2.737   3.271  15.665  0.3322 -0.0266 -0.5725
  367TMC3     C 5547   2.635   2.952  15.797 -0.5395  0.2574  0.2692
  367TMC3     O 5548   2.758   2.950  15.807 -0.4589  0.1860 -0.0434
  367TMC3     H 5549   2.630   3.159  15.960 -0.0720 -0.7400 -0.0530
  367TMC3    H1 5550   2.536   3.018  15.572 -1.3174  2.1498 -2.5889
  367TMC3    H2 5551   2.808   3.340  15.619 -1.1911  0.3607 -2.3538
  367TMC3    C7 5552   2.669   3.217  15.447  1.0026  0.6218  0.0682
  367TMC3    C8 5553   2.805   3.322  15.888  0.8898  0.2722  0.6015
  367TMC3    O1 5554   2.696   3.333  15.425 -0.1948 -0.1975 -0.3536
  367TMC3    O2 5555   2.807   3.289  16.007 -0.5148  0.1267  0.0152
  368MPD2     C 5556   3.565   0.083  13.367  0.0933 -0.4023 -0.5689
  368MPD2    C1 5557   3.566   0.106  13.229 -0.1122 -0.2988  0.4711
  368MPD2    C2 5558   3.653   0.044  13.142  0.8142 -1.2412 -0.1789
  368MPD2    C3 5559   3.764   4.717  13.196 -0.7195  0.1239 -0.7686
  368MPD2    C4 5560   3.772   4.715  13.334  0.0291  0.0268 -0.7503
  368MPD2    C5 5561   3.676   0.024  13.417  0.0545 -0.3589 -0.4007
  368MPD2     H 5562   3.653   0.057  13.034 -1.4578 -1.1290 -0.1618
  368MPD2    H1 5563   3.859   4.669  13.380 -0.6216 -1.0407 -0.6039
  368MPD2    H2 5564   3.488   0.120  13.434 -1.3796 -2.9064 -0.8919
  368MPD2    H3 5565   3.687   0.021  13.525 -0.2651 -2.1079 -0.4013
  368MPD2     N 5566   3.863   4.650  13.125  0.0501  1.0367  0.5348
  368MPD2    H5 5567   3.942   4.622  13.183  0.1826  3.1568  1.3639
  368MPD2    N1 5568   3.444   0.162  13.177  0.1586 -0.2569 -0.2033
  368MPD2    H7 5569   3.387   0.202  13.250 -0.0789  1.2580 -1.2279
  369TMC3    C1 5570   3.260   0.213  13.051 -0.1571 -0.6149 -0.3878
  369TMC3    C2 5571   3.217   0.295  12.951 -0.0890 -0.2125 -0.1919
  369TMC3    C3 5572   3.086   0.335  12.954  0.1568  0.1118 -0.3093
  369TMC3    C4 5573   3.175   0.167  13.150 -0.6453 -0.0815 -0.6494
  369TMC3    C5 5574   3.046   0.207  13.152  0.7824 -0.1211 -0.3474
  369TMC3    C6 5575   3.000   0.294  13.056 -0.6653  0.0768 -0.2920
  369TMC3     C 5576   3.399   0.169  13.047 -0.1491 -0.2712 -0.1790
  369TMC3     O 5577   3.451   0.143  12.939 -0.4744  0.2272 -0.1865
  369TMC3     H 5578   3.283   0.337  12.876 -0.8704  3.4940  1.1499
  369TMC3    H1 5579   3.207   0.082  13.209 -3.9106 -1.8660 -1.4443
  369TMC3    H2 5580   2.897   0.324  13.044 -0.6176  1.3429  2.3354
  369TMC3    C7 5581   2.968   0.162  13.269  0.6777 -0.6455  0.6423
  369TMC3    C8 5582   3.026   0.368  12.827  0.2808  0.0260  0.1404
  369TMC3    O1 5583   3.035   0.103  13.354  0.1237 -0.2359 -0.0834
  369TMC3    O2 5584   2.905   0.360  12.828  0.0395 -1.0176  0.5151
  370TMC3    C1 5585   3.488   0.779  16.018 -0.3721  0.4747  0.1615
  370TMC3    C2 5586   3.428   0.717  16.121  0.0851  0.1631 -0.2392
  370TMC3    C3 5587   3.378   0.584  16.114  0.4273  0.0578 -0.4067
  370TMC3    C4 5588   3.501   0.715  15.895  0.0679  0.2050 -0.2150
  370TMC3    C5 5589   3.447   0.592  15.884  0.4380 -0.1030 -0.3277
  370TMC3    C6 5590   3.386   0.525  15.990  0.3253  0.2534  0.5433
  370TMC3     C 5591   3.582   0.884  16.048 -0.1167  0.5247  1.1892
  370TMC3     O 5592   3.547   1.003  16.046  0.0640 -0.1862 -0.2224
  370TMC3     H 5593   3.431   0.771  16.215  0.3569  0.6638 -0.5372
  370TMC3    H1 5594   3.558   0.760  15.814 -1.8483  2.3974 -0.3221
  370TMC3    H2 5595   3.334   0.432  15.971  1.0355 -0.0449  0.0015
  370TMC3    C7 5596   3.531   0.517  15.789 -0.9486 -0.3876 -0.8091
  370TMC3    C8 5597   3.341   0.503  16.225 -0.0274  0.0519  0.6285
  370TMC3    O1 5598   3.564   0.579  15.688 -0.7170  0.2301  0.2733
  370TMC3    O2 5599   3.344   0.382  16.208 -0.1102 -0.4685 -0.5395
  371TMC3    C1 5600   4.717   3.733  15.303 -0.1769 -0.2546  0.6698
  371TMC3    C2 5601   4.620   3.724  15.399  0.3675 -0.6329 -0.6920
  371TMC3    C3 5602   4.537   3.827  15.428 -0.2415 -0.1493  0.2839
  371TMC3    C4 5603   0.001   3.856  15.239  0.9753  0.6060  0.0425
  371TMC3    C5 5604   4.668   3.963  15.284  0.2099  0.0671  0.5074
  371TMC3    C6 5605   4.567   3.950  15.380  1.1128  0.2899 -0.9826
  371TMC3     C 5606   0.068   3.626  15.262 -0.2860  0.8415 -0.3337
  371TMC3     O 5607   0.136   3.645  15.160  0.2533  0.2341 -0.2423
  371TMC3     H 5608   4.594   3.626  15.436  4.6946 -0.6071  2.4461
  371TMC3    H1 5609   0.091   3.874  15.180  2.0497 -2.9224  0.5951
  371TMC3    H2 5610   4.498   4.030  15.403  0.6905 -0.2097 -0.4909
  371TMC3    C7 5611   4.700   4.099  15.251  0.1988 -0.5706  0.1874
  371TMC3    C8 5612   4.440   3.789  15.533 -0.4968 -0.5406 -0.5098
  371TMC3    O1 5613   4.670   4.187  15.331  0.1163 -0.2713  0.4466
  371TMC3    O2 5614   4.396   3.675  15.544  0.2622 -0.5479  0.0103
  372MPD2     C 5615   3.747   4.577  14.191  0.1559 -0.2453 -0.9226
  372MPD2    C1 5616   3.778   4.593  14.055  0.4565  0.2797 -0.5781
  372MPD2    C2 5617   3.829   4.480  13.993 -0.1201 -0.7490  0.5550
  372MPD2    C3 5618   3.850   4.359  14.057 -0.0389  0.1613  0.0325
  372MPD2    C4 5619   3.806   4.344  14.188 -1.2219 -0.4059 -0.1229
  372MPD2    C5 5620   3.762   4.455  14.244 -0.7866  0.1961  0.5539
  372MPD2     H 5621   3.867   4.492  13.893 -1.6407  1.1298  0.2128
  372MPD2    H1 5622   3.814   4.249  14.240 -1.8298 -0.8316 -0.8080
  372MPD2    H2 5623   3.702   4.657  14.249  1.8590  0.4599 -0.5869
  372MPD2    H3 5624   3.738   4.446  14.350 -3.4068  0.6537  0.0106
  372MPD2     N 5625   3.920   4.268  13.979 -0.3879  0.4870  0.2527
  372MPD2    H5 5626   3.945   4.297  13.885 -0.1432 -1.7358 -0.3702
  372MPD2    N1 5627   3.766   4.705  13.977  0.1094 -0.1966 -0.5393
  372MPD2    H7 5628   3.788   4.687  13.880 -1.3230  0.0469 -0.9123
  373TMC3    C1 5629   4.060   4.100  13.916  0.1423 -0.0282  0.0144
  373TMC3    C2 5630   4.161   4.181  13.891 -1.0787 -0.1709  0.0442
  373TMC3    C3 5631   4.284   4.131  13.858  0.0044 -0.4878 -0.1139
  373TMC3    C4 5632   4.076   3.962  13.903  0.0181  0.0598 -0.7662
  373TMC3    C5 5633   4.203   3.916  13.874 -0.0954 -0.3265  0.0346
  373TMC3    C6 5634   4.311   3.996  13.858  0.1332  0.0170  0.2990
  373TMC3     C 5635   3.965   4.149  14.017 -0.5509  0.1594  0.2756
  373TMC3     O 5636   3.952   4.090  14.122 -0.1281 -0.4644 -0.3321
  373TMC3     H 5637   4.152   4.287  13.912 -1.2860 -0.2960  0.5889
  373TMC3    H1 5638   4.002   3.894  13.942 -1.7823  1.9734 -0.8305
  373TMC3    H2 5639   4.415   3.967  13.850 -0.5719 -2.4165  0.2044
  373TMC3    C7 5640   4.212   3.781  13.821 -0.5310 -0.4990  0.3551
  373TMC3    C8 5641   4.390   4.226  13.848  0.3053  0.2762  0.1524
  373TMC3    O1 5642   4.106   3.718  13.800 -0.2190  0.3934  0.0779
  373TMC3    O2 5643   4.352   4.338  13.818 -0.1264 -0.7066  0.0235
  374TMC3    C1 5644   0.156   0.078  10.098  0.1505  0.2145  0.4319
  374TMC3    C2 5645   0.275   0.090  10.161  0.6227 -0.3128 -0.1839
  374TMC3    C3 5646   0.364   0.177  10.107  0.5499 -0.3091  0.3898
  374TMC3    C4 5647   0.120   0.154   9.989  0.0754  0.2521  0.7300
  374TMC3    C5 5648   0.214   0.235   9.929 -0.5002  0.5253 -0.0011
  374TMC3    C6 5649   0.337   0.248   9.992  0.3994 -0.1747 -0.8483
  374TMC3     C 5650   0.058   4.708  10.136 -0.0670 -0.6561 -0.5487
  374TMC3     O 5651   4.723   4.669  10.045 -0.5994  0.3788  0.6119
  374TMC3     H 5652   0.311   0.019  10.234  1.3628 -1.6511 -1.8516
  374TMC3    H1 5653   0.018   0.149   9.955  0.1259 -0.1624  0.6474
  374TMC3    H2 5654   0.408   0.309   9.937  2.5992 -1.6145  0.3930
  374TMC3    C7 5655   0.168   0.328   9.820 -0.0920  1.0892 -0.7521
  374TMC3    C8 5656   0.509   0.150  10.119 -0.4188  0.3822  0.0271
  374TMC3    O1 5657   0.236   0.429   9.821  0.6539 -0.4727  0.3293
  374TMC3    O2 5658   0.568   0.153  10.013  0.4141 -0.1228  0.6992
  375MPD2     C 5659   0.318   1.464  16.937  0.2884 -0.9931 -0.1317
  375MPD2    C1 5660   0.248   1.345  16.930  0.0474 -0.1743 -0.0104
  375MPD2    C2 5661   0.315   1.229  16.886  0.0892 -0.3939  1.0850
  375MPD2    C3 5662   0.456   1.225  16.868 -0.1443 -0.1537 -0.5469
  375MPD2    C4 5663   0.519   1.348  16.882 -0.8756 -0.2813  0.1124
  375MPD2    C5 5664   0.453   1.460  16.919 -0.2099  0.1081  0.0729
  375MPD2     H 5665   0.251   1.144  16.862  1.2203  0.7752 -5.9871
  375MPD2    H1 5666   0.627   1.357  16.870 -1.2037  0.9823 -1.8220
  375MPD2    H2 5667   0.268   1.556  16.961  0.9395 -0.4027 -1.0042
  375MPD2    H3 5668   0.518   1.546  16.935 -0.8901  0.5439  0.4688
  375MPD2     N 5669   0.531   1.109  16.848 -0.5663 -0.1646  0.1821
  375MPD2    H5 5670   0.628   1.110  16.819 -0.8355 -0.5091 -0.7437
  375MPD2    N1 5671   0.113   1.336  16.961 -0.3514 -0.1279  0.0338
  375MPD2    H7 5672   0.073   1.243  16.947 -0.3626 -0.0247 -0.6286
  376TMC3    C1 5673   0.568   0.880  16.847  0.4866 -0.8272 -0.3744
  376TMC3    C2 5674   0.705   0.900  16.841 -0.3691 -0.2499  0.0800
  376TMC3    C3 5675   0.783   0.818  16.763 -0.1787 -0.6503 -0.6082
  376TMC3    C4 5676   0.510   0.771  16.785 -0.4219  0.4717  0.0924
  376TMC3    C5 5677   0.593   0.693  16.712  0.0668  0.5209 -0.8508
  376TMC3    C6 5678   0.731   0.711  16.696  0.9151  0.1421 -0.4369
  376TMC3     C 5679   0.478   0.988  16.877 -0.4109 -0.0903  0.1266
  376TMC3     O 5680   0.359   0.952  16.899  0.0302  0.2624 -0.9578
  376TMC3     H 5681   0.752   0.975  16.903  1.9768 -1.6401 -0.0140
  376TMC3    H1 5682   0.403   0.762  16.773 -0.4569 -0.3956  1.1000
  376TMC3    H2 5683   0.802   0.652  16.638  0.4566 -2.5930  1.7864
  376TMC3    C7 5684   0.525   0.633  16.602  0.3912 -0.1261 -0.1228
  376TMC3    C8 5685   0.934   0.828  16.777 -0.1857  0.0124  0.2057
  376TMC3    O1 5686   0.422   0.681  16.557  0.3743  0.1480  0.6238
  376TMC3    O2 5687   0.968   0.943  16.801  0.1997 -0.2225  0.1909
  377MPD2     C 5688   2.697   0.130  12.808 -0.2626 -0.7373  0.4625
  377MPD2    C1 5689   2.811   0.057  12.825 -0.1481  0.1893  0.2686
  377MPD2    C2 5690   2.824   4.714  12.941 -0.9742  0.3402  0.0656
  377MPD2    C3 5691   2.711   4.702  13.022 -0.2439  0.1577 -0.0236
  377MPD2    C4 5692   2.599   0.037  12.998  0.1775 -0.3325 -0.2617
  377MPD2    C5 5693   2.588   0.120  12.890 -0.2370 -0.4362 -0.4642
  377MPD2     H 5694   2.908   4.647  12.955 -0.2899  0.8219 -1.6006
  377MPD2    H1 5695   2.509   0.032  13.058  1.4448  0.7525  1.7209
  377MPD2    H2 5696   2.679   0.185  12.716 -1.9673 -1.6365  0.2565
  377MPD2    H3 5697   2.498   0.177  12.870 -1.1151 -1.9101 -0.7962
  377MPD2     N 5698   2.692   4.588  13.101  0.1720 -0.1591  0.2065
  377MPD2    H5 5699   2.595   4.559  13.103 -0.1518  0.8563 -1.1830
  377MPD2    N1 5700   2.913   0.065  12.731 -0.0188  0.6934 -0.6593
  377MPD2    H7 5701   2.894   0.125  12.651 -0.3231  1.5218  0.0299
  378TMC3    C1 5702   3.124   4.660  12.404 -0.6251 -0.6836 -0.3528
  378TMC3    C2 5703   3.050   4.705  12.508 -0.2664  0.2934  0.0180
  378TMC3    C3 5704   3.116   0.005  12.619 -0.9788 -0.0653  0.3091
  378TMC3    C4 5705   3.257   4.677  12.397  0.7886 -0.0576  0.3129
  378TMC3    C5 5706   3.318   4.718  12.511 -0.5598  0.0658  0.2319
  378TMC3    C6 5707   3.255   0.015  12.624 -0.1530  1.4636  0.3358
  378TMC3     C 5708   3.046   4.595  12.292  0.2346 -0.3517  0.7265
  378TMC3     O 5709   2.932   4.636  12.278 -0.1835 -0.0382  0.4823
  378TMC3     H 5710   2.942   4.697  12.509 -0.3717  1.3324 -2.5928
  378TMC3    H1 5711   3.310   4.662  12.304 -1.7291 -0.2506 -1.0969
  378TMC3    H2 5712   3.294   0.047  12.720  0.2031 -3.4179  1.8256
  378TMC3    C7 5713   3.465   4.722  12.517  0.3448 -0.0087 -0.2599
  378TMC3    C8 5714   3.043   0.018  12.746 -0.0613 -0.2089  0.1605
  378TMC3    O1 5715   3.518   0.034  12.615 -0.2047  0.1322 -0.2109
  378TMC3    O2 5716   3.097   4.711  12.845  0.1202 -0.2128 -0.3583
  379MPD2     C 5717   3.947   3.473  16.380 -0.4176 -0.8311  0.2852
  379MPD2    C1 5718   3.888   3.390  16.470 -0.8729  0.5269  0.2782
  379MPD2    C2 5719   3.968   3.360  16.579 -0.5603 -0.0880  0.0668
  379MPD2    C3 5720   4.098   3.413  16.605  0.2543 -0.1080  0.1807
  379MPD2    C4 5721   4.152   3.490  16.506 -0.2133 -0.4097 -0.7524
  379MPD2    C5 5722   4.074   3.520  16.399  0.0692  0.8087 -0.4977
  379MPD2     H 5723   3.919   3.301  16.655  2.5157  0.3628  2.3780
  379MPD2    H1 5724   4.252   3.533  16.507  0.8657 -2.8925 -1.1914
  379MPD2    H2 5725   3.896   3.508  16.291 -0.5957 -1.4952  0.1247
  379MPD2    H3 5726   4.112   3.602  16.339 -0.4605 -0.5345 -2.6400
  379MPD2     N 5727   4.178   3.378  16.714  0.1396  0.4176  0.0006
  379MPD2    H5 5728   4.271   3.419  16.712  0.2741  0.0938 -0.5139
  379MPD2    N1 5729   3.765   3.345  16.440  0.4828 -0.1449 -0.7892
  379MPD2    H7 5730   3.717   3.389  16.362 -1.6840  1.3970  1.4207
  380TMC3    C1 5731   3.560   3.227  16.454  0.3065  0.1334  0.6555
  380TMC3    C2 5732   3.522   3.096  16.441  0.1448 -0.7695 -0.5136
  380TMC3    C3 5733   3.423   3.070  16.347 -0.9718  0.0645  0.4777
  380TMC3    C4 5734   3.500   3.326  16.383 -0.4190 -0.1474 -0.0787
  380TMC3    C5 5735   3.406   3.290  16.292 -0.0668 -0.2036  0.2690
  380TMC3    C6 5736   3.355   3.167  16.282 -0.0989  0.0472 -0.8125
  380TMC3     C 5737   3.693   3.253  16.506  0.2097  0.0523  0.5952
  380TMC3     O 5738   3.735   3.169  16.588 -0.2342  0.2041  0.0924
  380TMC3     H 5739   3.590   3.022  16.481  1.9893  1.4278  0.4086
  380TMC3    H1 5740   3.528   3.431  16.383  1.4090 -0.6365  2.4180
  380TMC3    H2 5741   3.269   3.136  16.223 -0.1661 -0.0382 -0.6713
  380TMC3    C7 5742   3.358   3.401  16.210 -0.0375 -0.2965  0.1074
  380TMC3    C8 5743   3.458   2.967  16.253 -0.9448 -0.4225 -0.3669
  380TMC3    O1 5744   3.435   3.494  16.200  0.0743  0.2019  0.2961
  380TMC3    O2 5745   3.456   3.006  16.136  0.2998  0.0475 -0.4894
  381TMC3    C1 5746   3.226   4.538  16.080  0.1617 -0.2697  0.6369
  381TMC3    C2 5747   3.339   4.623  16.071 -0.1265 -0.4339  0.5941
  381TMC3    C3 5748   3.390   4.667  16.185  0.8877 -0.3013 -0.1458
  381TMC3    C4 5749   3.177   4.495  16.202 -0.2819  0.5836  0.9630
  381TMC3    C5 5750   3.238   4.546  16.315  0.3654  0.2044 -0.0613
  381TMC3    C6 5751   3.348   4.625  16.307 -0.4062 -0.1443  0.3226
  381TMC3     C 5752   3.160   4.509  15.958 -0.3963  0.5226  1.1212
  381TMC3     O 5753   3.218   4.506  15.853 -0.6015 -0.4958  0.1301
  381TMC3     H 5754   3.377   4.653  15.974 -1.6597 -2.8209 -0.7698
  381TMC3    H1 5755   3.100   4.420  16.217  0.3924 -0.0348  1.3797
  381TMC3    H2 5756   3.405   4.651  16.395 -0.7385 -2.5546  1.2389
  381TMC3    C7 5757   3.223   4.467  16.439  0.1619 -0.6532 -0.3587
  381TMC3    C8 5758   3.516   4.735  16.174  0.2536  0.2155 -0.2465
  381TMC3    O1 5759   3.217   4.347  16.445  0.4162 -0.2725 -0.3676
  381TMC3    O2 5760   3.586   4.683  16.095 -0.1579  0.0788  0.1083
  382MPD2     C 5761   3.114   2.649  17.466  0.3281 -0.5580  0.2819
  382MPD2    C1 5762   2.997   2.629  17.391  0.0183 -0.8348  0.8286
  382MPD2    C2 5763   2.937   2.507  17.420  0.1787  0.2027  0.3538
  382MPD2    C3 5764   2.989   2.412  17.501  0.3862  0.8784  0.6867
  382MPD2    C4 5765   3.101   2.432  17.576  0.6204 -0.1490 -0.5923
  382MPD2    C5 5766   3.163   2.552  17.559 -0.4278  0.5699  0.4209
  382MPD2     H 5767   2.839   2.492  17.375 -0.2666  3.3014  0.2534
  382MPD2    H1 5768   3.138   2.360  17.649 -0.9950 -0.2456  0.1574
  382MPD2    H2 5769   3.167   2.743  17.470  0.2628 -0.4227 -2.2341
  382MPD2    H3 5770   3.251   2.576  17.617  0.7478 -0.8129 -0.7945
  382MPD2     N 5771   2.924   2.284  17.530  0.0481 -0.3850 -0.0490
  382MPD2    H5 5772   2.970   2.230  17.602  1.2806  0.3285 -0.3081
  382MPD2    N1 5773   2.941   2.724  17.302  0.3280  0.2410 -0.6843
  382MPD2    H7 5774   2.848   2.706  17.263  0.1704 -0.2863 -0.0552
  383TMC3    C1 5775   2.729   2.149  17.558  0.3112  0.4216 -0.2378
  383TMC3    C2 5776   2.661   2.058  17.485 -0.0399  0.4544  0.5736
  383TMC3    C3 5777   2.611   1.954  17.551  0.1208  0.1023 -0.3521
  383TMC3    C4 5778   2.764   2.133  17.694 -0.0078 -0.4428  0.0193
  383TMC3    C5 5779   2.694   2.025  17.753 -0.1610  0.3578  0.0840
  383TMC3    C6 5780   2.621   1.933  17.683  0.2385 -0.6643  0.4252
  383TMC3     C 5781   2.801   2.251  17.483 -0.1539 -0.0578 -0.0388
  383TMC3     O 5782   2.771   2.282  17.369 -0.3055  0.5307 -0.4937
  383TMC3     H 5783   2.656   2.069  17.378  3.2583  1.0561  0.4784
  383TMC3    H1 5784   2.834   2.197  17.746  1.9794 -1.2519 -1.6420
  383TMC3    H2 5785   2.574   1.846  17.727 -1.6482 -0.3048 -0.9074
  383TMC3    C7 5786   2.753   1.984   0.135  0.2193 -0.0587  0.1986
  383TMC3    C8 5787   2.524   1.860  17.475  1.1352  0.2351 -0.0845
  383TMC3    O1 5788   2.737   1.869   0.176  0.2662 -0.6236  0.3156
  383TMC3    O2 5789   2.497   1.895  17.360  0.5165  0.0392 -0.2528
  384MPD2     C 5790   3.952   2.820  12.094 -0.4676  0.3272  0.0004
  384MPD2    C1 5791   3.932   2.761  12.215  0.2244 -0.0704 -0.0618
  384MPD2    C2 5792   4.016   2.663  12.260 -0.4204  0.1968  0.0886
  384MPD2    C3 5793   4.127   2.629  12.191  0.2001 -0.2417  0.1761
  384MPD2    C4 5794   4.145   2.686  12.062  0.6629 -0.0867  0.0406
  384MPD2    C5 5795   4.058   2.783  12.026  0.2634 -0.6506  0.0714
  384MPD2     H 5796   3.993   2.620  12.357 -0.4114 -1.7021 -0.7381
  384MPD2    H1 5797   4.227   2.675  11.992  1.2365 -1.2994  0.8898
  384MPD2    H2 5798   3.890   2.894  12.045  1.2632  1.7194 -0.0578
  384MPD2    H3 5799   4.071   2.826  11.927 -0.2475 -0.6080  0.0223
  384MPD2     N 5800   4.210   2.533  12.253 -0.4192  0.1082  0.7000
  384MPD2    H5 5801   4.192   2.508  12.350 -0.6355 -1.7215  0.2007
  384MPD2    N1 5802   3.820   2.808  12.292  0.1388 -0.2061  0.3143
  384MPD2    H7 5803   3.791   2.904  12.275  0.8795 -0.3248 -1.6505
  385TMC3    C1 5804   4.346   2.354  12.285 -0.2952 -0.0996  0.1111
  385TMC3    C2 5805   4.286   2.232  12.263 -0.0594 -0.4254 -0.2927
  385TMC3    C3 5806   4.233   2.172  12.375  0.3647  0.0694  0.2520
  385TMC3    C4 5807   4.364   2.400  12.423  0.2756  0.4057  0.1503
  385TMC3    C5 5808   4.306   2.331  12.528 -0.9310  0.0445 -0.4015
  385TMC3    C6 5809   4.234   2.215  12.506  0.2444 -0.8606 -0.5891
  385TMC3     C 5810   4.310   2.462  12.192  0.1391  0.2370 -0.1190
  385TMC3     O 5811   4.330   2.456  12.071 -0.1322  0.0333  0.1554
  385TMC3     H 5812   4.275   2.194  12.162 -1.9399 -3.3424  1.0225
  385TMC3    H1 5813   4.412   2.497  12.432  1.6460 -0.3461  1.1205
  385TMC3    H2 5814   4.178   2.152  12.575  1.6238 -0.6386  0.7258
  385TMC3    C7 5815   4.267   2.416  12.643 -0.1010  0.5978 -0.5781
  385TMC3    C8 5816   4.173   2.037  12.357 -0.1827 -0.3180  0.2412
  385TMC3    O1 5817   4.303   2.535  12.646 -0.4009 -0.2809 -0.5377
  385TMC3    O2 5818   4.095   1.997  12.443 -0.1341  0.2634 -1.1349
  386TMC3    C1 5819   4.360   4.573  11.797  0.6344 -0.5410  0.4367
  386TMC3    C2 5820   4.376   4.609  11.668  0.4814 -0.3158  0.1799
  386TMC3    C3 5821   4.271   4.601  11.579 -0.5382 -0.0399 -0.3368
  386TMC3    C4 5822   4.243   4.530  11.849  0.1563  0.6006 -0.2543
  386TMC3    C5 5823   4.140   4.527  11.759 -0.1997  0.3455  0.1474
  386TMC3    C6 5824   4.151   4.566  11.632  0.3024  0.1888  0.1679
  386TMC3     C 5825   4.472   4.589  11.880  0.7788  0.8931 -0.8674
  386TMC3     O 5826   4.552   4.677  11.849 -0.4887  0.3461  0.1291
  386TMC3     H 5827   4.473   4.642  11.632 -0.8338  0.7875 -2.3870
  386TMC3    H1 5828   4.214   4.512  11.952 -0.6676  0.5367 -0.4932
  386TMC3    H2 5829   4.066   4.599  11.573 -0.3405  1.8551  2.0219
  386TMC3    C7 5830   4.007   4.523  11.804 -0.1698  0.6994 -0.0458
  386TMC3    C8 5831   4.257   4.718  11.491  0.2454  0.0260  0.3771
  386TMC3    O1 5832   3.974   4.553  11.917 -0.6836 -0.0542 -0.0385
  386TMC3    O2 5833   4.158   0.055  11.508  0.2003  0.1572 -0.1497
  387MPD2     C 5834   2.207   4.647   9.986  0.2045  0.4374 -0.3506
  387MPD2    C1 5835   2.302   4.563   9.921 -0.9021 -0.2619 -0.0346
  387MPD2    C2 5836   2.277   4.431   9.907  0.2523  0.3076 -0.5492
  387MPD2    C3 5837   2.162   4.374   9.963 -0.3343  0.6278 -0.8661
  387MPD2    C4 5838   2.073   4.458  10.034 -0.8081 -0.8265 -1.2969
  387MPD2    C5 5839   2.099   4.592  10.039  0.0442 -0.5265 -0.2046
  387MPD2     H 5840   2.346   4.366   9.854  2.7784  1.7155  1.0063
  387MPD2    H1 5841   1.973   4.438  10.070 -0.3926 -0.9144 -0.1905
  387MPD2    H2 5842   2.219   0.012  10.013  0.1741 -0.3044  2.5264
  387MPD2    H3 5843   2.027   4.641  10.104  0.8730 -0.3598  0.5973
  387MPD2     N 5844   2.138   4.237   9.948  0.2537 -0.6835  0.6829
  387MPD2    H5 5845   2.186   4.186   9.874 -0.8227 -0.6491 -0.0433
  387MPD2    N1 5846   2.431   4.607   9.888  0.1223  0.2934  0.3259
  387MPD2    H7 5847   2.491   4.534   9.851  0.9702  0.6787  0.9119
  388TMC3    C1 5848   2.636   4.727   9.918 -0.6363  0.3096 -0.3929
  388TMC3    C2 5849   2.703   0.095   9.975 -0.0411 -1.0028  0.2768
  388TMC3    C3 5850   2.827   0.076  10.030 -0.2038  1.1206  0.8838
  388TMC3    C4 5851   2.699   4.602   9.916  0.2370 -0.2049  0.3922
  388TMC3    C5 5852   2.831   4.586   9.968  0.5596  0.3269 -0.5584
  388TMC3    C6 5853   2.896   4.690  10.029 -0.2156  0.4430  0.2279
  388TMC3     C 5854   2.487   4.724   9.919 -0.9606  0.2855 -1.0377
  388TMC3     O 5855   2.430   0.074   9.979 -0.2602  0.3360 -0.4877
  388TMC3     H 5856   2.643   0.184   9.988 -1.5386 -1.9496 -0.1166
  388TMC3    H1 5857   2.650   4.516   9.873  0.0467 -0.0539  0.3052
  388TMC3    H2 5858   2.996   4.671  10.067  0.5833 -0.7933 -2.4954
  388TMC3    C7 5859   2.852   4.464  10.041  0.2521  1.0199 -0.2949
  388TMC3    C8 5860   2.905   0.190  10.085  0.3079  0.2319  0.5177
  388TMC3    O1 5861   2.973   4.440  10.075  0.4263  0.6515 -0.1552
  388TMC3    O2 5862   3.027   0.182  10.080  0.1212  0.1893 -0.0753
  389MPD2     C 5863   1.280   3.349  11.650 -0.3483  0.2681  0.4746
  389MPD2    C1 5864   1.192   3.283  11.581  0.1580 -0.5588  0.2917
  389MPD2    C2 5865   1.095   3.197  11.640  0.2132 -0.0024  0.5251
  389MPD2    C3 5866   1.089   3.192  11.779 -0.4678 -0.6467  0.3786
  389MPD2    C4 5867   1.172   3.278  11.847 -0.0002 -0.8217  0.2056
  389MPD2    C5 5868   1.267   3.357  11.784 -0.2309  0.0535 -0.2284
  389MPD2     H 5869   1.028   3.130  11.589 -0.8937 -0.2504  2.3123
  389MPD2    H1 5870   1.179   3.288  11.955 -1.1133 -0.3036  0.2393
  389MPD2    H2 5871   1.360   3.408  11.606 -0.7055 -1.0303 -1.9025
  389MPD2    H3 5872   1.335   3.420  11.840  0.1132 -0.6236  0.1019
  389MPD2     N 5873   0.988   3.123  11.858 -0.4210  0.6433  0.8807
  389MPD2    H5 5874   0.975   3.143  11.957  1.4936 -0.5902  1.3937
  389MPD2    N1 5875   1.202   3.301  11.442  0.4273  0.1577 -0.5615
  389MPD2    H7 5876   1.282   3.350  11.404  1.2422 -0.8241 -0.0765
  390TMC3    C1 5877   0.819   2.979  11.921  0.3264 -0.3860  0.0285
  390TMC3    C2 5878   0.753   2.857  11.896 -0.0856 -0.3128 -0.9278
  390TMC3    C3 5879   0.639   2.829  11.962 -0.2880  0.5319  1.0861
  390TMC3    C4 5880   0.764   3.074  12.001  0.4321  0.0043 -0.2416
  390TMC3    C5 5881   0.647   3.039  12.060  0.6789  0.5581 -0.3572
  390TMC3    C6 5882   0.587   2.920  12.047  0.0362 -0.5186 -0.1461
  390TMC3     C 5883   0.901   3.030  11.814  0.5941  0.5856  0.2903
  390TMC3     O 5884   0.883   2.991  11.699  0.0765  0.2567 -0.2025
  390TMC3     H 5885   0.792   2.793  11.818 -0.5805 -1.2932 -0.3775
  390TMC3    H1 5886   0.794   3.178  12.007 -0.2023  0.2606 -1.4339
  390TMC3    H2 5887   0.492   2.901  12.097 -0.0150 -0.3362 -0.1736
  390TMC3    C7 5888   0.575   3.143  12.123  0.0848 -0.2101  0.2083
  390TMC3    C8 5889   0.582   2.700  11.953 -0.1607  0.5297 -0.3035
  390TMC3    O1 5890   0.584   3.257  12.075 -0.4485  0.4189 -0.0924
  390TMC3    O2 5891   0.600   2.634  11.849  0.1299 -0.2140 -0.6366
  391MPD2     C 5892   0.872   4.717  11.705  0.1654 -0.7286 -0.1619
  391MPD2    C1 5893   0.978   0.056  11.667 -0.0181  0.6356 -0.3702
  391MPD2    C2 5894   1.002   0.059  11.529  0.1186 -0.1945 -0.2773
  391MPD2    C3 5895   0.912   0.003  11.438 -1.1266  0.2427  0.0391
  391MPD2    C4 5896   0.800   4.675  11.480  0.0683 -0.1168  0.3609
  391MPD2    C5 5897   0.782   4.666  11.616  0.6504 -0.5657 -0.8261
  391MPD2     H 5898   1.089   0.112  11.492  2.0788 -0.7619  3.5893
  391MPD2    H1 5899   0.721   4.630  11.420  0.4597  1.1843 -1.1242
  391MPD2    H2 5900   0.860   4.698  11.811 -0.9143  0.9417  0.0182
  391MPD2    H3 5901   0.692   4.621  11.657  1.3109 -0.8360  0.3207
  391MPD2     N 5902   0.954   0.008  11.300  0.2051 -0.4425 -0.1931
  391MPD2    H5 5903   1.047   0.044  11.282  0.7702 -1.0651  1.5276
  391MPD2    N1 5904   1.059   0.120  11.762 -0.1485  0.4942 -0.6511
  391MPD2    H7 5905   1.052   0.095  11.860 -0.9965  1.3997 -0.4815
  392TMC3    C1 5906   0.925   0.029  11.059  0.0730 -0.4571 -0.0126
  392TMC3    C2 5907   0.840   0.029  10.951 -0.2726  0.1662 -0.6018
  392TMC3    C3 5908   0.877   0.083  10.831 -0.0706 -0.2619 -0.2101
  392TMC3    C4 5909   1.050   0.090  11.050  0.1239  0.7723 -0.2781
  392TMC3    C5 5910   1.084   0.139  10.932  0.1228  0.5158  0.7146
  392TMC3    C6 5911   1.002   0.137  10.821  0.0658  0.0826 -0.1237
  392TMC3     C 5912   0.867   4.737  11.193 -0.2117 -0.4367  0.8716
  392TMC3     O 5913   0.748   4.711  11.194  0.6097 -0.4087 -0.2020
  392TMC3     H 5914   0.749   4.710  10.953  0.3070 -0.7682 -1.4754
  392TMC3    H1 5915   1.123   0.079  11.129  1.7447 -0.2850 -1.9129
  392TMC3    H2 5916   1.020   0.197  10.733 -1.3766  1.1524  0.2990
  392TMC3    C7 5917   1.192   0.235  10.928 -0.0420 -0.6332  0.5646
  392TMC3    C8 5918   0.798   0.060  10.710  0.3513  0.1509 -0.6887
  392TMC3    O1 5919   1.217   0.301  11.027  0.2453  0.4908  0.2830
  392TMC3    O2 5920   0.681   0.040  10.721  0.5831  0.2376 -0.2242
  393TMC3    C1 5921   4.576   2.566  10.795 -0.4703  0.7617 -0.4076
  393TMC3    C2 5922   4.483   2.490  10.870  1.1854  0.0819  0.2790
  393TMC3    C3 5923   4.491   2.355  10.880  0.5948  0.4556 -0.7030
  393TMC3    C4 5924   4.685   2.502  10.743 -0.1939  0.0952  0.2553
  393TMC3    C5 5925   4.696   2.369  10.774 -0.1463 -0.1915  0.0863
  393TMC3    C6 5926   4.600   2.290  10.835 -0.8851 -0.1378  0.3026
  393TMC3     C 5927   4.558   2.709  10.797  0.6867  0.8204  0.0427
  393TMC3     O 5928   4.455   2.760  10.839  0.0698 -0.0721  0.5282
  393TMC3     H 5929   4.412   2.549  10.926  0.1232 -1.1083  0.1792
  393TMC3    H1 5930   0.021   2.548  10.680  0.6989 -2.5532 -0.6175
  393TMC3    H2 5931   4.618   2.185  10.853  2.3281  0.6943  2.1955
  393TMC3    C7 5932   0.092   2.303  10.767  0.5698 -0.8264 -0.8859
  393TMC3    C8 5933   4.380   2.270  10.923 -0.3364 -0.0786  1.1359
  393TMC3    O1 5934   0.095   2.185  10.732  0.2247  0.4908  0.1172
  393TMC3    O2 5935   4.396   2.145  10.922  0.0115  0.6302 -0.1856
  394TMC3    C1 5936   1.135   3.312  11.227  0.3242  0.1978  0.4900
  394TMC3    C2 5937   1.122   3.220  11.122  0.2744 -0.6730  0.4528
  394TMC3    C3 5938   1.196   3.244  11.011 -0.0919 -0.2873  0.1373
  394TMC3    C4 5939   1.221   3.423  11.220 -0.3891  0.3881  0.2749
  394TMC3    C5 5940   1.294   3.441  11.105  0.6665  0.0382 -0.5500
  394TMC3    C6 5941   1.281   3.352  11.002  0.4120  0.0727 -0.0965
  394TMC3     C 5942   1.106   3.263  11.358  0.8413  0.1953  0.2691
  394TMC3     O 5943   1.019   3.176  11.368  0.4583  0.1667 -0.4255
  394TMC3     H 5944   1.055   3.135  11.134 -1.7620  0.6345 -1.5748
  394TMC3    H1 5945   1.219   3.491  11.304 -1.0059  1.0263 -0.2624
  394TMC3    H2 5946   1.353   3.357  10.920  1.8010 -2.3623  0.9816
  394TMC3    C7 5947   1.421   3.501  11.130 -0.3702 -0.2084 -0.6109
  394TMC3    C8 5948   1.182   3.167  10.893 -0.0242 -0.0633 -0.0210
  394TMC3    O1 5949   1.455   3.503  11.250  1.5053 -0.1345 -0.8727
  394TMC3    O2 5950   1.186   3.220  10.786 -0.0085 -0.1982 -0.3410
  395TMC3    C1 5951   1.154   0.308  15.362  0.6900  0.1207 -0.7097
  395TMC3    C2 5952   1.018   0.318  15.352 -0.1433  0.3288 -0.4198
  395TMC3    C3 5953   0.976   0.368  15.234 -0.3332  0.0067  0.4476
  395TMC3    C4 5954   1.250   0.347  15.268 -0.1387  0.5808  0.3015
  395TMC3    C5 5955   1.197   0.407  15.160 -0.0275  0.4989 -0.1749
  395TMC3    C6 5956   1.061   0.413  15.134 -0.1260  0.9113 -0.0882
  395TMC3     C 5957   1.210   0.312  15.499 -0.1574  0.1145  0.5359
  395TMC3     O 5958   1.130   0.348  15.585 -0.2386  0.3478  0.4532
  395TMC3     H 5959   0.945   0.292  15.427 -0.4208 -0.7293 -1.0665
  395TMC3    H1 5960   1.356   0.368  15.273  0.1518 -0.3314 -1.8871
  395TMC3    H2 5961   1.025   0.479  15.056 -0.8814 -0.3510 -0.7891
  395TMC3    C7 5962   1.276   0.504  15.091  0.0205 -0.1155 -0.2997
  395TMC3    C8 5963   0.849   0.439  15.248 -0.0074 -0.0441  0.2054
  395TMC3    O1 5964   1.231   0.617  15.077  0.4484 -0.5262 -0.2957
  395TMC3    O2 5965   0.815   0.465  15.365  0.3540  0.3121  0.1634
  396MPD2     C 5966   0.736   1.692  17.124  0.1798 -0.3058 -0.3475
  396MPD2    C1 5967   0.855   1.730  17.175  0.0612 -0.1150 -0.0824
  396MPD2    C2 5968   0.924   1.830  17.105  0.3033  0.4153  0.3909
  396MPD2    C3 5969   0.875   1.886  16.990  0.1977  0.5183  0.0523
  396MPD2    C4 5970   0.755   1.846  16.944  0.3052 -0.0294 -0.6363
  396MPD2    C5 5971   0.683   1.753  17.012  0.1253 -0.2877  0.5087
  396MPD2     H 5972   1.012   1.870  17.156 -0.6299  1.9145  0.8430
  396MPD2    H1 5973   0.703   1.888  16.858 -0.6752 -0.0340 -0.0382
  396MPD2    H2 5974   0.679   1.616  17.176 -0.1653 -0.2608 -0.6523
  396MPD2    H3 5975   0.580   1.733  16.983  0.6736 -2.2266 -0.1236
  396MPD2     N 5976   0.950   1.991  16.931 -0.2085 -0.0591  0.3470
  396MPD2    H5 5977   1.023   2.033  16.988  0.3745 -1.8975  0.9551
  396MPD2    N1 5978   0.886   1.667  17.296  0.4969 -0.0675 -0.1908
  396MPD2    H7 5979   0.814   1.603  17.329  0.7362 -0.8973 -1.2568
  397TMC3    C1 5980   1.032   1.628  17.485  0.6942 -0.5473 -0.0567
  397TMC3    C2 5981   1.166   1.634  17.511 -0.2458  0.2329 -0.0894
  397TMC3    C3 5982   1.226   1.511  17.509 -0.1079  0.0021 -0.7876
  397TMC3    C4 5983   0.954   1.515  17.502 -0.0957 -0.1679 -0.0154
  397TMC3    C5 5984   1.021   1.395  17.499  0.4658  0.2765  0.4361
  397TMC3    C6 5985   1.154   1.391  17.492 -0.0377 -0.2573  0.7996
  397TMC3     C 5986   0.993   1.704  17.370 -0.0326  0.0895 -0.0925
  397TMC3     O 5987   1.058   1.807  17.363  0.3513 -0.2421 -0.3923
  397TMC3     H 5988   1.215   1.728  17.492 -0.4927  0.5645  0.9214
  397TMC3    H1 5989   0.846   1.523  17.509  0.2246  0.9269  3.1798
  397TMC3    H2 5990   1.214   1.301  17.491  0.9242  0.3627  2.3780
  397TMC3    C7 5991   0.958   1.275  17.561 -0.0829 -0.5987  0.1047
  397TMC3    C8 5992   1.353   1.506  17.569  0.2635 -0.0908 -0.0988
  397TMC3    O1 5993   0.954   1.171  17.495  0.2320 -0.0072  0.0960
  397TMC3    O2 5994   1.374   1.407  17.640  0.0179  0.4577 -0.2467
  398MPD2     C 5995   3.605   3.275   0.203  0.2561  0.7701 -0.2461
  398MPD2    C1 5996   3.713   3.202   0.248 -0.1513 -0.0521 -0.1037
  398MPD2    C2 5997   3.810   3.259   0.329 -0.0694  0.4862  0.2657
  398MPD2    C3 5998   3.808   3.393   0.333  0.0014 -0.2513 -0.4045
  398MPD2    C4 5999   3.697   3.466   0.298 -1.2357  0.1945  0.3807
  398MPD2    C5 6000   3.594   3.410   0.228  0.1890 -0.0165 -0.2279
  398MPD2     H 6001   3.891   3.198   0.368  0.3285  0.2974 -0.8735
  398MPD2    H1 6002   3.700   3.574   0.302 -1.9491  0.1476  2.1659
  398MPD2    H2 6003   3.532   3.231   0.137 -0.7200 -0.8617  1.9079
  398MPD2    H3 6004   3.509   3.467   0.194 -1.7778 -3.1361 -0.4790
  398MPD2     N 6005   3.914   3.453   0.395 -0.3704 -0.0794 -1.0586
  398MPD2    H5 6006   3.965   3.398   0.464 -0.5639 -0.3180 -1.1069
  398MPD2    N1 6007   3.720   3.063   0.223 -0.6047  0.0164  0.0838
  398MPD2    H7 6008   3.790   3.009   0.273 -0.2741 -1.2469 -1.7280
  399TMC3    C1 6009   3.673   2.844   0.146 -0.2625 -0.0471 -0.4657
  399TMC3    C2 6010   3.742   2.799   0.262  0.4604  0.1859 -0.4081
  399TMC3    C3 6011   3.704   2.675   0.305 -0.2155 -0.6628  0.6041
  399TMC3    C4 6012   3.603   2.763   0.067 -0.3927  0.1513 -0.3918
  399TMC3    C5 6013   3.582   2.633   0.109  0.2986  0.0931  0.5749
  399TMC3    C6 6014   3.627   2.591   0.228 -0.8183  0.2845 -0.1744
  399TMC3     C 6015   3.647   2.987   0.131  0.1061  0.4627 -0.5378
  399TMC3     O 6016   3.584   3.018   0.029  0.2845 -0.4007 -0.1574
  399TMC3     H 6017   3.794   2.872   0.323 -1.8517  1.1588  0.3977
  399TMC3    H1 6018   3.547   2.806  17.740 -0.6134  0.0997 -0.2694
  399TMC3    H2 6019   3.636   2.487   0.257  2.2956  0.1195 -1.6838
  399TMC3    C7 6020   3.557   2.528   0.016  0.4571 -0.2266  1.0117
  399TMC3    C8 6021   3.801   2.613   0.395  0.5576  0.7740  0.0332
  399TMC3    O1 6022   3.526   2.418   0.056  0.3015  0.3694  1.0324
  399TMC3    O2 6023   3.903   2.675   0.425  0.3304 -0.4370  0.4244
  400TMC3    C1 6024   2.673   1.570  17.135  0.2278  0.4050  0.2021
  400TMC3    C2 6025   2.649   1.448  17.073  0.7238  0.5464 -0.3625
  400TMC3    C3 6026   2.552   1.434  16.986  0.6707 -0.1792  0.1262
  400TMC3    C4 6027   2.598   1.679  17.104  0.3736  0.2260  0.3838
  400TMC3    C5 6028   2.501   1.660  17.011  0.5267  0.3146 -0.1445
  400TMC3    C6 6029   2.470   1.537  16.953 -0.1268 -0.4799 -0.1265
  400TMC3     C 6030   2.767   1.569  17.250 -0.2856  0.0232  0.1515
  400TMC3     O 6031   2.815   1.461  17.280 -0.1700 -0.1711  0.4983
  400TMC3     H 6032   2.701   1.356  17.097 -0.5328  0.3053  1.4162
  400TMC3    H1 6033   2.606   1.768  17.166  0.4630  1.2405 -1.0883
  400TMC3    H2 6034   2.382   1.519  16.893  0.7186  0.4124 -1.6206
  400TMC3    C7 6035   2.439   1.778  16.946  0.4505 -0.2949  0.2432
  400TMC3    C8 6036   2.489   1.296  16.980 -0.5725 -0.0779  0.3064
  400TMC3    O1 6037   2.376   1.757  16.845 -0.2106  0.5205 -0.5234
  400TMC3    O2 6038   2.520   1.219  17.066 -0.2063 -0.2430 -0.1139
  401MPD2     C 6039   0.424   0.161   0.614  0.4766  0.4226  0.5013
  401MPD2    C1 6040   0.495   0.081   0.704  0.4910  0.5242 -0.3647
  401MPD2    C2 6041   0.483   4.687   0.687  0.0941 -0.2080 -0.2848
  401MPD2    C3 6042   0.398   4.630   0.589  0.0505 -0.2475 -0.2069
  401MPD2    C4 6043   0.317   4.715   0.514 -0.3768  0.2388 -0.0106
  401MPD2    C5 6044   0.332   0.112   0.526 -0.7377  0.0056 -0.6319
  401MPD2     H 6045   0.545   4.619   0.743  1.2968  1.5252  0.4690
  401MPD2    H1 6046   0.245   4.685   0.439  1.8793  2.7786 -3.1717
  401MPD2    H2 6047   0.425   0.269   0.620  0.1894  0.3938  1.0683
  401MPD2    H3 6048   0.267   0.182   0.474 -1.6465 -0.2166  0.1985
  401MPD2     N 6049   0.389   4.488   0.581 -0.5597 -0.0614  0.0362
  401MPD2    H5 6050   0.445   4.438   0.648  1.2885  0.1323 -1.3729
  401MPD2    N1 6051   0.598   0.126   0.795 -0.5280  0.5429  0.8643
  401MPD2    H7 6052   0.664   0.056   0.828  0.8392  1.7399  0.6664
  402TMC3    C1 6053   0.356   4.282   0.483  0.8262  0.1966  0.4211
  402TMC3    C2 6054   0.325   4.229   0.604 -0.5491 -0.1628  0.1876
  402TMC3    C3 6055   0.383   4.109   0.627  0.1394 -0.0980  0.4191
  402TMC3    C4 6056   0.414   4.224   0.386 -0.6333 -0.2610  0.4857
  402TMC3    C5 6057   0.461   4.096   0.403  0.7765 -0.1223  0.1085
  402TMC3    C6 6058   0.450   4.038   0.529 -0.6247 -0.3297 -0.3626
  402TMC3     C 6059   0.343   4.425   0.469 -0.5819  0.2364 -1.0647
  402TMC3     O 6060   0.324   4.468   0.356  0.6706  0.4369 -0.5165
  402TMC3     H 6061   0.273   4.298   0.668  1.2919  2.3022 -0.9904
  402TMC3    H1 6062   0.435   4.279   0.295  0.2900  1.3311  1.6608
  402TMC3    H2 6063   0.489   3.940   0.553  0.2347  0.4086  1.2950
  402TMC3    C7 6064   0.572   4.058   0.329 -0.0250  0.2341 -1.1723
  402TMC3    C8 6065   0.423   4.069   0.760 -0.0922 -1.0787  0.1241
  402TMC3    O1 6066   0.571   4.109   0.218 -0.3450  0.0440  0.3980
  402TMC3    O2 6067   0.522   3.997   0.769  0.2548 -0.6627 -0.3287
  403MPD2     C 6068   4.072   2.047  13.443 -0.2719 -0.0898 -0.3848
  403MPD2    C1 6069   3.993   2.129  13.516 -0.1223  0.1078 -0.0586
  403MPD2    C2 6070   4.051   2.210  13.618 -0.9947 -0.3588  0.4596
  403MPD2    C3 6071   4.184   2.196  13.653  0.4830  0.0196 -1.1133
  403MPD2    C4 6072   4.263   2.117  13.575 -0.1557  0.2924  0.4221
  403MPD2    C5 6073   4.206   2.050  13.469 -0.0205  0.4561 -0.0434
  403MPD2     H 6074   3.993   2.257  13.695 -2.6373 -0.9491 -0.4062
  403MPD2    H1 6075   4.370   2.114  13.593 -0.5213 -2.3285  2.1123
  403MPD2    H2 6076   4.037   1.986  13.360  0.8260 -0.1087 -0.8229
  403MPD2    H3 6077   4.273   1.995  13.405 -0.1535 -0.0148  0.2160
  403MPD2     N 6078   4.249   2.268  13.757  0.7122 -0.3986 -0.1046
  403MPD2    H5 6079   4.345   2.250  13.785  0.7763  2.4288  1.4707
  403MPD2    N1 6080   3.850   2.129  13.484  0.2762 -0.2311  0.0436
  403MPD2    H7 6081   3.813   2.088  13.399  1.0825  2.1968 -1.4760
  404TMC3    C1 6082   3.631   2.202  13.470  0.0487  0.1935  0.2847
  404TMC3    C2 6083   3.508   2.237  13.524 -0.3293  0.2134  0.9011
  404TMC3    C3 6084   3.410   2.280  13.442  0.7763 -0.5012 -0.0328
  404TMC3    C4 6085   3.649   2.217  13.334  0.3884  0.2922  0.4713
  404TMC3    C5 6086   3.551   2.265  13.256  0.5621 -0.7157  0.2509
  404TMC3    C6 6087   3.433   2.307  13.308 -0.5606  0.0099 -0.0201
  404TMC3     C 6088   3.749   2.194  13.560  0.5410 -0.6520 -0.0279
  404TMC3     O 6089   3.751   2.240  13.675  0.0363 -0.3379 -0.2749
  404TMC3     H 6090   3.482   2.225  13.628  1.8646  1.4882  1.6106
  404TMC3    H1 6091   3.732   2.168  13.285  0.8835  0.9992  0.5987
  404TMC3    H2 6092   3.354   2.335  13.240  0.0787 -0.0170 -0.7794
  404TMC3    C7 6093   3.595   2.285  13.121  0.3429 -0.4271 -0.3933
  404TMC3    C8 6094   3.273   2.300  13.490  0.4666 -0.3857 -0.0122
  404TMC3    O1 6095   3.710   2.256  13.085  0.1748 -0.1802  0.0799
  404TMC3    O2 6096   3.182   2.292  13.411 -0.4784  0.1402  0.3460
  405MPD2     C 6097   4.095   3.555  14.154  0.7405  0.2675 -0.4381
  405MPD2    C1 6098   4.096   3.453  14.255  0.2598 -0.2968 -0.1887
  405MPD2    C2 6099   3.992   3.364  14.256 -0.7093  0.0055  0.1023
  405MPD2    C3 6100   3.895   3.353  14.154 -0.0794  0.3289 -0.3330
  405MPD2    C4 6101   3.890   3.453  14.053 -0.5105  0.1549  0.3100
  405MPD2    C5 6102   3.991   3.546  14.052  0.3074 -0.3729 -0.1649
  405MPD2     H 6103   3.994   3.297  14.341  0.4714  2.0479  1.6846
  405MPD2    H1 6104   3.808   3.462  13.983 -0.7683 -0.0651  0.5859
  405MPD2    H2 6105   4.159   3.642  14.160 -0.9665  1.5089 -0.3849
  405MPD2    H3 6106   3.987   3.626  13.978 -0.4127  1.2633  1.6318
  405MPD2     N 6107   3.795   3.254  14.177 -1.0362  0.1118 -0.1371
  405MPD2    H5 6108   3.813   3.202  14.262  0.1732  0.0433 -0.4408
  405MPD2    N1 6109   4.186   3.464  14.367  0.3669 -0.3730 -0.2335
  405MPD2    H7 6110   4.243   3.548  14.369 -0.2981  0.0703  0.2406
  406TMC3    C1 6111   3.393   3.147  14.323  0.7303 -0.3961 -0.0088
  406TMC3    C2 6112   3.437   3.047  14.402  0.0167  0.6756  0.6115
  406TMC3    C3 6113   3.574   3.021  14.389 -0.2415  0.2844  0.4770
  406TMC3    C4 6114   3.467   3.189  14.217 -0.3481  0.1565 -0.0370
  406TMC3    C5 6115   3.598   3.150  14.199 -0.4982 -0.2539 -0.2867
  406TMC3    C6 6116   3.655   3.070  14.291 -0.1709 -0.3229 -0.3754
  406TMC3     C 6117   3.271   3.213  14.358 -0.0482  0.0455  0.0619
  406TMC3     O 6118   3.211   3.264  14.264 -0.1764 -0.4226  0.1754
  406TMC3     H 6119   3.384   2.999  14.482  1.1733  0.8186  1.4689
  406TMC3    H1 6120   3.435   3.278  14.165  0.8266  1.9242  2.2803
  406TMC3    H2 6121   3.761   3.045  14.291 -0.2729 -0.7487 -0.4266
  406TMC3    C7 6122   3.676   3.237  14.113 -0.3715 -0.2995 -0.3768
  406TMC3    C8 6123   3.637   2.931  14.490 -0.6589 -0.2667 -0.1231
  406TMC3    O1 6124   3.625   3.310  14.027 -0.1303 -0.8822  0.0251
  406TMC3    O2 6125   3.577   2.834  14.537 -0.3473  0.1845 -0.2573
  407MPD2     C 6126   1.685   4.095   9.931 -0.6749  0.5225 -0.4532
  407MPD2    C1 6127   1.711   4.220   9.881 -0.4208 -0.4654  0.3462
  407MPD2    C2 6128   1.669   4.329   9.953 -0.1274 -0.0327 -0.7701
  407MPD2    C3 6129   1.638   4.314  10.092  0.4787 -0.2857  0.1839
  407MPD2    C4 6130   1.628   4.186  10.144 -0.3880  0.2029  0.4940
  407MPD2    C5 6131   1.658   4.079  10.063  0.3156 -0.5911  0.1764
  407MPD2     H 6132   1.657   4.429   9.912  3.1088  0.7727  0.2245
  407MPD2    H1 6133   1.606   4.168  10.249  1.5499  1.5223  1.1142
  407MPD2    H2 6134   1.709   4.009   9.869  3.4409  0.7767  0.8173
  407MPD2    H3 6135   1.658   3.977  10.100  0.2835 -0.5972  0.1594
  407MPD2     N 6136   1.642   4.430  10.175  0.2350  0.3892 -0.2564
  407MPD2    H5 6137   1.655   4.420  10.275 -1.2608 -2.7307 -0.3957
  407MPD2    N1 6138   1.764   4.243   9.751 -0.0220 -0.1679  0.4992
  407MPD2    H7 6139   1.764   4.339   9.719  0.9679 -0.7487 -1.2680
  408TMC3    C1 6140   1.885   4.216   9.560  0.3396  0.2686  0.7823
  408TMC3    C2 6141   2.015   4.171   9.565 -0.0197 -0.4435  0.5299
  408TMC3    C3 6142   2.118   4.267   9.562 -0.8914 -0.8121  1.0557
  408TMC3    C4 6143   1.852   4.343   9.527 -0.6115  0.0737 -0.4416
  408TMC3    C5 6144   1.960   4.429   9.519  0.2493 -0.3880  0.4287
  408TMC3    C6 6145   2.090   4.396   9.532  0.3448 -0.9473  0.5360
  408TMC3     C 6146   1.800   4.151   9.655 -0.3553  0.8195 -0.0050
  408TMC3     O 6147   1.818   4.029   9.676 -0.0411 -0.3112 -0.6202
  408TMC3     H 6148   2.034   4.078   9.617  1.6206 -0.4909 -0.1660
  408TMC3    H1 6149   1.751   4.382   9.521 -1.0069 -0.6638  1.4013
  408TMC3    H2 6150   2.170   4.468   9.527  0.5391 -1.0939  1.5003
  408TMC3    C7 6151   1.932   4.570   9.507 -0.4185  0.2771  0.8311
  408TMC3    C8 6152   2.246   4.225   9.619 -0.6895 -0.2213  0.0574
  408TMC3    O1 6153   2.003   4.645   9.574  0.2053  0.3187 -0.5431
  408TMC3    O2 6154   2.237   4.132   9.695  0.3404  0.1213 -0.2729
  409MPD2     C 6155   1.257   1.033  17.347  0.5613 -0.7158 -0.3867
  409MPD2    C1 6156   1.376   1.033  17.408 -0.5967  0.0658 -0.6132
  409MPD2    C2 6157   1.467   1.136  17.380 -0.6358 -0.1892  0.0643
  409MPD2    C3 6158   1.443   1.234  17.284 -0.5134 -0.1336 -0.6986
  409MPD2    C4 6159   1.311   1.238  17.233  0.1645 -0.1320 -0.4983
  409MPD2    C5 6160   1.224   1.137  17.265 -0.0125 -0.2909  0.0482
  409MPD2     H 6161   1.561   1.136  17.434 -1.8330 -2.6760  2.1798
  409MPD2    H1 6162   1.283   1.311  17.159  3.0780  0.6257 -0.8374
  409MPD2    H2 6163   1.177   0.962  17.360  0.5250 -0.4748  0.7154
  409MPD2    H3 6164   1.141   1.117  17.198 -1.4863 -0.1281  1.8260
  409MPD2     N 6165   1.542   1.326  17.237  0.4948 -0.3398 -0.0494
  409MPD2    H5 6166   1.515   1.388  17.161  1.4931 -0.2800 -0.3598
  409MPD2    N1 6167   1.417   0.930  17.496  0.1025  0.7387 -0.4298
  409MPD2    H7 6168   1.504   0.953  17.543  1.4020 -0.8669 -2.0136
  410TMC3    C1 6169   1.749   1.441  17.201 -0.2182  0.1278 -0.5929
  410TMC3    C2 6170   1.877   1.481  17.233 -0.2499 -0.0343 -0.4410
  410TMC3    C3 6171   1.941   1.589  17.180  0.0656 -0.7303 -0.4076
  410TMC3    C4 6172   1.689   1.512  17.099  0.0026  0.4402 -0.6373
  410TMC3    C5 6173   1.757   1.612  17.033 -0.1746 -0.0932  0.0558
  410TMC3    C6 6174   1.879   1.668  17.080 -0.4200  0.0755  0.4324
  410TMC3     C 6175   1.675   1.338  17.273 -0.2135  0.1857 -0.7127
  410TMC3     O 6176   1.736   1.286  17.369 -0.0480  0.2104  0.3794
  410TMC3     H 6177   1.919   1.434  17.322  3.7408  0.3985 -2.1052
  410TMC3    H1 6178   1.605   1.469  17.045 -1.0478 -0.3266  1.6229
  410TMC3    H2 6179   1.918   1.756  17.032 -0.2908 -0.8714 -1.2140
  410TMC3    C7 6180   1.685   1.672  16.923 -0.0269  0.5696  0.1834
  410TMC3    C8 6181   2.082   1.630  17.214  0.3728  0.0115 -0.5087
  410TMC3    O1 6182   1.567   1.640  16.903 -0.0981  0.1435  0.4532
  410TMC3    O2 6183   2.124   1.738  17.173 -0.3766  0.6609 -0.1259
  411MPD2     C 6184   1.787   1.399  14.645  0.4453  0.1304 -0.2975
  411MPD2    C1 6185   1.748   1.481  14.745  0.0459 -0.8427 -0.4509
  411MPD2    C2 6186   1.631   1.453  14.811  0.8609  0.2783 -0.2683
  411MPD2    C3 6187   1.547   1.349  14.782 -0.0568  0.0925  0.8905
  411MPD2    C4 6188   1.606   1.256  14.704  0.1358 -0.6833  0.7477
  411MPD2    C5 6189   1.727   1.282  14.633 -0.2116  0.6536  0.0028
  411MPD2     H 6190   1.594   1.522  14.886  0.0394  1.4400 -1.7269
  411MPD2    H1 6191   1.550   1.169  14.674  1.1391 -1.6322  1.5700
  411MPD2    H2 6192   1.880   1.410  14.589 -0.0283 -1.1600 -1.3422
  411MPD2    H3 6193   1.753   1.207  14.560  0.5325  1.8159 -0.9336
  411MPD2     N 6194   1.411   1.330  14.817 -0.0408 -0.8121 -0.3238
  411MPD2    H5 6195   1.365   1.251  14.773  0.5042 -0.4119 -1.6090
  411MPD2    N1 6196   1.813   1.603  14.758 -0.1853  0.3747 -0.3453
  411MPD2    H7 6197   1.869   1.629  14.679 -1.6936  0.2535 -1.4599
  412TMC3    C1 6198   1.212   1.363  14.928 -0.4697  0.7748  0.7775
  412TMC3    C2 6199   1.134   1.444  15.005 -1.2579  0.2459 -0.0211
  412TMC3    C3 6200   1.025   1.395  15.071 -0.0758 -0.5252 -0.0478
  412TMC3    C4 6201   1.187   1.230  14.933 -0.0675 -0.1023 -0.1311
  412TMC3    C5 6202   1.086   1.187  15.013 -0.4244 -0.3701 -0.2737
  412TMC3    C6 6203   1.005   1.264  15.085  0.2737  0.0192  0.3052
  412TMC3     C 6204   1.344   1.410  14.905 -0.0280 -0.6754  0.5929
  412TMC3     O 6205   1.384   1.517  14.951  0.0387  0.0026 -0.4571
  412TMC3     H 6206   1.151   1.551  15.005 -1.6427  0.3101 -1.6822
  412TMC3    H1 6207   1.252   1.153  14.894 -1.3529 -0.3053 -1.8864
  412TMC3    H2 6208   0.914   1.230  15.134  0.9157  0.8302  2.0393
  412TMC3    C7 6209   1.019   1.060  14.981 -0.0791 -0.7854 -0.8291
  412TMC3    C8 6210   0.941   1.487  15.146 -0.1251  1.1818  0.6520
  412TMC3    O1 6211   0.959   1.008  15.072  0.1571 -0.2813 -0.4572
  412TMC3    O2 6212   1.013   1.560  15.216  0.5038  0.7454  0.0942
  413MPD2     C 6213   3.485   4.333  15.878 -0.6804  0.1125 -0.4523
  413MPD2    C1 6214   3.530   4.373  15.752 -0.0437  0.5056  0.0071
  413MPD2    C2 6215   3.625   4.291  15.686 -0.5904 -0.2344  0.0466
  413MPD2    C3 6216   3.666   4.174  15.741 -0.0516  0.0924 -0.1159
  413MPD2    C4 6217   3.616   4.137  15.863  0.0847 -0.2791  0.7236
  413MPD2    C5 6218   3.529   4.211  15.929  0.4142 -0.1742 -0.1742
  413MPD2     H 6219   3.661   4.321  15.588  0.7953 -0.1488  0.5855
  413MPD2    H1 6220   3.637   4.045  15.916  0.8989 -0.4104  0.1736
  413MPD2    H2 6221   3.402   4.380  15.932 -0.7763 -0.6566  0.0701
  413MPD2    H3 6222   3.500   4.185  16.030 -0.3157  1.9326  0.1522
  413MPD2     N 6223   3.757   4.093  15.669  0.5297  0.0125  0.0577
  413MPD2    H5 6224   3.795   4.142  15.589 -0.6249 -0.6042 -0.8780
  413MPD2    N1 6225   3.482   4.492  15.691 -0.5989 -0.3679  0.2628
  413MPD2    H7 6226   3.407   4.530  15.748 -0.9718  0.9342 -1.0709
  414TMC3    C1 6227   3.892   3.907  15.618  0.1479 -0.0175 -0.1955
  414TMC3    C2 6228   3.916   3.778  15.641 -0.1838  0.4348 -0.4919
  414TMC3    C3 6229   4.023   3.725  15.578 -0.1897  0.0782  0.1320
  414TMC3    C4 6230   3.967   3.989  15.529  0.1216  0.0300 -0.3806
  414TMC3    C5 6231   4.060   3.921  15.451 -0.0061  0.2034  0.4967
  414TMC3    C6 6232   4.086   3.784  15.472 -0.6557  0.2469 -0.6881
  414TMC3     C 6233   3.789   3.965  15.703  0.1937 -0.0806 -0.2733
  414TMC3     O 6234   3.737   3.899  15.794  0.3407 -0.6559 -0.6592
  414TMC3     H 6235   3.868   3.726  15.723 -0.0888 -1.1245 -1.4226
  414TMC3    H1 6236   3.950   4.095  15.517 -1.8611 -0.2047  0.3226
  414TMC3    H2 6237   4.164   3.723  15.428 -0.0370 -1.3941  2.6998
  414TMC3    C7 6238   4.156   3.997  15.377 -0.4876  0.5994  0.2795
  414TMC3    C8 6239   4.036   3.580  15.602  0.0643 -0.0147  0.1937
  414TMC3    O1 6240   4.227   4.084  15.429  0.3940 -0.6362 -0.5480
  414TMC3    O2 6241   3.935   3.518  15.635  0.6306 -0.0180 -0.8515
  415TMC3    C1 6242   4.334   1.682  10.365  0.1151 -0.5697 -0.0935
  415TMC3    C2 6243   4.425   1.777  10.337 -0.1800  0.5465  0.1540
  415TMC3    C3 6244   4.516   1.738  10.240 -0.8325  0.4621  0.2552
  415TMC3    C4 6245   4.336   1.561  10.299  0.1731 -0.3753 -0.0993
  415TMC3    C5 6246   4.410   1.542  10.194  0.0097  0.1461  0.1091
  415TMC3    C6 6247   4.512   1.627  10.167 -0.7535  0.2879 -0.2806
  415TMC3     C 6248   4.236   1.689  10.474  0.5869 -0.2060 -0.2044
  415TMC3     O 6249   4.173   1.587  10.498  0.5986 -0.3798 -0.1698
  415TMC3     H 6250   4.442   1.858  10.408 -1.8832  0.9248  0.1289
  415TMC3    H1 6251   4.278   1.477  10.336  0.9962  0.2532  2.6482
  415TMC3    H2 6252   4.594   1.595  10.103 -0.3282 -1.9620  1.4028
  415TMC3    C7 6253   4.352   1.476  10.076  0.7148  0.4164  0.0604
  415TMC3    C8 6254   4.608   1.837  10.181  0.9036  0.3782 -1.0265
  415TMC3    O1 6255   4.401   1.503   9.962  0.6091 -0.0404  0.0702
  415TMC3    O2 6256   4.699   1.795  10.112 -0.5701  0.2945 -0.4746
  416MPD2     C 6257   0.971   1.100  11.959 -0.1437  0.0703  0.3914
  416MPD2    C1 6258   0.837   1.055  11.939 -0.0069  0.4367 -0.2443
  416MPD2    C2 6259   0.825   0.929  11.872 -0.1008 -0.0823 -0.2449
  416MPD2    C3 6260   0.940   0.862  11.823 -0.5993  0.2339  0.3472
  416MPD2    C4 6261   1.068   0.908  11.847  0.0892 -0.1406  0.2799
  416MPD2    C5 6262   1.081   1.027  11.919 -0.5319  0.1741  0.2490
  416MPD2     H 6263   0.730   0.876  11.871 -1.0714  1.6608  0.0765
  416MPD2    H1 6264   1.154   0.861  11.801 -0.1263  1.3094 -1.6237
  416MPD2    H2 6265   0.997   1.186  12.020  1.4657 -0.0759 -0.0849
  416MPD2    H3 6266   1.180   1.067  11.934  1.5520 -3.9761 -2.5461
  416MPD2     N 6267   0.927   0.747  11.742  0.2871  0.5613 -0.2460
  416MPD2    H5 6268   1.013   0.695  11.731  0.2436  0.4578 -0.1042
  416MPD2    N1 6269   0.725   1.133  11.967  0.9099  0.1446  0.4407
  416MPD2    H7 6270   0.735   1.232  11.988 -2.6572  0.6009 -0.0105
  417TMC3    C1 6271   0.509   1.187  12.006  0.4492 -0.7220 -0.5845
  417TMC3    C2 6272   0.555   1.280  12.099 -0.0473  1.0891  0.7282
  417TMC3    C3 6273   0.466   1.384  12.123 -0.5362 -0.6332 -0.3289
  417TMC3    C4 6274   0.384   1.187  11.954 -0.1748 -0.1564 -0.7436
  417TMC3    C5 6275   0.303   1.290  11.980 -0.6252 -0.5429  0.3910
  417TMC3    C6 6276   0.345   1.391  12.059 -0.1301  0.4989 -0.2995
  417TMC3     C 6277   0.594   1.087  11.956 -0.0460  0.5598 -0.1938
  417TMC3     O 6278   0.543   0.980  11.920  0.0688 -0.7848  0.2065
  417TMC3     H 6279   0.643   1.270  12.161  1.0646  0.3042 -1.0024
  417TMC3    H1 6280   0.358   1.099  11.896 -0.5105  0.3214 -1.3205
  417TMC3    H2 6281   0.274   1.471  12.079 -1.1831  0.1822 -2.8304
  417TMC3    C7 6282   0.194   1.311  11.889  0.6792 -0.3439 -0.2428
  417TMC3    C8 6283   0.477   1.460  12.249  0.6388  0.5933  0.3455
  417TMC3    O1 6284   0.161   1.424  11.858 -0.8613  0.0062 -0.1083
  417TMC3    O2 6285   0.370   1.489  12.307 -0.0332 -0.2329 -0.4555
  418TMC3    C1 6286   4.286   3.727   0.451 -0.7371 -0.2581  0.3181
  418TMC3    C2 6287   4.170   3.698   0.391  0.3293  0.7308 -0.4594
  418TMC3    C3 6288   4.086   3.609   0.444 -0.4705  0.4121  0.3201
  418TMC3    C4 6289   4.313   3.695   0.575  0.2035 -0.5553  0.0606
  418TMC3    C5 6290   4.218   3.610   0.639 -0.7645  0.4314  0.5646
  418TMC3    C6 6291   4.111   3.555   0.571  0.4002  0.7975  0.1555
  418TMC3     C 6292   4.405   3.723   0.369  0.3880 -1.4799 -0.3303
  418TMC3     O 6293   4.502   3.671   0.419 -0.0334 -0.8186  0.0025
  418TMC3     H 6294   4.162   3.717   0.285 -1.0354  0.4660 -0.4016
  418TMC3    H1 6295   4.413   3.722   0.606 -0.1102  3.2318 -2.1877
  418TMC3    H2 6296   4.043   3.496   0.631  0.5732  0.9876  0.5372
  418TMC3    C7 6297   4.272   3.508   0.720 -0.6355 -0.2169  0.4564
  418TMC3    C8 6298   3.972   3.573   0.365  0.2934  0.8918 -0.4635
  418TMC3    O1 6299   4.226   3.396   0.711  0.1829  0.1836  0.4241
  418TMC3    O2 6300   3.948   3.647   0.270  0.2506  0.2494  0.0921
  419MPD2     C 6301   3.082   1.160  12.716  0.4425 -0.1664  0.7755
  419MPD2    C1 6302   3.056   1.269  12.635  0.2995  0.0052  0.5193
  419MPD2    C2 6303   3.025   1.386  12.695 -0.0627 -0.7312  0.5957
  419MPD2    C3 6304   3.034   1.404  12.834  0.2910  0.0113  0.1235
  419MPD2    C4 6305   3.078   1.297  12.908 -0.0979  0.2755  0.1664
  419MPD2    C5 6306   3.100   1.172  12.849 -0.6626  0.4915  0.4496
  419MPD2     H 6307   2.990   1.474  12.642  0.5918 -1.0329 -0.3267
  419MPD2    H1 6308   3.070   1.290  13.016  1.4285 -1.5881  0.1628
  419MPD2    H2 6309   3.094   1.062  12.673 -1.3638  0.1923 -0.5737
  419MPD2    H3 6310   3.121   1.084  12.908  2.1143 -0.0029 -1.2715
  419MPD2     N 6311   2.986   1.524  12.894  0.4612  0.6639 -0.2309
  419MPD2    H5 6312   2.964   1.596  12.826  1.7716  1.0234 -0.2823
  419MPD2    N1 6313   3.056   1.271  12.494 -0.8493 -0.1561 -0.6089
  419MPD2    H7 6314   3.021   1.359  12.456  0.6734 -0.2851 -2.3380
  420TMC3    C1 6315   2.886   1.652  13.067  0.7505 -0.1856  0.1935
  420TMC3    C2 6316   2.800   1.711  12.986 -0.7499 -0.0932 -0.3657
  420TMC3    C3 6317   2.692   1.777  13.032 -0.0499  0.0249  0.0221
  420TMC3    C4 6318   2.864   1.648  13.202 -0.1872 -0.2026  0.4978
  420TMC3    C5 6319   2.746   1.706  13.250  0.6667 -0.2504  0.5848
  420TMC3    C6 6320   2.667   1.773  13.167  0.2557  0.5561  0.0723
  420TMC3     C 6321   2.976   1.545  13.028  0.5678  0.5883 -0.6311
  420TMC3     O 6322   3.026   1.483  13.123  0.0449 -0.3652  0.0107
  420TMC3     H 6323   2.814   1.722  12.879 -1.8580 -2.4206 -0.7536
  420TMC3    H1 6324   2.937   1.622  13.278  0.4166 -0.2359 -0.0909
  420TMC3    H2 6325   2.570   1.803  13.205 -0.4395 -0.5141 -0.8623
  420TMC3    C7 6326   2.695   1.649  13.375  0.0574  0.4079 -0.7245
  420TMC3    C8 6327   2.604   1.845  12.935  0.8827 -0.1920  0.4465
  420TMC3    O1 6328   2.774   1.581  13.442 -0.4834  0.2510  0.2823
  420TMC3    O2 6329   2.626   1.827  12.818 -0.2306  0.7831  0.0236
  421TMC3    C1 6330   4.281   2.439  13.912 -0.3650 -0.0948 -0.1317
  421TMC3    C2 6331   4.242   2.563  13.963  0.4423  0.2146 -0.4777
  421TMC3    C3 6332   4.302   2.604  14.076  0.0736  0.2533  0.3180
  421TMC3    C4 6333   4.372   2.362  13.978 -0.2504 -0.6351  0.3717
  421TMC3    C5 6334   4.420   2.405  14.098  0.2302  0.4299  0.3129
  421TMC3    C6 6335   4.393   2.528  14.149 -0.5045 -0.6877 -0.4545
  421TMC3     C 6336   4.191   2.381  13.810  1.2803 -0.2574  0.2176
  421TMC3     O 6337   4.090   2.451  13.776 -0.7239  0.3419  0.1985
  421TMC3     H 6338   4.180   2.629  13.904  2.1147 -0.1287 -2.6180
  421TMC3    H1 6339   4.403   2.263  13.945  0.3057 -0.3806  0.1425
  421TMC3    H2 6340   4.410   2.562  14.250 -1.1694 -2.8413  0.3725
  421TMC3    C7 6341   4.557   2.377  14.135  0.1186  0.2259 -0.6640
  421TMC3    C8 6342   4.307   2.746  14.104 -0.2720  0.1364  0.3503
  421TMC3    O1 6343   4.640   2.464  14.115  0.1744 -0.1666  0.1313
  421TMC3    O2 6344   4.395   2.800  14.167  0.0050 -0.0466 -0.1606
  422TMC3    C1 6345   1.545   4.117  13.042 -0.3047 -0.1895 -0.0637
  422TMC3    C2 6346   1.525   4.256  13.039  0.2318 -0.3866 -0.6541
  422TMC3    C3 6347   1.409   4.308  13.095 -0.2929  0.1934 -0.0887
  422TMC3    C4 6348   1.439   4.032  13.070 -0.5771 -0.1490  0.1089
  422TMC3    C5 6349   1.324   4.088  13.111 -0.4024  0.2061  0.3728
  422TMC3    C6 6350   1.307   4.223  13.136 -0.2703  0.3496  0.6068
  422TMC3     C 6351   1.637   4.069  12.935 -0.5359 -0.1237 -0.7055
  422TMC3     O 6352   1.650   4.145  12.841  0.4394  0.3729 -0.1919
  422TMC3     H 6353   1.600   4.329  13.011 -0.2137  0.2374 -0.2022
  422TMC3    H1 6354   1.451   3.930  13.038  0.5987  0.1110 -0.3018
  422TMC3    H2 6355   1.207   4.262  13.148 -0.5159 -0.0881 -0.0117
  422TMC3    C7 6356   1.211   3.995  13.112 -0.1932  0.3457 -0.3775
  422TMC3    C8 6357   1.387   4.454  13.096  0.3033 -0.5058 -0.6186
  422TMC3    O1 6358   1.239   3.876  13.111 -0.4277 -0.6361 -0.0375
  422TMC3    O2 6359   1.447   4.530  13.021  0.4207  0.5243  0.4022
  423MPD2     C 6360   3.055   0.686   0.822 -0.3896  0.4219  0.5641
  423MPD2    C1 6361   3.086   0.558   0.861  0.6000  0.0306  0.9770
  423MPD2    C2 6362   3.109   0.466   0.764  0.0775  0.0744 -0.9260
  423MPD2    C3 6363   3.112   0.503   0.626  0.3469 -0.5275 -0.3107
  423MPD2    C4 6364   3.076   0.633   0.593  0.0163 -0.8177  0.3071
  423MPD2    C5 6365   3.049   0.727   0.694  0.0923  0.0028 -0.2426
  423MPD2     H 6366   3.118   0.360   0.788  1.5749  0.2202 -0.8471
  423MPD2    H1 6367   3.078   0.666   0.490 -0.1631 -0.0322  0.5595
  423MPD2    H2 6368   3.033   0.765   0.893 -0.6407 -1.7768  2.9348
  423MPD2    H3 6369   3.029   0.831   0.668  1.7817  0.6681  1.1376
  423MPD2     N 6370   3.147   0.425   0.514  0.0628 -0.4162 -0.2895
  423MPD2    H5 6371   3.137   0.466   0.421 -0.2322 -2.6592 -1.2416
  423MPD2    N1 6372   3.104   0.520   0.997  0.3009 -0.4983 -0.6959
  423MPD2    H7 6373   3.154   0.433   1.010 -0.6967 -1.0224 -0.3308
  424TMC3    C1 6374   3.114   0.530   1.228 -0.6383 -0.2308  0.0018
  424TMC3    C2 6375   3.247   0.491   1.251 -0.5659 -0.1688 -0.5118
  424TMC3    C3 6376   3.290   0.459   1.377 -0.0279 -0.1793  0.3336
  424TMC3    C4 6377   3.046   0.564   1.338 -0.9619  0.3577  0.1412
  424TMC3    C5 6378   3.094   0.551   1.462  0.2295 -0.1552 -0.0247
  424TMC3    C6 6379   3.218   0.491   1.489 -0.6538  0.2055 -0.1588
  424TMC3     C 6380   3.064   0.589   1.108  0.3918 -0.7314  0.0165
  424TMC3     O 6381   2.990   0.685   1.115  0.3586 -0.1220 -0.0671
  424TMC3     H 6382   3.302   0.464   1.161 -0.2941  0.5574 -0.5675
  424TMC3    H1 6383   2.939   0.579   1.327 -0.8917  1.6378  1.1372
  424TMC3    H2 6384   3.259   0.457   1.584 -0.2620  0.5664 -0.2007
  424TMC3    C7 6385   3.001   0.582   1.580 -0.1250  0.6899  0.1255
  424TMC3    C8 6386   3.409   0.381   1.389  0.3955 -0.5631  0.4918
  424TMC3    O1 6387   3.030   0.539   1.688 -0.5077 -0.0907 -0.6263
  424TMC3    O2 6388   3.426   0.311   1.483 -0.1789  0.4766 -0.5059
  425MPD2     C 6389   2.285   0.037  17.377 -0.1402 -0.5983 -0.1099
  425MPD2    C1 6390   2.240   4.649  17.412  0.1189  0.5257  0.2497
  425MPD2    C2 6391   2.116   4.626  17.467 -0.7884  0.2568  0.2817
  425MPD2    C3 6392   2.043   4.736  17.511  0.9368  0.1163 -0.7203
  425MPD2    C4 6393   2.095   0.129  17.485 -0.3552  0.0288 -0.7461
  425MPD2    C5 6394   2.205   0.146  17.406  0.3787 -0.3318 -0.0710
  425MPD2     H 6395   2.087   4.525  17.495  3.0357 -1.0724 -0.5592
  425MPD2    H1 6396   2.045   0.218  17.522 -1.4401 -0.8376 -0.1450
  425MPD2    H2 6397   2.383   0.051  17.334 -0.4788 -1.1389 -1.0566
  425MPD2    H3 6398   2.236   0.246  17.377  0.0491 -0.5291 -1.0985
  425MPD2     N 6399   1.927   4.714  17.586  0.3343 -0.3061  0.2069
  425MPD2    H5 6400   1.886   4.622  17.598  1.2149 -0.7757 -0.4041
  425MPD2    N1 6401   2.336   4.552  17.377 -0.3653 -1.0025  0.0938
  425MPD2    H7 6402   2.426   4.591  17.352 -0.3849 -0.4920  0.8243
  426TMC3    C1 6403   2.412   4.349  17.312  0.0647 -0.0364  0.6212
  426TMC3    C2 6404   2.413   4.385  17.178  0.7925 -0.0653  0.2601
  426TMC3    C3 6405   2.444   4.292  17.091 -0.2586  0.2025 -0.5091
  426TMC3    C4 6406   2.442   4.224  17.355  0.4136  0.6864 -0.0866
  426TMC3    C5 6407   2.487   4.136  17.257 -0.0107 -0.3132  0.1463
  426TMC3    C6 6408   2.499   4.167  17.120 -0.3154 -0.5395  0.0515
  426TMC3     C 6409   2.314   4.423  17.390  0.6775  0.3204  0.6208
  426TMC3     O 6410   2.234   4.352  17.449 -0.2322  0.3994 -0.3464
  426TMC3     H 6411   2.364   4.476  17.147 -1.9607 -1.4836  0.4420
  426TMC3    H1 6412   2.427   4.196  17.459  0.4891 -0.9208 -0.5066
  426TMC3    H2 6413   2.535   4.090  17.052 -0.9210 -1.7823  1.1373
  426TMC3    C7 6414   2.450   4.000  17.269  0.4224 -0.3139 -0.3689
  426TMC3    C8 6415   2.374   4.295  16.966  0.1693 -0.1445 -0.7636
  426TMC3    O1 6416   2.489   3.922  17.178 -0.4381  0.1871 -0.5500
  426TMC3    O2 6417   2.433   4.241  16.873 -0.8763 -0.0738  0.0353
  427MPD2     C 6418   1.000   1.959  15.518  0.0283  0.6524 -0.2593
  427MPD2    C1 6419   0.940   1.840  15.570 -1.0572  0.0969  0.3350
  427MPD2    C2 6420   0.801   1.824  15.561 -1.1384 -0.6327 -0.0974
  427MPD2    C3 6421   0.725   1.912  15.487 -0.3723 -0.2836  0.2440
  427MPD2    C4 6422   0.779   2.026  15.435  0.0403 -0.4836 -0.3378
  427MPD2    C5 6423   0.915   2.044  15.450 -0.4538  0.1734  0.3436
  427MPD2     H 6424   0.753   1.736  15.602 -2.0868 -0.3004 -0.4992
  427MPD2    H1 6425   0.729   2.103  15.376 -0.1995  0.2934  0.8826
  427MPD2    H2 6426   1.103   1.991  15.530  0.1638  1.1629 -2.9726
  427MPD2    H3 6427   0.950   2.141  15.418 -1.4109  0.3347 -0.2202
  427MPD2     N 6428   0.581   1.900  15.469  0.2091 -0.3781 -0.2825
  427MPD2    H5 6429   0.544   1.985  15.427 -1.3130 -1.0741 -0.3653
  427MPD2    N1 6430   1.031   1.749  15.631 -0.3174 -0.0051 -0.5531
  427MPD2    H7 6431   1.123   1.789  15.650 -0.0611 -0.0048 -1.8424
  428TMC3    C1 6432   1.129   1.560  15.730  0.4296 -0.2395  0.2442
  428TMC3    C2 6433   1.122   1.463  15.824 -0.0884 -0.3466  0.6131
  428TMC3    C3 6434   1.227   1.425  15.900 -0.0721 -0.0528  0.3958
  428TMC3    C4 6435   1.254   1.607  15.682 -0.0396 -0.0950 -0.4151
  428TMC3    C5 6436   1.357   1.569  15.768 -0.0291  0.3522  0.0209
  428TMC3    C6 6437   1.344   1.491  15.880  0.1448  0.7532  0.7205
  428TMC3     C 6438   1.006   1.626  15.682 -0.5556  0.6633  1.0741
  428TMC3     O 6439   0.896   1.574  15.705 -0.5329 -0.3651 -0.2496
  428TMC3     H 6440   1.022   1.452  15.864 -1.2074  1.1597 -1.7689
  428TMC3    H1 6441   1.274   1.657  15.588 -1.1442  1.5408  0.2106
  428TMC3    H2 6442   1.431   1.450  15.930 -0.1804  0.1131  0.7687
  428TMC3    C7 6443   1.489   1.629  15.747  0.4026  0.1832  0.1312
  428TMC3    C8 6444   1.224   1.301  15.978  0.4933  0.1199 -0.0090
  428TMC3    O1 6445   1.555   1.651  15.844  0.1450 -0.3564  0.2475
  428TMC3    O2 6446   1.335   1.267  16.028 -0.0856 -0.6674 -0.6552
  429MPD2     C 6447   1.964   1.948  17.552 -1.1902 -0.2510 -0.3652
  429MPD2    C1 6448   2.097   1.931  17.566 -0.0579 -0.2896 -0.4358
  429MPD2    C2 6449   2.177   2.042  17.569  0.3207 -0.8855  0.3109
  429MPD2    C3 6450   2.126   2.167  17.550  0.2290  0.6520  0.3990
  429MPD2    C4 6451   1.989   2.181  17.546 -0.5976  0.1529 -0.3473
  429MPD2    C5 6452   1.917   2.073  17.534  0.8121  0.2629  0.4660
  429MPD2     H 6453   2.283   2.024  17.586  0.3587 -1.8836 -1.0244
  429MPD2    H1 6454   1.933   2.267  17.510 -0.6434  1.0691  1.9258
  429MPD2    H2 6455   1.888   1.871  17.553 -0.2810 -1.1020  2.0728
  429MPD2    H3 6456   1.811   2.088  17.514  1.1688  0.3600 -1.2924
  429MPD2     N 6457   2.211   2.276  17.546 -0.1556 -0.1230  0.4146
  429MPD2    H5 6458   2.306   2.257  17.515  0.0289 -0.0403  0.9253
  429MPD2    N1 6459   2.151   1.806  17.606 -0.8332 -0.1065  0.0484
  429MPD2    H7 6460   2.245   1.803  17.646 -1.2651 -1.0526  1.0019
  430TMC3    C1 6461   2.273   2.496  17.517  0.1028  0.0679 -0.3757
  430TMC3    C2 6462   2.228   2.607  17.444  0.3239 -0.7533  0.1340
  430TMC3    C3 6463   2.298   2.632  17.333  0.1067 -0.2065  0.3162
  430TMC3    C4 6464   2.400   2.435  17.483  0.2959 -0.0367 -1.2377
  430TMC3    C5 6465   2.454   2.459  17.360  0.6815  0.0889 -0.6874
  430TMC3    C6 6466   2.408   2.564  17.282  0.3574  0.3991  0.1525
  430TMC3     C 6467   2.170   2.406  17.558 -0.1699  0.7014  0.6589
  430TMC3     O 6468   2.066   2.455  17.602  0.2968  0.3172  0.1849
  430TMC3     H 6469   2.133   2.655  17.470  0.8843  1.8160 -2.5409
  430TMC3    H1 6470   2.443   2.356  17.544 -2.4995  0.2317  1.0781
  430TMC3    H2 6471   2.466   2.589  17.194  1.7216  0.2265  1.0040
  430TMC3    C7 6472   2.454   2.330  17.290 -0.6766  0.3470 -0.5170
  430TMC3    C8 6473   2.219   2.671  17.219 -0.3611 -0.8423  0.6473
  430TMC3    O1 6474   2.461   2.225  17.356 -0.4193 -0.1896 -0.1269
  430TMC3    O2 6475   2.234   2.596  17.124 -0.0005 -0.3459  0.2672
  431MPD2     C 6476   2.710   1.863  12.458  0.2177  0.5721  0.3180
  431MPD2    C1 6477   2.820   1.886  12.373  0.5077  0.5669 -0.0878
  431MPD2    C2 6478   2.893   1.777  12.313  0.3491  0.1471 -0.2610
  431MPD2    C3 6479   2.845   1.649  12.331 -0.5966  0.0567 -0.5242
  431MPD2    C4 6480   2.734   1.629  12.413  0.1904  0.5938 -0.2031
  431MPD2    C5 6481   2.665   1.736  12.464 -0.1595 -0.0495  0.6193
  431MPD2     H 6482   2.976   1.795  12.246  0.3050  1.6560  0.1010
  431MPD2    H1 6483   2.682   1.535  12.429  0.7564  0.4804  0.9731
  431MPD2    H2 6484   2.651   1.940  12.506 -0.1951 -0.4199  1.4148
  431MPD2    H3 6485   2.577   1.706  12.519  0.2257  1.1727  1.8907
  431MPD2     N 6486   2.887   1.544  12.256 -0.0528 -0.8871  0.8283
  431MPD2    H5 6487   2.831   1.459  12.261 -1.7812  0.0767 -1.8490
  431MPD2    N1 6488   2.864   2.014  12.338  0.0445 -0.1534  0.6395
  431MPD2    H7 6489   2.938   2.021  12.269  0.7226 -4.4227  0.9068
  432TMC3    C1 6490   3.048   1.413  12.146  0.5220  0.3891 -0.7966
  432TMC3    C2 6491   3.158   1.403  12.072 -0.3342  0.2696 -0.1254
  432TMC3    C3 6492   3.247   1.308  12.099  0.5833 -0.1718 -0.4694
  432TMC3    C4 6493   3.020   1.318  12.251 -0.3313 -0.0660 -0.4886
  432TMC3    C5 6494   3.121   1.229  12.280  0.7398  0.4519 -0.0924
  432TMC3    C6 6495   3.242   1.230  12.210  0.4961  0.7566  0.2597
  432TMC3     C 6496   2.995   1.545  12.167  0.1038  0.1692  0.0111
  432TMC3     O 6497   3.076   1.630  12.143 -0.2448 -0.0976  0.2656
  432TMC3     H 6498   3.175   1.476  11.993  1.9097 -0.7766 -0.6108
  432TMC3    H1 6499   2.921   1.308  12.296  0.4714 -0.8150  1.1225
  432TMC3    H2 6500   3.313   1.155  12.242  0.9186  0.8990 -0.3219
  432TMC3    C7 6501   3.125   1.186  12.410 -0.1039  0.6606 -0.0606
  432TMC3    C8 6502   3.373   1.319  12.027 -0.1198  0.0950 -0.2315
  432TMC3    O1 6503   3.203   1.090  12.437 -0.2742  0.3410  0.4492
  432TMC3    O2 6504   3.367   1.356  11.915  0.2986  0.1995 -0.5259
  433MPD2     C 6505   1.835   0.527  11.063  0.4196  0.3886 -0.4402
  433MPD2    C1 6506   1.761   0.437  11.146 -0.7436  0.5031 -0.0987
  433MPD2    C2 6507   1.755   0.461  11.284  0.2335  0.1208  0.5294
  433MPD2    C3 6508   1.803   0.582  11.339  0.1277  0.0574  0.2091
  433MPD2    C4 6509   1.858   0.672  11.251 -0.1520 -0.1080 -0.8239
  433MPD2    C5 6510   1.880   0.645  11.114  0.2841  0.5818  0.0920
  433MPD2     H 6511   1.716   0.388  11.354 -0.3032 -1.1971 -1.1603
  433MPD2    H1 6512   1.885   0.770  11.289 -1.0592 -0.9249  1.9135
  433MPD2    H2 6513   1.837   0.509  10.956 -1.1367  0.3991 -0.4686
  433MPD2    H3 6514   1.940   0.716  11.058  2.4160 -1.2214  0.0677
  433MPD2     N 6515   1.798   0.599  11.481  0.1511  0.5116 -0.0717
  433MPD2    H5 6516   1.765   0.522  11.538  1.9727  0.8666  1.4632
  433MPD2    N1 6517   1.707   0.329  11.075 -0.6673  0.3892 -0.1918
  433MPD2    H7 6518   1.720   0.322  10.975  1.2744  2.5669 -0.0785
  434TMC3    C1 6519   1.560   0.141  11.046 -0.5037  0.1220  1.4930
  434TMC3    C2 6520   1.460   0.065  11.105  0.2500  0.4512 -0.1886
  434TMC3    C3 6521   1.405   4.701  11.034 -0.0514  0.5042 -1.0230
  434TMC3    C4 6522   1.610   0.105  10.926  0.0652 -0.3932 -0.8059
  434TMC3    C5 6523   1.550   0.008  10.858  0.3186  0.5903 -0.0515
  434TMC3    C6 6524   1.447   4.670  10.909 -0.0075  0.1603 -0.1150
  434TMC3     C 6525   1.640   0.225  11.136 -0.9053  0.7751 -1.0316
  434TMC3     O 6526   1.642   0.192  11.255 -0.1566  0.5452  0.4832
  434TMC3     H 6527   1.441   0.083  11.210 -2.0524 -1.0463 -0.3549
  434TMC3    H1 6528   1.704   0.148  10.892  0.8188 -2.0999 -0.8539
  434TMC3    H2 6529   1.401   4.587  10.855  1.7995 -0.3686 -0.8360
  434TMC3    C7 6530   1.651   4.663  10.791 -0.5760 -0.8831  0.5366
  434TMC3    C8 6531   1.360   4.596  11.127  0.3997  0.0518  0.1430
  434TMC3    O1 6532   1.749   4.721  10.744  0.3349 -0.1963 -0.2885
  434TMC3    O2 6533   1.337   4.627  11.245 -0.5372 -0.0705 -0.2567
  435MPD2     C 6534   3.846   0.788  15.317  0.0479 -0.2121  0.0598
  435MPD2    C1 6535   3.770   0.739  15.428 -0.8412 -0.5752  0.5160
  435MPD2    C2 6536   3.835   0.663  15.524 -0.4076  0.2915  0.5663
  435MPD2    C3 6537   3.960   0.608  15.501  0.1288 -0.1485  0.2357
  435MPD2    C4 6538   4.025   0.656  15.386 -0.2914  0.3395 -0.6101
  435MPD2    C5 6539   3.976   0.750  15.297  0.4984 -0.4152  0.1129
  435MPD2     H 6540   3.775   0.636  15.611 -2.3346 -0.8906 -1.1451
  435MPD2    H1 6541   4.123   0.618  15.362 -0.7359 -1.5214  0.5847
  435MPD2    H2 6542   3.789   0.832  15.236  1.2956  0.1142 -0.6346
  435MPD2    H3 6543   4.031   0.776  15.207 -0.6716  0.6480 -0.2973
  435MPD2     N 6544   4.016   0.518  15.593 -0.3900 -0.5420 -0.3029
  435MPD2    H5 6545   3.958   0.511  15.676 -0.5466  0.0645 -0.3615
  435MPD2    N1 6546   3.642   0.787  15.453 -0.1062  0.5195 -0.5790
  435MPD2    H7 6547   3.597   0.756  15.539 -0.3009  2.1723 -0.0888
  436TMC3    C1 6548   3.269   0.851  15.582  0.0148  0.3988 -0.8332
  436TMC3    C2 6549   3.399   0.832  15.545  0.1487 -0.4206  0.2919
  436TMC3    C3 6550   3.448   0.908  15.444  0.0143  0.1114 -0.0571
  436TMC3    C4 6551   3.188   0.945  15.528  0.2467 -0.6422  1.2098
  436TMC3    C5 6552   3.237   1.027  15.433  0.0241  0.4756  0.2029
  436TMC3    C6 6553   3.369   1.009  15.393  1.0581  0.6354  0.2848
  436TMC3     C 6554   3.216   0.751  15.674  0.0484  0.3291  0.3580
  436TMC3     O 6555   3.258   0.635  15.666 -0.3202  0.3983  0.2772
  436TMC3     H 6556   3.447   0.750  15.598 -1.0420  0.2009  2.3487
  436TMC3    H1 6557   3.082   0.941  15.551 -0.0098 -0.7865  0.0030
  436TMC3    H2 6558   3.408   1.060  15.305 -0.5514 -0.0408 -0.8226
  436TMC3    C7 6559   3.145   1.116  15.361  0.0368 -0.8857 -0.5180
  436TMC3    C8 6560   3.578   0.882  15.383  0.6831 -0.4567  0.1084
  436TMC3    O1 6561   3.028   1.086  15.378 -0.1828 -0.8070 -0.2119
  436TMC3    O2 6562   3.597   0.924  15.270  0.2210 -0.9141 -0.5584
  437TMC3    C1 6563   1.704   2.864  12.836  0.1977 -0.1954 -0.0490
  437TMC3    C2 6564   1.708   2.975  12.750 -0.0781 -0.4462  0.3083
  437TMC3    C3 6565   1.808   2.984  12.652 -0.6047 -0.0877 -0.9623
  437TMC3    C4 6566   1.799   2.770  12.842 -0.4456 -0.1775  0.2456
  437TMC3    C5 6567   1.890   2.779  12.743  0.1973 -0.1921  0.2346
  437TMC3    C6 6568   1.895   2.877  12.649 -0.6639 -0.1670 -0.1901
  437TMC3     C 6569   1.627   2.883  12.959  1.2336  0.1078  0.0888
  437TMC3     O 6570   1.669   2.819  13.053 -0.3340 -0.0805  0.4383
  437TMC3     H 6571   1.630   3.050  12.741 -0.7699 -1.0871  0.9783
  437TMC3    H1 6572   1.796   2.686  12.911  0.5831 -0.1239  0.3524
  437TMC3    H2 6573   1.978   2.879  12.579 -0.5080 -1.5348 -0.0421
  437TMC3    C7 6574   1.978   2.663  12.730 -0.6750 -0.8756  0.1136
  437TMC3    C8 6575   1.795   3.078  12.541 -0.1301 -0.0414 -0.6713
  437TMC3    O1 6576   1.993   2.592  12.828 -0.4637  0.9464  0.5827
  437TMC3    O2 6577   1.706   3.160  12.552 -0.3450 -0.3264 -0.3101
  438MPD2     C 6578   4.733   3.426  16.855 -0.0297  0.2021 -0.0663
  438MPD2    C1 6579   0.074   3.346  16.936  0.0320  0.0620  0.0762
  438MPD2    C2 6580   0.066   3.367  17.077  0.3202 -0.4762 -0.1333
  438MPD2    C3 6581   4.705   3.445  17.135  0.4359 -0.4215 -0.2028
  438MPD2    C4 6582   4.632   3.524  17.054  0.5583  0.1366  0.0156
  438MPD2    C5 6583   4.647   3.514  16.919  0.1458 -0.0974 -0.2727
  438MPD2     H 6584   0.137   3.319  17.142  0.3995  0.7452  0.6854
  438MPD2    H1 6585   4.571   3.607  17.087  1.3763  0.2897  1.1218
  438MPD2    H2 6586   0.014   3.427  16.748  0.0599 -0.1976 -0.0530
  438MPD2    H3 6587   4.591   3.573  16.847 -2.5842  0.4605  2.3176
  438MPD2     N 6588   4.693   3.465  17.280 -0.3679  0.0883 -0.0923
  438MPD2    H5 6589   4.623   3.532  17.310 -1.7571 -1.1326 -0.6111
  438MPD2    N1 6590   0.167   3.251  16.891 -0.2219 -0.0190 -0.1730
  438MPD2    H7 6591   0.211   3.196  16.964 -0.4431 -0.6047 -0.4725
  439TMC3    C1 6592   0.252   3.088  16.739 -0.1171  0.1813 -0.2525
  439TMC3    C2 6593   0.263   3.043  16.613 -0.4323  0.3874  0.1129
  439TMC3    C3 6594   0.324   2.920  16.583  0.2094  0.0496 -0.0549
  439TMC3    C4 6595   0.311   3.016  16.843  0.4771 -0.3049 -0.6237
  439TMC3    C5 6596   0.378   2.899  16.806 -0.6447  0.3729  0.1622
  439TMC3    C6 6597   0.378   2.840  16.682  0.5438  0.3506  0.2394
  439TMC3     C 6598   0.182   3.215  16.760  0.5446 -0.5816 -0.9028
  439TMC3     O 6599   0.134   3.267  16.660  0.1528 -0.1614  0.1055
  439TMC3     H 6600   0.222   3.101  16.531 -2.7999  0.3385  1.2833
  439TMC3    H1 6601   0.317   3.052  16.945  2.1328  2.0201 -1.5419
  439TMC3    H2 6602   0.423   2.745  16.654  0.9794  0.6639 -0.1326
  439TMC3    C7 6603   0.460   2.846  16.914 -0.2866 -0.1041 -0.3836
  439TMC3    C8 6604   0.343   2.887  16.448  0.5260  0.8122  0.2198
  439TMC3    O1 6605   0.491   2.920  17.004  0.1600  0.0758 -0.1105
  439TMC3    O2 6606   0.452   2.834  16.429 -0.1415 -0.4144  0.2917
  440MPD2     C 6607   3.510   2.950  14.898  0.1167 -0.9010  0.0251
  440MPD2    C1 6608   3.540   3.069  14.958  0.3256 -0.2275  0.5509
  440MPD2    C2 6609   3.610   3.062  15.082  0.0712  0.0500  0.5661
  440MPD2    C3 6610   3.642   2.942  15.142 -0.2222 -0.5316 -0.6201
  440MPD2    C4 6611   3.618   2.829  15.068 -0.4110  0.1840  0.4708
  440MPD2    C5 6612   3.562   2.832  14.940 -0.4254  0.1589 -0.6673
  440MPD2     H 6613   3.610   3.154  15.139  0.3421 -1.5265  3.1328
  440MPD2    H1 6614   3.653   2.734  15.105  1.3583  0.5054 -0.4008
  440MPD2    H2 6615   3.459   2.954  14.802  1.4364  0.2669 -0.6405
  440MPD2    H3 6616   3.545   2.742  14.882  0.0364 -1.4652  1.7043
  440MPD2     N 6617   3.700   2.935  15.267  0.1740 -0.0098  0.0338
  440MPD2    H5 6618   3.720   3.024  15.312 -0.4933  1.8143 -3.3136
  440MPD2    N1 6619   3.491   3.191  14.907  0.4662  0.1282  0.7497
  440MPD2    H7 6620   3.516   3.275  14.958  2.8734 -0.1991  0.1280
  441TMC3    C1 6621   3.778   2.859  15.475 -0.2331  0.2184 -0.8127
  441TMC3    C2 6622   3.906   2.899  15.493 -0.1519  0.0048 -0.4186
  441TMC3    C3 6623   3.971   2.863  15.602 -0.0070  0.3280  0.3013
  441TMC3    C4 6624   3.730   2.777  15.568  0.4774  0.1820  0.3030
  441TMC3    C5 6625   3.795   2.752  15.686 -0.3757  0.3044  0.2002
  441TMC3    C6 6626   3.921   2.790  15.706  0.4667  0.4673  0.0125
  441TMC3     C 6627   3.732   2.826  15.342  0.2802 -0.7693  0.1510
  441TMC3     O 6628   3.714   2.708  15.320  0.4564 -0.6407 -0.2969
  441TMC3     H 6629   3.961   2.955  15.418  2.5117  0.1265  1.6401
  441TMC3    H1 6630   3.626   2.749  15.564  0.2532  1.0299  0.3102
  441TMC3    H2 6631   3.983   2.767  15.791 -2.5434 -1.0297  1.7830
  441TMC3    C7 6632   3.729   2.764  15.811 -0.1027  0.1525 -0.4799
  441TMC3    C8 6633   4.089   2.936  15.630 -0.1601 -0.3869  0.5540
  441TMC3    O1 6634   3.622   2.828  15.818 -1.0520  0.4157 -0.2195
  441TMC3    O2 6635   4.188   2.873  15.656  0.7531  0.3213 -0.0760
  442MPD2     C 6636   1.999   4.057  17.048  0.3138  0.0015 -0.3534
  442MPD2    C1 6637   1.866   4.041  17.032 -0.0369  0.2611  0.0194
  442MPD2    C2 6638   1.825   3.944  16.937 -0.1739 -0.1737 -0.8746
  442MPD2    C3 6639   1.911   3.872  16.858  0.4279 -0.8628 -0.7552
  442MPD2    C4 6640   2.045   3.914  16.850  0.1077 -0.1895  0.1709
  442MPD2    C5 6641   2.089   4.003  16.950  0.5334  0.3776 -0.1918
  442MPD2     H 6642   1.718   3.929  16.931  0.3868 -3.5195 -2.5003
  442MPD2    H1 6643   2.117   3.869  16.783  1.1180  1.8921 -0.1349
  442MPD2    H2 6644   2.039   4.128  17.119  0.9247 -0.7458  0.0526
  442MPD2    H3 6645   2.190   4.042  16.944  1.3728 -1.4263  2.1596
  442MPD2     N 6646   1.868   3.781  16.757 -0.0123  0.0689  0.3405
  442MPD2    H5 6647   1.928   3.743  16.684 -2.1366 -0.7294 -1.0040
  442MPD2    N1 6648   1.775   4.114  17.106 -0.0485 -0.0858 -0.7747
  442MPD2    H7 6649   1.678   4.097  17.081  0.1256 -1.3067 -0.6026
  443TMC3    C1 6650   1.679   4.257  17.241  0.0358 -0.0251  0.3039
  443TMC3    C2 6651   1.625   4.346  17.148 -0.4870 -0.2356 -0.9116
  443TMC3    C3 6652   1.496   4.381  17.155 -0.1162  0.1827 -1.5233
  443TMC3    C4 6653   1.597   4.183  17.326 -0.4918  0.2030 -0.1664
  443TMC3    C5 6654   1.464   4.219  17.322  0.6424 -0.4665 -0.3168
  443TMC3    C6 6655   1.412   4.324  17.244 -0.0153  0.8216 -0.5283
  443TMC3     C 6656   1.803   4.202  17.209 -0.1594  0.0087  0.5249
  443TMC3     O 6657   1.904   4.244  17.265  0.0827 -0.1893  0.4420
  443TMC3     H 6658   1.691   4.390  17.073  1.4810 -1.1571  0.2967
  443TMC3    H1 6659   1.626   4.097  17.385 -0.0070  0.2653 -0.3136
  443TMC3    H2 6660   1.305   4.317  17.227 -0.0222  0.4298 -0.3360
  443TMC3    C7 6661   1.380   4.110  17.350 -0.0216  0.3659 -0.2599
  443TMC3    C8 6662   1.443   4.366  17.027 -1.0195 -0.2628 -0.6592
  443TMC3    O1 6663   1.425   4.002  17.332  0.1182 -0.2762  0.6237
  443TMC3    O2 6664   1.348   4.290  17.019 -0.1868  0.1571  0.7810
  444MPD2     C 6665   1.955   3.746  17.229 -0.2502  0.1930  0.4814
  444MPD2    C1 6666   1.851   3.657  17.200  0.3346  0.2637  0.0725
  444MPD2    C2 6667   1.868   3.560  17.104  0.3291 -0.1276  1.0056
  444MPD2    C3 6668   1.993   3.534  17.048  0.3145 -0.0529  0.6099
  444MPD2    C4 6669   2.095   3.615  17.078  1.1663 -0.1225  0.1706
  444MPD2    C5 6670   2.075   3.719  17.163 -0.7871  0.5107 -0.1114
  444MPD2     H 6671   1.788   3.495  17.070  0.0506  0.3767  0.6893
  444MPD2    H1 6672   2.195   3.602  17.039  0.1518  1.6861 -3.1273
  444MPD2    H2 6673   1.951   3.834  17.291 -0.3212  1.3132 -1.1113
  444MPD2    H3 6674   2.153   3.790  17.185  1.2847 -1.9930  0.6318
  444MPD2     N 6675   2.011   3.411  16.977  0.2603  0.4486 -0.6410
  444MPD2    H5 6676   1.928   3.353  16.964  0.3424  0.5645 -1.7209
  444MPD2    N1 6677   1.726   3.660  17.267  0.2200 -0.2091  0.4256
  444MPD2    H7 6678   1.654   3.609  17.217  1.4243 -2.4789  0.9798
  445TMC3    C1 6679   2.141   3.242  16.857 -0.6585 -0.2379  0.1253
  445TMC3    C2 6680   2.027   3.198  16.791  0.3316  0.4335 -0.1201
  445TMC3    C3 6681   2.031   3.071  16.737  0.1313  0.8191  0.7579
  445TMC3    C4 6682   2.252   3.166  16.874  0.1542  0.0360 -0.1948
  445TMC3    C5 6683   2.252   3.047  16.813 -0.8805 -0.2232  0.3106
  445TMC3    C6 6684   2.143   2.992  16.747 -0.3152  0.2235 -0.6681
  445TMC3     C 6685   2.133   3.371  16.929 -0.4430 -0.0389  0.5362
  445TMC3     O 6686   2.242   3.417  16.949 -0.5673 -0.3330  0.0265
  445TMC3     H 6687   1.953   3.268  16.757  0.8723  1.8474  1.5753
  445TMC3    H1 6688   2.324   3.208  16.943  0.1904 -0.9659  0.3731
  445TMC3    H2 6689   2.148   2.891  16.708  1.2167  0.2658 -0.5616
  445TMC3    C7 6690   2.382   2.984  16.807  0.4008  0.3560 -0.2564
  445TMC3    C8 6691   1.924   3.034  16.657 -0.4905 -0.1943 -0.1839
  445TMC3    O1 6692   2.472   3.048  16.851 -0.3941 -0.1526  0.4098
  445TMC3    O2 6693   1.813   3.082  16.684 -0.9467  0.0894  0.0044
  446MPD2     C 6694   1.376   4.713  11.691  0.5485 -0.7404 -0.6727
  446MPD2    C1 6695   1.381   4.675  11.560  0.4690 -0.4571 -0.4632
  446MPD2    C2 6696   1.497   4.708  11.488 -1.0308  0.0752  0.2082
  446MPD2    C3 6697   1.609   0.018  11.555  0.0951 -0.0535  0.5369
  446MPD2    C4 6698   1.598   0.067  11.679  0.0370  0.2280  0.1372
  446MPD2    C5 6699   1.480   0.040  11.743 -0.3470  0.5465 -0.1308
  446MPD2     H 6700   1.506   4.669  11.388 -0.3432  0.0047  0.2943
  446MPD2    H1 6701   1.674   0.134  11.720 -1.7549  2.0142  0.5337
  446MPD2    H2 6702   1.287   4.687  11.748 -1.3781  1.5407 -2.6117
  446MPD2    H3 6703   1.467   0.064  11.848  2.7056 -1.3367  0.6688
  446MPD2     N 6704   1.732   0.029  11.478  0.6251  0.5785  0.2929
  446MPD2    H5 6705   1.724   4.730  11.385 -0.8640 -0.0959  0.6932
  446MPD2    N1 6706   1.282   4.590  11.506  0.4914 -1.1955 -0.1722
  446MPD2    H7 6707   1.292   4.570  11.407 -0.0683  0.3388 -0.5272
  447TMC3    C1 6708   1.963   0.024  11.442 -0.1462  0.6486  0.3855
  447TMC3    C2 6709   1.951   0.065  11.313  0.1461  0.2144  0.8037
  447TMC3    C3 6710   2.054   0.026  11.221  0.2540 -0.2734 -0.3587
  447TMC3    C4 6711   2.062   4.684  11.474 -0.4575  0.2242 -0.3421
  447TMC3    C5 6712   2.154   4.636  11.384 -0.5281 -0.4975 -0.1427
  447TMC3    C6 6713   2.146   4.670  11.255 -0.1749  0.2842 -0.0453
  447TMC3     C 6714   1.856   0.046  11.535 -0.2956  0.3070  0.2854
  447TMC3     O 6715   1.895   0.043  11.652  0.9908 -0.3223 -0.1813
  447TMC3     H 6716   1.869   0.130  11.286  0.7638  1.6838  2.4465
  447TMC3    H1 6717   2.080   4.663  11.578  0.2652  0.4506 -0.4207
  447TMC3    H2 6718   2.220   4.629  11.188 -1.3029 -1.5373 -0.1815
  447TMC3    C7 6719   2.280   4.572  11.410 -0.1210  0.7706 -0.4526
  447TMC3    C8 6720   2.026   0.045  11.081  0.1420 -0.0914 -0.2781
  447TMC3    O1 6721   2.378   4.615  11.348  0.0332  0.1190 -0.1071
  447TMC3    O2 6722   1.911   0.081  11.051  0.0660 -0.4788 -0.2129
  448TMC3    C1 6723   4.456   4.699  16.867 -0.3541  0.0413 -0.1427
  448TMC3    C2 6724   4.484   4.567  16.879 -0.2738 -0.0917 -0.7443
  448TMC3    C3 6725   4.567   4.524  16.978 -0.4855  0.2907 -0.6649
  448TMC3    C4 6726   4.501   0.050  16.951  0.0298  0.6196  0.1798
  448TMC3    C5 6727   4.583   0.005  17.054  0.0286 -0.1336  0.2886
  448TMC3    C6 6728   4.625   4.612  17.065 -0.1492 -0.0683 -0.0683
  448TMC3     C 6729   4.343   4.734  16.786 -0.4802  0.2738 -0.8293
  448TMC3     O 6730   4.305   4.649  16.708  0.1613  0.3891  0.4502
  448TMC3     H 6731   4.428   4.503  16.813  0.2204 -0.2733 -0.9886
  448TMC3    H1 6732   4.504   0.158  16.950  1.6848  0.5744 -1.0185
  448TMC3    H2 6733   4.705   4.576  17.129 -0.0185  1.0707  0.4097
  448TMC3    C7 6734   4.647   0.097  17.145  0.3185 -0.2164 -0.1838
  448TMC3    C8 6735   4.600   4.385  16.980 -0.3829  0.5049 -0.4394
  448TMC3    O1 6736   4.653   0.219  17.116 -0.1435 -0.1498 -0.1951
  448TMC3    O2 6737   4.719   4.356  16.988 -1.1153  0.0677 -0.0355
  449MPD2     C 6738   1.343   2.655  14.227  0.3725 -0.3609  0.5312
  449MPD2    C1 6739   1.206   2.660  14.220  0.0035 -0.7458  0.4698
  449MPD2    C2 6740   1.129   2.551  14.201  0.5963 -0.0695 -0.2327
  449MPD2    C3 6741   1.187   2.428  14.173 -0.4728 -0.1634  0.1760
  449MPD2    C4 6742   1.325   2.423  14.172 -0.9456 -0.3403 -0.6910
  449MPD2    C5 6743   1.400   2.536  14.202  0.5559 -0.1809 -0.0358
  449MPD2     H 6744   1.021   2.557  14.193  0.7841  2.2131 -1.1630
  449MPD2    H1 6745   1.385   2.333  14.163 -1.6775 -0.6620 -2.2557
  449MPD2    H2 6746   1.401   2.741  14.259 -0.9757  0.3686  1.0009
  449MPD2    H3 6747   1.506   2.513  14.215  1.1314  2.5594  0.1309
  449MPD2     N 6748   1.100   2.316  14.161  0.2649 -1.0650 -0.4552
  449MPD2    H5 6749   1.002   2.335  14.180  0.7994  0.6983  0.4640
  449MPD2    N1 6750   1.137   2.780  14.216  0.5138  0.4629 -0.2660
  449MPD2    H7 6751   1.037   2.777  14.197  0.7287 -0.6425 -1.1701
  450TMC3    C1 6752   1.079   2.992  14.165  0.3638 -0.3222 -0.1380
  450TMC3    C2 6753   1.085   3.030  14.034  0.0529  0.1079 -0.1831
  450TMC3    C3 6754   0.970   3.015  13.957  0.0856 -0.0597  0.5964
  450TMC3    C4 6755   0.962   2.956  14.221 -0.3418  0.0720  0.8108
  450TMC3    C5 6756   0.844   2.946  14.148  0.0961 -0.1625 -0.1831
  450TMC3    C6 6757   0.852   2.972  14.014  0.0825  0.0368  0.1779
  450TMC3     C 6758   1.191   2.907  14.204 -0.3205 -0.0417  0.6624
  450TMC3     O 6759   1.304   2.950  14.201  0.3932  0.4614  0.3581
  450TMC3     H 6760   1.181   3.065  14.000  0.2156 -1.2213 -1.0446
  450TMC3    H1 6761   0.952   2.928  14.326 -0.7776  0.2019  0.8056
  450TMC3    H2 6762   0.769   2.942  13.951 -0.3091 -1.1387  1.2569
  450TMC3    C7 6763   0.769   2.817  14.172  0.0237  0.1021 -0.2830
  450TMC3    C8 6764   0.973   3.046  13.816  0.2989  0.2542 -0.2276
  450TMC3    O1 6765   0.829   2.739  14.248 -0.2498 -0.1639  0.0042
  450TMC3    O2 6766   0.870   3.072  13.753  0.2092  0.5229 -0.4461
  451MPD2     C 6767   3.274   2.078   0.794  0.4497  0.5278  0.1553
  451MPD2    C1 6768   3.168   2.001   0.836  0.6520  0.6172  0.0521
  451MPD2    C2 6769   3.166   1.862   0.804 -0.0408 -0.2773  0.8645
  451MPD2    C3 6770   3.281   1.812   0.746  1.1383 -0.2700 -0.2517
  451MPD2    C4 6771   3.388   1.891   0.724  0.4896 -0.4682  0.8214
  451MPD2    C5 6772   3.385   2.025   0.744 -0.3115 -0.5968 -0.6547
  451MPD2     H 6773   3.072   1.809   0.811  0.8280 -2.1655 -1.5837
  451MPD2    H1 6774   3.476   1.848   0.679 -0.0620 -0.9817  0.2343
  451MPD2    H2 6775   3.269   2.186   0.802 -0.1347  0.5371 -0.3907
  451MPD2    H3 6776   3.465   2.090   0.711 -1.7994  0.6759 -1.7768
  451MPD2     N 6777   3.293   1.681   0.702 -0.0590  0.4597 -0.0037
  451MPD2    H5 6778   3.374   1.663   0.644 -0.7623 -0.1280 -0.8167
  451MPD2    N1 6779   3.054   2.073   0.881  0.2593  0.6106  0.4640
  451MPD2    H7 6780   3.065   2.174   0.876 -0.8223  0.5978 -2.4502
  452TMC3    C1 6781   3.237   1.457   0.660 -0.1688 -0.7382 -0.3577
  452TMC3    C2 6782   3.170   1.354   0.713  0.2388 -0.4221  0.0425
  452TMC3    C3 6783   3.136   1.248   0.633  0.3145 -0.7396 -0.8314
  452TMC3    C4 6784   3.256   1.477   0.524  0.1947  0.4979 -0.5506
  452TMC3    C5 6785   3.228   1.368   0.448  0.0887 -0.1400  1.1454
  452TMC3    C6 6786   3.168   1.254   0.499  0.4147 -0.1158  0.3911
  452TMC3     C 6787   3.205   1.580   0.727 -1.0534  0.1919 -0.5660
  452TMC3     O 6788   3.105   1.577   0.796 -0.8047 -0.2690  0.1270
  452TMC3     H 6789   3.153   1.361   0.820 -0.3371 -3.3099  0.1221
  452TMC3    H1 6790   3.304   1.563   0.480 -1.0242  2.2108  1.4887
  452TMC3    H2 6791   3.122   1.178   0.437 -0.8173  1.7481 -0.9704
  452TMC3    C7 6792   3.212   1.398   0.312 -0.0300  0.7084  0.3926
  452TMC3    C8 6793   3.000   1.183   0.656  0.1646  0.5131  0.9062
  452TMC3    O1 6794   3.248   1.514   0.283 -0.1874 -0.2401 -0.0697
  452TMC3    O2 6795   2.937   1.162   0.554  0.2921 -0.0973 -0.4546
  453TMC3    C1 6796   3.760   3.660  12.044 -0.8027 -0.2942 -0.0273
  453TMC3    C2 6797   3.647   3.587  12.073  0.1588 -0.4280  0.3285
  453TMC3    C3 6798   3.603   3.510  11.970  0.3648 -0.3870  0.4148
  453TMC3    C4 6799   3.823   3.647  11.922  0.3460 -0.5707 -0.5627
  453TMC3    C5 6800   3.783   3.562  11.829 -0.1651 -0.0070  0.3313
  453TMC3    C6 6801   3.665   3.498  11.849 -0.5032  0.1687 -0.1243
  453TMC3     C 6802   3.831   3.742  12.146 -0.6074 -0.3188 -0.2436
  453TMC3     O 6803   3.929   3.797  12.100  0.1842  0.1100 -0.0332
  453TMC3     H 6804   3.593   3.598  12.166 -0.1653 -2.9721  0.4588
  453TMC3    H1 6805   3.892   3.724  11.890  1.9955 -1.1852  1.4731
  453TMC3    H2 6806   3.623   3.432  11.774 -0.9164 -1.0927  1.2225
  453TMC3    C7 6807   3.866   3.552  11.707  1.0572  0.7198 -0.5136
  453TMC3    C8 6808   3.497   3.419  11.998 -0.6036 -0.4398 -0.6585
  453TMC3    O1 6809   3.822   3.510  11.603  0.4164 -0.1675  0.2438
  453TMC3    O2 6810   3.398   3.464  12.050  0.1924  0.8584  0.2342
  454MPD2     C 6811   2.732   3.395  16.539 -0.6605 -0.0938  0.7897
  454MPD2    C1 6812   2.687   3.442  16.420 -0.8151 -0.2466 -0.3823
  454MPD2    C2 6813   2.672   3.579  16.404 -0.1346 -0.4173 -0.0114
  454MPD2    C3 6814   2.692   3.666  16.506 -0.1209 -0.0931  0.4550
  454MPD2    C4 6815   2.732   3.614  16.630 -0.5849  0.0591  0.2161
  454MPD2    C5 6816   2.752   3.480  16.643 -0.1383  0.4511  0.0441
  454MPD2     H 6817   2.637   3.620  16.310 -0.5966  0.6925  0.6336
  454MPD2    H1 6818   2.745   3.686  16.709  2.1350  1.1054 -1.1722
  454MPD2    H2 6819   2.762   3.292  16.558 -2.0423 -0.5767  0.3171
  454MPD2    H3 6820   2.799   3.439  16.732  1.3156  0.0838 -0.8793
  454MPD2     N 6821   2.655   3.802  16.502  0.7805  0.1629  0.0384
  454MPD2    H5 6822   2.652   3.858  16.587 -2.8692 -1.6048  1.1129
  454MPD2    N1 6823   2.658   3.360  16.307  0.2989 -0.6171  0.1478
  454MPD2    H7 6824   2.626   3.409  16.224 -0.1311 -2.0826 -0.5499
  455TMC3    C1 6825   2.465   3.922  16.465  0.0965  0.4109  0.1010
  455TMC3    C2 6826   2.392   4.002  16.389  1.0031 -0.0678  0.1358
  455TMC3    C3 6827   2.256   4.016  16.408  0.9883  0.2009 -0.7469
  455TMC3    C4 6828   2.404   3.837  16.552  0.1088  0.5161  0.6480
  455TMC3    C5 6829   2.264   3.828  16.560 -1.0628  0.3774  0.1626
  455TMC3    C6 6830   2.192   3.930  16.492  0.5931  0.4103 -1.2865
  455TMC3     C 6831   2.584   3.864  16.402  1.0455  0.4443  1.5459
  455TMC3     O 6832   2.573   3.830  16.287 -0.0799  0.7322  0.4002
  455TMC3     H 6833   2.442   4.073  16.325  1.3590  0.0358  0.5295
  455TMC3    H1 6834   2.460   3.772  16.618 -0.0811  1.8743  2.1349
  455TMC3    H2 6835   2.083   3.935  16.491  0.5409 -0.9406 -1.8675
  455TMC3    C7 6836   2.203   3.693  16.563  0.3667 -0.2134 -0.0137
  455TMC3    C8 6837   2.234   4.152  16.452  0.2451 -0.0786  0.2122
  455TMC3    O1 6838   2.081   3.685  16.546 -0.1940  0.0709 -0.1236
  455TMC3    O2 6839   2.331   4.225  16.468  0.5965  0.0436  0.1717
  456MPD2     C 6840   0.360   3.273  16.108 -0.5298  0.1149 -0.3740
  456MPD2    C1 6841   0.442   3.237  16.215 -1.0315 -0.1481  0.0616
  456MPD2    C2 6842   0.422   3.298  16.340  0.3104  0.4879 -0.3089
  456MPD2    C3 6843   0.311   3.379  16.367  0.0008  0.5002  0.3970
  456MPD2    C4 6844   0.232   3.406  16.253  0.4194 -0.2894  0.0276
  456MPD2    C5 6845   0.252   3.360  16.126  0.1132 -0.8462 -0.2534
  456MPD2     H 6846   0.487   3.277  16.424 -0.0493 -0.5838 -0.2905
  456MPD2    H1 6847   0.146   3.472  16.259 -0.4518 -1.6673  2.8469
  456MPD2    H2 6848   0.379   3.219  16.015 -1.0445  1.2814 -1.1603
  456MPD2    H3 6849   0.192   3.384  16.039  0.1263 -0.7952 -0.2482
  456MPD2     N 6850   0.308   3.449  16.489  0.1782 -0.1748 -0.8724
  456MPD2    H5 6851   0.374   3.430  16.564 -1.7173  1.2244  1.1865
  456MPD2    N1 6852   0.534   3.129  16.189  0.0189 -0.4869  0.2084
  456MPD2    H7 6853   0.540   3.103  16.091  1.8802  0.1223  0.1680
  457TMC3    C1 6854   0.234   3.604  16.662  0.7364  0.4385  0.1129
  457TMC3    C2 6855   0.187   3.734  16.674  1.3769 -0.6442 -0.1253
  457TMC3    C3 6856   0.210   3.810  16.781  0.1943  0.0813 -0.3883
  457TMC3    C4 6857   0.306   3.545  16.759 -0.1682  0.0148  0.0956
  457TMC3    C5 6858   0.343   3.630  16.862 -0.0914 -0.1000  1.0861
  457TMC3    C6 6859   0.293   3.767  16.881 -0.0614 -0.8744 -0.1988
  457TMC3     C 6860   0.220   3.545  16.528 -0.6777 -0.2670 -0.0970
  457TMC3     O 6861   0.135   3.601  16.457  0.0565  0.4892 -0.5193
  457TMC3     H 6862   0.154   3.794  16.589  1.5123  1.0847  1.0388
  457TMC3    H1 6863   0.338   3.441  16.766 -0.0111  0.0405 -0.2739
  457TMC3    H2 6864   0.302   3.826  16.972 -0.6102  0.1768 -0.8206
  457TMC3    C7 6865   0.415   3.585  16.978  0.6637  0.0523  0.6504
  457TMC3    C8 6866   0.119   3.913  16.820  0.4305  0.1960 -0.5713
  457TMC3    O1 6867   0.404   3.465  17.001  0.7553  0.5048 -0.1210
  457TMC3    O2 6868   0.170   3.997  16.894 -0.0193 -0.6545  0.2138
  458MPD2     C 6869   2.279   2.400  12.428 -0.0114 -0.8278 -0.1005
  458MPD2    C1 6870   2.291   2.410  12.568  0.9644  0.2856  0.0527
  458MPD2    C2 6871   2.191   2.492  12.626 -0.1787  0.3958  0.0481
  458MPD2    C3 6872   2.087   2.546  12.551  0.2347 -0.2515 -0.3255
  458MPD2    C4 6873   2.079   2.515  12.424 -0.6183 -0.6755  0.3621
  458MPD2    C5 6874   2.173   2.447  12.357  0.1505 -0.2298 -0.2762
  458MPD2     H 6875   2.189   2.507  12.733 -1.1752 -1.2761  0.2642
  458MPD2    H1 6876   2.000   2.558  12.364 -0.9589 -1.9421 -0.1032
  458MPD2    H2 6877   2.355   2.348  12.370 -0.4354 -1.7706  0.1788
  458MPD2    H3 6878   2.166   2.432  12.250  1.2747 -0.2842 -0.3454
  458MPD2     N 6879   2.001   2.646  12.600 -0.6261  0.5993 -0.4414
  458MPD2    H5 6880   1.944   2.697  12.534  0.9355  0.5881 -1.7943
  458MPD2    N1 6881   2.414   2.367  12.625 -0.3900 -0.3868  1.2184
  458MPD2    H7 6882   2.477   2.321  12.560 -1.7174 -1.6703  0.8202
  459TMC3    C1 6883   2.581   2.373  12.788  0.2358 -0.2621 -0.1953
  459TMC3    C2 6884   2.642   2.463  12.710 -0.2462  0.1358  0.2239
  459TMC3    C3 6885   2.764   2.498  12.758 -0.2537 -0.8569  0.3261
  459TMC3    C4 6886   2.628   2.321  12.907  0.2142 -0.2132  0.2026
  459TMC3    C5 6887   2.760   2.348  12.935 -0.0499  0.5533 -0.4194
  459TMC3    C6 6888   2.835   2.433  12.859  0.5151 -0.3871 -0.0602
  459TMC3     C 6889   2.438   2.363  12.757  0.6005  0.7521  0.4421
  459TMC3     O 6890   2.358   2.387  12.844 -0.1749 -0.4769  0.3119
  459TMC3     H 6891   2.591   2.527  12.640  1.5516  0.1201 -1.0979
  459TMC3    H1 6892   2.565   2.256  12.966 -0.6512 -1.4105 -2.0499
  459TMC3    H2 6893   2.935   2.469  12.881  0.2931  0.9599 -1.2777
  459TMC3    C7 6894   2.826   2.286  13.047  0.6291  0.2300  0.2228
  459TMC3    C8 6895   2.830   2.600  12.679 -0.3856 -0.3040  0.8976
  459TMC3    O1 6896   2.950   2.285  13.048  0.2529  0.0028 -0.6555
  459TMC3    O2 6897   2.785   2.627  12.572  0.3108 -0.3820 -0.3969
  460MPD2     C 6898   2.299   0.061  10.829 -0.1819  0.0043  0.3939
  460MPD2    C1 6899   2.168   0.056  10.877 -0.0963  0.6216  0.2187
  460MPD2    C2 6900   2.060   0.040  10.796  0.3326 -0.0781  0.2476
  460MPD2    C3 6901   2.080   0.033  10.662  0.5243  0.0949 -0.0027
  460MPD2    C4 6902   2.209   0.028  10.617 -0.3453  0.5616 -0.1219
  460MPD2    C5 6903   2.318   0.037  10.700  0.2736 -0.2739 -0.9373
  460MPD2     H 6904   1.957   0.038  10.830  0.6209 -0.8878  1.0959
  460MPD2    H1 6905   2.230   0.016  10.511  1.2132  1.4367  0.0966
  460MPD2    H2 6906   2.387   0.075  10.891 -0.1878  0.4095  0.3104
  460MPD2    H3 6907   2.420   0.028  10.666  0.3677  0.3382 -0.8123
  460MPD2     N 6908   1.964   0.010  10.578  0.2256 -0.7024 -0.9088
  460MPD2    H5 6909   1.881   0.021  10.635  0.4095 -1.5764 -0.4769
  460MPD2    N1 6910   2.147   0.044  11.017  0.1377 -0.4360 -0.1914
  460MPD2    H7 6911   2.232   0.043  11.073  0.7370  1.2277 -1.0617
  461TMC3    C1 6912   1.833   4.721  10.387 -0.3155  0.1060 -0.3166
  461TMC3    C2 6913   1.791   4.621  10.305 -0.6565  0.2095  0.0775
  461TMC3    C3 6914   1.680   4.653  10.232 -0.0751 -0.4545 -0.0171
  461TMC3    C4 6915   1.774   0.105  10.393 -0.1339 -0.0776 -0.2809
  461TMC3    C5 6916   1.673   0.137  10.309  0.5971 -0.3355  0.5703
  461TMC3    C6 6917   1.633   0.047  10.219 -0.8485  0.0522  0.2893
  461TMC3     C 6918   1.965   4.712  10.449  0.1508 -0.5352 -0.1642
  461TMC3     O 6919   2.051   4.674  10.366 -0.0161  0.1443 -0.9698
  461TMC3     H 6920   1.849   4.530  10.305  1.5366  1.6057  0.6370
  461TMC3    H1 6921   1.799   0.171  10.474  1.7375  0.5467 -1.3619
  461TMC3    H2 6922   1.557   0.067  10.144  0.3474 -0.4281 -1.0748
  461TMC3    C7 6923   1.656   0.274  10.257 -0.1512 -0.1930  0.8290
  461TMC3    C8 6924   1.639   4.562  10.130  0.3153 -0.1368 -0.0046
  461TMC3    O1 6925   1.550   0.304  10.201 -0.2167 -0.1433  0.0010
  461TMC3    O2 6926   1.595   4.610  10.029 -0.0636 -0.4752 -0.2210
  462TMC3    C1 6927   1.938   2.021   0.694  0.0886  0.6076 -0.1726
  462TMC3    C2 6928   2.066   2.009   0.739  0.2603  0.7985  0.2596
  462TMC3    C3 6929   2.120   1.887   0.720  0.1881  0.0049  0.5918
  462TMC3    C4 6930   1.859   1.917   0.648 -0.1003  0.1444  0.4760
  462TMC3    C5 6931   1.914   1.797   0.634  0.5342 -0.3657  0.0400
  462TMC3    C6 6932   2.047   1.783   0.665 -1.1163  0.4619  1.0425
  462TMC3     C 6933   1.866   2.142   0.727  0.3058 -0.0333  0.1957
  462TMC3     O 6934   1.749   2.154   0.692  0.4362 -0.2396  0.0637
  462TMC3     H 6935   2.132   2.087   0.775  0.4653  1.8440 -2.4155
  462TMC3    H1 6936   1.757   1.933   0.615 -0.7376  0.3561  2.4991
  462TMC3    H2 6937   2.087   1.682   0.669  1.3721  1.3976  0.1416
  462TMC3    C7 6938   1.833   1.684   0.592  0.3806  0.2111 -0.5192
  462TMC3    C8 6939   2.267   1.889   0.734  1.2784 -0.1357 -1.1445
  462TMC3    O1 6940   1.845   1.577   0.644 -0.1514 -0.9184  0.3172
  462TMC3    O2 6941   2.308   1.963   0.820 -0.2145  0.3980  0.3607
  463MPD2     C 6942   2.995   0.156   1.361 -0.4280 -0.5213 -0.0003
  463MPD2    C1 6943   2.988   0.169   1.498 -0.5950 -0.0400  0.1038
  463MPD2    C2 6944   3.078   0.104   1.578  0.2851 -0.8836 -0.1504
  463MPD2    C3 6945   3.202   0.052   1.533  0.5699  0.2579  0.6413
  463MPD2    C4 6946   3.220   0.070   1.394  0.0940 -0.2307  0.3419
  463MPD2    C5 6947   3.121   0.110   1.315  0.0538  0.7427 -0.0320
  463MPD2     H 6948   3.063   0.112   1.685 -1.0479 -1.5813 -0.2921
  463MPD2    H1 6949   3.309   0.029   1.347  1.3938  2.8728  0.0220
  463MPD2    H2 6950   2.928   0.203   1.290 -0.8886  1.9581  2.0601
  463MPD2    H3 6951   3.135   0.104   1.207 -0.5241 -2.7590  0.0887
  463MPD2     N 6952   3.307   0.002   1.615 -0.4743  0.0301  0.5417
  463MPD2    H5 6953   3.391   4.705   1.569 -1.1830  0.0136 -0.7457
  463MPD2    N1 6954   2.882   0.228   1.571  0.3134 -0.7863 -0.3734
  463MPD2    H7 6955   2.876   0.229   1.672 -2.3125  0.0990 -0.5281
  464TMC3    C1 6956   2.678   0.332   1.591  0.1534 -0.3499  0.5993
  464TMC3    C2 6957   2.602   0.436   1.554  0.0159  0.5565  0.0982
  464TMC3    C3 6958   2.482   0.454   1.619  0.9045 -0.9076  0.3849
  464TMC3    C4 6959   2.640   0.244   1.690  0.7665  0.5870  0.2385
  464TMC3    C5 6960   2.513   0.259   1.749 -0.3682 -0.1307 -0.5058
  464TMC3    C6 6961   2.434   0.366   1.711 -0.0023  0.6536 -0.0244
  464TMC3     C 6962   2.788   0.311   1.508  0.1881  0.0409 -0.1670
  464TMC3     O 6963   2.788   0.369   1.398 -0.1260  0.0049  0.0413
  464TMC3     H 6964   2.627   0.506   1.475  1.8169  0.1432  0.3004
  464TMC3    H1 6965   2.684   0.146   1.704  0.3889  0.3644 -0.1383
  464TMC3    H2 6966   2.330   0.361   1.742 -0.1717  0.2525 -0.6561
  464TMC3    C7 6967   2.440   0.143   1.797 -0.4657  0.8379  0.4294
  464TMC3    C8 6968   2.389   0.555   1.562 -0.1150  0.0423 -0.3681
  464TMC3    O1 6969   2.368   0.146   1.897 -0.4461  0.2285 -0.2148
  464TMC3    O2 6970   2.422   0.602   1.451  0.6751  0.1109 -0.0312
  465MPD2     C 6971   4.257   3.638  17.121 -0.2347  1.0045  0.2011
  465MPD2    C1 6972   4.117   3.627  17.148  0.2055  0.4989 -0.1683
  465MPD2    C2 6973   4.034   3.647  17.038 -0.5447 -0.5857  0.1448
  465MPD2    C3 6974   4.076   3.672  16.911  0.3434 -0.6485  0.1741
  465MPD2    C4 6975   4.209   3.684  16.885  0.0659  0.0060 -1.0997
  465MPD2    C5 6976   4.297   3.676  16.992 -0.3930 -0.9642 -0.0350
  465MPD2     H 6977   3.929   3.652  17.062 -0.5507  0.3191 -0.0886
  465MPD2    H1 6978   4.251   3.698  16.785 -1.3554 -1.2272 -1.8702
  465MPD2    H2 6979   4.332   3.608  17.194 -0.2705  0.8988  0.1950
  465MPD2    H3 6980   4.402   3.695  16.971 -1.1332  4.4678  0.9428
  465MPD2     N 6981   3.976   3.687  16.816 -0.1105 -0.6150  0.1445
  465MPD2    H5 6982   3.881   3.683  16.852 -0.0702 -0.5379  0.2574
  465MPD2    N1 6983   4.061   3.601  17.275 -0.2632  0.1990 -0.1691
  465MPD2    H7 6984   3.961   3.595  17.291 -0.5736 -0.3967 -2.2929
  466TMC3    C1 6985   3.656   3.667  16.574 -0.8103  0.1834 -0.5803
  466TMC3    C2 6986   3.659   3.718  16.448 -0.2056  0.2326  0.8947
  466TMC3    C3 6987   3.773   3.774  16.403  0.6634 -0.0701 -0.0525
  466TMC3    C4 6988   3.762   3.660  16.652  0.4006  0.1908  0.1564
  466TMC3    C5 6989   3.878   3.723  16.606 -1.4442  0.1242 -0.0668
  466TMC3    C6 6990   3.884   3.786  16.485  0.7125  0.2159 -0.2052
  466TMC3     C 6991   3.533   3.654  16.642 -0.1220  0.0251 -0.2718
  466TMC3     O 6992   3.536   3.573  16.735 -0.0920  0.3325 -0.2971
  466TMC3     H 6993   3.564   3.725  16.395  0.0982  0.7667  0.4190
  466TMC3    H1 6994   3.757   3.608  16.747  2.8953 -0.8752 -0.2772
  466TMC3    H2 6995   3.976   3.834  16.453 -0.1513  1.4620 -0.8334
  466TMC3    C7 6996   4.000   3.721  16.686 -0.1890  0.5788  0.6728
  466TMC3    C8 6997   3.734   3.898  16.345 -0.5495  0.0449  0.9638
  466TMC3    O1 6998   4.096   3.771  16.626 -0.4378 -0.5408  0.1018
  466TMC3    O2 6999   3.698   3.896  16.226  0.3690 -0.0489  0.0573
  467TMC3    C1 7000   0.253   2.116  13.954 -0.3044 -0.4600 -0.1406
  467TMC3    C2 7001   0.305   2.224  13.883  0.2281 -0.0468  0.4404
  467TMC3    C3 7002   0.221   2.293  13.805  0.4593 -1.3403 -0.2470
  467TMC3    C4 7003   0.125   2.083  13.946  0.1042  0.0510 -0.6852
  467TMC3    C5 7004   0.042   2.164  13.863 -0.4434 -0.1870 -0.0489
  467TMC3    C6 7005   0.085   2.267  13.794 -0.1954 -0.1488  0.2948
  467TMC3     C 7006   0.348   2.046  14.038 -0.0004 -0.6726  0.8322
  467TMC3     O 7007   0.448   2.113  14.066 -0.7040  0.2850  0.1286
  467TMC3     H 7008   0.409   2.256  13.882 -0.2141  1.4240  0.9643
  467TMC3    H1 7009   0.091   1.989  13.987  1.0490  1.0753  2.4069
  467TMC3    H2 7010   0.012   2.331  13.745 -0.7560 -0.8248  0.2546
  467TMC3    C7 7011   4.643   2.114  13.841  0.2494 -0.0372 -0.1217
  467TMC3    C8 7012   0.263   2.419  13.747  0.0929  0.3154 -0.2240
  467TMC3    O1 7013   4.579   2.164  13.752 -0.2839  0.5134 -0.0681
  467TMC3    O2 7014   0.177   2.495  13.711 -0.2390 -0.0620 -0.1011
  468MPD2     C 7015   3.497   0.350  10.943 -0.2939  0.0336  0.4501
  468MPD2    C1 7016   3.624   0.315  10.954  0.6799 -0.3989  0.1003
  468MPD2    C2 7017   3.665   0.180  10.959  0.1034  0.5577 -0.2176
  468MPD2    C3 7018   3.572   0.080  10.957 -0.1021 -0.2242  0.1140
  468MPD2    C4 7019   3.441   0.122  10.946 -0.3711  0.0887  0.2208
  468MPD2    C5 7020   3.408   0.254  10.945 -0.1824 -0.2407  0.8417
  468MPD2     H 7021   3.771   0.156  10.960  0.0413  0.2897  0.2747
  468MPD2    H1 7022   3.361   0.049  10.956 -0.4793 -0.2789 -3.3900
  468MPD2    H2 7023   3.458   0.451  10.942 -1.0914 -0.2781  1.0925
  468MPD2    H3 7024   3.304   0.281  10.936 -0.6045 -2.3623 -0.5349
  468MPD2     N 7025   3.592   4.678  10.946 -0.5303  0.0002 -0.3848
  468MPD2    H5 7026   3.508   4.624  10.924 -0.5773 -0.0906  0.0175
  468MPD2    N1 7027   3.725   0.408  10.966 -0.2190 -0.0001 -0.3699
  468MPD2    H7 7028   3.815   0.377  11.001  0.0056  0.2411 -0.7241
  469TMC3    C1 7029   3.840   0.614  10.987  1.1274  0.9948 -0.2759
  469TMC3    C2 7030   3.956   0.534  10.963  0.2808  0.6322  0.0880
  469TMC3    C3 7031   4.055   0.537  11.055  0.7069  0.1861  0.6641
  469TMC3    C4 7032   3.828   0.684  11.104 -0.1217 -0.1474 -0.0134
  469TMC3    C5 7033   3.926   0.667  11.194 -0.4944  0.1745 -0.4476
  469TMC3    C6 7034   4.044   0.597  11.175  0.3415  0.1275 -0.7201
  469TMC3     C 7035   3.712   0.550  10.949 -1.2989 -0.6161 -0.2198
  469TMC3     O 7036   3.613   0.621  10.934  0.7576  0.0544 -0.2367
  469TMC3     H 7037   3.980   0.480  10.872 -1.1544 -1.1444  0.7687
  469TMC3    H1 7038   3.742   0.745  11.128 -0.8166 -1.4560  0.8444
  469TMC3    H2 7039   4.126   0.588  11.245  0.3953 -0.7908 -0.9056
  469TMC3    C7 7040   3.929   0.758  11.306  0.3188 -0.3868 -0.1465
  469TMC3    C8 7041   4.152   0.433  11.040  0.4017 -0.2437  0.3380
  469TMC3    O1 7042   3.865   0.862  11.286  0.3904 -0.2709 -0.4234
  469TMC3    O2 7043   4.202   0.415  10.933  0.1025 -1.1207 -0.4648
  470TMC3    C1 7044   1.305   1.209   0.948 -0.2738 -0.2917  0.1396
  470TMC3    C2 7045   1.419   1.272   0.974 -0.0845 -0.7296 -0.5402
  470TMC3    C3 7046   1.457   1.287   1.106  0.1087 -0.5080  0.4110
  470TMC3    C4 7047   1.217   1.167   1.048 -0.3343 -0.7740  0.4110
  470TMC3    C5 7048   1.256   1.179   1.181 -0.7754 -0.1211 -0.2876
  470TMC3    C6 7049   1.375   1.244   1.207  0.0157  0.1405 -0.4159
  470TMC3     C 7050   1.257   1.202   0.807  0.4285 -0.4524 -1.1337
  470TMC3     O 7051   1.307   1.278   0.726 -0.3769 -0.2286  0.3698
  470TMC3     H 7052   1.477   1.319   0.896 -1.0116  1.0961 -0.1306
  470TMC3    H1 7053   1.123   1.122   1.019  0.5751 -2.4802  0.0698
  470TMC3    H2 7054   1.423   1.249   1.304 -0.3483  0.0893 -0.2339
  470TMC3    C7 7055   1.154   1.166   1.286 -0.7136 -1.0010 -0.8078
  470TMC3    C8 7056   1.539   1.402   1.137  0.3027 -0.1554 -0.2239
  470TMC3    O1 7057   1.044   1.126   1.245  0.7345  0.0291 -0.9038
  470TMC3    O2 7058   1.511   1.461   1.243  0.1184  0.1006  0.0414
  471MPD2     C 7059   1.820   2.876  16.974 -0.3133  0.5705  0.1904
  471MPD2    C1 7060   1.896   2.769  16.948  0.2724  0.6296 -0.3874
  471MPD2    C2 7061   2.001   2.736  17.031  0.2138  0.4419  0.1772
  471MPD2    C3 7062   2.031   2.808  17.144 -0.3947 -0.5617  0.4324
  471MPD2    C4 7063   1.958   2.922  17.163 -1.1020 -0.0298 -0.3729
  471MPD2    C5 7064   1.849   2.954  17.080  0.2284 -0.2748 -0.1889
  471MPD2     H 7065   2.047   2.642  17.002 -1.1472 -0.3507  0.5778
  471MPD2    H1 7066   1.983   2.984  17.248 -0.4215  1.6605 -1.8196
  471MPD2    H2 7067   1.737   2.913  16.914 -0.7605 -2.8359 -1.2770
  471MPD2    H3 7068   1.792   3.045  17.094 -1.5091 -1.1679 -1.4777
  471MPD2     N 7069   2.129   2.771  17.241  0.0919 -0.0542  0.2716
  471MPD2    H5 7070   2.147   2.821  17.328 -0.3352 -1.4053  1.1387
  471MPD2    N1 7071   1.871   2.671  16.843  0.0004  0.5926  0.0714
  471MPD2    H7 7072   1.944   2.600  16.835 -0.5647  0.0569 -0.3408
  472TMC3    C1 7073   1.774   2.560  16.655  0.4211  0.4598 -0.9715
  472TMC3    C2 7074   1.678   2.561  16.551 -0.2246 -0.5973  0.7307
  472TMC3    C3 7075   1.700   2.475  16.446 -0.3006 -0.1250  0.3828
  472TMC3    C4 7076   1.854   2.451  16.672 -0.3592  0.8008  0.0733
  472TMC3    C5 7077   1.866   2.363  16.574 -0.3238  0.0911  0.3634
  472TMC3    C6 7078   1.799   2.376  16.453  0.1504  0.2209  0.1216
  472TMC3     C 7079   1.766   2.668  16.756  0.5494 -0.5020 -0.3834
  472TMC3     O 7080   1.674   2.749  16.747  0.1465 -0.3488 -0.2255
  472TMC3     H 7081   1.621   2.651  16.535 -1.8034 -1.4426  1.6310
  472TMC3    H1 7082   1.913   2.433  16.762 -1.0032  0.2178  0.3842
  472TMC3    H2 7083   1.816   2.311  16.367  0.9320 -0.5454  0.8509
  472TMC3    C7 7084   1.873   2.224  16.627  0.2129 -0.0006  0.4685
  472TMC3    C8 7085   1.589   2.440  16.359 -0.4527 -0.1309 -0.9593
  472TMC3    O1 7086   1.926   2.205  16.736  0.3654 -0.2640  0.4864
  472TMC3    O2 7087   1.604   2.426  16.238  0.2204  0.3449  0.1001
  473MPD2     C 7088   1.870   3.873  14.433 -0.0400 -0.1902 -0.7311
  473MPD2    C1 7089   1.790   3.963  14.369  0.0669  0.4480 -0.7292
  473MPD2    C2 7090   1.798   4.098  14.411 -0.2776  0.5084 -0.5932
  473MPD2    C3 7091   1.879   4.138  14.518  0.2092 -0.4168 -0.2683
  473MPD2    C4 7092   1.959   4.041  14.575  0.3745  0.0350 -0.4778
  473MPD2    C5 7093   1.970   3.917  14.518 -0.2126 -1.1601 -0.0599
  473MPD2     H 7094   1.745   4.168  14.348 -1.8535  1.4140  1.7279
  473MPD2    H1 7095   2.029   4.072  14.651  0.1389 -0.7369  0.0631
  473MPD2    H2 7096   1.879   3.771  14.397 -0.3987 -1.0259  1.5563
  473MPD2    H3 7097   2.051   3.857  14.558 -0.5233 -0.1592  2.0854
  473MPD2     N 7098   1.880   4.262  14.574 -0.3640  0.1360 -0.8417
  473MPD2    H5 7099   1.948   4.276  14.648  0.4943  2.1031 -2.0031
  473MPD2    N1 7100   1.714   3.931  14.257 -0.4315 -0.0230  0.0547
  473MPD2    H7 7101   1.672   4.011  14.211  2.2510  0.4651 -1.5337
  474TMC3    C1 7102   1.817   4.469  14.644  0.2254 -0.0327  0.6550
  474TMC3    C2 7103   1.708   4.552  14.670 -0.5299  0.1622  0.4855
  474TMC3    C3 7104   1.729   4.675  14.711  0.6249  0.2341  0.5994
  474TMC3    C4 7105   1.947   4.513  14.673 -0.0995 -0.2374  0.1306
  474TMC3    C5 7106   1.958   4.636  14.719  0.5126  0.4569  0.2453
  474TMC3    C6 7107   1.853   4.724  14.726 -0.6115 -0.3164  0.3712
  474TMC3     C 7108   1.801   4.371  14.539  0.0784  0.4239  0.9874
  474TMC3     O 7109   1.702   4.365  14.468  0.5947  0.6643  0.5267
  474TMC3     H 7110   1.606   4.520  14.657 -0.3428 -0.4662  0.5506
  474TMC3    H1 7111   2.031   4.454  14.640 -0.8465 -0.1956 -1.8522
  474TMC3    H2 7112   1.867   0.083  14.769 -3.1180  0.1029  0.2175
  474TMC3    C7 7113   2.087   4.708  14.692  0.2407 -0.2992  0.8575
  474TMC3    C8 7114   1.615   0.030  14.708 -0.1750  0.3185 -0.1301
  474TMC3    O1 7115   2.151   4.676  14.597 -0.4122 -0.2041  0.5020
  474TMC3    O2 7116   1.502   4.724  14.727  0.3846  0.0531 -0.4320
  475MPD2     C 7117   0.605   2.337  10.826  0.4569 -0.1088  0.0365
  475MPD2    C1 7118   0.544   2.455  10.878 -0.2993  0.2448  0.3426
  475MPD2    C2 7119   0.409   2.466  10.858  0.7459  0.3983  0.0333
  475MPD2    C3 7120   0.338   2.367  10.794  0.1008 -0.0025  0.0921
  475MPD2    C4 7121   0.392   2.252  10.750  0.1260  0.6553 -0.6376
  475MPD2    C5 7122   0.527   2.239  10.764  0.4845  0.4916  0.8431
  475MPD2     H 7123   0.347   2.545  10.898 -0.3601 -1.1042  1.3108
  475MPD2    H1 7124   0.341   2.161  10.723  0.5001 -0.0549  1.0955
  475MPD2    H2 7125   0.710   2.315  10.847  0.4842 -1.7356 -1.7215
  475MPD2    H3 7126   0.574   2.146  10.733  0.6770  1.1978 -0.9951
  475MPD2     N 7127   0.197   2.395  10.793 -0.4194  0.5102 -0.0565
  475MPD2    H5 7128   0.175   2.490  10.823  2.6417  0.8892  0.9595
  475MPD2    N1 7129   0.609   2.561  10.938  0.1297  0.0071 -0.2390
  475MPD2    H7 7130   0.558   2.642  10.973  2.1433  1.2614 -0.2363
  476TMC3    C1 7131   0.775   2.674  11.045  0.3720  0.0911 -0.4868
  476TMC3    C2 7132   0.842   2.773  10.981 -0.3063 -0.4018 -0.0798
  476TMC3    C3 7133   0.826   2.906  11.005  0.2089 -0.5498 -0.0093
  476TMC3    C4 7134   0.679   2.709  11.136  0.7799 -0.2532  0.1243
  476TMC3    C5 7135   0.661   2.837  11.162 -0.3073 -0.8046 -0.3266
  476TMC3    C6 7136   0.732   2.941  11.101 -0.3905 -0.2531  0.0469
  476TMC3     C 7137   0.741   2.564  10.966  0.4775 -0.0698  0.4374
  476TMC3     O 7138   0.833   2.496  10.920 -0.3511 -0.1300 -0.2016
  476TMC3     H 7139   0.890   2.738  10.890  4.0808  1.3220  1.5832
  476TMC3    H1 7140   0.632   2.633  11.197  2.2287 -0.1388  1.3971
  476TMC3    H2 7141   0.710   3.045  11.122  2.0264  0.9418 -3.2580
  476TMC3    C7 7142   0.525   2.870  11.196  0.0072 -0.6191  0.2077
  476TMC3    C8 7143   0.803   2.988  10.881 -0.0829 -0.0799 -0.2254
  476TMC3    O1 7144   0.445   2.786  11.153  0.0621  0.0977 -0.0276
  476TMC3    O2 7145   0.790   3.110  10.898  0.0180  0.4044  0.0983
  477MPD2     C 7146   2.268   4.345  12.038  0.1054  0.3707 -0.6122
  477MPD2    C1 7147   2.187   4.242  11.994  1.0606  0.5256  0.0574
  477MPD2    C2 7148   2.222   4.114  12.027 -0.5397 -0.3990 -0.2863
  477MPD2    C3 7149   2.341   4.082  12.092 -0.8639 -0.6033 -0.5592
  477MPD2    C4 7150   2.427   4.183  12.130 -1.0024  0.8698 -0.3910
  477MPD2    C5 7151   2.384   4.315  12.099 -0.8192  0.9966 -0.0696
  477MPD2     H 7152   2.153   4.039  11.989 -2.3609  2.5975 -2.8420
  477MPD2    H1 7153   2.519   4.158  12.183 -1.4011  0.5522  0.1443
  477MPD2    H2 7154   2.245   4.447  12.013 -3.6500 -0.5236 -0.7859
  477MPD2    H3 7155   2.453   4.397  12.117  0.2916 -0.3722  1.8420
  477MPD2     N 7156   2.367   3.944  12.128 -0.0441 -0.0627  0.1279
  477MPD2    H5 7157   2.316   3.882  12.067  2.3969 -1.8984 -0.0328
  477MPD2    N1 7158   2.073   4.272  11.917 -0.4288 -0.0131  0.0624
  477MPD2    H7 7159   2.041   4.368  11.909  0.1446  0.0875 -1.0456
  478TMC3    C1 7160   1.875   4.259  11.796  0.0839 -0.0338  0.0794
  478TMC3    C2 7161   1.849   4.385  11.841  0.8646  0.1021  0.3995
  478TMC3    C3 7162   1.734   4.446  11.813 -0.7288  0.2017  0.5465
  478TMC3    C4 7163   1.795   4.197  11.700 -0.2394 -0.2352  0.2804
  478TMC3    C5 7164   1.672   4.260  11.693  0.4739  0.3571 -0.2851
  478TMC3    C6 7165   1.642   4.382  11.740  0.1643 -0.7104  0.0494
  478TMC3     C 7166   1.994   4.189  11.841  0.3437  1.0979 -0.4146
  478TMC3     O 7167   2.012   4.076  11.800  0.0000 -0.2721 -0.3593
  478TMC3     H 7168   1.903   4.426  11.926  1.3854 -0.4088  0.3197
  478TMC3    H1 7169   1.815   4.102  11.650  2.2459  0.8003 -0.6791
  478TMC3    H2 7170   1.536   4.403  11.732  0.3107  0.5448  1.4199
  478TMC3    C7 7171   1.578   4.204  11.603  0.2189 -1.1256  0.2325
  478TMC3    C8 7172   1.686   4.535  11.918 -0.1212  0.2306  0.1070
  478TMC3    O1 7173   1.547   4.083  11.616  0.0011 -0.4752  0.0311
  478TMC3    O2 7174   1.577   4.513  11.970  0.3296  0.1715 -0.1114
  479MPD2     C 7175   1.653   1.733  15.448  0.9233 -0.1964  0.9519
  479MPD2    C1 7176   1.626   1.735  15.576  0.4342 -1.0053  0.0584
  479MPD2    C2 7177   1.693   1.815  15.662 -0.1175 -0.4378  0.3126
  479MPD2    C3 7178   1.780   1.907  15.608 -0.2323  0.0598  0.8167
  479MPD2    C4 7179   1.814   1.906  15.478  0.6694 -0.0977  0.2912
  479MPD2    C5 7180   1.747   1.821  15.397  0.3690  0.1643  0.0323
  479MPD2     H 7181   1.676   1.809  15.769 -0.4516  2.4134  0.4198
  479MPD2    H1 7182   1.890   1.975  15.444 -1.1488  1.7488  0.0149
  479MPD2    H2 7183   1.609   1.654  15.388 -2.9985  0.4416  3.0131
  479MPD2    H3 7184   1.772   1.823  15.292 -0.3688  2.1197 -0.1242
  479MPD2     N 7185   1.843   2.003  15.697 -0.2836 -0.1800 -0.5927
  479MPD2    H5 7186   1.940   2.027  15.680 -0.6807  0.9233 -1.3468
  479MPD2    N1 7187   1.528   1.641  15.618 -0.7268  0.3974  0.4353
  479MPD2    H7 7188   1.480   1.606  15.535 -0.0023 -1.1318  0.6697
  480TMC3    C1 7189   1.516   1.957  16.004  0.3795  0.3233  0.6896
  480TMC3    C2 7190   1.411   1.976  15.911  0.0029  0.4922 -0.0700
  480TMC3    C3 7191   1.453   2.039  15.793  0.2334  0.3794  0.0364
  480TMC3    C4 7192   1.646   1.995  15.984  0.3401 -0.4363 -0.3408
  480TMC3    C5 7193   1.673   2.046  15.861  0.4171  0.4153 -0.7395
  480TMC3    C6 7194   1.583   2.079  15.768 -0.4041 -0.0753  0.3227
  480TMC3     C 7195   1.497   1.844  16.092 -0.4822  0.4090  0.2180
  480TMC3     O 7196   1.590   1.778  16.133 -0.6101 -0.7604 -0.0962
  480TMC3     H 7197   1.307   1.946  15.918  0.0549  0.2519 -0.3448
  480TMC3    H1 7198   1.718   1.967  16.060  0.6905  2.5454  0.4390
  480TMC3    H2 7199   1.620   2.115  15.672 -0.5210  1.5491  0.8916
  480TMC3    C7 7200   1.812   2.029  15.826 -0.2832  0.0714 -0.5757
  480TMC3    C8 7201   1.380   1.986  15.674  0.4713 -0.1803 -0.0575
  480TMC3    O1 7202   1.892   2.069  15.914 -0.2070  0.3307 -0.2203
  480TMC3    O2 7203   1.297   1.897  15.698 -0.2277  0.4975  0.2596
  481MPD2     C 7204   3.028   1.287  14.019 -0.1510 -0.0465  0.4951
  481MPD2    C1 7205   2.932   1.216  14.093 -0.8918 -0.6774 -0.0016
  481MPD2    C2 7206   2.940   1.220  14.230  0.0045 -0.0513 -0.6009
  481MPD2    C3 7207   3.051   1.273  14.291  0.2006  0.0073 -1.0364
  481MPD2    C4 7208   3.144   1.350  14.218 -0.0295 -0.5335 -0.1263
  481MPD2    C5 7209   3.126   1.354  14.081  0.3916  0.6485  0.2753
  481MPD2     H 7210   2.863   1.181  14.295  2.2053 -2.5758  0.4955
  481MPD2    H1 7211   3.229   1.399  14.266  1.9404  0.9614 -5.1337
  481MPD2    H2 7212   3.012   1.294  13.912  0.9789  0.8093  0.3898
  481MPD2    H3 7213   3.206   1.398  14.024  0.9105 -0.7529 -0.0716
  481MPD2     N 7214   3.078   1.276  14.428 -0.1510 -0.4822  0.5194
  481MPD2    H5 7215   3.159   1.329  14.458 -0.7118  0.2977  0.6464
  481MPD2    N1 7216   2.813   1.174  14.021  0.1141 -0.5724 -0.5582
  481MPD2    H7 7217   2.807   1.206  13.925  2.5407  0.8543 -0.2492
  482TMC3    C1 7218   2.601   1.086  14.007  0.1227 -0.7602  0.2160
  482TMC3    C2 7219   2.528   0.974  14.002 -0.0265  0.1856  0.4465
  482TMC3    C3 7220   2.407   0.972  13.934  0.1881 -0.0598 -0.0243
  482TMC3    C4 7221   2.556   1.206  13.950 -0.0189 -0.8580  0.0130
  482TMC3    C5 7222   2.431   1.201  13.890  0.1529 -0.1187 -0.1672
  482TMC3    C6 7223   2.347   1.088  13.897 -0.4037  0.4746  0.3513
  482TMC3     C 7224   2.729   1.094  14.083 -0.5395 -0.3047  0.0939
  482TMC3     O 7225   2.741   1.020  14.177 -0.1784  0.1935 -0.2361
  482TMC3     H 7226   2.570   0.885  14.048 -0.0442  0.5085  1.0925
  482TMC3    H1 7227   2.611   1.299  13.960 -0.3535 -0.5558 -0.8843
  482TMC3    H2 7228   2.251   1.087  13.847  0.3431  1.9071 -1.0822
  482TMC3    C7 7229   2.384   1.326  13.845  0.5111  0.5777  1.0817
  482TMC3    C8 7230   2.353   0.837  13.914  0.4769  0.7963  0.1250
  482TMC3    O1 7231   2.265   1.332  13.829  0.2490  0.3981 -0.0091
  482TMC3    O2 7232   2.429   0.747  13.924 -0.1431 -0.4377  0.0476
  483TMC3    C1 7233   0.750   0.279   0.904 -0.1826 -0.0550  0.8931
  483TMC3    C2 7234   0.818   0.394   0.874 -0.3668 -0.2210  0.0741
  483TMC3    C3 7235   0.937   0.408   0.941 -0.3426  0.1635 -0.3213
  483TMC3    C4 7236   0.790   0.177   0.985  0.2824 -0.4373 -0.7293
  483TMC3    C5 7237   0.904   0.205   1.057  0.0699  0.4255 -0.0050
  483TMC3    C6 7238   0.986   0.312   1.026  0.6138 -0.0438 -0.4650
  483TMC3     C 7239   0.631   0.257   0.819  0.0186 -0.3878  0.2094
  483TMC3     O 7240   0.558   0.353   0.782  0.0161 -0.1584 -0.4207
  483TMC3     H 7241   0.779   0.472   0.810 -3.1064 -0.7755  1.0754
  483TMC3    H1 7242   0.725   0.093   1.003  0.7404 -0.6242  0.0841
  483TMC3    H2 7243   1.079   0.314   1.082  2.3498 -1.7402 -3.3290
  483TMC3    C7 7244   0.976   0.086   1.113  0.3111 -0.4953 -0.3637
  483TMC3    C8 7245   1.013   0.534   0.923  0.8319  0.4045 -0.3193
  483TMC3    O1 7246   1.085   0.100   1.169  0.1273  0.5173 -0.1344
  483TMC3    O2 7247   0.987   0.608   0.833  0.4981  0.6265  0.3078
  484MPD2     C 7248   2.981   2.820  12.566  0.0669 -0.2732 -0.0742
  484MPD2    C1 7249   3.029   2.734  12.663  0.4256 -0.3834 -0.3626
  484MPD2    C2 7250   3.163   2.756  12.697 -0.3063 -0.3526  0.0383
  484MPD2    C3 7251   3.243   2.840  12.626 -0.6959 -0.0891 -0.0250
  484MPD2    C4 7252   3.195   2.911  12.529  0.2193  0.9828 -0.1839
  484MPD2    C5 7253   3.060   2.909  12.509  0.5906  0.1172  0.4976
  484MPD2     H 7254   3.206   2.692  12.773  1.2344  2.3215  1.4294
  484MPD2    H1 7255   3.253   2.977  12.466  0.2676 -1.9031 -3.1623
  484MPD2    H2 7256   2.877   2.827  12.534 -0.1981  1.6370  1.1810
  484MPD2    H3 7257   3.007   2.979  12.445 -0.8043 -2.6680 -1.4315
  484MPD2     N 7258   3.382   2.839  12.636  0.0313  0.1799 -0.4436
  484MPD2    H5 7259   3.431   2.875  12.554  0.8655 -1.6228 -0.7280
  484MPD2    N1 7260   2.954   2.633  12.731 -0.2680  0.1578  0.5106
  484MPD2    H7 7261   2.981   2.599  12.822  1.1595 -2.8518 -1.0536
  485TMC3    C1 7262   3.591   2.776  12.697  0.1187  0.3960 -0.8655
  485TMC3    C2 7263   3.686   2.816  12.789 -0.4958 -0.2671 -0.1114
  485TMC3    C3 7264   3.807   2.857  12.737  0.1149  0.3014  0.6004
  485TMC3    C4 7265   3.606   2.780  12.558 -0.4807  0.5076 -0.1281
  485TMC3    C5 7266   3.721   2.833  12.514  0.3995 -0.2755 -0.0571
  485TMC3    C6 7267   3.818   2.866  12.602  0.1475 -0.2098 -0.0856
  485TMC3     C 7268   3.455   2.777  12.736 -0.2911 -0.1860 -0.2314
  485TMC3     O 7269   3.431   2.744  12.853 -0.0891 -0.5926 -0.9323
  485TMC3     H 7270   3.677   2.798  12.896  1.6807 -0.9979 -0.0387
  485TMC3    H1 7271   3.543   2.717  12.496 -1.4674  0.8743  0.4943
  485TMC3    H2 7272   3.913   2.893  12.556 -0.4978 -0.3531 -1.5188
  485TMC3    C7 7273   3.778   2.747  12.405  0.0387  0.0712 -0.1045
  485TMC3    C8 7274   3.921   2.782  12.787  0.1679 -0.3223  0.2217
  485TMC3    O1 7275   3.778   2.623  12.427  0.1467 -0.3486  0.4526
  485TMC3    O2 7276   4.025   2.792  12.721  0.3948 -0.6390 -0.5490
  486MPD2     C 7277   1.070   2.205  13.559  0.3081 -0.3187 -0.2988
  486MPD2    C1 7278   0.995   2.098  13.517 -0.8477 -0.4601  0.3192
  486MPD2    C2 7279   0.866   2.131  13.473  0.1738 -0.2910  0.5174
  486MPD2    C3 7280   0.830   2.266  13.459 -0.2994 -0.3617  0.2319
  486MPD2    C4 7281   0.904   2.367  13.525 -0.4563  0.0696 -0.7950
  486MPD2    C5 7282   1.029   2.336  13.563  0.8235  1.3473  0.3961
  486MPD2     H 7283   0.795   2.055  13.441  0.2283  0.8273 -2.2710
  486MPD2    H1 7284   0.885   2.472  13.541  0.1761 -0.0027  0.4113
  486MPD2    H2 7285   1.168   2.194  13.603 -0.5655 -1.3699  1.3863
  486MPD2    H3 7286   1.096   2.420  13.580  3.3512 -0.5571 -0.1688
  486MPD2     N 7287   0.700   2.292  13.396  0.1465  0.4305 -0.2096
  486MPD2    H5 7288   0.637   2.214  13.388  1.2753 -0.5025 -0.0549
  486MPD2    N1 7289   1.049   1.969  13.517  0.6922 -0.0031  0.6183
  486MPD2    H7 7290   1.137   1.970  13.566  1.1717 -0.1319 -0.2390
  487TMC3    C1 7291   1.077   1.735  13.486 -0.7126  0.1254  0.2156
  487TMC3    C2 7292   1.035   1.622  13.423 -0.6048  0.2883 -0.5794
  487TMC3    C3 7293   1.115   1.505  13.442  0.3581  0.0623  1.1341
  487TMC3    C4 7294   1.168   1.733  13.590 -0.3753 -1.1483 -0.0362
  487TMC3    C5 7295   1.235   1.617  13.612  0.4875  0.1279  0.6379
  487TMC3    C6 7296   1.220   1.505  13.530 -0.3271 -1.0895  0.3713
  487TMC3     C 7297   0.991   1.853  13.483 -0.2002  0.2360  0.2401
  487TMC3     O 7298   0.873   1.833  13.449  0.1742 -0.8252 -0.1814
  487TMC3     H 7299   0.945   1.635  13.364 -1.0553 -0.7719 -0.1137
  487TMC3    H1 7300   1.178   1.815  13.660 -1.7286 -0.6312 -0.4518
  487TMC3    H2 7301   1.253   1.416  13.581  2.0328  1.0036  2.5321
  487TMC3    C7 7302   1.241   1.587  13.745 -0.3095 -0.5197 -0.1389
  487TMC3    C8 7303   1.063   1.370  13.422 -0.1153  0.8833 -0.4778
  487TMC3    O1 7304   1.196   1.478  13.779 -0.5291  0.1245 -0.0187
  487TMC3    O2 7305   1.130   1.269  13.404 -0.3928 -0.0510 -0.1236
  488MPD2     C 7306   1.138   3.383  16.572 -0.1664 -0.0736 -0.5459
  488MPD2    C1 7307   1.183   3.493  16.641 -0.2464  0.5302 -0.0655
  488MPD2    C2 7308   1.165   3.494  16.778  0.0813 -0.0095 -0.0346
  488MPD2    C3 7309   1.115   3.384  16.851 -0.2647 -0.0636  0.3095
  488MPD2    C4 7310   1.063   3.279  16.776 -0.0002 -0.0309  0.2071
  488MPD2    C5 7311   1.083   3.277  16.639 -0.5713  0.3144  0.2552
  488MPD2     H 7312   1.185   3.583  16.835  1.4463 -0.2001 -0.2152
  488MPD2    H1 7313   1.011   3.200  16.829 -1.7331  0.2449 -1.1175
  488MPD2    H2 7314   1.162   3.366  16.468 -0.0047  0.5229 -0.6052
  488MPD2    H3 7315   1.063   3.192  16.575 -0.2063  0.2333  0.2493
  488MPD2     N 7316   1.117   3.378  16.992 -0.0006 -0.0222  0.1182
  488MPD2    H5 7317   1.155   3.456  17.044  3.7144 -0.6273 -1.7517
  488MPD2    N1 7318   1.245   3.602  16.574 -0.0489  0.3646  0.1743
  488MPD2    H7 7319   1.275   3.674  16.639  0.0504  1.2171 -0.7987
  489TMC3    C1 7320   1.062   3.335  17.214  0.2923  0.0368 -0.3631
  489TMC3    C2 7321   1.063   3.465  17.240  0.1745 -0.3613 -0.0926
  489TMC3    C3 7322   1.063   3.514  17.367 -0.0509 -0.0773  0.4931
  489TMC3    C4 7323   1.075   3.243  17.317  0.2709  0.5087 -0.1164
  489TMC3    C5 7324   1.087   3.293  17.443  0.6038  0.8448 -0.3562
  489TMC3    C6 7325   1.075   3.426  17.472 -0.1469  0.2514 -0.0731
  489TMC3     C 7326   1.079   3.282  17.077 -0.0831 -0.6740 -0.6339
  489TMC3     O 7327   1.050   3.162  17.050 -0.2193 -0.1195  0.2285
  489TMC3     H 7328   1.020   3.533  17.168 -0.2376 -1.2388 -0.6818
  489TMC3    H1 7329   1.097   3.139  17.294 -0.3492  0.2296  0.5483
  489TMC3    H2 7330   1.098   3.460  17.572 -0.9018  1.5093 -0.3306
  489TMC3    C7 7331   1.078   3.202  17.555 -0.3161 -0.0756  0.7360
  489TMC3    C8 7332   1.109   3.654  17.383 -0.7136  0.3096  0.0964
  489TMC3    O1 7333   1.111   3.231  17.669  0.1259  0.5968  0.1596
  489TMC3    O2 7334   1.140   3.704  17.280  0.4672 -0.1626  0.0554
  490MPD2     C 7335   1.782   3.210  17.427 -0.1997 -0.1687  0.0476
  490MPD2    C1 7336   1.844   3.106  17.496 -0.3441  0.2047  0.2246
  490MPD2    C2 7337   1.935   3.145  17.595  0.5397 -0.3310  0.0148
  490MPD2    C3 7338   1.961   3.274  17.632 -0.3814  0.2310  0.2177
  490MPD2    C4 7339   1.901   3.372  17.558 -0.1423 -0.6104 -0.7030
  490MPD2    C5 7340   1.799   3.342  17.462 -0.2701  0.1525 -0.0545
  490MPD2     H 7341   1.983   3.062  17.645 -0.0142  0.5055  1.9456
  490MPD2    H1 7342   1.922   3.478  17.569 -0.3638 -0.8226  1.7047
  490MPD2    H2 7343   1.705   3.205  17.350  1.9781  0.0606 -2.1366
  490MPD2    H3 7344   1.754   3.415  17.396  1.4753  1.8594  0.6392
  490MPD2     N 7345   2.052   3.322  17.732 -0.3108 -0.0171  0.6450
  490MPD2    H5 7346   2.054   3.422  17.747 -3.9946 -0.0889  1.7290
  490MPD2    N1 7347   1.806   2.971  17.460  0.4395 -0.1094  0.1862
  490MPD2    H7 7348   1.732   2.958  17.392  1.9015 -1.3061 -1.1646
  491TMC3    C1 7349   1.797   2.740  17.471  0.2991 -0.0534  0.0426
  491TMC3    C2 7350   1.826   2.638  17.551 -0.9389 -0.1408 -0.9998
  491TMC3    C3 7351   1.755   2.523  17.539 -0.3930 -0.0195 -0.3417
  491TMC3    C4 7352   1.699   2.737  17.375 -0.2817  1.0749 -0.6083
  491TMC3    C5 7353   1.626   2.620  17.366 -0.2481  0.2581 -0.2822
  491TMC3    C6 7354   1.640   2.511  17.447  0.1780 -0.1043 -0.1876
  491TMC3     C 7355   1.871   2.861  17.501  0.2631  0.3884  0.7450
  491TMC3     O 7356   1.985   2.852  17.550 -1.3248  0.3958  0.3294
  491TMC3     H 7357   1.894   2.648  17.634 -3.0232 -0.8834  0.8011
  491TMC3    H1 7358   1.702   2.806  17.291 -1.2404  1.0966 -0.6158
  491TMC3    H2 7359   1.580   2.420  17.449  0.9394 -0.6529 -2.8217
  491TMC3    C7 7360   1.524   2.606  17.269  0.1206  0.3788  0.4608
  491TMC3    C8 7361   1.730   2.452  17.660  0.4312  0.6347  0.0754
  491TMC3    O1 7362   1.478   2.497  17.270 -0.4306  0.5165  0.0309
  491TMC3    O2 7363   1.618   2.409  17.667 -0.3726  0.7746 -0.9232
  492MPD2     C 7364   1.638   2.930  12.162 -0.3885 -0.0805 -0.9075
  492MPD2    C1 7365   1.615   2.813  12.092  0.0337 -0.1787  0.4365
  492MPD2    C2 7366   1.530   2.720  12.144 -0.0707  0.3989  0.2025
  492MPD2    C3 7367   1.470   2.735  12.271  0.0182  0.0386 -0.6146
  492MPD2    C4 7368   1.504   2.852  12.342 -0.6637  0.1258 -0.4953
  492MPD2    C5 7369   1.587   2.944  12.293 -0.0508  0.2928 -0.0196
  492MPD2     H 7370   1.512   2.631  12.086 -1.2103  1.5256 -1.1516
  492MPD2    H1 7371   1.469   2.872  12.443 -1.5123  0.1547 -0.7970
  492MPD2    H2 7372   1.692   3.014  12.121  1.5168 -1.4069 -1.1047
  492MPD2    H3 7373   1.604   3.037  12.346  1.6544 -0.9542  1.6295
  492MPD2     N 7374   1.386   2.642  12.342 -0.0368 -0.2130 -0.2133
  492MPD2    H5 7375   1.345   2.659  12.433 -2.1175 -0.4393 -1.1099
  492MPD2    N1 7376   1.673   2.808  11.959  0.1419 -0.6155 -0.3248
  492MPD2    H7 7377   1.737   2.882  11.932 -0.2724  0.3331  1.3306
  493TMC3    C1 7378   1.759   2.705  11.763 -0.2106  0.5329  0.6074
  493TMC3    C2 7379   1.858   2.800  11.737  0.4923  0.2725  0.0853
  493TMC3    C3 7380   1.923   2.796  11.616 -0.0128 -0.7547 -0.4896
  493TMC3    C4 7381   1.740   2.607  11.672 -0.0283 -0.3697 -0.0317
  493TMC3    C5 7382   1.816   2.607  11.554 -0.5845 -0.7546 -0.9322
  493TMC3    C6 7383   1.917   2.689  11.534  0.0686  0.0700 -0.4189
  493TMC3     C 7384   1.662   2.704  11.872  0.2060 -0.0177 -0.2861
  493TMC3     O 7385   1.578   2.614  11.873  0.5188  0.2446  0.4249
  493TMC3     H 7386   1.869   2.885  11.804 -0.6867 -0.8319  1.6719
  493TMC3    H1 7387   1.653   2.542  11.675  0.3513 -0.7708  2.2307
  493TMC3    H2 7388   1.967   2.684  11.437 -0.0549 -4.2181 -0.2441
  493TMC3    C7 7389   1.803   2.492  11.468  0.2330  0.0163 -0.4089
  493TMC3    C8 7390   2.020   2.900  11.598 -0.2411 -0.5923  0.2624
  493TMC3    O1 7391   1.840   2.502  11.354 -0.2175  0.4717  0.4260
  493TMC3    O2 7392   2.029   2.979  11.690 -0.5448  0.2887 -0.1140
  494TMC3    C1 7393   2.486   0.055   0.371  0.9706  0.2457  0.8895
  494TMC3    C2 7394   2.459   4.663   0.369  0.7091 -0.3414 -0.2484
  494TMC3    C3 7395   2.571   4.589   0.338  0.1966  0.7237  0.1075
  494TMC3    C4 7396   2.604   0.110   0.350 -0.4188 -0.1092  0.4391
  494TMC3    C5 7397   2.710   0.034   0.316  0.3856 -0.2896 -0.4992
  494TMC3    C6 7398   2.691   4.639   0.308 -0.0114  0.2017 -0.1214
  494TMC3     C 7399   2.400   0.127   0.466  0.0730 -0.2406 -0.6242
  494TMC3     O 7400   2.278   0.121   0.457  0.2998  0.7117 -0.5945
  494TMC3     H 7401   2.359   4.625   0.390 -0.2501  0.4187 -3.4867
  494TMC3    H1 7402   2.623   0.217   0.357 -0.4988 -0.1840  1.7983
  494TMC3    H2 7403   2.774   4.581   0.269  1.4022  2.4942 -0.5422
  494TMC3    C7 7404   2.831   0.086   0.251 -0.0649  0.5672 -0.8912
  494TMC3    C8 7405   2.550   4.446   0.323  0.3716 -0.3581 -0.1258
  494TMC3    O1 7406   2.908   0.001   0.211  0.1213 -0.6896  0.0559
  494TMC3    O2 7407   2.433   4.409   0.311 -0.1814  0.3352  0.5125
  495TMC3    C1 7408   1.800   1.832  14.826 -0.4639  0.2503  0.7589
  495TMC3    C2 7409   1.722   1.863  14.724  0.5110  0.3547 -0.4621
  495TMC3    C3 7410   1.628   1.965  14.740 -0.4202  0.1028  0.2364
  495TMC3    C4 7411   1.801   1.906  14.940 -0.0528 -0.4581 -0.6756
  495TMC3    C5 7412   1.727   2.023  14.943  0.0976  0.5368  0.2468
  495TMC3    C6 7413   1.640   2.048  14.846  0.4913 -0.0161 -0.1196
  495TMC3     C 7414   1.806   1.684  14.867  0.0713  0.0927  0.6174
  495TMC3     O 7415   1.770   1.656  14.978  0.0300  0.3493 -0.1158
  495TMC3     H 7416   1.725   1.796  14.638 -1.1500 -0.2887 -0.0199
  495TMC3    H1 7417   1.855   1.871  15.028  0.5541 -0.9902 -1.2565
  495TMC3    H2 7418   1.582   2.140  14.854 -1.5699 -1.5810  3.2019
  495TMC3    C7 7419   1.672   2.038  15.076 -0.4797 -0.1306 -0.1529
  495TMC3    C8 7420   1.492   1.925  14.732  0.8470  0.1486  0.2218
  495TMC3    O1 7421   1.745   2.085  15.164 -0.3928 -0.0216  0.6428
  495TMC3    O2 7422   1.419   1.956  14.825  0.2797  0.0356  0.4397
  496MPD2     C 7423   3.201   2.039  15.433 -0.2424  0.4801 -0.6852
  496MPD2    C1 7424   3.284   2.053  15.536  0.4295  0.1695 -0.5002
  496MPD2    C2 7425   3.229   2.033  15.663 -0.0425 -0.0351 -0.3012
  496MPD2    C3 7426   3.096   2.005  15.687  0.5419  0.1386  0.5374
  496MPD2    C4 7427   3.022   1.980  15.581  0.3840 -0.4975 -0.8512
  496MPD2    C5 7428   3.068   2.009  15.455 -0.8039  0.1481  0.4047
  496MPD2     H 7429   3.301   2.037  15.744  2.3905  0.4813 -2.5203
  496MPD2    H1 7430   2.920   1.946  15.594 -0.2807  2.2516  1.0448
  496MPD2    H2 7431   3.233   2.065  15.333 -0.5593 -1.2032 -1.2255
  496MPD2    H3 7432   3.002   1.986  15.372  0.0719 -0.2235 -0.1884
  496MPD2     N 7433   3.033   1.996  15.812 -0.7665 -0.0059 -0.0319
  496MPD2    H5 7434   2.942   1.952  15.820 -0.2823 -1.1974 -0.9929
  496MPD2    N1 7435   3.416   2.077  15.505  0.6220 -0.3283  0.6667
  496MPD2    H7 7436   3.448   2.059  15.411  0.7899 -1.7378  0.9894
  497TMC3    C1 7437   3.014   1.985  16.037 -0.3813 -0.6073  0.1727
  497TMC3    C2 7438   2.877   1.990  16.031  0.3376 -0.2800 -0.7532
  497TMC3    C3 7439   2.803   1.996  16.151 -0.6336 -0.6216  0.5844
  497TMC3    C4 7440   3.078   1.984  16.161 -0.3455 -1.0377 -0.2889
  497TMC3    C5 7441   3.003   1.972  16.277  0.6636 -0.2646 -0.8363
  497TMC3    C6 7442   2.867   1.984  16.272 -0.1535 -0.0128 -0.3849
  497TMC3     C 7443   3.089   2.027  15.926 -0.2824  0.8320 -0.5302
  497TMC3     O 7444   3.195   2.083  15.950 -0.1340 -0.2103 -0.5276
  497TMC3     H 7445   2.818   1.979  15.941  2.7764 -1.9688 -2.1108
  497TMC3    H1 7446   3.185   1.970  16.162 -0.2484 -0.3166 -0.3530
  497TMC3    H2 7447   2.813   2.003  16.365 -1.2444  0.6040 -1.1506
  497TMC3    C7 7448   3.070   1.995  16.404  0.1682 -0.1761  0.7098
  497TMC3    C8 7449   2.660   2.023  16.155 -0.2312 -0.8191 -0.0119
  497TMC3    O1 7450   2.993   2.005  16.500 -0.2118  0.2566  0.1510
  497TMC3    O2 7451   2.599   2.004  16.263 -0.2145 -0.4430  0.1376
  498MPD2     C 7452   4.683   2.314  10.037 -0.0218  0.5816  0.6907
  498MPD2    C1 7453   4.553   2.306  10.085 -0.1699 -0.8806  0.0940
  498MPD2    C2 7454   4.511   2.186  10.136  1.0149  0.0105 -0.3155
  498MPD2    C3 7455   4.595   2.079  10.144 -0.3396 -0.5729 -0.2448
  498MPD2    C4 7456   4.725   2.093  10.101 -0.1979  0.4336  0.4780
  498MPD2    C5 7457   0.033   2.214  10.051  0.4531  0.0662  0.7165
  498MPD2     H 7458   4.410   2.173  10.173  0.3038 -0.7829 -2.5828
  498MPD2    H1 7459   0.061   2.016  10.097 -0.8219 -0.2105  1.1746
  498MPD2    H2 7460   4.730   2.411  10.019 -0.4397  0.7128  0.3053
  498MPD2    H3 7461   0.139   2.221  10.029  0.9436 -1.1447  2.7281
  498MPD2     N 7462   4.550   1.954  10.195 -0.0087 -0.2393 -0.1184
  498MPD2    H5 7463   4.459   1.958  10.240  0.2831 -1.6517  0.6161
  498MPD2    N1 7464   4.474   2.423  10.089 -0.3911 -0.2847  0.8145
  498MPD2    H7 7465   4.383   2.398  10.128 -0.8992  2.5176  1.4261
  499TMC3    C1 7466   4.395   2.650  10.081  0.4317 -0.0926  0.3365
  499TMC3    C2 7467   4.284   2.615  10.154  0.1307 -0.3499  0.4689
  499TMC3    C3 7468   4.212   2.715  10.219 -0.2142  0.2522 -0.1700
  499TMC3    C4 7469   4.441   2.784  10.077 -1.1764  0.8379  0.0466
  499TMC3    C5 7470   4.357   2.880  10.126  1.2625 -0.3803  0.2218
  499TMC3    C6 7471   4.241   2.849  10.195 -0.0854  0.4657 -0.2205
  499TMC3     C 7472   4.500   2.552  10.041  0.6007 -0.4133  0.4437
  499TMC3     O 7473   4.604   2.595   9.994 -0.5932 -0.3109 -0.2819
  499TMC3     H 7474   4.254   2.512  10.166 -2.5822  0.5355  1.3315
  499TMC3    H1 7475   4.527   2.812  10.018 -1.7317 -0.2614 -1.2881
  499TMC3    H2 7476   4.179   2.932  10.226 -0.4209  0.5312 -1.0522
  499TMC3    C7 7477   4.422   3.003  10.166 -0.6210  0.0537  0.6397
  499TMC3    C8 7478   4.075   2.695  10.269  1.1753  0.4513  0.3618
  499TMC3    O1 7479   4.363   3.103  10.124  0.0394  0.2173  0.5529
  499TMC3    O2 7480   4.011   2.796  10.282  0.1295 -0.0706  0.2337
  500MPD2     C 7481   1.053   3.766  11.352  0.1659 -0.1304  0.0904
  500MPD2    C1 7482   1.115   3.827  11.245  0.0814  0.2394 -0.0227
  500MPD2    C2 7483   1.034   3.885  11.151 -0.3248  0.0581  0.1588
  500MPD2    C3 7484   0.894   3.883  11.173  0.3597 -0.2970  0.0217
  500MPD2    C4 7485   0.839   3.823  11.279 -0.0520  0.2755 -0.0547
  500MPD2    C5 7486   0.921   3.764  11.372 -0.2560 -0.5779 -0.6213
  500MPD2     H 7487   1.077   3.937  11.066  0.2781 -2.0024 -0.8195
  500MPD2    H1 7488   0.734   3.831  11.305  0.3244  1.2552  1.1359
  500MPD2    H2 7489   1.114   3.723  11.431  0.2449  2.3329  1.3832
  500MPD2    H3 7490   0.879   3.723  11.463 -0.5899  0.1849 -0.4304
  500MPD2     N 7491   0.798   3.932  11.086 -0.8559 -0.1747 -0.0516
  500MPD2    H5 7492   0.702   3.922  11.119 -0.6217  0.6743  0.8846
  500MPD2    N1 7493   1.255   3.837  11.234  0.4364  0.4816  0.5959
  500MPD2    H7 7494   1.295   3.884  11.153 -0.6346  2.0477  0.9703
  501TMC3    C1 7495   1.482   3.854  11.282  0.1182  0.1031 -0.5514
  501TMC3    C2 7496   1.500   3.910  11.158 -0.6394  0.1669  0.1599
  501TMC3    C3 7497   1.614   3.991  11.145  0.3591  0.6503 -0.4569
  501TMC3    C4 7498   1.566   3.889  11.384  1.0705 -0.6506  0.0008
  501TMC3    C5 7499   1.680   3.966  11.369 -0.0088 -0.2163  0.1486
  501TMC3    C6 7500   1.701   4.012  11.245  0.7586 -0.1178  0.3196
  501TMC3     C 7501   1.348   3.812  11.330  0.4633 -0.4548  0.4291
  501TMC3     O 7502   1.334   3.760  11.439 -0.2655 -0.0593 -0.3911
  501TMC3     H 7503   1.434   3.893  11.074 -0.4113 -1.0815  0.2281
  501TMC3    H1 7504   1.539   3.858  11.484  1.2970 -1.8717 -0.3121
  501TMC3    H2 7505   1.788   4.074  11.226 -0.3260  1.1679 -0.4829
  501TMC3    C7 7506   1.802   3.912  11.430  0.9187 -0.0037 -0.6400
  501TMC3    C8 7507   1.628   4.073  11.029 -0.1962 -0.2861  0.0729
  501TMC3    O1 7508   1.898   3.911  11.359 -0.4513  0.2725  0.4714
  501TMC3    O2 7509   1.525   4.099  10.974 -0.2481  0.3165 -0.5499
  502TMC3    C1 7510   0.708   2.818  14.866  0.3404 -0.2308 -0.5049
  502TMC3    C2 7511   0.705   2.953  14.842 -0.6133  0.1475 -0.4197
  502TMC3    C3 7512   0.604   3.027  14.896  0.5164  0.3330  0.2719
  502TMC3    C4 7513   0.595   2.759  14.923 -0.2645 -0.0579 -0.0667
  502TMC3    C5 7514   0.490   2.834  14.973  0.8467  0.2883 -0.8721
  502TMC3    C6 7515   0.491   2.968  14.959 -0.0613  0.0872  0.7572
  502TMC3     C 7516   0.824   2.765  14.930 -0.1338 -0.2038 -0.5325
  502TMC3     O 7517   0.931   2.761  14.871 -0.0193 -0.2723  0.4642
  502TMC3     H 7518   0.796   2.991  14.796 -0.8776  0.9609 -0.2759
  502TMC3    H1 7519   0.598   2.652  14.940  1.5449 -0.0072 -0.0972
  502TMC3    H2 7520   0.418   3.027  15.013  0.2700  0.7239  0.5104
  502TMC3    C7 7521   0.438   2.788  15.102 -0.3463 -0.4681  0.1092
  502TMC3    C8 7522   0.638   3.165  14.915 -0.1069 -0.4557 -0.2138
  502TMC3    O1 7523   0.514   2.721  15.164 -0.2336 -0.1708 -0.0381
  502TMC3    O2 7524   0.759   3.189  14.926 -0.4582  0.2961  0.3503
  503MPD2     C 7525   3.012   3.679  16.934  0.2543 -0.3076  0.2034
  503MPD2    C1 7526   3.010   3.718  17.064  0.0433  1.1157 -0.3969
  503MPD2    C2 7527   3.049   3.622  17.162 -0.4376 -0.1219  0.4109
  503MPD2    C3 7528   3.114   3.506  17.121  0.4778  0.6819  0.2311
  503MPD2    C4 7529   3.131   3.475  16.987  0.3951 -0.3079 -0.0330
  503MPD2    C5 7530   3.076   3.558  16.895  0.0947 -0.7682  0.3661
  503MPD2     H 7531   3.039   3.648  17.267 -1.5468 -0.5388  0.4088
  503MPD2    H1 7532   3.186   3.386  16.957 -0.1157 -1.4233  2.3082
  503MPD2    H2 7533   2.981   3.748  16.857 -0.7163 -0.4010  0.5171
  503MPD2    H3 7534   3.078   3.525  16.792  1.3047  2.1192 -0.5380
  503MPD2     N 7535   3.161   3.420  17.228  0.2643 -0.6315  0.1465
  503MPD2    H5 7536   3.148   3.454  17.322  1.3484  2.0140 -0.6744
  503MPD2    N1 7537   2.967   3.844  17.114 -0.3501  1.0812 -0.2455
  503MPD2    H7 7538   2.960   3.863  17.213  0.5812 -0.1000  0.0464
  504TMC3    C1 7539   3.282   3.245  17.325 -0.6925  0.6430 -0.4102
  504TMC3    C2 7540   3.237   3.287  17.446  0.1334 -0.1787 -0.7987
  504TMC3    C3 7541   3.309   3.244  17.554  0.0027  0.1300  0.1254
  504TMC3    C4 7542   3.391   3.164  17.306 -0.8265 -0.2263 -0.9982
  504TMC3    C5 7543   3.477   3.144  17.421 -0.1296 -0.0451 -0.0778
  504TMC3    C6 7544   3.430   3.183  17.539 -0.2849  0.4512  0.8772
  504TMC3     C 7545   3.225   3.300  17.207 -0.0844  0.0392  0.4988
  504TMC3     O 7546   3.261   3.250  17.102 -0.0704 -0.3195  0.1341
  504TMC3     H 7547   3.139   3.333  17.451 -0.3453 -1.3368  0.7457
  504TMC3    H1 7548   3.411   3.122  17.208 -1.8936  0.3461 -1.4633
  504TMC3    H2 7549   3.485   3.164  17.630  1.1429 -0.8578 -0.2453
  504TMC3    C7 7550   3.616   3.113  17.398  0.2022  0.0803 -0.7062
  504TMC3    C8 7551   3.246   3.261  17.688 -1.2792 -0.5593  0.1363
  504TMC3    O1 7552   3.657   3.124  17.283 -0.1199  0.4312  0.2159
  504TMC3    O2 7553   3.166   3.352  17.677 -0.2957  0.5907 -0.3741
  505MPD2     C 7554   3.224   1.430  10.239  0.4083 -0.1991 -0.4670
  505MPD2    C1 7555   3.287   1.331  10.306  0.4843 -0.2967 -0.3723
  505MPD2    C2 7556   3.332   1.343  10.438  0.1207  0.6184 -0.6057
  505MPD2    C3 7557   3.302   1.459  10.500  0.9637  0.1674  0.0587
  505MPD2    C4 7558   3.236   1.563  10.435  0.1486 -0.3839 -0.6119
  505MPD2    C5 7559   3.193   1.543  10.305  0.5995 -0.1196 -0.2220
  505MPD2     H 7560   3.393   1.269  10.488 -0.9338  0.6507  0.7368
  505MPD2    H1 7561   3.210   1.654  10.489 -1.1334  0.9255 -3.4634
  505MPD2    H2 7562   3.203   1.423  10.133 -1.6036  2.5922 -0.2459
  505MPD2    H3 7563   3.149   1.630  10.258  1.4645  0.8294  0.7107
  505MPD2     N 7564   3.355   1.467  10.630  0.0679  0.1055  0.1251
  505MPD2    H5 7565   3.411   1.388  10.658  0.2128  0.4467  0.8051
  505MPD2    N1 7566   3.314   1.214  10.228 -0.2160  0.8619 -0.2031
  505MPD2    H7 7567   3.280   1.205  10.132  0.1597 -4.9378  0.2113
  506TMC3    C1 7568   3.451   1.028  10.171  0.6724  0.0525 -0.0162
  506TMC3    C2 7569   3.524   1.083  10.068 -0.2104  0.0650  0.1770
  506TMC3    C3 7570   3.645   1.033  10.026 -0.3390 -0.2388 -0.5728
  506TMC3    C4 7571   3.507   0.916  10.232 -0.2713  0.5578 -0.2402
  506TMC3    C5 7572   3.636   0.880  10.201  0.7553 -0.3228  0.1600
  506TMC3    C6 7573   3.702   0.930  10.095  0.5580 -0.6758 -0.0262
  506TMC3     C 7574   3.392   1.113  10.277  0.0778  0.0350  0.0462
  506TMC3     O 7575   3.448   1.091  10.387 -0.7171 -0.2023 -0.2402
  506TMC3     H 7576   3.479   1.161  10.008  0.1909 -1.1387 -1.7035
  506TMC3    H1 7577   3.452   0.856  10.303  0.4023 -0.5725 -0.6830
  506TMC3    H2 7578   3.803   0.898  10.070  2.2284  5.2994 -0.9997
  506TMC3    C7 7579   3.725   0.846  10.314  0.1100 -0.4038  0.0647
  506TMC3    C8 7580   3.725   1.126   9.947 -0.7094 -1.0342  0.3958
  506TMC3    O1 7581   3.843   0.827  10.295  0.4708 -0.1399 -0.2332
  506TMC3    O2 7582   3.692   1.142   9.833  0.4453 -0.5983 -0.7058
  507TMC3    C1 7583   4.242   3.513  14.759  0.5573  0.1242  0.0320
  507TMC3    C2 7584   4.273   3.406  14.845  0.3595 -0.0739 -0.5670
  507TMC3    C3 7585   4.302   3.290  14.777 -0.4773  0.2701  0.1339
  507TMC3    C4 7586   4.257   3.516  14.621  0.0382 -0.2231  0.0259
  507TMC3    C5 7587   4.300   3.401  14.560 -0.0288 -0.1073  0.4094
  507TMC3    C6 7588   4.319   3.288  14.640  0.5245 -0.0571  0.0904
  507TMC3     C 7589   4.165   3.612  14.821 -0.2576 -0.1111 -0.2663
  507TMC3     O 7590   4.123   3.593  14.934 -0.3512 -0.2612 -0.4415
  507TMC3     H 7591   4.257   3.414  14.952 -1.4075  1.4364 -0.9493
  507TMC3    H1 7592   4.210   3.591  14.558  3.0791 -0.6950 -2.8526
  507TMC3    H2 7593   4.347   3.197  14.589  1.6171 -1.0306  2.4667
  507TMC3    C7 7594   4.216   3.356  14.451 -0.3346  0.0747  0.1629
  507TMC3    C8 7595   4.226   3.169  14.824 -0.7224 -0.1694 -0.5908
  507TMC3    O1 7596   4.178   3.246  14.458  0.7146 -0.3868  0.1544
  507TMC3    O2 7597   4.229   3.127  14.942 -0.2679 -0.3782  0.1938
  508MPD2     C 7598   0.651   0.370  16.390  0.3725  0.1648 -0.3150
  508MPD2    C1 7599   0.589   0.490  16.409 -0.1991  0.2472 -0.0134
  508MPD2    C2 7600   0.531   0.560  16.314 -0.0830 -0.7867  0.9743
  508MPD2    C3 7601   0.553   0.516  16.185  0.7031 -0.1329  0.0658
  508MPD2    C4 7602   0.607   0.396  16.160  0.3780 -0.3428 -0.3039
  508MPD2    C5 7603   0.665   0.323  16.260  0.5579 -0.8410  0.3326
  508MPD2     H 7604   0.498   0.659  16.341  1.0044 -1.1557  3.6656
  508MPD2    H1 7605   0.644   0.360  16.064  1.0292 -0.0980 -0.1483
  508MPD2    H2 7606   0.684   0.306  16.472 -1.4323 -1.4088 -0.8066
  508MPD2    H3 7607   0.724   0.233  16.250  2.1004  0.0865  1.0239
  508MPD2     N 7608   0.530   0.613  16.087 -0.4407  0.1259 -0.9827
  508MPD2    H5 7609   0.498   0.707  16.107  2.8911  0.9542  0.3467
  508MPD2    N1 7610   0.611   0.547  16.540 -0.0190  0.0208  0.0905
  508MPD2    H7 7611   0.687   0.517  16.599 -0.0931 -0.1860  0.0814
  509TMC3    C1 7612   0.442   0.902  15.761 -0.2999  0.2502 -0.9522
  509TMC3    C2 7613   0.504   0.995  15.837  0.2495 -0.1817 -0.1254
  509TMC3    C3 7614   0.589   0.942  15.938 -0.6854 -0.4318 -0.1272
  509TMC3    C4 7615   0.456   0.765  15.791  0.4068 -0.0645 -0.2270
  509TMC3    C5 7616   0.544   0.717  15.888  0.1430  0.5447  0.1433
  509TMC3    C6 7617   0.611   0.807  15.962 -0.0200  0.4389  0.0316
  509TMC3     C 7618   0.375   0.937  15.638  0.1959 -0.1322  0.2266
  509TMC3     O 7619   0.343   0.848  15.563  0.1512  0.5785 -0.4418
  509TMC3     H 7620   0.489   1.101  15.821  1.6104 -0.0726 -0.7005
  509TMC3    H1 7621   0.425   0.685  15.725  0.2765 -1.3464  1.3823
  509TMC3    H2 7622   0.676   0.774  16.042  0.5865  0.0870 -0.6045
  509TMC3    C7 7623   0.532   0.588  15.952  0.1271  0.7581  0.4979
  509TMC3    C8 7624   0.652   1.030  16.029 -0.4989 -0.0442  0.6952
  509TMC3    O1 7625   0.517   0.485  15.887  0.0062 -0.1727  0.0110
  509TMC3    O2 7626   0.692   0.980  16.136  0.6454 -0.5796  0.1700
  510MPD2     C 7627   2.459   2.332  14.811 -1.0467 -0.1320 -0.3769
  510MPD2    C1 7628   2.548   2.423  14.869 -0.4989 -0.3234  0.4609
  510MPD2    C2 7629   2.651   2.480  14.792  0.3749 -0.8911 -0.2985
  510MPD2    C3 7630   2.666   2.459  14.657 -0.9992  0.2165  0.3092
  510MPD2    C4 7631   2.566   2.385  14.596 -0.1929 -0.4177 -0.5547
  510MPD2    C5 7632   2.469   2.323  14.673 -0.0885 -0.0509 -0.0056
  510MPD2     H 7633   2.729   2.530  14.847  1.0436 -1.8808 -0.3474
  510MPD2    H1 7634   2.572   2.352  14.493  1.2066  2.1611 -1.2958
  510MPD2    H2 7635   2.374   2.288  14.862 -1.0510 -1.4024 -1.4870
  510MPD2    H3 7636   2.400   2.258  14.620  0.7970 -0.9877  0.0050
  510MPD2     N 7637   2.779   2.519  14.597 -0.0003 -0.6885  0.2861
  510MPD2    H5 7638   2.846   2.557  14.663 -2.2529  1.3742  1.3734
  510MPD2    N1 7639   2.545   2.439  15.014 -0.2205  0.5849  0.1019
  510MPD2    H7 7640   2.508   2.364  15.071  0.5445 -0.0134 -0.2013
  511TMC3    C1 7641   2.561   2.535  15.226  1.2471 -0.4643  0.3777
  511TMC3    C2 7642   2.523   2.644  15.299 -0.0383  0.2063 -0.9474
  511TMC3    C3 7643   2.519   2.630  15.438 -0.2740  0.3284  0.0073
  511TMC3    C4 7644   2.611   2.420  15.287 -0.0819 -0.0530  0.0524
  511TMC3    C5 7645   2.601   2.407  15.426  0.3742  0.4288  0.5805
  511TMC3    C6 7646   2.553   2.509  15.499 -0.1379  0.0753 -0.1506
  511TMC3     C 7647   2.579   2.553  15.083 -0.9871  0.1446  0.3471
  511TMC3     O 7648   2.582   2.663  15.037 -0.2032 -0.4794  0.3703
  511TMC3     H 7649   2.490   2.735  15.249 -2.1504 -0.1176 -0.1401
  511TMC3    H1 7650   2.630   2.328  15.232 -0.3609 -0.6633  0.9736
  511TMC3    H2 7651   2.533   2.507  15.606  2.3326 -0.3481  0.2996
  511TMC3    C7 7652   2.578   2.283  15.489 -0.9973 -0.0756  0.5600
  511TMC3    C8 7653   2.411   2.692  15.514 -0.4911 -0.3312  0.0520
  511TMC3    O1 7654   2.512   2.286  15.590  0.4467 -0.2852  0.4528
  511TMC3    O2 7655   2.392   2.813  15.508 -0.6463  0.4362 -0.6859
  512TMC3    C1 7656   1.355   1.726  13.185  0.0968  0.1821 -0.3666
  512TMC3    C2 7657   1.432   1.704  13.292  0.4877 -0.6208  0.5201
  512TMC3    C3 7658   1.500   1.584  13.292 -0.1612 -0.5010 -0.0656
  512TMC3    C4 7659   1.328   1.630  13.091  0.3266  0.0750 -0.0399
  512TMC3    C5 7660   1.389   1.509  13.101 -0.0260  0.4289 -0.1624
  512TMC3    C6 7661   1.485   1.487  13.199 -0.2007  0.1660 -0.1467
  512TMC3     C 7662   1.304   1.859  13.182  0.4248 -0.3902  0.2624
  512TMC3     O 7663   1.328   1.934  13.279 -0.4681 -0.4349  0.3252
  512TMC3     H 7664   1.446   1.777  13.371  0.7001 -2.8697  2.5730
  512TMC3    H1 7665   1.253   1.653  13.015 -0.1729  0.2242  0.4962
  512TMC3    H2 7666   1.540   1.394  13.208  0.3417  0.7755  2.8394
  512TMC3    C7 7667   1.337   1.409  13.018  0.0441 -0.6116 -0.1646
  512TMC3    C8 7668   1.541   1.531  13.418  0.1148 -0.1825 -0.1087
  512TMC3    O1 7669   1.254   1.446  12.934  0.1872  0.4006  0.2964
  512TMC3    O2 7670   1.531   1.411  13.441 -0.1286 -0.0257  0.2118
  513MPD2     C 7671   3.162   1.154  13.576 -0.1843 -0.6191 -1.2687
  513MPD2    C1 7672   3.261   1.051  13.571  0.3819 -0.3821 -0.0228
  513MPD2    C2 7673   3.393   1.078  13.596  0.0252 -0.2953 -0.3559
  513MPD2    C3 7674   3.430   1.207  13.627  0.3268 -0.0435  0.0020
  513MPD2    C4 7675   3.336   1.303  13.638  0.7049  0.5151  1.0434
  513MPD2    C5 7676   3.200   1.280  13.616 -0.6920 -0.1389 -0.3314
  513MPD2     H 7677   3.460   0.994  13.607  0.4564 -0.0306 -0.9790
  513MPD2    H1 7678   3.368   1.404  13.663  2.9134  0.2035 -0.5064
  513MPD2    H2 7679   3.056   1.135  13.563 -0.1028 -1.9810 -0.0008
  513MPD2    H3 7680   3.125   1.357  13.626  2.1142  2.5119  0.1621
  513MPD2     N 7681   3.571   1.235  13.625  0.0736 -0.3661  0.2028
  513MPD2    H5 7682   3.627   1.157  13.592  1.7262  1.4697 -1.3495
  513MPD2    N1 7683   3.205   0.925  13.545  0.3845  0.6486  0.1624
  513MPD2    H7 7684   3.105   0.910  13.553  0.5375 -0.4213  0.0304
  514TMC3    C1 7685   3.406   0.808  13.452 -0.0470  0.4169 -0.7488
  514TMC3    C2 7686   3.432   0.903  13.359 -0.2975  0.4664 -0.2306
  514TMC3    C3 7687   3.515   0.873  13.259  0.1917  0.0211  0.0615
  514TMC3    C4 7688   3.475   0.696  13.454  0.0560 -0.6360 -0.1069
  514TMC3    C5 7689   3.573   0.679  13.360  0.9647  0.8723 -0.0498
  514TMC3    C6 7690   3.594   0.761  13.256 -0.7535  0.4389 -0.6799
  514TMC3     C 7691   3.273   0.805  13.514  0.3797 -0.0909 -0.0567
  514TMC3     O 7692   3.221   0.697  13.516 -0.1091  0.2567  0.0687
  514TMC3     H 7693   3.366   0.989  13.351 -1.2051 -0.1187  0.9035
  514TMC3    H1 7694   3.459   0.626  13.535  0.7544  0.7634  1.2414
  514TMC3    H2 7695   3.661   0.741  13.174 -0.1586  0.9415 -0.3147
  514TMC3    C7 7696   3.644   0.549  13.373  0.1478  0.1907  0.4730
  514TMC3    C8 7697   3.492   0.952  13.140 -0.0797 -0.2443 -0.8321
  514TMC3    O1 7698   3.575   0.450  13.394  0.4769 -0.4848  0.0103
  514TMC3    O2 7699   3.378   0.996  13.132 -0.9116 -0.2307  0.5782
  515MPD2     C 7700   2.050   3.413  14.298  0.3045  0.5400  0.2191
  515MPD2    C1 7701   1.989   3.352  14.411 -0.7201 -1.3980 -0.4541
  515MPD2    C2 7702   2.038   3.391  14.536  0.3722  0.1025  0.6854
  515MPD2    C3 7703   2.137   3.487  14.545 -0.1724  0.9001  0.6802
  515MPD2    C4 7704   2.194   3.543  14.433  0.0262  0.3116  0.1913
  515MPD2    C5 7705   2.149   3.505  14.308 -0.3614 -0.1524 -0.3632
  515MPD2     H 7706   1.999   3.336  14.621  0.6494 -0.1133  0.6717
  515MPD2    H1 7707   2.281   3.608  14.437  0.2128  0.1651 -1.7448
  515MPD2    H2 7708   2.028   3.375  14.198  0.9672 -0.0054  0.2820
  515MPD2    H3 7709   2.195   3.535  14.214 -0.6812 -2.8323 -1.3759
  515MPD2     N 7710   2.201   3.524  14.668 -0.0621 -0.3756 -0.4921
  515MPD2    H5 7711   2.281   3.587  14.672 -0.8807  0.6557 -0.2659
  515MPD2    N1 7712   1.886   3.253  14.402  0.3387 -0.2172  0.0221
  515MPD2    H7 7713   1.848   3.229  14.493 -0.3748  0.4703 -0.1004
  516TMC3    C1 7714   1.703   3.146  14.308 -0.5732 -0.5220 -0.2213
  516TMC3    C2 7715   1.599   3.208  14.248 -0.1668 -0.1701 -0.0632
  516TMC3    C3 7716   1.475   3.199  14.307  0.3181  0.3829 -0.3920
  516TMC3    C4 7717   1.691   3.067  14.417  0.3417 -0.2803 -0.9540
  516TMC3    C5 7718   1.568   3.042  14.463 -0.1623 -0.2650 -0.0782
  516TMC3    C6 7719   1.463   3.111  14.409  0.2848  0.4308  0.9854
  516TMC3     C 7720   1.821   3.224  14.284 -0.3133  0.6774 -0.3049
  516TMC3     O 7721   1.835   3.280  14.177 -0.5474  0.3378 -0.2537
  516TMC3     H 7722   1.622   3.277  14.167  1.2893 -0.1622  0.3540
  516TMC3    H1 7723   1.778   3.014  14.454  1.3249  1.7505 -0.3540
  516TMC3    H2 7724   1.365   3.103  14.455  1.5532 -2.3005  3.1846
  516TMC3    C7 7725   1.558   2.926  14.556 -0.8478 -0.0769 -0.6693
  516TMC3    C8 7726   1.363   3.262  14.237 -0.2843 -0.3247  0.0015
  516TMC3    O1 7727   1.644   2.904  14.640 -0.4899  0.1978 -0.0215
  516TMC3    O2 7728   1.252   3.257  14.288 -0.4809 -0.4132 -1.0748
  517MPD2     C 7729   1.218   0.407  17.753  0.0097  0.3383 -0.4252
  517MPD2    C1 7730   1.344   0.399   0.048  0.7394 -0.2448 -0.3601
  517MPD2    C2 7731   1.397   0.508   0.113  0.0264  0.3633 -0.4726
  517MPD2    C3 7732   1.329   0.631   0.133  0.9584 -0.0536  0.4343
  517MPD2    C4 7733   1.204   0.641   0.072 -0.3180 -0.0143 -0.8443
  517MPD2    C5 7734   1.152   0.534   0.005 -0.3122  0.6234 -0.4648
  517MPD2     H 7735   1.496   0.498   0.156 -0.2874 -0.3456  0.0782
  517MPD2    H1 7736   1.148   0.734   0.068 -0.9559 -0.3264  1.0320
  517MPD2    H2 7737   1.166   0.340  17.686 -0.6683  1.7256 -1.2916
  517MPD2    H3 7738   1.065   0.545  17.697 -0.1615  0.1135 -0.7674
  517MPD2     N 7739   1.370   0.737   0.221  0.4138  0.4939  0.1117
  517MPD2    H5 7740   1.312   0.820   0.226 -2.2736 -1.2375 -2.4449
  517MPD2    N1 7741   1.428   0.284   0.026  0.1472  0.5693 -0.6181
  517MPD2    H7 7742   1.522   0.293   0.063  0.3561  0.1910 -1.0594
  518TMC3    C1 7743   1.498   0.072  17.715  0.0134  0.3946  0.3866
  518TMC3    C2 7744   1.466   4.680  17.717 -0.4619 -0.2038 -0.6867
  518TMC3    C3 7745   1.567   4.586  17.690 -0.5195  0.5553  0.9223
  518TMC3    C4 7746   1.630   0.116  17.697 -0.5203  0.2158  0.2289
  518TMC3    C5 7747   1.723   0.017  17.691 -0.7207 -0.1512  0.5397
  518TMC3    C6 7748   1.699   4.618  17.684 -0.3148 -0.1600 -0.6364
  518TMC3     C 7749   1.390   0.168  17.719  0.1319 -0.0366 -0.3329
  518TMC3     O 7750   1.274   0.135  17.688  0.4223 -0.5157  0.6155
  518TMC3     H 7751   1.363   4.645  17.718  0.5370 -3.1278 -0.1180
  518TMC3    H1 7752   1.656   0.214  17.659 -0.2002 -0.7998 -2.2235
  518TMC3    H2 7753   1.775   4.541  17.688  1.3044  1.6731  3.8790
  518TMC3    C7 7754   1.854   0.070  17.654 -0.1199 -0.0103 -0.1561
  518TMC3    C8 7755   1.530   4.450  17.681 -0.1486  0.3227  0.7638
  518TMC3    O1 7756   1.879   0.184  17.670  0.0272  0.2249  0.2510
  518TMC3    O2 7757   1.591   4.378  17.602 -0.6213  0.2557  0.9421
  519MPD2     C 7758   3.120   2.894  14.455 -0.2007 -0.5892  0.3345
  519MPD2    C1 7759   3.088   2.913  14.321 -0.5891 -0.1061 -0.5020
  519MPD2    C2 7760   3.160   2.847  14.220  0.5683  0.0210  0.0644
  519MPD2    C3 7761   3.274   2.772  14.250 -0.2425 -0.4525 -0.2157
  519MPD2    C4 7762   3.306   2.753  14.384 -0.0685  0.0240  0.0109
  519MPD2    C5 7763   3.229   2.814  14.485 -0.1466  0.0260  0.4506
  519MPD2     H 7764   3.120   2.849  14.120  1.6974 -1.0424 -0.4128
  519MPD2    H1 7765   3.391   2.692  14.412 -1.4369 -1.1913  1.4557
  519MPD2    H2 7766   3.071   2.948  14.534 -0.4499  0.4216 -0.5108
  519MPD2    H3 7767   3.275   2.811  14.583 -0.7231  0.5960  0.7373
  519MPD2     N 7768   3.360   2.707  14.152  0.1365 -0.6273  0.3696
  519MPD2    H5 7769   3.440   2.656  14.188  0.9793  0.8793  0.6122
  519MPD2    N1 7770   2.982   3.005  14.293  0.0144  0.5470  0.0987
  519MPD2    H7 7771   2.925   3.044  14.367 -2.4243  1.7542 -2.4112
  520TMC3    C1 7772   3.428   2.636  13.936  0.3276  1.0226  0.1561
  520TMC3    C2 7773   3.440   2.665  13.803 -0.0746 -0.1927  0.5539
  520TMC3    C3 7774   3.531   2.595  13.730 -1.1413 -0.2824  0.8410
  520TMC3    C4 7775   3.504   2.546  14.002  0.1130 -0.6975 -0.1580
  520TMC3    C5 7776   3.592   2.480  13.927 -1.2287  0.0650  0.1332
  520TMC3    C6 7777   3.603   2.496  13.794  0.2574  0.1483  0.1716
  520TMC3     C 7778   3.336   2.715  14.016  0.4602  0.3683 -0.2477
  520TMC3     O 7779   3.253   2.775  13.951 -0.0967 -0.5112  0.2747
  520TMC3     H 7780   3.395   2.753  13.758  2.1014 -0.0820 -1.3922
  520TMC3    H1 7781   3.479   2.500  14.096 -3.2466  2.1018  0.3325
  520TMC3    H2 7782   3.691   2.461  13.741 -0.0034 -1.6406  0.9327
  520TMC3    C7 7783   3.703   2.432  14.007  0.1403  0.6433 -0.5956
  520TMC3    C8 7784   3.531   2.606  13.585  0.9790 -0.6677  0.1349
  520TMC3    O1 7785   3.707   2.474  14.118  0.1252  0.1242  0.0760
  520TMC3    O2 7786   3.623   2.558  13.519  0.0504 -0.5583  0.4702
  521MPD2     C 7787   3.899   1.635  17.396  0.7342  0.3417 -0.0031
  521MPD2    C1 7788   3.888   1.503  17.356  0.6228 -0.4086  0.4869
  521MPD2    C2 7789   3.987   1.463  17.273  0.0385 -0.1371  1.0549
  521MPD2    C3 7790   4.104   1.527  17.254 -0.4195  0.0119  0.2449
  521MPD2    C4 7791   4.112   1.654  17.297 -0.6009 -0.1509 -0.3744
  521MPD2    C5 7792   4.006   1.711  17.359 -0.3114 -0.5893  0.7045
  521MPD2     H 7793   3.976   1.361  17.238  0.5098 -0.5188  2.0013
  521MPD2    H1 7794   4.194   1.718  17.266  0.1860 -0.8510  0.2457
  521MPD2    H2 7795   3.823   1.683  17.457 -0.3485  0.5794 -1.5303
  521MPD2    H3 7796   4.003   1.812  17.398 -0.5298 -0.0822 -0.6379
  521MPD2     N 7797   4.207   1.461  17.182 -0.1815 -0.8910 -0.1211
  521MPD2    H5 7798   4.184   1.369  17.144  2.0245 -1.4171 -0.1940
  521MPD2    N1 7799   3.764   1.436  17.364  0.1256 -0.4779  0.7176
  521MPD2    H7 7800   3.749   1.359  17.299 -0.1159  1.0047 -0.9710
  522TMC3    C1 7801   4.423   1.432  17.086  0.8205 -0.2604 -0.5806
  522TMC3    C2 7802   4.552   1.466  17.094  0.6203  0.0665 -0.0662
  522TMC3    C3 7803   4.628   1.403  17.001 -0.4676 -1.4923  0.5170
  522TMC3    C4 7804   4.368   1.350  16.988  0.1717  0.7318 -0.9008
  522TMC3    C5 7805   4.450   1.302  16.892  0.8761  0.4126 -0.3765
  522TMC3    C6 7806   4.580   1.321  16.901  0.0969  0.4417  0.9019
  522TMC3     C 7807   4.333   1.510  17.175  0.7344  0.0080  0.6051
  522TMC3     O 7808   4.382   1.613  17.214 -0.3430 -0.1561  0.0991
  522TMC3     H 7809   4.600   1.527  17.170 -0.8788  1.0596  0.0969
  522TMC3    H1 7810   4.266   1.315  16.986  0.0564  1.1342 -2.0487
  522TMC3    H2 7811   4.648   1.291  16.822 -0.1948  0.7673  0.5277
  522TMC3    C7 7812   4.393   1.246  16.777 -0.4728  0.5693 -0.4245
  522TMC3    C8 7813   0.028   1.435  17.006 -0.2318 -0.1609 -0.2045
  522TMC3    O1 7814   4.448   1.149  16.721  0.0665 -0.2196 -0.0006
  522TMC3    O2 7815   0.055   1.541  17.048  1.0167 -0.1291 -0.0109
  523MPD2     C 7816   1.862   0.572  10.359 -0.4299 -0.1048  0.3797
  523MPD2    C1 7817   1.761   0.503  10.287  0.1122 -0.2786 -0.3347
  523MPD2    C2 7818   1.670   0.578  10.218  0.1622  0.7605  0.1458
  523MPD2    C3 7819   1.680   0.710  10.208 -0.0441 -0.8320  0.7438
  523MPD2    C4 7820   1.774   0.776  10.282  1.1529  0.1286  0.3041
  523MPD2    C5 7821   1.862   0.706  10.359 -0.2679 -0.0365  0.3778
  523MPD2     H 7822   1.586   0.527  10.173 -1.3809  1.4457  2.2474
  523MPD2    H1 7823   1.784   0.883  10.294 -1.3604  0.5256 -1.2465
  523MPD2    H2 7824   1.935   0.524  10.423 -0.9331  0.2862  1.2470
  523MPD2    H3 7825   1.951   0.744  10.408 -0.5792 -0.2672  1.1342
  523MPD2     N 7826   1.576   0.789  10.149 -0.3010  0.6453 -0.2045
  523MPD2    H5 7827   1.582   0.889  10.165  1.8060  0.2973  1.1447
  523MPD2    N1 7828   1.758   0.361  10.297  0.2588  0.7912  0.1483
  523MPD2    H7 7829   1.840   0.324  10.344  0.5707  0.5830 -0.5522
  524TMC3    C1 7830   1.386   0.872  10.031 -0.0693 -0.1476 -0.1486
  524TMC3    C2 7831   1.335   0.871   9.904 -0.2159  0.7782  0.3124
  524TMC3    C3 7832   1.286   0.990   9.853 -1.3830 -0.3690  0.1819
  524TMC3    C4 7833   1.374   0.977  10.112 -1.1627  0.2338  0.5050
  524TMC3    C5 7834   1.330   1.096  10.054  0.4857  0.0564  0.2392
  524TMC3    C6 7835   1.288   1.105   9.927 -0.3235  0.1348 -0.2099
  524TMC3     C 7836   1.472   0.758  10.063  0.0807  0.9857  0.3541
  524TMC3     O 7837   1.444   0.650  10.013 -0.4946  0.2100  0.2140
  524TMC3     H 7838   1.345   0.782   9.843  1.9750 -0.2003  2.0688
  524TMC3    H1 7839   1.401   0.963  10.216 -0.4982 -0.2301  0.2672
  524TMC3    H2 7840   1.212   1.180   9.905  0.9856  0.4335 -3.6230
  524TMC3    C7 7841   1.269   1.180  10.150  0.2677  0.3298 -0.2502
  524TMC3    C8 7842   1.250   1.006   9.718 -0.1815 -0.0742 -0.1078
  524TMC3    O1 7843   1.241   1.117  10.253  0.2105  0.0467  0.0491
  524TMC3    O2 7844   1.187   1.106   9.685  0.1166  0.2815 -0.2383
  525MPD2     C 7845   4.560   2.548  14.673 -0.1902 -0.4400 -0.2876
  525MPD2    C1 7846   4.653   2.570  14.769  0.1131 -0.3000  0.4832
  525MPD2    C2 7847   4.735   2.675  14.757 -0.4732  0.5310 -0.3397
  525MPD2    C3 7848   4.721   2.767  14.652  0.4063  0.4169 -0.3016
  525MPD2    C4 7849   4.641   2.736  14.552  0.3814  0.2860 -0.5345
  525MPD2    C5 7850   4.554   2.633  14.565  0.5440  0.8114 -0.6492
  525MPD2     H 7851   0.072   2.702  14.830  0.1090 -0.6028 -0.5271
  525MPD2    H1 7852   4.641   2.788  14.457  0.9462  2.5588  0.7146
  525MPD2    H2 7853   4.492   2.465  14.686  2.1390 -2.5057 -1.4415
  525MPD2    H3 7854   4.485   2.612  14.484 -0.8078 -2.6920  1.4122
  525MPD2     N 7855   0.065   2.881  14.636  0.2396  0.1413  0.4259
  525MPD2    H5 7856   0.029   2.948  14.569 -0.8370 -1.4134 -0.5570
  525MPD2    N1 7857   4.671   2.485  14.882  0.3044 -0.7625 -0.0909
  525MPD2    H7 7858   0.012   2.511  14.939 -0.0765  0.6667 -0.2032
  526TMC3    C1 7859   4.628   2.343  15.067  0.1818 -0.5143 -0.1307
  526TMC3    C2 7860   4.537   2.328  15.173  0.6142  0.6794  0.2298
  526TMC3    C3 7861   4.586   2.277  15.288 -0.2252  0.8450 -0.7206
  526TMC3    C4 7862   0.018   2.322  15.082 -0.4121 -0.7170 -0.6062
  526TMC3    C5 7863   0.066   2.286  15.206 -1.2374  0.7108 -0.0835
  526TMC3    C6 7864   4.716   2.257  15.306  0.2094  0.1953  0.3767
  526TMC3     C 7865   4.581   2.397  14.937 -0.0805 -0.1454 -0.0830
  526TMC3     O 7866   4.465   2.376  14.901  0.4106  0.5400 -0.0313
  526TMC3     H 7867   4.437   2.368  15.160  0.0082 -1.8420 -2.9857
  526TMC3    H1 7868   0.078   2.336  14.993  0.3964 -0.1864  0.0221
  526TMC3    H2 7869   0.017   2.226  15.402 -1.9088 -0.7893  0.9475
  526TMC3    C7 7870   0.205   2.254  15.215  0.5189 -0.4436 -0.0083
  526TMC3    C8 7871   4.525   2.330  15.405  0.1131  0.6975 -0.3796
  526TMC3    O1 7872   0.243   2.172  15.295  0.1496 -0.1772  0.6983
  526TMC3    O2 7873   4.484   2.446  15.404 -0.5415  0.4397 -0.3777
  527MPD2     C 7874   2.597   0.779   1.825  0.1545  0.4134 -0.4682
  527MPD2    C1 7875   2.582   0.798   1.691 -0.5918 -0.4993  0.4949
  527MPD2    C2 7876   2.689   0.772   1.612  1.2776  0.4157  0.5964
  527MPD2    C3 7877   2.805   0.708   1.654 -0.3327  0.9418 -0.0471
  527MPD2    C4 7878   2.799   0.667   1.787  0.9754 -0.2448 -0.8897
  527MPD2    C5 7879   2.702   0.713   1.873  0.3622 -1.1812  0.2177
  527MPD2     H 7880   2.684   0.794   1.505  0.1462  1.6736  0.9080
  527MPD2    H1 7881   2.886   0.621   1.833 -1.9317 -1.2264  3.5661
  527MPD2    H2 7882   2.517   0.807   1.892 -2.2994 -1.3965 -2.6551
  527MPD2    H3 7883   2.706   0.688   1.978  0.1371  1.4857  0.8342
  527MPD2     N 7884   2.901   0.673   1.560 -0.0345  0.2332  0.4232
  527MPD2    H5 7885   2.892   0.704   1.464  0.1514 -0.3807  0.2029
  527MPD2    N1 7886   2.469   0.858   1.629 -0.0727  0.4713  0.4257
  527MPD2    H7 7887   2.473   0.870   1.528  3.3857 -2.9091  0.1266
  528TMC3    C1 7888   2.254   0.954   1.601 -0.4062  0.2367  0.1492
  528TMC3    C2 7889   2.238   0.891   1.480 -0.0446 -0.2987 -0.1879
  528TMC3    C3 7890   2.125   0.924   1.414 -0.6271  0.4680  0.3156
  528TMC3    C4 7891   2.165   1.041   1.652  0.1255 -0.2578 -0.5625
  528TMC3    C5 7892   2.049   1.063   1.585  0.5949 -0.5056 -0.2979
  528TMC3    C6 7893   2.026   1.001   1.464  0.4090  0.4632 -0.7360
  528TMC3     C 7894   2.354   0.904   1.690 -0.0692  0.3184  1.0926
  528TMC3     O 7895   2.332   0.915   1.810 -0.2936  0.2081  0.0162
  528TMC3     H 7896   2.298   0.807   1.448  0.2822  0.3049 -1.1438
  528TMC3    H1 7897   2.180   1.070   1.755 -0.9269  1.1235 -0.7855
  528TMC3    H2 7898   1.928   1.015   1.421 -0.4051  0.2625  1.0402
  528TMC3    C7 7899   1.923   1.114   1.641  0.6813  0.7875 -0.6876
  528TMC3    C8 7900   2.120   0.877   1.275 -0.0218  0.4510 -0.0940
  528TMC3    O1 7901   1.825   1.055   1.612 -0.3550 -0.2508 -0.1148
  528TMC3    O2 7902   2.213   0.815   1.225 -0.0532  0.0576  0.4763
  529MPD2     C 7903   0.264   3.927   0.141  0.1243  0.0222  0.2835
  529MPD2    C1 7904   0.190   3.947   0.251  0.4187 -0.1926  0.3252
  529MPD2    C2 7905   0.131   4.069   0.273 -0.6752  0.5373 -0.3701
  529MPD2    C3 7906   0.149   4.170   0.179  0.1315  0.3771 -0.4691
  529MPD2    C4 7907   0.231   4.147   0.063 -0.2848  0.0395  0.2158
  529MPD2    C5 7908   0.293   4.025   0.050  0.4393 -0.8608  0.6809
  529MPD2     H 7909   0.080   4.086   0.368  0.5523  1.0364  0.2028
  529MPD2    H1 7910   0.254   4.221  17.743 -1.0190  0.8328  0.7747
  529MPD2    H2 7911   0.312   3.831   0.125  0.5139  0.5208 -1.5342
  529MPD2    H3 7912   0.356   4.011  17.718  0.4239  0.5585  0.4423
  529MPD2     N 7913   0.084   4.292   0.188  0.4172 -0.5029  0.4338
  529MPD2    H5 7914   0.103   4.353   0.110 -2.1689  1.3725  1.2672
  529MPD2    N1 7915   0.172   3.848   0.352 -0.1346  0.3064 -0.4708
  529MPD2    H7 7916   0.104   3.880   0.420 -1.8422 -0.2689 -1.9187
  530TMC3    C1 7917   0.167   3.640   0.468  0.8293 -0.1747  0.1163
  530TMC3    C2 7918   0.149   3.706   0.588 -0.9034  0.1265 -0.2770
  530TMC3    C3 7919   0.154   3.630   0.700  0.1077  0.0038  0.5428
  530TMC3    C4 7920   0.185   3.509   0.458 -0.4247  0.4708  0.7229
  530TMC3    C5 7921   0.182   3.438   0.577 -0.1786  0.0887  0.4276
  530TMC3    C6 7922   0.168   3.495   0.699 -0.5488 -0.3755 -0.0019
  530TMC3     C 7923   0.211   3.719   0.350 -0.5681  0.7843  0.3796
  530TMC3     O 7924   0.285   3.658   0.275  0.0586 -0.1163  0.1230
  530TMC3     H 7925   0.143   3.813   0.598  2.2809  0.2301  0.5859
  530TMC3    H1 7926   0.187   3.462   0.361 -1.6207  0.8562  0.5116
  530TMC3    H2 7927   0.136   3.443   0.789 -1.3955  0.4335  0.1615
  530TMC3    C7 7928   0.173   3.290   0.558  0.4155 -0.0704  0.1543
  530TMC3    C8 7929   0.181   3.697   0.823  0.3001  0.3247  0.6044
  530TMC3    O1 7930   0.128   3.236   0.456 -0.2832 -0.2692  0.9023
  530TMC3    O2 7931   0.122   3.803   0.835 -0.4860 -0.0426 -0.3848
  531MPD2     C 7932   4.105   0.787  13.401 -0.2738 -0.1348  0.1740
  531MPD2    C1 7933   3.981   0.827  13.449 -0.8625 -0.2462 -0.4959
  531MPD2    C2 7934   3.868   0.747  13.434  0.2187  0.8218  0.5192
  531MPD2    C3 7935   3.877   0.638  13.353 -0.3412 -0.6477 -0.2616
  531MPD2    C4 7936   4.001   0.600  13.305  0.6396  0.1601  0.3327
  531MPD2    C5 7937   4.115   0.676  13.320 -0.3601  0.6324 -0.1292
  531MPD2     H 7938   3.780   0.769  13.495 -0.4518  0.1393 -0.2046
  531MPD2    H1 7939   4.008   0.499  13.266  1.8266 -1.2118  4.0873
  531MPD2    H2 7940   4.194   0.849  13.405 -1.0924  1.0672 -0.2589
  531MPD2    H3 7941   4.212   0.646  13.282  0.1453  1.7161  0.2805
  531MPD2     N 7942   3.775   0.540  13.336  0.3933 -0.1081  0.0419
  531MPD2    H5 7943   3.814   0.449  13.315 -1.1111 -0.8687  0.5957
  531MPD2    N1 7944   3.977   0.951  13.507 -0.1660 -0.6745 -0.7707
  531MPD2    H7 7945   4.068   0.996  13.513  0.2563 -1.3607 -2.1800
  532TMC3    C1 7946   3.902   1.160  13.564 -0.3471 -0.1798 -0.2709
  532TMC3    C2 7947   3.800   1.247  13.537  0.2946 -0.6193 -0.2499
  532TMC3    C3 7948   3.769   1.341  13.628 -0.0385 -0.3250  0.9074
  532TMC3    C4 7949   3.980   1.176  13.671  0.1692 -0.5938 -0.3290
  532TMC3    C5 7950   3.962   1.290  13.747  0.1659 -0.3154  0.2664
  532TMC3    C6 7951   3.853   1.373  13.728  0.2334 -0.0157 -0.7146
  532TMC3     C 7952   3.862   1.027  13.527 -0.4858 -0.1789 -0.0681
  532TMC3     O 7953   3.742   1.004  13.511  0.1370 -0.5128  0.5669
  532TMC3     H 7954   3.732   1.230  13.455 -1.0359 -0.4525  0.8126
  532TMC3    H1 7955   4.056   1.109  13.710  0.7182  0.6226  0.7369
  532TMC3    H2 7956   3.833   1.460  13.788 -2.5887 -0.0081 -1.6366
  532TMC3    C7 7957   4.078   1.358  13.807  0.6483  0.0689  0.3546
  532TMC3    C8 7958   3.629   1.356  13.652  0.4360  0.0581 -0.2060
  532TMC3    O1 7959   4.070   1.478  13.801 -0.1624 -0.3934 -0.4309
  532TMC3    O2 7960   3.584   1.445  13.723 -0.2134 -0.2295  0.4385
  533TMC3    C1 7961   0.210   3.049  14.672  0.8443  0.9118  0.4252
  533TMC3    C2 7962   0.334   3.084  14.625  0.3489 -0.7431  0.5314
  533TMC3    C3 7963   0.366   3.214  14.611 -0.6526 -0.4454 -0.3013
  533TMC3    C4 7964   0.111   3.147  14.691 -0.2910  0.1843  0.3293
  533TMC3    C5 7965   0.150   3.276  14.692  0.9804 -0.3153  0.1908
  533TMC3    C6 7966   0.271   3.315  14.648 -0.2454  0.2407 -0.2436
  533TMC3     C 7967   0.186   2.910  14.698 -0.2649  0.6781 -0.0702
  533TMC3     O 7968   0.271   2.844  14.752  0.9186 -0.0100 -0.7295
  533TMC3     H 7969   0.414   3.012  14.610  0.7878  0.1128 -1.2580
  533TMC3    H1 7970   0.010   3.118  14.721 -0.3782 -0.2713 -0.3889
  533TMC3    H2 7971   0.303   3.418  14.658 -0.7704  0.5627 -2.0852
  533TMC3    C7 7972   0.072   3.379  14.765 -0.3194  0.4038  0.2286
  533TMC3    C8 7973   0.507   3.263  14.591 -0.4787  0.3759 -0.3492
  533TMC3    O1 7974   0.102   3.494  14.744 -0.2369 -0.2423  0.4600
  533TMC3    O2 7975   0.520   3.385  14.599  0.3242 -0.2426  0.3415
  534MPD2     C 7976   2.361   4.610   1.829  0.9009 -0.4873 -0.8935
  534MPD2    C1 7977   2.375   4.670   1.702  0.0350  0.0175 -0.3111
  534MPD2    C2 7978   2.328   4.593   1.589 -0.0463  0.1933  0.2388
  534MPD2    C3 7979   2.278   4.460   1.604 -0.2558  0.6927  0.2211
  534MPD2    C4 7980   2.252   4.424   1.731 -0.2237 -0.4048  0.0361
  534MPD2    C5 7981   2.294   4.495   1.838 -0.2114  0.6057 -0.0561
  534MPD2     H 7982   2.329   4.641   1.492 -0.8795  1.7235  0.9693
  534MPD2    H1 7983   2.200   4.331   1.752 -0.4936  0.0028  1.1658
  534MPD2    H2 7984   2.393   4.657   1.921  0.5875 -0.3190 -0.8722
  534MPD2    H3 7985   2.282   4.455   1.938 -0.3077  0.4142 -0.1427
  534MPD2     N 7986   2.242   4.376   1.500 -0.1801  0.2208 -0.0754
  534MPD2    H5 7987   2.193   4.291   1.527  2.4547 -0.9141  1.0454
  534MPD2    N1 7988   2.429   0.059   1.691  0.1748 -0.0417 -0.7299
  534MPD2    H7 7989   2.451   0.099   1.600 -1.2511 -0.2850 -1.1902
  535TMC3    C1 7990   2.150   4.316   1.287  0.5137 -0.4565  0.2918
  535TMC3    C2 7991   2.029   4.275   1.333 -0.1408  0.5218 -0.3794
  535TMC3    C3 7992   1.941   4.201   1.257 -0.4553 -0.6996 -0.2223
  535TMC3    C4 7993   2.169   4.306   1.155  0.5654  0.9764  0.0659
  535TMC3    C5 7994   2.100   4.220   1.080  0.0503  0.0650 -0.0555
  535TMC3    C6 7995   1.983   4.170   1.129  0.0776 -0.1062 -0.2787
  535TMC3     C 7996   2.237   4.411   1.368 -0.1833  0.0464 -0.2283
  535TMC3     O 7997   2.307   4.491   1.301 -0.0746  0.2902 -0.8062
  535TMC3     H 7998   2.009   4.302   1.436  0.1724 -1.7988  0.2914
  535TMC3    H1 7999   2.257   4.359   1.120  1.4383 -0.6257 -0.1635
  535TMC3    H2 8000   1.914   4.114   1.067 -1.7807 -0.5426  2.1617
  535TMC3    C7 8001   2.082   4.276   0.946  0.1670 -0.4236  0.1862
  535TMC3    C8 8002   1.802   4.182   1.280 -0.0863  0.3058 -0.2764
  535TMC3    O1 8003   2.027   4.214   0.856 -0.2885 -0.2303  0.1608
  535TMC3    O2 8004   1.730   4.118   1.208 -0.3457  0.0562  0.4411
  536MPD2     C 8005   1.289   2.598  16.316 -0.4362 -0.0860  0.2804
  536MPD2    C1 8006   1.178   2.517  16.335 -0.1224 -0.4294 -0.3613
  536MPD2    C2 8007   1.088   2.502  16.228 -0.2987  0.9029  0.5370
  536MPD2    C3 8008   1.111   2.571  16.110  0.9855 -0.4818 -0.2236
  536MPD2    C4 8009   1.225   2.639  16.084 -0.4401 -0.5108  0.6701
  536MPD2    C5 8010   1.314   2.653  16.189 -0.3702 -0.4212  0.0466
  536MPD2     H 8011   0.997   2.445  16.242 -0.6565  0.7426 -2.5472
  536MPD2    H1 8012   1.240   2.696  15.992  0.5878  0.2681  1.3255
  536MPD2    H2 8013   1.355   2.612  16.401  1.4475 -0.9275 -1.0402
  536MPD2    H3 8014   1.406   2.708  16.169 -0.9678  0.8276  0.7426
  536MPD2     N 8015   1.013   2.583  16.014 -0.9927  0.0346 -0.3953
  536MPD2    H5 8016   1.033   2.646  15.937 -0.4376 -1.6527 -1.6602
  536MPD2    N1 8017   1.157   2.450  16.458  0.3270 -0.8437  0.0104
  536MPD2    H7 8018   1.237   2.458  16.520 -1.1305  0.9496  1.6699
  537TMC3    C1 8019   1.069   2.315  16.618 -0.4492  0.4219 -0.5428
  537TMC3    C2 8020   1.138   2.381  16.711  1.0519 -0.4694  0.6625
  537TMC3    C3 8021   1.135   2.333  16.845 -0.6748  0.3657 -0.4088
  537TMC3    C4 8022   1.004   2.200  16.648  0.4038 -1.4759  0.7178
  537TMC3    C5 8023   0.994   2.162  16.778  0.4667 -0.0426  0.2992
  537TMC3    C6 8024   1.061   2.228  16.880  0.5049  0.5553  0.1188
  537TMC3     C 8025   1.047   2.371  16.485 -0.2213  0.4078  0.2431
  537TMC3     O 8026   0.943   2.340  16.424  0.3037 -0.4111 -0.6954
  537TMC3     H 8027   1.180   2.479  16.697  0.4609 -0.9649 -4.5411
  537TMC3    H1 8028   0.929   2.159  16.581  0.9662 -0.9580 -0.2254
  537TMC3    H2 8029   1.049   2.207  16.986 -0.5905  0.2172 -0.0757
  537TMC3    C7 8030   0.926   2.038  16.805 -0.3552  0.4928 -0.4107
  537TMC3    C8 8031   1.160   2.426  16.956 -0.8908 -0.1644 -0.0883
  537TMC3    O1 8032   0.851   1.999  16.718 -0.0604 -0.2324 -0.1264
  537TMC3    O2 8033   1.183   2.381  17.071 -0.5740 -0.0626 -0.3700
  538TMC3    C1 8034   2.606   0.746  11.002 -0.2483  0.2471  0.5550
  538TMC3    C2 8035   2.622   0.641  10.914  0.0617  0.8855 -0.4774
  538TMC3    C3 8036   2.540   0.642  10.803  0.4688  0.5303 -0.5395
  538TMC3    C4 8037   2.528   0.853  10.962  0.3136  0.6813 -0.7094
  538TMC3    C5 8038   2.469   0.853  10.838 -0.4321  0.6749 -0.7546
  538TMC3    C6 8039   2.457   0.741  10.763  0.3186  0.3985 -0.2697
  538TMC3     C 8040   2.638   0.740  11.143 -0.1908 -0.2976 -0.1208
  538TMC3     O 8041   2.653   0.844  11.204 -0.0015  0.3206 -0.6499
  538TMC3     H 8042   2.673   0.548  10.935  0.7487  1.2573 -0.4944
  538TMC3    H1 8043   2.520   0.936  11.030 -1.4731 -0.5208  0.5459
  538TMC3    H2 8044   2.395   0.735  10.674  0.3883  2.4710 -0.4592
  538TMC3    C7 8045   2.377   0.958  10.823  0.5408 -0.0078 -0.4185
  538TMC3    C8 8046   2.563   0.543  10.701 -0.4416 -0.3006  0.2677
  538TMC3    O1 8047   2.366   1.040  10.915 -0.4522 -0.2787 -0.8100
  538TMC3    O2 8048   2.474   0.494  10.634 -1.0155  0.1700 -0.4498
  539MPD2     C 8049   1.639   0.022  12.096  0.3867 -0.7148  0.7689
  539MPD2    C1 8050   1.724   0.023  11.986  0.1057 -0.2964  0.5380
  539MPD2    C2 8051   1.781   0.139  11.945  1.0011  0.5567  0.2017
  539MPD2    C3 8052   1.744   0.260  12.008 -0.0487 -0.2661  0.1281
  539MPD2    C4 8053   1.659   0.262  12.112  0.2937  0.1786 -0.1783
  539MPD2    C5 8054   1.607   0.142  12.152  1.0894 -0.3861  0.2415
  539MPD2     H 8055   1.844   0.133  11.857  1.0124  0.5681  0.2090
  539MPD2    H1 8056   1.634   0.353  12.167  0.1548  0.1982 -0.2727
  539MPD2    H2 8057   1.593   4.671  12.134 -0.2750 -0.7850 -0.1950
  539MPD2    H3 8058   1.540   0.139  12.237  1.6936 -0.3505  0.7183
  539MPD2     N 8059   1.808   0.386  11.977 -0.2118 -0.1579  0.0250
  539MPD2    H5 8060   1.767   0.462  12.030  0.4900 -0.2268  0.6681
  539MPD2    N1 8061   1.758   4.648  11.916 -0.1226  0.2602  0.6896
  539MPD2    H7 8062   1.839   4.640  11.856 -1.3656  2.5828 -1.2841
  540TMC3    C1 8063   1.906   0.543  11.847  0.7220  0.0431 -0.0742
  540TMC3    C2 8064   1.894   0.579  11.711 -0.1442 -0.6491  0.1795
  540TMC3    C3 8065   1.845   0.696  11.684  0.1920 -1.1824 -0.2140
  540TMC3    C4 8066   1.874   0.626  11.945 -0.2447  0.5098 -0.0029
  540TMC3    C5 8067   1.822   0.751  11.912  0.0407 -0.1411  0.1482
  540TMC3    C6 8068   1.804   0.786  11.778 -0.0832  0.0689 -0.2801
  540TMC3     C 8069   1.895   0.402  11.870 -0.5063  0.3960  0.0560
  540TMC3     O 8070   1.926   0.325  11.778  0.4030 -0.0690  0.0398
  540TMC3     H 8071   1.949   0.524  11.635 -0.7549  0.0795 -0.7899
  540TMC3    H1 8072   1.910   0.615  12.047  1.2322 -0.7813 -0.6721
  540TMC3    H2 8073   1.763   0.884  11.756  1.3555  0.4954 -1.0068
  540TMC3    C7 8074   1.717   0.787  12.004 -0.0654  0.5101  0.2745
  540TMC3    C8 8075   1.829   0.715  11.548 -0.2494 -0.6210 -0.1625
  540TMC3    O1 8076   1.691   0.689  12.075  0.1059 -0.4387  0.0200
  540TMC3    O2 8077   1.852   0.831  11.512  0.5708 -0.0466 -0.5485
  541MPD2     C 8078   0.025   1.780  13.664 -0.1865 -0.0993 -0.2874
  541MPD2    C1 8079   0.136   1.708  13.631 -0.0644 -0.1943  0.2258
  541MPD2    C2 8080   0.210   1.742  13.521 -0.1517  0.0458 -0.2568
  541MPD2    C3 8081   0.171   1.849  13.438 -0.0922  0.0248  0.3188
  541MPD2    C4 8082   0.062   1.925  13.468  0.3465  0.3874  0.0405
  541MPD2    C5 8083   4.720   1.887  13.577 -0.5698 -0.2217  0.6436
  541MPD2     H 8084   0.296   1.679  13.502 -0.8916 -0.2896 -2.5128
  541MPD2    H1 8085   0.042   2.007  13.400  2.0174  2.8518  2.4675
  541MPD2    H2 8086   4.708   1.762  13.755  0.4166 -0.8125 -0.0531
  541MPD2    H3 8087   4.627   1.936  13.604 -0.1217  0.3507  1.1516
  541MPD2     N 8088   0.229   1.879  13.310  0.3533 -0.4236  0.4122
  541MPD2    H5 8089   0.184   1.945  13.247 -1.0221 -2.2900 -0.5522
  541MPD2    N1 8090   0.187   1.598  13.703 -0.1118 -0.9625 -0.1213
  541MPD2    H7 8091   0.271   1.555  13.665 -1.8229 -1.2261 -3.6055
  542TMC3    C1 8092   0.337   1.817  13.111 -0.1964  0.1942  0.1744
  542TMC3    C2 8093   0.451   1.785  13.043  0.0298 -0.0770  0.4304
  542TMC3    C3 8094   0.460   1.820  12.907 -0.1744  0.0537 -0.0922
  542TMC3    C4 8095   0.231   1.857  13.041 -0.2756 -0.1017  0.3104
  542TMC3    C5 8096   0.243   1.887  12.909 -0.1617  0.6721  0.3122
  542TMC3    C6 8097   0.366   1.891  12.846 -0.0162  0.2844  0.1263
  542TMC3     C 8098   0.332   1.806  13.253  0.0527  0.1329 -0.2237
  542TMC3     O 8099   0.410   1.730  13.304 -0.1353  0.5019  0.0299
  542TMC3     H 8100   0.540   1.741  13.086 -0.7983 -1.5858  0.5764
  542TMC3    H1 8101   0.134   1.886  13.080  0.4379  2.4098  0.1984
  542TMC3    H2 8102   0.379   1.925  12.744 -2.3705 -2.6060 -1.1579
  542TMC3    C7 8103   0.121   1.917  12.845 -0.0728 -0.0560 -0.2209
  542TMC3    C8 8104   0.566   1.767  12.829 -0.6748  0.4662 -0.4155
  542TMC3    O1 8105   0.019   1.875  12.897 -0.2332 -0.1589 -0.0227
  542TMC3    O2 8106   0.670   1.744  12.887  0.1782 -0.3760 -0.0769
  543TMC3    C1 8107   4.685   3.388  17.503  0.1201 -0.1246 -0.3203
  543TMC3    C2 8108   4.654   3.262  17.541 -0.2935  0.7843  0.0674
  543TMC3    C3 8109   4.551   3.242  17.626 -0.9075  0.0139  0.5591
  543TMC3    C4 8110   4.618   3.495  17.540  0.7920 -0.4763  0.3056
  543TMC3    C5 8111   4.523   3.478  17.636 -0.6438 -0.5602 -0.4564
  543TMC3    C6 8112   4.491   3.354  17.688  0.2697 -0.0437 -0.0791
  543TMC3     C 8113   0.014   3.385  17.372 -0.1793 -0.1488 -0.3258
  543TMC3     O 8114   0.098   3.296  17.355  0.3772  0.4178  0.7264
  543TMC3     H 8115   4.699   3.182  17.483  0.7619  0.4108  1.4023
  543TMC3    H1 8116   4.641   3.589  17.491 -0.6169 -0.7543 -0.9058
  543TMC3    H2 8117   4.395   3.338  17.736  1.7726 -2.1421  2.2191
  543TMC3    C7 8118   4.431   3.586  17.670 -0.3334 -0.1341 -0.4319
  543TMC3    C8 8119   4.517   3.104  17.647 -0.2398  0.4242 -0.3035
  543TMC3    O1 8120   4.351   3.565   0.008  0.0968  0.2341  0.1887
  543TMC3    O2 8121   4.553   3.017  17.571  0.5876 -0.2458  0.1509
  544MPD2     C 8122   4.346   2.718   0.177 -0.5769  0.5073  0.5633
  544MPD2    C1 8123   4.365   2.735   0.041  0.1347 -1.1110 -0.6647
  544MPD2    C2 8124   4.402   2.859  17.751 -0.0554  0.1653 -0.2104
  544MPD2    C3 8125   4.428   2.965   0.077  0.2869 -0.5470  0.1212
  544MPD2    C4 8126   4.419   2.945   0.211  0.2859 -0.9027  0.5858
  544MPD2    C5 8127   4.376   2.825   0.262  0.0923 -0.1616 -0.0252
  544MPD2     H 8128   4.402   2.870  17.643 -1.7272 -0.2589 -0.2639
  544MPD2    H1 8129   4.434   3.029   0.278 -1.3739  1.8359 -2.5244
  544MPD2    H2 8130   4.310   2.624   0.217  0.0371 -0.3714 -0.9513
  544MPD2    H3 8131   4.358   2.815   0.368 -1.6490 -1.3492 -0.4336
  544MPD2     N 8132   4.464   3.089   0.024  0.3542  0.1027 -0.2238
  544MPD2    H5 8133   4.483   3.165   0.088  1.4524 -0.7544  0.4798
  544MPD2    N1 8134   4.358   2.623  17.717  0.4069  0.0970  0.1107
  544MPD2    H7 8135   4.357   2.532   0.006  0.5478 -0.3532 -0.8285
  545TMC3    C1 8136   4.329   2.491  17.533 -0.0238 -0.3417 -0.5128
  545TMC3    C2 8137   4.335   2.482  17.397  0.2430  0.5388 -0.2384
  545TMC3    C3 8138   4.309   2.360  17.338 -0.6150  0.5048 -0.3461
  545TMC3    C4 8139   4.286   2.389  17.610 -0.6496 -0.2242  0.2270
  545TMC3    C5 8140   4.259   2.271  17.541  0.5649 -0.3498  0.6966
  545TMC3    C6 8141   4.278   2.251  17.408  0.5387 -0.4598 -0.4529
  545TMC3     C 8142   4.347   2.624  17.585 -0.0769  0.2816  0.4589
  545TMC3     O 8143   4.348   2.713  17.497 -0.0332  0.1851 -0.1560
  545TMC3     H 8144   4.373   2.561  17.332  3.0960  0.9880  1.9562
  545TMC3    H1 8145   4.248   2.394  17.712  1.8566  0.9729  1.0929
  545TMC3    H2 8146   4.240   2.167  17.351 -0.8290 -1.3719  1.8030
  545TMC3    C7 8147   4.180   2.175  17.602  0.0102 -0.3293  0.8497
  545TMC3    C8 8148   4.361   2.337  17.212 -0.2591  0.5634 -0.2296
  545TMC3    O1 8149   4.090   2.212  17.681  0.4166  0.0034  0.2627
  545TMC3    O2 8150   4.402   2.222  17.189 -0.0506 -0.2358  0.4079
  546MPD2     C 8151   1.540   2.919  17.693 -0.2296  0.0429 -0.0309
  546MPD2    C1 8152   1.459   2.951  17.590 -0.3282 -0.1714 -0.1036
  546MPD2    C2 8153   1.442   3.087  17.558  0.4425 -0.2236 -0.8745
  546MPD2    C3 8154   1.504   3.185  17.632  0.5179 -0.8661  0.1568
  546MPD2    C4 8155   1.583   3.147  17.737 -0.0406  0.2517  0.0610
  546MPD2    C5 8156   1.603   3.012   0.010  0.4571  0.3160  0.2206
  546MPD2     H 8157   1.375   3.119  17.479  0.7308  1.9000 -0.2682
  546MPD2    H1 8158   1.625   3.222   0.047  1.3860 -1.9182  1.6573
  546MPD2    H2 8159   1.562   2.817  17.724 -1.8800 -0.6166 -1.0249
  546MPD2    H3 8160   1.669   2.981   0.090  1.4347  0.4744 -0.5229
  546MPD2     N 8161   1.485   3.323  17.619  0.1428 -0.1250  0.4991
  546MPD2    H5 8162   1.517   3.385  17.693 -0.4539 -1.6087  2.0141
  546MPD2    N1 8163   1.389   2.844  17.529  0.4003 -0.3677 -0.5442
  546MPD2    H7 8164   1.396   2.759  17.585 -1.2261  0.8735  1.5349
  547TMC3    C1 8165   1.213   2.752  17.397  0.2204 -0.4124 -0.3767
  547TMC3    C2 8166   1.116   2.765  17.309  1.2552  0.0137 -0.0280
  547TMC3    C3 8167   1.039   2.661  17.282  0.5886 -0.0697 -0.5552
  547TMC3    C4 8168   1.234   2.635  17.460 -0.2365 -0.4349 -0.3307
  547TMC3    C5 8169   1.149   2.525  17.436  0.0251 -0.8665 -0.0224
  547TMC3    C6 8170   1.054   2.539  17.345  0.6560 -0.3415  0.2819
  547TMC3     C 8171   1.305   2.867  17.420  0.4147 -0.1827  0.2601
  547TMC3     O 8172   1.289   2.962  17.348 -0.1843  0.1983 -0.2894
  547TMC3     H 8173   1.092   2.867  17.282 -0.6166 -0.3821  0.1881
  547TMC3    H1 8174   1.310   2.628  17.537  2.2857  0.7193 -2.7063
  547TMC3    H2 8175   0.971   2.470  17.338 -0.7769  1.6101 -2.3701
  547TMC3    C7 8176   1.135   2.419  17.539  0.2770  0.4346 -0.0728
  547TMC3    C8 8177   0.927   2.679  17.192 -0.5296  0.5989 -0.4802
  547TMC3    O1 8178   1.046   2.340  17.514  0.2845  0.5333 -0.2065
  547TMC3    O2 8179   0.892   2.797  17.174 -0.3852  0.4468 -0.1182
  548MPD2     C 8180   0.558   3.558  12.486 -0.5562  0.3091  0.4175
  548MPD2    C1 8181   0.540   3.455  12.573  0.0418  0.0030  0.2340
  548MPD2    C2 8182   0.632   3.349  12.569 -0.3809  0.3402  0.5607
  548MPD2    C3 8183   0.729   3.348  12.472 -0.7877  0.1514  0.3503
  548MPD2    C4 8184   0.735   3.445  12.378  0.1647  0.1209  0.1659
  548MPD2    C5 8185   0.651   3.545  12.386  0.1284 -0.4134  0.2825
  548MPD2     H 8186   0.629   3.268  12.642  1.0162  0.4577  0.7595
  548MPD2    H1 8187   0.819   3.454  12.309 -0.1368  0.9500 -0.0953
  548MPD2    H2 8188   0.494   3.645  12.478 -0.8683 -0.0266 -0.7087
  548MPD2    H3 8189   0.653   3.619  12.307  1.4022  0.1840  0.8812
  548MPD2     N 8190   0.819   3.229  12.485  0.6404 -0.5183 -0.4063
  548MPD2    H5 8191   0.807   3.176  12.571  0.5498 -1.4763 -1.0079
  548MPD2    N1 8192   0.434   3.455  12.671 -0.3911  0.6217 -0.6848
  548MPD2    H7 8193   0.379   3.540  12.669  0.6818  1.3135 -0.8672
  549TMC3    C1 8194   0.270   3.384  12.831  0.6719 -0.2375  0.0402
  549TMC3    C2 8195   0.221   3.510  12.834  0.1038 -0.7622 -0.8406
  549TMC3    C3 8196   0.100   3.535  12.904  0.5937 -0.7655  0.0288
  549TMC3    C4 8197   0.213   3.278  12.894 -0.8758  0.4242  0.6407
  549TMC3    C5 8198   0.090   3.306  12.954 -0.7450  0.0532 -0.3066
  549TMC3    C6 8199   0.029   3.431  12.952  0.5993 -0.6082  0.2864
  549TMC3     C 8200   0.396   3.358  12.760 -0.4718 -0.1423 -0.9355
  549TMC3     O 8201   0.453   3.253  12.779  0.1646 -0.0116  0.1353
  549TMC3     H 8202   0.284   3.596  12.816 -0.7751 -0.1721 -1.0952
  549TMC3    H1 8203   0.246   3.177  12.874 -0.1780  0.6470  0.6608
  549TMC3    H2 8204   4.668   3.453  12.987  0.6272 -0.3812  0.2269
  549TMC3    C7 8205   0.005   3.191  12.980 -0.6213 -0.4496  0.3385
  549TMC3    C8 8206   0.044   3.663  12.869  0.2049 -0.2689  0.1274
  549TMC3    O1 8207   4.625   3.202  12.963 -0.3717  0.0667 -0.7376
  549TMC3    O2 8208   4.664   3.679  12.845  0.0031 -0.0863 -0.7052
  550TMC3    C1 8209   4.551   0.867  13.179  0.2280 -0.4729 -0.0403
  550TMC3    C2 8210   4.439   0.936  13.212  0.6051 -0.1865  0.1092
  550TMC3    C3 8211   4.456   1.069  13.243  0.4653  0.1456  0.5628
  550TMC3    C4 8212   4.674   0.919  13.201  0.1008  0.2554 -0.1194
  550TMC3    C5 8213   4.684   1.052  13.234  0.2632 -0.6315 -0.3230
  550TMC3    C6 8214   4.580   1.130  13.262 -0.0854  0.0809 -0.1918
  550TMC3     C 8215   4.538   0.767  13.073  0.3425 -0.3287  0.1150
  550TMC3     O 8216   4.447   0.686  13.087  0.7173 -0.5391 -0.5034
  550TMC3     H 8217   4.344   0.884  13.200  0.8280 -0.3707 -0.8474
  550TMC3    H1 8218   0.022   0.857  13.185  0.1403  0.1521  0.4941
  550TMC3    H2 8219   4.588   1.237  13.277 -0.3753  0.1210 -0.3227
  550TMC3    C7 8220   0.034   1.104  13.134 -0.0800 -0.4522 -0.2852
  550TMC3    C8 8221   4.362   1.164  13.174  0.2452  0.0676 -0.1644
  550TMC3    O1 8222   0.132   1.033  13.116  0.0248 -0.3121 -0.4501
  550TMC3    O2 8223   4.412   1.270  13.139  0.3958  0.0320 -0.8765
  551TMC3    C1 8224   2.054   3.924  13.908  1.1666  0.6449  0.0357
  551TMC3    C2 8225   2.178   3.910  13.854 -0.6265  0.6283  0.0432
  551TMC3    C3 8226   2.271   3.839  13.928  0.1586  0.4142  0.4961
  551TMC3    C4 8227   2.030   3.905  14.043 -0.4234 -0.1301 -0.5033
  551TMC3    C5 8228   2.132   3.852  14.117 -0.7528  0.5004  0.4587
  551TMC3    C6 8229   2.251   3.805  14.060 -0.2785 -0.4035 -0.1124
  551TMC3     C 8230   1.936   3.928  13.822  0.4104 -0.1090  0.4659
  551TMC3     O 8231   1.836   3.870  13.859 -0.2209 -0.0475 -0.3485
  551TMC3     H 8232   2.196   3.930  13.749  2.0214 -1.0211  0.1750
  551TMC3    H1 8233   1.935   3.928  14.090 -2.3407 -0.9661 -3.9975
  551TMC3    H2 8234   2.332   3.760  14.116  0.9157 -0.8063 -2.1312
  551TMC3    C7 8235   2.153   3.913  14.247 -0.0661  0.0120  0.1610
  551TMC3    C8 8236   2.413   3.842  13.907 -0.5625 -0.4848 -0.4346
  551TMC3    O1 8237   2.233   3.849  14.319 -0.2688  0.0916  0.0293
  551TMC3    O2 8238   2.492   3.792  13.987  0.4853 -0.1702  0.0013
  552MPD2     C 8239   3.995   1.431  14.154 -0.0782  0.0580  0.6541
  552MPD2    C1 8240   3.935   1.382  14.272  0.1247  0.4035 -0.0028
  552MPD2    C2 8241   4.020   1.379  14.385  0.0090 -0.2858 -0.4281
  552MPD2    C3 8242   4.150   1.434  14.393  0.5823  0.7074  0.1152
  552MPD2    C4 8243   4.202   1.479  14.274  0.1846 -0.2329  0.4384
  552MPD2    C5 8244   4.125   1.480  14.159  0.3572 -0.0802  0.1591
  552MPD2     H 8245   3.994   1.318  14.471 -0.0618  1.7897  1.0015
  552MPD2    H1 8246   4.304   1.517  14.266 -0.3624  1.1162 -0.2898
  552MPD2    H2 8247   3.950   1.414  14.057  2.9464  1.0711 -0.9431
  552MPD2    H3 8248   4.171   1.512  14.066  0.5429  0.6358  0.4984
  552MPD2     N 8249   4.229   1.429  14.507 -0.6068  0.0792 -0.0027
  552MPD2    H5 8250   4.326   1.459  14.497  0.2442 -1.7158  3.1461
  552MPD2    N1 8251   3.814   1.316  14.270 -0.8323 -0.2678 -0.5079
  552MPD2    H7 8252   3.796   1.252  14.346  0.8754 -1.6262 -1.2406
  553TMC3    C1 8253   3.627   1.220  14.160 -0.8982  0.1572 -0.1802
  553TMC3    C2 8254   3.613   1.189  14.024 -0.9035  0.1517  0.0031
  553TMC3    C3 8255   3.607   1.058  13.990  0.6203  0.2685 -0.5523
  553TMC3    C4 8256   3.636   1.120  14.258 -0.0917 -0.1375  0.3852
  553TMC3    C5 8257   3.630   0.995  14.213 -0.2815 -0.1042 -0.3850
  553TMC3    C6 8258   3.594   0.962  14.085 -0.5108  0.0182  0.0832
  553TMC3     C 8259   3.711   1.334  14.179  0.0745 -0.6373  1.2981
  553TMC3     O 8260   3.708   1.428  14.097  0.0503  0.2969  0.2486
  553TMC3     H 8261   3.614   1.272  13.954  2.1314 -0.4856 -0.7284
  553TMC3    H1 8262   3.659   1.140  14.363  0.1649  1.2160  0.0775
  553TMC3    H2 8263   3.577   0.861  14.049 -2.1787  0.0267  0.8260
  553TMC3    C7 8264   3.656   0.885  14.301 -0.5230 -0.1841  0.8663
  553TMC3    C8 8265   3.717   1.025  13.898  0.5049 -0.5136 -0.0724
  553TMC3    O1 8266   3.568   0.803  14.310  0.0538 -0.0279 -0.3287
  553TMC3    O2 8267   3.813   1.101  13.906  0.3331  0.0307  0.0738
  554TMC3    C1 8268   1.240   0.370  12.038  0.1371 -0.5712 -0.0410
  554TMC3    C2 8269   1.182   0.278  11.956  0.3079  0.3371  0.1290
  554TMC3    C3 8270   1.238   0.263  11.830 -0.2024 -0.7104 -0.1955
  554TMC3    C4 8271   1.331   0.463  11.997  1.1027 -0.8204 -0.4068
  554TMC3    C5 8272   1.382   0.443  11.866 -0.0740 -0.3556  1.1044
  554TMC3    C6 8273   1.346   0.340  11.784  0.3333 -0.2292 -0.1646
  554TMC3     C 8274   1.247   0.346  12.183 -0.1942  0.4005 -0.2737
  554TMC3     O 8275   1.278   0.444  12.252 -0.3466 -0.1292  0.2600
  554TMC3     H 8276   1.101   0.219  11.999 -0.7816  0.1457 -2.2313
  554TMC3    H1 8277   1.378   0.533  12.065  0.6472 -0.0954 -0.8384
  554TMC3    H2 8278   1.390   0.329  11.686 -0.9826  0.2065 -0.8065
  554TMC3    C7 8279   1.448   0.555  11.792  0.1690 -1.1213 -0.2522
  554TMC3    C8 8280   1.142   0.229  11.728  0.5242  0.6641  0.5405
  554TMC3    O1 8281   1.542   0.522  11.721 -0.9858  0.3192  0.2860
  554TMC3    O2 8282   1.151   0.295  11.622  0.0746  0.6763 -0.3055
  555TMC3    C1 8283   0.140   0.154  15.535 -0.0710  0.1394 -0.4104
  555TMC3    C2 8284   0.181   0.119  15.654 -0.0171  0.8631  0.3213
  555TMC3    C3 8285   0.261   0.012  15.673  0.3402 -0.1827  0.3899
  555TMC3    C4 8286   0.182   0.090  15.422 -0.4725 -0.3152  0.0291
  555TMC3    C5 8287   0.273   4.720  15.439  0.5246 -0.2741 -0.1555
  555TMC3    C6 8288   0.311   4.672  15.563  0.0032  0.2795  0.7866
  555TMC3     C 8289   0.058   0.269  15.526  0.4688 -0.1361  0.0903
  555TMC3     O 8290   0.061   0.346  15.621 -0.7506 -0.1224  0.3564
  555TMC3     H 8291   0.150   0.173  15.743 -0.8016  0.9155  0.0106
  555TMC3    H1 8292   0.156   0.130  15.325 -1.6618 -0.8920  0.1160
  555TMC3    H2 8293   0.390   4.598  15.564  0.0933  0.2579 -6.0673
  555TMC3    C7 8294   0.308   4.647  15.315 -0.1909  0.3183 -1.1072
  555TMC3    C8 8295   0.365   0.043  15.770  0.2653  0.0040  0.1656
  555TMC3    O1 8296   0.319   4.713  15.213 -0.0967 -0.3690 -0.2346
  555TMC3    O2 8297   0.384   0.163  15.791 -0.0551 -0.0054 -0.6780
  556MPD2     C 8298   3.281   1.120  10.901  0.2372 -0.3049  0.1514
  556MPD2    C1 8299   3.329   1.025  10.983  0.7063  0.0515 -0.1888
  556MPD2    C2 8300   3.394   0.909  10.929  0.5679  0.1955  0.1362
  556MPD2    C3 8301   3.392   0.888  10.796  0.1197 -0.8067 -0.4508
  556MPD2    C4 8302   3.335   0.983  10.706  0.3710 -0.3791 -0.2719
  556MPD2    C5 8303   3.270   1.092  10.760 -0.3990 -0.5821 -0.0670
  556MPD2     H 8304   3.434   0.834  10.997 -1.7283  0.2035  1.4983
  556MPD2    H1 8305   3.323   0.971  10.599 -0.6585  0.7645 -0.2935
  556MPD2    H2 8306   3.232   1.208  10.940  4.4727  1.5524  1.3440
  556MPD2    H3 8307   3.227   1.163  10.690  2.0230  2.4575  1.4821
  556MPD2     N 8308   3.440   0.761  10.752 -0.5856  0.9438 -0.0343
  556MPD2    H5 8309   3.481   0.695  10.818 -0.9148 -0.7816 -1.5422
  556MPD2    N1 8310   3.319   1.030  11.121  0.1250 -0.4484 -0.5865
  556MPD2    H7 8311   3.364   0.959  11.178  0.8424 -1.5307 -2.5241
  557TMC3    C1 8312   3.463   0.575  10.609  0.0013  0.8068  0.9851
  557TMC3    C2 8313   3.515   0.551  10.483 -0.4131  0.4104  0.0324
  557TMC3    C3 8314   3.449   0.469  10.401 -0.5559 -0.6256  0.4318
  557TMC3    C4 8315   3.367   0.495  10.665  0.1433  0.1653  0.2742
  557TMC3    C5 8316   3.300   0.412  10.575  0.4579  0.2108  0.3836
  557TMC3    C6 8317   3.342   0.396  10.447  0.2924  0.3923  0.1861
  557TMC3     C 8318   3.441   0.715  10.624 -0.6466 -0.4632  0.7841
  557TMC3     O 8319   3.401   0.775  10.522  0.3588  0.0732 -0.0824
  557TMC3     H 8320   3.590   0.619  10.445 -1.2187  0.6404 -1.1376
  557TMC3    H1 8321   3.330   0.508  10.766  1.7090  0.1097  0.8589
  557TMC3    H2 8322   3.298   0.325  10.378  0.3853  1.4911 -1.0081
  557TMC3    C7 8323   3.176   0.369  10.615 -0.6130 -0.6260 -0.6427
  557TMC3    C8 8324   3.476   0.494  10.257  0.2647  0.3536  0.0176
  557TMC3    O1 8325   3.139   0.381  10.732 -0.1301 -0.2083  0.1943
  557TMC3    O2 8326   3.560   0.579  10.222 -0.1062 -0.2694  0.4483
  558TMC3    C1 8327   0.693   4.062  10.911 -0.1529 -0.3525  0.3230
  558TMC3    C2 8328   0.567   4.011  10.951 -0.2342 -0.0457  0.1482
  558TMC3    C3 8329   0.466   4.036  10.868 -0.3179  0.0027  0.2374
  558TMC3    C4 8330   0.720   4.115  10.787 -0.1845  0.6876 -0.1170
  558TMC3    C5 8331   0.614   4.143  10.712 -0.6983  0.2213  0.1622
  558TMC3    C6 8332   0.486   4.109  10.750 -0.3089  0.2545  0.3297
  558TMC3     C 8333   0.819   4.012  10.972  0.1933 -0.3784 -0.2156
  558TMC3     O 8334   0.924   4.039  10.915 -0.5141  0.0058 -0.3365
  558TMC3     H 8335   0.551   3.941  11.033 -0.2042  0.2054  0.3704
  558TMC3    H1 8336   0.818   4.127  10.741  1.3885 -2.7121  2.3498
  558TMC3    H2 8337   0.399   4.142  10.693 -0.5375  0.4735  0.8019
  558TMC3    C7 8338   0.631   4.175  10.574 -0.1219 -0.3265  0.5779
  558TMC3    C8 8339   0.328   4.015  10.913 -0.2953  0.6217 -0.1696
  558TMC3    O1 8340   0.715   4.255  10.542  0.0588  0.3099  0.0435
  558TMC3    O2 8341   0.235   4.039  10.834 -0.4544  0.0049 -0.7425
  559MPD2     C 8342   0.512   4.405  10.901  0.3989  0.8857  0.3585
  559MPD2    C1 8343   0.478   4.364  11.026 -0.9577 -0.4081  0.1170
  559MPD2    C2 8344   0.580   4.359  11.122 -0.0712  0.1040 -0.1692
  559MPD2    C3 8345   0.707   4.382  11.090 -0.3783  0.6181  0.4374
  559MPD2    C4 8346   0.745   4.422  10.961  0.3229  0.2568 -0.4472
  559MPD2    C5 8347   0.639   4.440  10.869  0.0282  0.2467 -0.5407
  559MPD2     H 8348   0.556   4.328  11.223 -0.3622  1.6467  0.2228
  559MPD2    H1 8349   0.846   4.456  10.940  0.0372  0.7256 -1.0711
  559MPD2    H2 8350   0.431   4.419  10.831  1.4674 -1.5284 -1.3604
  559MPD2    H3 8351   0.670   4.481  10.774  3.1050 -0.1235  0.2941
  559MPD2     N 8352   0.804   4.354  11.185 -0.6236  0.5675  0.7595
  559MPD2    H5 8353   0.770   4.323  11.276 -0.0533 -2.2283  0.0296
  559MPD2    N1 8354   0.336   4.339  11.047 -0.4991  0.0228 -0.0931
  559MPD2    H7 8355   0.277   4.353  10.965 -0.3147 -2.9174 -0.7093
  560TMC3    C1 8356   1.006   4.353  11.308  0.0518 -0.1387  0.4933
  560TMC3    C2 8357   0.962   4.238  11.368  0.0298  0.5792  0.2808
  560TMC3    C3 8358   1.013   4.201  11.483 -0.2326  0.5086 -0.9668
  560TMC3    C4 8359   1.091   4.442  11.370  1.0127 -0.2536  0.5272
  560TMC3    C5 8360   1.145   4.396  11.493 -0.5042 -0.8289 -0.0827
  560TMC3    C6 8361   1.105   4.275  11.555  0.3864 -0.1129  1.3812
  560TMC3     C 8362   0.935   4.393  11.185 -0.0786 -0.2261  0.1419
  560TMC3     O 8363   0.997   4.460  11.105 -0.1267  0.1006  0.6932
  560TMC3     H 8364   0.877   4.185  11.325  1.0377 -1.6300  1.0127
  560TMC3    H1 8365   1.143   4.522  11.319 -2.1293  0.6946 -1.1738
  560TMC3    H2 8366   1.141   4.246  11.653  2.0347  1.3756  1.2120
  560TMC3    C7 8367   1.211   4.497  11.574 -0.2655 -0.5859 -0.2318
  560TMC3    C8 8368   0.940   4.108  11.559  0.1481 -0.2227  0.3651
  560TMC3    O1 8369   1.200   4.478  11.695 -0.3613  0.1003 -0.3979
  560TMC3    O2 8370   0.822   4.089  11.535 -0.0418 -0.1504 -0.3390
  561TMC3    C1 8371   3.160   3.532  11.250 -0.1882 -0.4521 -0.4666
  561TMC3    C2 8372   3.126   3.451  11.354  0.3398 -0.0519 -0.2766
  561TMC3    C3 8373   3.051   3.507  11.448  0.0672 -0.3667  0.3643
  561TMC3    C4 8374   3.146   3.665  11.251 -0.0544  0.3325  0.2787
  561TMC3    C5 8375   3.077   3.716  11.356  0.0067 -0.7272 -0.1161
  561TMC3    C6 8376   3.025   3.642  11.450 -1.3291 -0.5709 -0.5556
  561TMC3     C 8377   3.229   3.477  11.131 -0.7373 -0.3500  0.1575
  561TMC3     O 8378   3.177   3.375  11.084  0.4996 -0.1274  0.4703
  561TMC3     H 8379   3.156   3.347  11.366 -0.8066 -0.0346  2.8358
  561TMC3    H1 8380   3.170   3.725  11.163 -3.4320 -2.3260 -2.4457
  561TMC3    H2 8381   2.971   3.698  11.526 -2.1731 -1.8718 -0.2098
  561TMC3    C7 8382   3.098   3.851  11.400  0.0885 -0.7176 -0.3628
  561TMC3    C8 8383   2.984   3.409  11.538  0.1030 -0.2926  0.2660
  561TMC3    O1 8384   3.056   3.883  11.511 -0.1453  0.6013  0.1894
  561TMC3    O2 8385   3.028   3.292  11.539  0.3987 -0.0667 -0.3414
  562TMC3    C1 8386   4.522   0.076  16.442 -0.0011 -0.6872  0.3208
  562TMC3    C2 8387   4.542   0.212  16.414 -0.4514  0.3318  0.1773
  562TMC3    C3 8388   4.442   0.273  16.340  0.0637  0.8153  0.4073
  562TMC3    C4 8389   4.423   4.739  16.388  0.1084  0.2139  0.4837
  562TMC3    C5 8390   4.330   0.064  16.314 -0.3753 -0.1725  0.3423
  562TMC3    C6 8391   4.333   0.202  16.293  0.3125  0.1276  0.4891
  562TMC3     C 8392   4.593   0.014  16.550 -0.2409  0.5126 -0.0705
  562TMC3     O 8393   4.591   4.629  16.551  0.8176 -0.4473 -0.5751
  562TMC3     H 8394   4.630   0.271  16.438  0.7863 -0.9523 -1.1936
  562TMC3    H1 8395   4.412   4.639  16.429  0.4686  0.0417  0.1643
  562TMC3    H2 8396   4.253   0.245  16.235 -0.7472  0.0622  1.9019
  562TMC3    C7 8397   4.257   4.733  16.213 -0.0289 -0.0223  0.5854
  562TMC3    C8 8398   4.481   0.407  16.289  0.0903 -0.0102  0.6500
  562TMC3    O1 8399   4.178   0.052  16.141  0.1515  0.0185 -0.3758
  562TMC3    O2 8400   4.578   0.459  16.335 -0.5712  0.3100 -0.3347
  563MPD2     C 8401   1.953   1.734  15.921  0.1828 -0.4070 -0.4367
  563MPD2    C1 8402   2.002   1.760  16.046 -0.4204 -0.3161  0.0105
  563MPD2    C2 8403   2.136   1.760  16.068 -0.2686  0.3118  0.4003
  563MPD2    C3 8404   2.218   1.723  15.968 -0.0848 -0.3328  0.4445
  563MPD2    C4 8405   2.168   1.708  15.840 -0.4822 -0.0956 -0.3134
  563MPD2    C5 8406   2.036   1.708  15.817 -0.3949  0.3355 -0.1650
  563MPD2     H 8407   2.180   1.783  16.164 -1.3882 -0.3115  1.0619
  563MPD2    H1 8408   2.238   1.700  15.758  0.2803 -0.7861  0.4063
  563MPD2    H2 8409   1.846   1.732  15.904  0.1549 -0.8149 -0.1981
  563MPD2    H3 8410   2.002   1.683  15.718 -2.7601 -0.5506  0.8643
  563MPD2     N 8411   2.358   1.719  15.999  0.3125 -0.0907  0.5792
  563MPD2    H5 8412   2.388   1.739  16.093  0.3396  0.6935  0.3990
  563MPD2    N1 8413   1.902   1.783  16.147 -0.0377  0.5414 -0.0240
  563MPD2    H7 8414   1.808   1.752  16.127  0.5118 -2.1534  1.5001
  564TMC3    C1 8415   1.911   1.751  16.366 -0.3335 -0.2131  0.2408
  564TMC3    C2 8416   1.792   1.694  16.387  0.0334  0.2424  0.2871
  564TMC3    C3 8417   1.787   1.589  16.476 -0.2102  0.2604  0.0255
  564TMC3    C4 8418   2.027   1.695  16.412 -0.0738 -0.1145 -0.3401
  564TMC3    C5 8419   2.028   1.589  16.496 -0.2714 -0.4670  0.6735
  564TMC3    C6 8420   1.904   1.547  16.538 -0.4084 -0.2175 -0.6444
  564TMC3     C 8421   1.927   1.855  16.258  0.2198  0.3205  0.1354
  564TMC3     O 8422   2.014   1.933  16.288 -0.2719 -0.1403  0.0287
  564TMC3     H 8423   1.712   1.754  16.347  0.5471  0.5799 -0.2360
  564TMC3    H1 8424   2.113   1.752  16.382  0.7168 -1.3049 -0.3568
  564TMC3    H2 8425   1.904   1.451  16.589 -1.5597 -0.7844 -1.7252
  564TMC3    C7 8426   2.122   1.485  16.455 -0.1035  0.2450  0.0933
  564TMC3    C8 8427   1.742   1.477  16.399  0.5793  0.1870  0.2400
  564TMC3    O1 8428   2.130   1.376  16.519 -0.1258  0.5232  0.1007
  564TMC3    O2 8429   1.739   1.368  16.452  0.1775  0.4570  0.0448
  565TMC3    C1 8430   2.802   1.874  10.363  0.0720 -0.4205  0.1530
  565TMC3    C2 8431   2.750   1.884  10.489 -0.2955 -0.2928 -0.3841
  565TMC3    C3 8432   2.743   1.770  10.565 -0.0347  0.7335  0.2900
  565TMC3    C4 8433   2.858   1.758  10.324  0.7642  0.5621 -0.3317
  565TMC3    C5 8434   2.850   1.647  10.411  0.2549  0.5493  0.8048
  565TMC3    C6 8435   2.811   1.655  10.540  0.9005 -0.5915  0.0530
  565TMC3     C 8436   2.879   1.993  10.319  0.1635 -0.4406  0.1417
  565TMC3     O 8437   2.970   1.970  10.246  0.4800  0.3013  0.6275
  565TMC3     H 8438   2.705   1.977  10.522 -0.4921 -0.0507 -1.3472
  565TMC3    H1 8439   2.893   1.749  10.222  0.7109 -0.1720 -0.2851
  565TMC3    H2 8440   2.779   1.562  10.587 -1.6703  0.1683 -0.2370
  565TMC3    C7 8441   2.870   1.521  10.347 -0.0419  0.0780  0.5939
  565TMC3    C8 8442   2.685   1.789  10.705  0.2597  0.0955 -0.2942
  565TMC3    O1 8443   2.850   1.518  10.225 -0.3481 -0.6151  0.5009
  565TMC3    O2 8444   2.627   1.896  10.721 -0.0058  0.0683 -0.2483
  566MPD2     C 8445   0.029   4.428  14.151 -0.0689  0.1852 -0.4294
  566MPD2    C1 8446   4.674   4.493  14.072 -0.2900 -0.8872  0.5141
  566MPD2    C2 8447   4.582   4.421  13.994  0.6101  0.4917  0.2624
  566MPD2    C3 8448   4.576   4.281  14.002 -0.2380  0.2040  0.9270
  566MPD2    C4 8449   4.658   4.217  14.095 -0.2328  0.1931  0.4479
  566MPD2    C5 8450   0.016   4.293  14.160  0.7832 -0.0040  0.3451
  566MPD2     H 8451   4.511   4.472  13.929 -1.0049  0.6992  2.1988
  566MPD2    H1 8452   4.648   4.110  14.109  2.4398  0.2503  2.6945
  566MPD2    H2 8453   0.111   4.478  14.201  1.4841 -5.2165  2.4102
  566MPD2    H3 8454   0.089   4.231  14.211  0.2217  0.6033  1.8809
  566MPD2     N 8455   4.479   4.194  13.947  0.2952 -0.2176 -0.3606
  566MPD2    H5 8456   4.470   4.098  13.979 -1.9937  0.0985 -0.0461
  566MPD2    N1 8457   4.689   4.638  14.056  0.3965 -0.0846  0.1795
  566MPD2    H7 8458   0.012   4.682  14.122 -0.2226  0.2732  0.5256
  567TMC3    C1 8459   4.683   0.109  13.965 -0.5871 -0.4226  0.4425
  567TMC3    C2 8460   4.627   0.182  13.862 -0.0888  0.9193  0.3607
  567TMC3    C3 8461   4.596   0.312  13.901 -0.6416 -0.4578 -0.7760
  567TMC3    C4 8462   4.699   0.162  14.093  0.1288 -0.5708  0.0800
  567TMC3    C5 8463   4.661   0.286  14.129 -0.1653 -0.0999 -0.2566
  567TMC3    C6 8464   4.612   0.361  14.031 -0.2779  0.5404  0.2000
  567TMC3     C 8465   4.645   4.715  13.955  0.2368  0.1550  0.8544
  567TMC3     O 8466   4.599   4.676  13.850  0.2295  0.1097 -0.2633
  567TMC3     H 8467   4.606   0.153  13.760 -1.2593 -0.6433  1.0375
  567TMC3    H1 8468   0.007   0.102  14.170  0.5274 -0.4784 -0.0869
  567TMC3    H2 8469   4.585   0.465  14.045  0.1382  0.8554 -1.3306
  567TMC3    C7 8470   4.702   0.352  14.253  0.4497 -0.4475 -0.8720
  567TMC3    C8 8471   4.487   0.383  13.834 -0.1608  0.5199 -0.4476
  567TMC3    O1 8472   4.684   0.475  14.259 -0.3050  0.0505 -0.3527
  567TMC3    O2 8473   4.404   0.458  13.884 -0.1223 -0.3828 -0.6048
  568MPD2     C 8474   1.928   0.093  16.271 -0.0732  0.0454 -0.3103
  568MPD2    C1 8475   2.016   0.140  16.363 -0.0151 -0.1042  0.1279
  568MPD2    C2 8476   2.068   0.264  16.343 -0.6227 -1.2332 -0.2960
  568MPD2    C3 8477   2.025   0.337  16.232 -0.2655  0.5973 -0.3868
  568MPD2    C4 8478   1.936   0.291  16.145 -1.0750 -0.4120  0.6232
  568MPD2    C5 8479   1.892   0.162  16.162  0.4499 -0.0119 -0.0232
  568MPD2     H 8480   2.138   0.307  16.414  0.1901 -0.1874 -1.7159
  568MPD2    H1 8481   1.903   0.349  16.059  2.6000 -2.1526 -1.9612
  568MPD2    H2 8482   1.891   4.731  16.278  2.3157 -0.7978 -0.2075
  568MPD2    H3 8483   1.814   0.125  16.096  1.6999 -0.1724 -1.4103
  568MPD2     N 8484   2.087   0.460  16.224 -0.6789  0.3285 -0.2393
  568MPD2    H5 8485   2.160   0.486  16.289 -0.3709 -2.2564  0.4232
  568MPD2    N1 8486   2.042   0.079  16.486 -0.0728  0.9038  0.5774
  568MPD2    H7 8487   2.112   0.129  16.540  0.8430  1.1840 -0.8673
  569TMC3    C1 8488   2.111   0.695  16.165 -0.2599  0.3282 -0.6827
  569TMC3    C2 8489   2.121   0.722  16.301  0.4683 -0.1793 -0.0758
  569TMC3    C3 8490   2.137   0.851  16.341  0.1294 -0.2188 -0.3098
  569TMC3    C4 8491   2.094   0.802  16.081 -0.3076  0.5366  0.3860
  569TMC3    C5 8492   2.101   0.932  16.130 -0.5458  0.6302 -0.0158
  569TMC3    C6 8493   2.145   0.955  16.258 -0.7867  0.3960  0.5363
  569TMC3     C 8494   2.054   0.564  16.130  0.2503 -0.3844 -0.2020
  569TMC3     O 8495   1.983   0.561  16.033 -0.0594 -0.1060  0.1115
  569TMC3     H 8496   2.116   0.643  16.375 -0.6202 -2.0774 -2.2049
  569TMC3    H1 8497   2.055   0.783  15.982 -0.0639 -0.7637  0.5332
  569TMC3    H2 8498   2.143   1.054  16.304  0.7070  1.3812 -1.5120
  569TMC3    C7 8499   2.030   1.034  16.054 -0.5501 -0.1085  0.0251
  569TMC3    C8 8500   2.148   0.868  16.489 -0.1203 -0.4808  0.1123
  569TMC3    O1 8501   2.030   1.030  15.932 -0.3215 -0.9318 -0.3705
  569TMC3    O2 8502   2.095   0.776  16.551  0.4692  0.4045  0.6269
  570TMC3    C1 8503   1.360   3.723  16.410  0.1151 -0.0655  0.3238
  570TMC3    C2 8504   1.433   3.724  16.293  0.3847 -0.3846  0.0921
  570TMC3    C3 8505   1.496   3.847  16.257 -0.0301  0.2410  0.1726
  570TMC3    C4 8506   1.348   3.831  16.493 -0.6444 -0.4469  0.2097
  570TMC3    C5 8507   1.417   3.938  16.462 -0.1626 -0.0907 -0.2549
  570TMC3    C6 8508   1.483   3.951  16.343  0.6581 -0.2141 -0.0516
  570TMC3     C 8509   1.280   3.611  16.442  0.9325  0.0423  0.5068
  570TMC3     O 8510   1.272   3.537  16.344 -0.0222 -0.0016  0.3460
  570TMC3     H 8511   1.449   3.636  16.232  0.1558  0.9865 -1.9436
  570TMC3    H1 8512   1.272   3.831  16.570 -1.4998  0.6235 -0.6311
  570TMC3    H2 8513   1.544   4.039  16.327  1.0377 -0.1639  1.6930
  570TMC3    C7 8514   1.411   4.045  16.566  0.0201 -0.6278  0.1439
  570TMC3    C8 8515   1.594   3.861  16.151  0.8763 -0.2379  0.1901
  570TMC3    O1 8516   1.377   4.017  16.683 -0.2577  1.0766 -0.2745
  570TMC3    O2 8517   1.669   3.955  16.152 -0.6998 -0.4629 -0.4770
  571MPD2     C 8518   3.812   0.946  17.651  0.4277  0.7835 -0.2494
  571MPD2    C1 8519   3.852   0.899   0.024 -0.0257  0.3521 -0.0794
  571MPD2    C2 8520   3.933   0.991   0.095  0.3132 -0.0554  0.0117
  571MPD2    C3 8521   3.981   1.105   0.045 -0.0822 -0.1463 -0.9124
  571MPD2    C4 8522   3.937   1.149  17.675 -0.8778 -0.3440  0.4605
  571MPD2    C5 8523   3.853   1.072  17.602 -0.4708  0.0108 -0.3119
  571MPD2     H 8524   3.954   0.952   0.193  1.6636  1.4601  0.3357
  571MPD2    H1 8525   3.948   1.246  17.629 -0.4367  0.1821  1.6820
  571MPD2    H2 8526   3.752   0.875  17.593 -1.0495  2.4686 -0.7844
  571MPD2    H3 8527   3.821   1.104  17.503 -1.1317  0.2482 -0.0188
  571MPD2     N 8528   4.068   1.187   0.117  0.4283 -0.6237 -0.0271
  571MPD2    H5 8529   4.093   1.276   0.075  2.0964 -0.3260  1.6217
  571MPD2    N1 8530   3.819   0.776   0.077 -0.5610  0.1380  0.0645
  571MPD2    H7 8531   3.838   0.763   0.176  0.1764 -1.8076 -0.3421
  572TMC3    C1 8532   4.233   1.237   0.281  0.2350 -0.0574 -0.4763
  572TMC3    C2 8533   4.302   1.175   0.375 -1.1657  0.1728  0.0118
  572TMC3    C3 8534   4.382   1.255   0.457  0.9846  0.4892  0.4387
  572TMC3    C4 8535   4.216   1.372   0.288 -0.4817 -1.0241  0.0002
  572TMC3    C5 8536   4.291   1.450   0.377  0.2722  0.3010  0.7137
  572TMC3    C6 8537   4.375   1.392   0.467 -0.6027  0.3667 -0.3214
  572TMC3     C 8538   4.124   1.155   0.239 -0.2031 -0.1999 -0.3023
  572TMC3     O 8539   4.111   1.057   0.313  0.1920  0.4719  0.5520
  572TMC3     H 8540   4.343   1.078   0.350  1.4295  1.3104 -0.0948
  572TMC3    H1 8541   4.161   1.421   0.209 -0.8436 -1.2980  0.0808
  572TMC3    H2 8542   4.425   1.436   0.553 -1.4393  1.3229 -0.3268
  572TMC3    C7 8543   4.269   1.593   0.376 -0.5607 -0.3771 -0.3251
  572TMC3    C8 8544   4.445   1.189   0.563  0.8105 -0.5101 -0.0856
  572TMC3    O1 8545   4.166   1.632   0.319  0.0329  0.4217  0.1782
  572TMC3    O2 8546   4.562   1.204   0.588 -0.3526 -0.6045 -0.0252
  573MPD2     C 8547   0.245   1.324   0.441  0.2822 -0.2858 -0.2076
  573MPD2    C1 8548   0.129   1.393   0.448 -0.6128  0.2148  0.1549
  573MPD2    C2 8549   0.044   1.404   0.340 -0.5000  0.1268  1.0527
  573MPD2    C3 8550   0.074   1.333   0.221  0.0040  0.4709 -0.1817
  573MPD2    C4 8551   0.195   1.264   0.216  0.5297 -0.2585  0.0655
  573MPD2    C5 8552   0.281   1.271   0.320  0.9385 -0.0651  0.2600
  573MPD2     H 8553   4.682   1.442   0.340 -0.8556 -0.8003 -0.4532
  573MPD2    H1 8554   0.232   1.206   0.132 -0.7049 -0.7895 -0.1247
  573MPD2    H2 8555   0.305   1.310   0.531 -0.8871 -0.6939  0.5075
  573MPD2    H3 8556   0.382   1.230   0.315  0.1691 -1.6184 -2.3100
  573MPD2     N 8557   4.728   1.324   0.118  1.3579  0.5161 -0.3750
  573MPD2    H5 8558   0.012   1.258   0.045 -0.9314  0.3579 -0.9575
  573MPD2    N1 8559   0.097   1.447   0.574 -0.4501  0.4739  0.2974
  573MPD2    H7 8560   0.173   1.424   0.637 -0.4223  4.3978  1.6718
  574TMC3    C1 8561   4.528   1.322  17.748  0.9618 -0.7887  0.1907
  574TMC3    C2 8562   4.435   1.398  17.691  0.2664 -0.2606 -0.5562
  574TMC3    C3 8563   4.321   1.348  17.633  0.5817  0.2828 -0.5060
  574TMC3    C4 8564   4.500   1.192  17.742  0.4552 -0.3564 -0.1982
  574TMC3    C5 8565   4.397   1.138  17.679 -0.0025  0.1144  0.7409
  574TMC3    C6 8566   4.294   1.216  17.635 -1.1926  0.2855 -0.2035
  574TMC3     C 8567   4.599   1.379   0.107  0.2270  0.3521 -0.2431
  574TMC3     O 8568   4.546   1.475   0.163 -0.1591  0.2502 -0.3619
  574TMC3     H 8569   4.458   1.504  17.691 -0.4742 -0.0896 -2.5393
  574TMC3    H1 8570   4.569   1.125   0.037  0.9895 -0.1474 -0.6577
  574TMC3    H2 8571   4.195   1.177  17.611 -0.7047 -0.8399 -0.3716
  574TMC3    C7 8572   4.342   1.014  17.717  0.4554  0.8515 -0.5615
  574TMC3    C8 8573   4.209   1.440  17.637  0.0749  0.5832 -0.6040
  574TMC3    O1 8574   4.268   0.971  17.635  0.1175 -0.0227  0.0398
  574TMC3    O2 8575   4.116   1.399  17.704 -0.1848 -0.4506 -0.7621
  575TMC3    C1 8576   2.138   2.011  11.485 -0.3433  0.3324  0.2355
  575TMC3    C2 8577   2.024   1.970  11.407  0.2627  0.4099 -0.1056
  575TMC3    C3 8578   2.051   1.929  11.278  0.5165 -0.0814  0.6673
  575TMC3    C4 8579   2.266   2.016  11.428 -0.9693 -0.0341  0.3705
  575TMC3    C5 8580   2.288   1.976  11.296  0.1999  0.4018  0.2402
  575TMC3    C6 8581   2.180   1.930  11.225  0.0992  0.4809  0.0102
  575TMC3     C 8582   2.122   2.050  11.628  0.6220  0.9618 -0.0384
  575TMC3     O 8583   2.203   2.125  11.673  0.0512 -0.1501 -0.2568
  575TMC3     H 8584   1.925   1.983  11.449  0.9017 -2.2492  2.2526
  575TMC3    H1 8585   2.345   2.036  11.500 -0.4869 -0.9990  0.1075
  575TMC3    H2 8586   2.196   1.866  11.139 -0.6411  0.0675  0.1860
  575TMC3    C7 8587   2.412   1.909  11.280  0.2888  0.2375  0.2072
  575TMC3    C8 8588   1.948   1.912  11.182 -0.1113 -0.3730  0.5395
  575TMC3    O1 8589   2.481   1.889  11.378 -0.1887 -0.3855  0.6159
  575TMC3    O2 8590   1.982   1.907  11.065  0.2391 -0.3861  0.3367
  576MPD2     C 8591   2.275   3.566  12.857 -0.0760 -0.2201  0.6973
  576MPD2    C1 8592   2.318   3.682  12.796 -0.2254 -0.0979  0.3828
  576MPD2    C2 8593   2.318   3.793  12.875 -0.1306  0.0248  0.2668
  576MPD2    C3 8594   2.282   3.792  13.014  0.3064 -0.2071 -0.0306
  576MPD2    C4 8595   2.246   3.670  13.066  0.0733  0.2057 -0.3425
  576MPD2    C5 8596   2.245   3.558  12.989 -0.1744  0.4554 -0.1708
  576MPD2     H 8597   2.348   3.894  12.849 -1.9338  1.4843  3.7730
  576MPD2    H1 8598   2.224   3.657  13.171 -0.7976  1.3827 -0.3732
  576MPD2    H2 8599   2.266   3.473  12.802 -1.5868 -0.5017  1.4163
  576MPD2    H3 8600   2.222   3.463  13.037  1.3718  0.9431  1.5266
  576MPD2     N 8601   2.281   3.912  13.086  0.1465 -0.1346  0.8189
  576MPD2    H5 8602   2.307   3.991  13.027 -1.3341 -0.1217  0.1936
  576MPD2    N1 8603   2.351   3.689  12.664 -0.5373 -0.0571  0.2618
  576MPD2    H7 8604   2.360   3.781  12.622 -2.3068 -0.4847 -1.0669
  577TMC3    C1 8605   2.440   3.614  12.444  0.3961  0.2311 -0.0932
  577TMC3    C2 8606   2.511   3.525  12.373 -0.8201 -0.7197 -0.9465
  577TMC3    C3 8607   2.530   3.554  12.233  0.0305  0.1835 -0.1529
  577TMC3    C4 8608   2.412   3.736  12.392 -0.4984 -0.5792  0.1436
  577TMC3    C5 8609   2.419   3.760  12.260  0.1558  0.1314 -0.2638
  577TMC3    C6 8610   2.477   3.670  12.180  0.6550  0.6494 -0.7724
  577TMC3     C 8611   2.390   3.575  12.582 -0.3613 -0.2608  0.1847
  577TMC3     O 8612   2.390   3.457  12.605  1.0340 -0.0599 -0.4638
  577TMC3     H 8613   2.550   3.435  12.419 -0.3100 -1.0967 -2.1074
  577TMC3    H1 8614   2.358   3.811  12.448  1.3319 -0.1123  1.2798
  577TMC3    H2 8615   2.468   3.696  12.075 -0.1161 -2.1953 -1.3896
  577TMC3    C7 8616   2.436   3.900  12.231 -0.0498  0.3218 -0.2586
  577TMC3    C8 8617   2.590   3.461  12.143 -0.6669  0.5879 -0.0539
  577TMC3    O1 8618   2.487   3.965  12.321 -0.4904  0.2426  0.2011
  577TMC3    O2 8619   2.610   3.356  12.198  0.3637 -0.1697 -0.3029
  578MPD2     C 8620   0.272   4.179   1.071  0.7074 -0.2815  0.1527
  578MPD2    C1 8621   0.372   4.140   0.990 -0.4453 -0.6864 -0.3512
  578MPD2    C2 8622   0.495   4.113   1.041 -0.5050  0.4493  0.0116
  578MPD2    C3 8623   0.518   4.120   1.173 -0.0547  0.3025  0.4197
  578MPD2    C4 8624   0.418   4.164   1.258 -0.9543 -0.1291  0.3257
  578MPD2    C5 8625   0.293   4.195   1.205  0.3478  0.3647  0.4397
  578MPD2     H 8626   0.580   4.088   0.979 -1.5714  0.4800 -1.4680
  578MPD2    H1 8627   0.433   4.171   1.366 -2.9511  0.8425  0.5466
  578MPD2    H2 8628   0.176   4.198   1.024  0.0438 -1.5673  0.9855
  578MPD2    H3 8629   0.221   4.251   1.263 -1.3785 -0.3953 -0.9761
  578MPD2     N 8630   0.648   4.086   1.220 -0.9233 -0.4461 -0.2684
  578MPD2    H5 8631   0.716   4.050   1.154 -0.5356 -0.6042  0.2254
  578MPD2    N1 8632   0.341   4.129   0.851  0.0597  0.1229  0.2808
  578MPD2    H7 8633   0.247   4.148   0.819  0.3523  0.4707 -0.3801
  579TMC3    C1 8634   0.827   4.039   1.350  0.2339  0.5255  0.1142
  579TMC3    C2 8635   0.924   4.112   1.410 -0.4111  0.4987  0.5209
  579TMC3    C3 8636   1.057   4.083   1.386  0.8279  0.0797 -0.1244
  579TMC3    C4 8637   0.854   3.931   1.262 -0.2536 -0.1713  0.7197
  579TMC3    C5 8638   0.988   3.902   1.254 -0.1707  0.2239  0.1254
  579TMC3    C6 8639   1.086   3.972   1.315  0.0201  0.2070  0.5310
  579TMC3     C 8640   0.692   4.088   1.354 -0.0608  0.0583 -0.2706
  579TMC3     O 8641   0.643   4.151   1.451  0.0039 -0.5587  0.2028
  579TMC3     H 8642   0.888   4.181   1.485 -1.8464 -0.4608  0.7139
  579TMC3    H1 8643   0.773   3.871   1.221  0.7732  0.0408 -1.6486
  579TMC3    H2 8644   1.186   3.933   1.302 -0.8170 -2.4288  2.0394
  579TMC3    C7 8645   1.033   3.786   1.183  0.6125  1.0917 -0.0099
  579TMC3    C8 8646   1.161   4.168   1.441  0.2206  0.3362  0.0235
  579TMC3    O1 8647   1.146   3.745   1.201 -0.0462  0.4319  0.0587
  579TMC3    O2 8648   1.110   4.261   1.500  0.2458 -0.0649  0.7648
  580TMC3    C1 8649   4.492   2.852  12.593 -0.1761  0.8363 -0.3778
  580TMC3    C2 8650   4.545   2.979  12.617  0.0721  0.4344  0.0043
  580TMC3    C3 8651   4.684   2.986  12.636  0.2365  0.9176 -0.4528
  580TMC3    C4 8652   4.569   2.746  12.607  0.1840  0.0755  0.3905
  580TMC3    C5 8653   4.703   2.753  12.645 -0.3211  0.1771 -0.5109
  580TMC3    C6 8654   0.019   2.874  12.665  0.4250  0.1511 -0.2193
  580TMC3     C 8655   4.418   2.843  12.471 -0.2463  0.2601  0.1610
  580TMC3     O 8656   4.475   2.771  12.393 -0.0455  0.1479  0.2627
  580TMC3     H 8657   4.486   3.069  12.603  0.2461  0.6163  0.4485
  580TMC3    H1 8658   4.527   2.650  12.581  0.0622  0.3228 -0.3415
  580TMC3    H2 8659   0.116   2.886  12.712 -0.0169 -1.4049  1.0674
  580TMC3    C7 8660   0.027   2.644  12.713 -0.5035  0.3474 -0.2611
  580TMC3    C8 8661   0.008   3.111  12.590  1.0900 -0.2688 -0.3057
  580TMC3    O1 8662   0.137   2.667  12.759 -0.0706 -0.1472 -0.4843
  580TMC3    O2 8663   4.689   3.221  12.596 -0.2377 -0.1481 -0.3308
  581MPD2     C 8664   3.173   2.685  14.984 -0.0604 -0.5133  0.5558
  581MPD2    C1 8665   3.058   2.669  15.064  1.0999 -0.4216 -0.1587
  581MPD2    C2 8666   2.935   2.710  15.023 -0.0148 -0.1072 -0.1588
  581MPD2    C3 8667   2.924   2.767  14.900  0.4891 -0.2863 -0.3656
  581MPD2    C4 8668   3.035   2.790  14.828 -0.1640  0.4597 -0.0278
  581MPD2    C5 8669   3.162   2.747  14.866  0.0410  0.1130  0.3945
  581MPD2     H 8670   2.846   2.679  15.077  1.1502 -2.6534  0.2519
  581MPD2    H1 8671   3.045   2.843  14.733  1.3383  1.5682  0.7326
  581MPD2    H2 8672   3.271   2.651  15.015 -0.4448  0.3608  2.7379
  581MPD2    H3 8673   3.246   2.767  14.801 -0.1781  1.8337  0.6369
  581MPD2     N 8674   2.792   2.803  14.848 -0.7328  0.4636  0.8275
  581MPD2    H5 8675   2.715   2.807  14.914  0.5405  0.5535  2.3125
  581MPD2    N1 8676   3.080   2.611  15.187  0.2772  0.6286  0.2275
  581MPD2    H7 8677   3.161   2.550  15.188 -0.1865  0.0099  0.1247
  582TMC3    C1 8678   3.049   2.511  15.395 -0.0903 -0.3835  0.1076
  582TMC3    C2 8679   3.179   2.490  15.430  0.2162 -0.5557 -0.3797
  582TMC3    C3 8680   3.214   2.414  15.540  0.7587  0.2429  0.6203
  582TMC3    C4 8681   2.953   2.454  15.474 -0.1291 -0.4315  0.3068
  582TMC3    C5 8682   2.987   2.363  15.576  0.0801  0.6181  0.0515
  582TMC3    C6 8683   3.116   2.350  15.607 -0.1258 -0.1525  0.0343
  582TMC3     C 8684   2.999   2.605  15.299  0.0258  0.1108 -0.3266
  582TMC3     O 8685   2.885   2.656  15.312  0.9675 -0.0219 -0.2611
  582TMC3     H 8686   3.250   2.540  15.366 -2.4704  3.7714  0.0737
  582TMC3    H1 8687   2.848   2.478  15.463  0.4371  1.6281 -0.5115
  582TMC3    H2 8688   3.134   2.294  15.698 -1.9492 -1.8539 -0.6600
  582TMC3    C7 8689   2.902   2.370  15.689 -0.0508 -0.5246  0.4598
  582TMC3    C8 8690   3.275   2.496  15.642  0.5496 -0.2343  0.4329
  582TMC3    O1 8691   2.877   2.266  15.750 -0.1225  0.1462  0.0834
  582TMC3    O2 8692   3.254   2.617  15.659  0.2284  0.2500 -0.8331
  583MPD2     C 8693   3.246   4.383  16.727  0.1085 -0.1456 -0.3088
  583MPD2    C1 8694   3.216   4.510  16.689 -0.2939 -0.0883 -0.1336
  583MPD2    C2 8695   3.186   4.612  16.781 -0.3899  0.2143 -0.0454
  583MPD2    C3 8696   3.172   4.580  16.910  0.5094 -0.4620  0.1634
  583MPD2    C4 8697   3.198   4.447  16.957 -0.1575 -0.6196 -0.1315
  583MPD2    C5 8698   3.238   4.351  16.861  0.3725  0.8767 -0.5451
  583MPD2     H 8699   3.165   4.711  16.741  0.4007  0.0019 -0.9829
  583MPD2    H1 8700   3.199   4.428  17.064 -1.4177 -1.6052 -0.3002
  583MPD2    H2 8701   3.288   4.313  16.656  1.1639 -0.9072  1.0780
  583MPD2    H3 8702   3.283   4.256  16.888 -0.7823 -0.6921 -4.1090
  583MPD2     N 8703   3.168   4.681  17.001  0.2685  0.0184 -0.2966
  583MPD2    H5 8704   3.161   0.039  16.973  2.2736  0.5556  1.0827
  583MPD2    N1 8705   3.219   4.549  16.555  0.4809 -0.2674 -0.0085
  583MPD2    H7 8706   3.203   4.647  16.532  1.5624 -0.3759 -1.2583
  584TMC3    C1 8707   3.171   0.058  17.210 -0.4159 -0.1549  0.3374
  584TMC3    C2 8708   3.200   0.173  17.138 -0.7007 -0.2991  0.0305
  584TMC3    C3 8709   3.226   0.289  17.203  0.6586 -0.2358  1.0064
  584TMC3    C4 8710   3.172   0.065  17.351  0.0790  0.2336  0.0067
  584TMC3    C5 8711   3.168   0.186  17.413 -0.5140  0.2228 -0.1199
  584TMC3    C6 8712   3.201   0.301  17.345 -0.4054 -0.0238 -0.1782
  584TMC3     C 8713   3.136   4.669  17.139 -0.7813 -0.1646  0.4625
  584TMC3     O 8714   3.075   4.579  17.193 -0.4672 -0.3572  0.6876
  584TMC3     H 8715   3.204   0.169  17.030 -0.0154 -2.1726  0.1169
  584TMC3    H1 8716   3.140   4.713  17.400 -0.9761  1.0060  0.7630
  584TMC3    H2 8717   3.200   0.397  17.396  0.3681 -0.2429  0.2479
  584TMC3    C7 8718   3.133   0.187  17.557  0.6871  0.2441  1.0521
  584TMC3    C8 8719   3.290   0.392  17.120 -0.4606  0.0831 -0.1643
  584TMC3    O1 8720   3.136   0.080  17.610 -0.6413 -0.4270  0.1190
  584TMC3    O2 8721   3.341   0.350  17.015 -0.1749  0.1981 -0.3387
  585MPD2     C 8722   2.094   3.971   0.500  0.1861  0.2267  0.1811
  585MPD2    C1 8723   2.133   3.986   0.364  0.0189 -0.0571  0.4956
  585MPD2    C2 8724   2.197   3.887   0.295 -0.1639  0.2636 -0.0501
  585MPD2    C3 8725   2.193   3.761   0.355  0.1046 -0.0967  0.6651
  585MPD2    C4 8726   2.139   3.740   0.482 -0.2909 -0.1037 -0.4523
  585MPD2    C5 8727   2.095   3.844   0.554  0.4430  0.2118 -0.2221
  585MPD2     H 8728   2.238   3.904   0.196 -3.5578 -2.2409 -1.8967
  585MPD2    H1 8729   2.136   3.640   0.522  1.4139 -0.7323 -1.9060
  585MPD2    H2 8730   2.051   4.049   0.562 -1.3462  1.6062 -2.5853
  585MPD2    H3 8731   2.062   3.829   0.656 -0.4269  0.7414 -0.4253
  585MPD2     N 8732   2.246   3.648   0.289 -0.6527 -0.5453  0.0841
  585MPD2    H5 8733   2.236   3.564   0.344 -1.0681 -0.6485 -0.1498
  585MPD2    N1 8734   2.106   4.115   0.311 -0.1699  0.1719  0.3279
  585MPD2    H7 8735   2.069   4.180   0.380 -0.4488  0.0801  0.2625
  586TMC3    C1 8736   2.349   3.519   0.130  0.1706 -0.0179 -0.1852
  586TMC3    C2 8737   2.459   3.494   0.056  0.9555  0.3369  0.0525
  586TMC3    C3 8738   2.475   3.365   0.003  0.0262  0.4899 -0.0626
  586TMC3    C4 8739   2.247   3.426   0.145 -1.1315 -0.0107  0.0035
  586TMC3    C5 8740   2.253   3.305   0.089 -0.0046  0.4939  0.2407
  586TMC3    C6 8741   2.370   3.276   0.025  0.1074  0.0125 -0.3554
  586TMC3     C 8742   2.320   3.650   0.176  0.1403  0.3862  0.9138
  586TMC3     O 8743   2.377   3.740   0.115 -0.0962 -0.1535 -0.4210
  586TMC3     H 8744   2.534   3.571   0.043 -0.9397  2.3901  1.3170
  586TMC3    H1 8745   2.150   3.460   0.180 -0.0567  1.8377  1.2322
  586TMC3    H2 8746   2.376   3.174  17.743 -1.2953 -0.6297  1.2093
  586TMC3    C7 8747   2.146   3.238   0.028 -0.0377  0.4750  0.1435
  586TMC3    C8 8748   2.558   3.344  17.641 -0.2195  0.1388 -0.3072
  586TMC3    O1 8749   2.167   3.118  17.753 -0.3693 -0.3370 -0.4856
  586TMC3    O2 8750   2.564   3.223  17.609  0.4988 -0.2978  0.3516
  587TMC3    C1 8751   0.037   2.629  16.273  0.7936  0.0435 -0.5214
  587TMC3    C2 8752   0.037   2.637  16.410  0.3729 -0.5065  0.0658
  587TMC3    C3 8753   0.156   2.620  16.473 -0.4207 -0.3054 -0.6834
  587TMC3    C4 8754   0.148   2.589  16.204  1.0183  0.4663 -0.2228
  587TMC3    C5 8755   0.261   2.556  16.269 -0.4088 -0.1591  0.0865
  587TMC3    C6 8756   0.269   2.572  16.407 -0.2149 -0.3458  0.3440
  587TMC3     C 8757   4.650   2.623  16.211 -0.7927  0.4664  0.3844
  587TMC3     O 8758   4.645   2.688  16.104  0.6392  0.0568 -0.0756
  587TMC3     H 8759   4.689   2.678  16.461  0.1152 -1.9747  0.7813
  587TMC3    H1 8760   0.134   2.567  16.098 -0.5415 -0.1391  0.1122
  587TMC3    H2 8761   0.361   2.560  16.463 -1.7707 -2.7650  2.3920
  587TMC3    C7 8762   0.323   2.435  16.211 -0.9893 -0.9526 -0.2255
  587TMC3    C8 8763   0.148   2.614  16.617 -0.3584  0.2408 -0.1343
  587TMC3    O1 8764   0.276   2.392  16.110 -0.1547  0.4401 -0.4648
  587TMC3    O2 8765   0.232   2.542  16.670 -0.1213 -0.0191 -0.0314
  588TMC3    C1 8766   2.072   4.027  10.006  0.3826 -0.4944  0.0959
  588TMC3    C2 8767   1.991   3.960  10.100 -0.4155  1.0841 -0.6026
  588TMC3    C3 8768   2.049   3.860  10.170 -0.1421 -0.6538  0.4049
  588TMC3    C4 8769   2.198   3.992   9.984  0.2489  0.0470  1.0295
  588TMC3    C5 8770   2.250   3.891  10.061  0.1330  0.2459  0.2634
  588TMC3    C6 8771   2.180   3.825  10.155  0.7016 -0.1942 -0.0152
  588TMC3     C 8772   2.053   4.166  10.024  0.1538  0.3391  0.2569
  588TMC3     O 8773   2.005   4.200  10.133  0.4404 -0.3875 -0.2155
  588TMC3     H 8774   1.893   4.003  10.117 -1.1103 -0.4926 -0.6232
  588TMC3    H1 8775   2.262   4.034   9.908 -1.4430  0.9608  0.1152
  588TMC3    H2 8776   2.215   3.739  10.211 -0.5999 -0.3102  0.6197
  588TMC3    C7 8777   2.397   3.898  10.081 -0.2292 -0.5975 -0.0254
  588TMC3    C8 8778   1.966   3.802  10.278  0.0081 -0.6312  0.2870
  588TMC3    O1 8779   2.450   3.801  10.129 -0.1477 -0.1766  0.0244
  588TMC3    O2 8780   1.848   3.831  10.296  0.2132  0.1067 -0.4976
  589TMC3    C1 8781   1.801   1.991   1.693 -0.4632 -0.8683  0.4242
  589TMC3    C2 8782   1.928   1.959   1.734 -0.0333  0.3438  0.2022
  589TMC3    C3 8783   2.003   1.894   1.646 -0.2232 -0.3391 -0.3937
  589TMC3    C4 8784   1.750   1.960   1.566 -0.0569  0.2480  0.3352
  589TMC3    C5 8785   1.841   1.913   1.476 -0.0961  0.0329 -1.3531
  589TMC3    C6 8786   1.959   1.869   1.514 -0.2002  0.1943 -0.1454
  589TMC3     C 8787   1.752   2.103   1.768  0.4648  1.3670  0.1299
  589TMC3     O 8788   1.804   2.128   1.875  0.1255  0.1240  0.1171
  589TMC3     H 8789   1.961   1.975   1.835  0.9059 -1.0577  0.1158
  589TMC3    H1 8790   1.649   1.988   1.536  0.2246  1.3098  0.3742
  589TMC3    H2 8791   2.029   1.811   1.454  0.7821  1.1808  0.0620
  589TMC3    C7 8792   1.767   1.830   1.375 -0.6783 -1.1057  0.4110
  589TMC3    C8 8793   2.141   1.921   1.671  0.5210  0.3153  0.3309
  589TMC3    O1 8794   1.647   1.801   1.376 -0.6460 -0.1583 -0.0778
  589TMC3    O2 8795   2.168   1.915   1.790  0.4655 -0.2029 -0.2179
  590MPD2     C 8796   1.203   0.579  16.743  0.0461 -0.1260 -0.2177
  590MPD2    C1 8797   1.146   0.701  16.745  1.0583 -0.5234  0.2793
  590MPD2    C2 8798   1.223   0.811  16.712 -0.0310  0.4462  0.4252
  590MPD2    C3 8799   1.358   0.795  16.684 -0.0818  0.3136  0.6155
  590MPD2    C4 8800   1.412   0.673  16.696 -0.4819  0.9492  1.1307
  590MPD2    C5 8801   1.333   0.567  16.726  0.2866 -0.4397  0.7644
  590MPD2     H 8802   1.171   0.902  16.685 -0.1758  0.3343  0.3325
  590MPD2    H1 8803   1.519   0.659  16.686 -0.2316  2.4539  1.7035
  590MPD2    H2 8804   1.149   0.489  16.768  1.5877 -1.3833 -1.4023
  590MPD2    H3 8805   1.379   0.468  16.729 -1.3367 -1.2148  0.0638
  590MPD2     N 8806   1.427   0.913  16.643 -0.5914 -0.2020  0.1370
  590MPD2    H5 8807   1.367   0.987  16.608 -0.2148  0.4198  0.8057
  590MPD2    N1 8808   1.007   0.709  16.754  0.3709  0.1974 -0.4756
  590MPD2    H7 8809   0.964   0.618  16.745 -1.6427  1.1495 -0.3903
  591TMC3    C1 8810   1.604   1.045  16.543  0.0193 -0.3491 -0.1942
  591TMC3    C2 8811   1.685   1.020  16.435  0.6827 -0.4842 -0.5287
  591TMC3    C3 8812   1.655   1.073  16.313 -0.4920 -0.3963 -0.2803
  591TMC3    C4 8813   1.494   1.124  16.537  0.1536  0.5803 -0.4336
  591TMC3    C5 8814   1.471   1.184  16.414 -0.3013  0.3945 -0.0485
  591TMC3    C6 8815   1.543   1.156  16.297  0.7722  0.3932 -0.4467
  591TMC3     C 8816   1.563   0.921  16.613 -0.1056 -0.5900 -0.1180
  591TMC3     O 8817   1.642   0.831  16.616 -0.7039 -0.2106  0.6258
  591TMC3     H 8818   1.771   0.955  16.440  0.9463  0.0009  1.1483
  591TMC3    H1 8819   1.426   1.155  16.616 -1.0256 -4.2778  0.4691
  591TMC3    H2 8820   1.512   1.208  16.207 -0.7871  1.6584  0.8384
  591TMC3    C7 8821   1.369   1.288  16.418 -0.3579 -0.0395  0.8672
  591TMC3    C8 8822   1.679   0.973  16.211  0.1268 -0.0789  0.1602
  591TMC3    O1 8823   1.281   1.291  16.505  0.2717 -0.1432  0.2074
  591TMC3    O2 8824   1.746   0.879  16.246 -0.1971  0.2877 -0.7829
  592MPD2     C 8825   0.902   2.445  11.769  0.6100 -0.3319  0.5641
  592MPD2    C1 8826   0.931   2.495  11.891  0.4448 -0.6885  0.3447
  592MPD2    C2 8827   0.880   2.438  12.007 -0.1767  0.0722 -0.7538
  592MPD2    C3 8828   0.797   2.330  11.986 -0.4579  0.0301  0.3639
  592MPD2    C4 8829   0.768   2.278  11.860 -0.3137  0.0108  0.1639
  592MPD2    C5 8830   0.820   2.338  11.751  0.3204  0.0956  0.2352
  592MPD2     H 8831   0.901   2.474  12.107  0.5498 -2.6349  0.0414
  592MPD2    H1 8832   0.698   2.199  11.835 -1.9605  1.5387 -0.0373
  592MPD2    H2 8833   0.929   2.498  11.679 -2.7853  0.4719  0.0195
  592MPD2    H3 8834   0.808   2.299  11.650  0.6914 -0.1298  0.2757
  592MPD2     N 8835   0.744   2.268  12.099  0.3254  0.1998  0.3080
  592MPD2    H5 8836   0.764   2.318  12.185  2.1507  0.5621 -0.3249
  592MPD2    N1 8837   1.019   2.610  11.889  0.6525 -0.3773  0.5769
  592MPD2    H7 8838   1.056   2.639  11.799 -1.7694 -1.1595 -0.6763
  593TMC3    C1 8839   1.167   2.761  11.997 -0.6324  0.0612 -0.4292
  593TMC3    C2 8840   1.165   2.855  12.097  0.5579 -0.2195 -0.3798
  593TMC3    C3 8841   1.261   2.955  12.087  0.0353 -0.6798  0.0202
  593TMC3    C4 8842   1.252   2.772  11.887  0.6786  0.2076  0.4953
  593TMC3    C5 8843   1.339   2.873  11.883 -0.4726 -0.5006  0.2998
  593TMC3    C6 8844   1.350   2.961  11.985  0.1355 -0.4141 -0.2190
  593TMC3     C 8845   1.057   2.671  12.003  0.1626 -0.3370  0.6605
  593TMC3     O 8846   0.990   2.677  12.104 -0.0713  0.1196  0.1675
  593TMC3     H 8847   1.113   2.836  12.191 -1.8636  0.3993 -1.5766
  593TMC3    H1 8848   1.255   2.691  11.814 -1.4026  0.0436  0.6029
  593TMC3    H2 8849   1.425   3.039  11.992 -0.7962  0.3665  1.0063
  593TMC3    C7 8850   1.414   2.900  11.754  0.0782 -0.3997  0.3018
  593TMC3    C8 8851   1.223   3.084  12.139  0.1301  0.0829 -0.3263
  593TMC3    O1 8852   1.483   2.997  11.750 -0.7544 -0.1754  0.0135
  593TMC3    O2 8853   1.101   3.110  12.135 -0.0280 -0.7279  0.0783
  594MPD2     C 8854   0.093   1.629  14.488 -0.5117  1.1256  0.3740
  594MPD2    C1 8855   0.082   1.600  14.621  0.8315 -0.9505  0.6655
  594MPD2    C2 8856   0.192   1.606  14.709 -0.1756 -0.4023 -0.2985
  594MPD2    C3 8857   0.315   1.634  14.663 -0.1176  0.0981  0.2536
  594MPD2    C4 8858   0.333   1.655  14.527 -0.5832  0.0140  0.2688
  594MPD2    C5 8859   0.221   1.651  14.446 -0.6813 -0.1131  0.7326
  594MPD2     H 8860   0.181   1.598  14.817 -1.5338 -0.0627 -0.4100
  594MPD2    H1 8861   0.432   1.673  14.487 -0.8497  0.4714 -0.1831
  594MPD2    H2 8862   0.013   1.624  14.415 -0.4264  1.6264  0.2456
  594MPD2    H3 8863   0.224   1.663  14.338  1.0243 -0.6260  0.7185
  594MPD2     N 8864   0.419   1.636  14.762 -0.2157  0.7165  0.2364
  594MPD2    H5 8865   0.391   1.637  14.859 -2.0166 -0.6846 -0.2568
  594MPD2    N1 8866   4.691   1.574  14.659 -0.1744  0.1807 -0.3488
  594MPD2    H7 8867   4.627   1.555  14.582  1.3359 -1.8625 -1.1152
  595TMC3    C1 8868   0.857   1.721  14.901 -0.0804 -0.1606  0.4284
  595TMC3    C2 8869   0.772   1.673  14.803  0.0635 -0.3526 -0.3139
  595TMC3    C3 8870   0.638   1.681  14.829 -0.1601  0.3955  0.7679
  595TMC3    C4 8871   0.805   1.798  15.003 -0.1015  0.3643  0.6278
  595TMC3    C5 8872   0.670   1.798  15.028 -0.0273 -0.2290  0.1053
  595TMC3    C6 8873   0.586   1.712  14.951 -0.2995  0.0610  0.9520
  595TMC3     C 8874   0.987   1.749  14.851 -0.3136 -0.2231  0.2150
  595TMC3     O 8875   1.049   1.846  14.896 -0.5974 -0.2157  0.0036
  595TMC3     H 8876   0.800   1.648  14.701  1.1144 -1.3974  0.2314
  595TMC3    H1 8877   0.865   1.845  15.081  2.5941 -3.7287  0.9850
  595TMC3    H2 8878   0.480   1.709  14.970  0.0316 -1.7446  2.3858
  595TMC3    C7 8879   0.605   1.906  15.093  0.3048  0.0489  0.0812
  595TMC3    C8 8880   0.551   1.632  14.721 -0.9094  0.8551  0.5118
  595TMC3    O1 8881   0.489   1.889  15.115  0.1642  0.4142 -0.2024
  595TMC3    O2 8882   0.598   1.617  14.613  0.3249  0.2367 -0.4267
  596MPD2     C 8883   4.028   4.454  16.826  0.1972  0.6207  0.2770
  596MPD2    C1 8884   3.975   4.556  16.753 -0.1406 -0.6310 -0.0436
  596MPD2    C2 8885   3.964   4.551  16.616 -0.3569  0.3031 -0.2013
  596MPD2    C3 8886   3.988   4.433  16.543  0.6342 -0.2141  0.6910
  596MPD2    C4 8887   4.018   4.320  16.614 -0.4384 -0.1055  0.6740
  596MPD2    C5 8888   4.034   4.337  16.750 -0.5699 -0.0742  0.1814
  596MPD2     H 8889   3.932   4.638  16.560  0.1425  0.8607  0.3832
  596MPD2    H1 8890   4.032   4.224  16.567  0.4897 -0.2085  1.1489
  596MPD2    H2 8891   4.056   4.451  16.931 -0.9884 -0.7761  0.5408
  596MPD2    H3 8892   4.061   4.250  16.809 -0.6821  1.3638  2.3267
  596MPD2     N 8893   3.984   4.423  16.407 -0.3214  0.2384 -0.7088
  596MPD2    H5 8894   4.008   4.330  16.374 -1.2888  0.7112 -2.7421
  596MPD2    N1 8895   3.938   4.675  16.816 -0.6746  0.2117 -0.4702
  596MPD2    H7 8896   3.909   0.010  16.753  1.1249  1.1952 -0.1600
  597TMC3    C1 8897   3.861   0.076  16.990 -0.2173 -0.6657 -0.2298
  597TMC3    C2 8898   3.860   0.180  16.898 -0.3151 -0.3207  0.3413
  597TMC3    C3 8899   3.792   0.290  16.927  0.2275 -0.7419 -0.4036
  597TMC3    C4 8900   3.803   0.087  17.118  0.4671  0.1880 -0.6346
  597TMC3    C5 8901   3.739   0.206  17.134 -0.6630  0.0072 -0.0262
  597TMC3    C6 8902   3.725   0.309  17.047 -0.6924  0.0849 -0.5008
  597TMC3     C 8903   3.919   4.683  16.954  0.0564  0.6208  0.0861
  597TMC3     O 8904   3.912   4.600  17.044  0.1483 -0.8039 -0.6342
  597TMC3     H 8905   3.914   0.191  16.805 -0.2464 -0.2214  0.3936
  597TMC3    H1 8906   3.812   0.009  17.192  0.0974 -0.8013 -1.6333
  597TMC3    H2 8907   3.667   0.399  17.062  2.5154  1.7816  1.6961
  597TMC3    C7 8908   3.684   0.223  17.268  0.9275 -0.3632 -0.5067
  597TMC3    C8 8909   3.779   0.386  16.828 -0.2394 -0.2421 -0.3691
  597TMC3    O1 8910   3.683   0.125  17.347 -0.7756  0.3576  0.5731
  597TMC3    O2 8911   3.757   0.354  16.708  0.2735 -0.0992  0.5522
  598TMC3    C1 8912   3.066   1.491  15.562  0.5849  0.1692 -0.2034
  598TMC3    C2 8913   3.042   1.369  15.617 -0.6523 -0.6470 -0.4364
  598TMC3    C3 8914   2.923   1.304  15.595  0.1862  0.6211 -0.2096
  598TMC3    C4 8915   2.970   1.560  15.494 -0.5492  0.2238  0.4322
  598TMC3    C5 8916   2.850   1.493  15.475 -0.0359  0.4482  0.3645
  598TMC3    C6 8917   2.825   1.363  15.513  0.2525  0.7155  0.0955
  598TMC3     C 8918   3.211   1.525  15.557  0.0240 -0.2720  0.3062
  598TMC3     O 8919   3.289   1.452  15.607  0.0053 -0.5175  0.5431
  598TMC3     H 8920   3.111   1.322  15.686 -0.0888  2.1570  0.9203
  598TMC3    H1 8921   2.984   1.665  15.473  3.4542 -0.5535 -0.6884
  598TMC3    H2 8922   2.729   1.314  15.498  1.1036 -0.5501 -1.2046
  598TMC3    C7 8923   2.724   1.572  15.464 -0.5864  0.5652 -0.2047
  598TMC3    C8 8924   2.896   1.174  15.640  0.1071  0.2302 -0.4427
  598TMC3    O1 8925   2.619   1.511  15.484 -0.1066  0.0996 -0.0779
  598TMC3    O2 8926   2.981   1.135  15.717  0.1665 -0.0130  1.2679
  599MPD2     C 8927   2.227   3.721  16.017  0.0426 -0.0474  0.0926
  599MPD2    C1 8928   2.202   3.598  16.082 -0.4194  0.6573  0.4010
  599MPD2    C2 8929   2.090   3.586  16.161  0.2697 -0.1030  0.0981
  599MPD2    C3 8930   2.006   3.693  16.184 -1.4901 -0.1348  0.0927
  599MPD2    C4 8931   2.039   3.820  16.134 -0.5371 -0.3708 -0.0820
  599MPD2    C5 8932   2.146   3.827  16.047 -0.2536 -0.6402  0.1820
  599MPD2     H 8933   2.076   3.492  16.214 -0.8095  1.5616  2.7278
  599MPD2    H1 8934   1.980   3.911  16.129  0.6683  0.3112 -1.8253
  599MPD2    H2 8935   2.295   3.734  15.934  0.6374  1.7925  0.8702
  599MPD2    H3 8936   2.162   3.920  15.994  1.1188 -1.3412 -0.6443
  599MPD2     N 8937   1.887   3.678  16.256  0.2007 -0.7550 -0.4441
  599MPD2    H5 8938   1.849   3.764  16.293  0.3931 -0.9197  0.1338
  599MPD2    N1 8939   2.285   3.490  16.066  0.1607  0.2746  0.3730
  599MPD2    H7 8940   2.380   3.502  16.034  0.3543 -1.4677  0.3162
  600TMC3    C1 8941   1.764   3.575  16.424  0.1493 -0.1154  0.6609
  600TMC3    C2 8942   1.672   3.473  16.446 -0.3387  0.3858  0.3551
  600TMC3    C3 8943   1.589   3.479  16.553  0.0714  0.3344 -0.1799
  600TMC3    C4 8944   1.782   3.669  16.521 -0.7944  0.0462 -0.2390
  600TMC3    C5 8945   1.708   3.649  16.640  0.4075 -0.4598  0.2682
  600TMC3    C6 8946   1.602   3.571  16.652  0.0317 -0.6018 -0.8873
  600TMC3     C 8947   1.846   3.561  16.308  1.2416  0.2119  0.1730
  600TMC3     O 8948   1.876   3.447  16.270  0.1653  0.4094 -0.2417
  600TMC3     H 8949   1.673   3.387  16.380  0.4967  0.9013 -0.2991
  600TMC3    H1 8950   1.865   3.736  16.504  0.9873 -1.9727  0.4964
  600TMC3    H2 8951   1.531   3.575  16.734  0.9770 -0.2897 -0.0971
  600TMC3    C7 8952   1.746   3.723  16.757 -1.1245 -0.0219  0.0453
  600TMC3    C8 8953   1.532   3.356  16.602  0.7838 -0.2691 -0.0208
  600TMC3    O1 8954   1.681   3.688  16.857  0.6641  0.3363 -0.4851
  600TMC3    O2 8955   1.526   3.338  16.724 -0.1178 -0.2121  0.0720
  601MPD2     C 8956   4.442   2.066   0.429 -0.0901  0.1818 -0.1632
  601MPD2    C1 8957   4.326   2.020   0.358  0.3614  0.3354  0.2358
  601MPD2    C2 8958   4.303   1.889   0.362  0.7337  0.7536 -0.2679
  601MPD2    C3 8959   4.398   1.801   0.412  0.1663  0.0779  0.4059
  601MPD2    C4 8960   4.516   1.845   0.457  0.3134  0.2192  0.1008
  601MPD2    C5 8961   4.535   1.977   0.473  0.6166  0.2917  0.0019
  601MPD2     H 8962   4.210   1.844   0.328  0.9955  0.1781 -0.2330
  601MPD2    H1 8963   4.591   1.774   0.492  0.4606 -0.5719 -1.7938
  601MPD2    H2 8964   4.474   2.168   0.444  1.2532 -0.5091  1.7620
  601MPD2    H3 8965   4.622   2.024   0.518  1.1751  0.2307 -1.0043
  601MPD2     N 8966   4.380   1.663   0.420  0.2617 -0.2514 -0.1680
  601MPD2    H5 8967   4.460   1.607   0.445 -0.1738 -1.0900 -0.6661
  601MPD2    N1 8968   4.215   2.104   0.317  0.0273 -0.6064 -0.0400
  601MPD2    H7 8969   4.127   2.061   0.291  0.1463 -0.4149 -0.7618
  602TMC3    C1 8970   4.068   2.293   0.321 -0.9489 -0.1080  0.4935
  602TMC3    C2 8971   4.059   2.418   0.256 -0.2894  0.1174  0.4907
  602TMC3    C3 8972   3.968   2.437   0.154 -0.5173  0.4494  0.2364
  602TMC3    C4 8973   3.975   2.195   0.298  0.2479  0.3984 -0.1712
  602TMC3    C5 8974   3.885   2.223   0.196 -0.9435  1.4569  0.7747
  602TMC3    C6 8975   3.879   2.338   0.127  0.2738 -0.1242  0.1602
  602TMC3     C 8976   4.206   2.240   0.333 -0.1292  0.5267  0.2093
  602TMC3     O 8977   4.290   2.322   0.367  0.3764 -0.0675  0.5920
  602TMC3     H 8978   4.131   2.496   0.278  1.8892 -1.5737 -0.6991
  602TMC3    H1 8979   3.956   2.103   0.351  0.4263  0.3155 -0.2529
  602TMC3    H2 8980   3.799   2.349   0.055  0.7474 -1.6417 -0.5873
  602TMC3    C7 8981   3.812   2.114   0.138  0.5359  0.0421 -0.3377
  602TMC3    C8 8982   3.976   2.548   0.059  0.1698  0.1891 -0.1271
  602TMC3    O1 8983   3.733   2.041   0.203  0.4727 -0.4416  0.2036
  602TMC3    O2 8984   3.969   2.662   0.096 -0.4120  0.3395  0.2011
  603TMC3    C1 8985   2.859   1.061  10.987 -0.3710  0.2665  0.8799
  603TMC3    C2 8986   2.810   1.100  11.107  0.1293 -0.3978  0.2931
  603TMC3    C3 8987   2.692   1.172  11.100  0.0842  0.2472 -0.5318
  603TMC3    C4 8988   2.795   1.075  10.865  0.2647  1.1006  0.1330
  603TMC3    C5 8989   2.682   1.148  10.871 -0.3245  0.2857 -0.2021
  603TMC3    C6 8990   2.634   1.211  10.985 -0.0052 -0.2755  0.2362
  603TMC3     C 8991   2.955   0.950  10.992 -0.7227 -0.2727  0.2573
  603TMC3     O 8992   3.004   0.918  10.885  0.2724  0.1607  0.3509
  603TMC3     H 8993   2.850   1.070  11.203 -1.6141 -0.1380  1.1128
  603TMC3    H1 8994   2.831   1.022  10.777 -1.6277  0.6645 -0.3726
  603TMC3    H2 8995   2.526   1.221  10.979 -0.0274  0.2387  1.4116
  603TMC3    C7 8996   2.636   1.184  10.749  0.3216  0.9125  0.2826
  603TMC3    C8 8997   2.637   1.212  11.228  0.0021  0.0154 -0.2753
  603TMC3    O1 8998   2.666   1.112  10.652 -0.7578  0.2909  0.3300
  603TMC3    O2 8999   2.710   1.181  11.322 -0.9770 -0.2224  0.1173
  604MPD2     C 9000   2.974   0.643  16.118 -0.4278 -0.3044  0.3638
  604MPD2    C1 9001   2.977   0.781  16.105  0.3041  0.5389  0.6158
  604MPD2    C2 9002   3.031   0.833  15.986  0.3266  0.1396  0.0989
  604MPD2    C3 9003   3.090   0.752  15.887 -0.1687 -0.0336  0.2560
  604MPD2    C4 9004   3.079   0.621  15.900 -0.4466 -0.2373 -0.9510
  604MPD2    C5 9005   3.020   0.567  16.015  0.5133 -0.5396 -0.6870
  604MPD2     H 9006   3.040   0.940  15.973  2.0822 -0.1404 -0.9457
  604MPD2    H1 9007   3.131   0.553  15.834 -0.3193  0.3351 -1.4342
  604MPD2    H2 9008   2.916   0.599  16.198 -1.3862 -1.4338 -0.9437
  604MPD2    H3 9009   3.004   0.460  16.022 -0.9190 -0.4054 -1.8204
  604MPD2     N 9010   3.157   0.814  15.780 -0.5405  0.0796 -0.6474
  604MPD2    H5 9011   3.149   0.915  15.777  1.5331  0.1870 -2.1741
  604MPD2    N1 9012   2.907   0.868  16.200  0.0319  0.2892 -0.5118
  604MPD2    H7 9013   2.896   0.966  16.175 -1.3961  0.5580  1.1891
  605TMC3    C1 9014   2.836   0.943  16.416  0.7900 -0.2275 -0.0522
  605TMC3    C2 9015   2.890   0.957  16.539  0.0081  0.0028  0.0890
  605TMC3    C3 9016   2.846   1.061  16.620 -1.0053 -0.0775 -0.1335
  605TMC3    C4 9017   2.720   1.007  16.380 -0.8871  0.0427  0.0374
  605TMC3    C5 9018   2.679   1.111  16.460  0.1432 -0.4730 -0.5094
  605TMC3    C6 9019   2.731   1.133  16.586  0.6985 -0.6493 -0.1076
  605TMC3     C 9020   2.875   0.831  16.331 -0.0843 -0.0695 -0.7247
  605TMC3     O 9021   2.893   0.720  16.377  0.2501 -0.3241  0.4035
  605TMC3     H 9022   2.973   0.889  16.554  0.9168  1.0361 -0.1772
  605TMC3    H1 9023   2.670   0.993  16.285 -2.7742  1.3887  0.8395
  605TMC3    H2 9024   2.694   1.214  16.647 -2.2363 -0.5900 -1.9713
  605TMC3    C7 9025   2.564   1.192  16.415 -0.8851 -0.3911  0.3898
  605TMC3    C8 9026   2.953   1.132  16.685  0.0675 -1.1318  0.3561
  605TMC3    O1 9027   2.515   1.261  16.503  0.3058 -0.5943 -0.4098
  605TMC3    O2 9028   2.942   1.254  16.682  0.0419 -0.2252 -0.1082
  606TMC3    C1 9029   4.183   0.075  17.244 -0.0137 -0.0768  0.1439
  606TMC3    C2 9030   4.152   0.076  17.380  0.5376  0.9833  0.4885
  606TMC3    C3 9031   4.154   4.696  17.445  0.0643  0.1654 -0.0039
  606TMC3    C4 9032   4.194   4.700  17.174  0.3454 -0.1312 -0.0515
  606TMC3    C5 9033   4.195   4.583  17.243  0.7827  0.7292  0.0710
  606TMC3    C6 9034   4.185   4.577  17.379  0.5260  0.3289 -0.4901
  606TMC3     C 9035   4.173   0.199  17.166 -0.3561  0.0745  0.5759
  606TMC3     O 9036   4.147   0.188  17.048  0.0153  0.4926 -0.1200
  606TMC3     H 9037   4.149   0.170  17.434  0.4866  0.2168  1.7911
  606TMC3    H1 9038   4.211   4.702  17.067  0.2571  0.8600 -0.0447
  606TMC3    H2 9039   4.205   4.493  17.445  1.5396 -0.3041 -1.6141
  606TMC3    C7 9040   4.188   4.456  17.167 -0.5565 -0.1030 -0.6242
  606TMC3    C8 9041   4.167   4.687  17.588  0.1120 -0.0989 -1.1168
  606TMC3    O1 9042   4.246   4.447  17.057  0.7858 -0.4711 -0.0270
  606TMC3    O2 9043   4.237   4.599  17.630 -0.1475  0.5023 -0.1499
  607MPD2     C 9044   1.020   1.864  12.209  0.9111 -0.0712  0.0366
  607MPD2    C1 9045   1.074   1.899  12.332 -0.1666  0.4117 -0.0556
  607MPD2    C2 9046   1.142   1.798  12.402  0.2577  0.3524  0.3025
  607MPD2    C3 9047   1.157   1.673  12.351  0.6131 -0.3719 -0.6087
  607MPD2    C4 9048   1.096   1.638  12.236 -0.7591  0.0765 -0.1505
  607MPD2    C5 9049   1.030   1.734  12.157 -0.1586 -0.1943  0.3560
  607MPD2     H 9050   1.186   1.813  12.500  1.6874  0.1143 -0.3130
  607MPD2    H1 9051   1.100   1.536  12.199 -0.5278 -0.6142  1.8058
  607MPD2    H2 9052   0.973   1.939  12.147  2.2405  0.9601  0.2895
  607MPD2    H3 9053   0.972   1.708  12.070 -1.0165  2.9066 -0.0002
  607MPD2     N 9054   1.232   1.579  12.422  0.7458 -0.0063  0.1540
  607MPD2    H5 9055   1.269   1.607  12.513  0.9484 -0.2202  0.1387
  607MPD2    N1 9056   1.080   2.023  12.394  0.1370 -0.5518 -0.0331
  607MPD2    H7 9057   1.106   2.020  12.492 -0.5122 -0.4695  0.1426
  608TMC3    C1 9058   1.128   2.252  12.390  0.6923 -0.3754 -0.2445
  608TMC3    C2 9059   1.181   2.227  12.517 -0.2646  0.2009  0.4886
  608TMC3    C3 9060   1.262   2.325  12.574  0.1774  0.7764  0.2586
  608TMC3    C4 9061   1.157   2.364  12.323  0.3442 -0.4086 -0.6227
  608TMC3    C5 9062   1.257   2.449  12.372 -0.2116  0.0917  0.8250
  608TMC3    C6 9063   1.312   2.429  12.502  0.0007 -0.3003  0.0993
  608TMC3     C 9064   1.069   2.138  12.324 -0.9054 -0.0298  0.1556
  608TMC3     O 9065   1.021   2.155  12.212  0.0144 -0.5290 -1.1064
  608TMC3     H 9066   1.135   2.157  12.586  1.5617 -2.5793 -1.0866
  608TMC3    H1 9067   1.118   2.383  12.223  1.0558  1.2856 -0.5679
  608TMC3    H2 9068   1.395   2.482  12.548  0.2933 -0.5842 -0.1038
  608TMC3    C7 9069   1.330   2.536  12.280  0.1837  0.4256 -0.1958
  608TMC3    C8 9070   1.331   2.286  12.694 -0.1106 -0.2432 -0.0512
  608TMC3    O1 9071   1.314   2.508  12.158 -0.0560  1.0018  0.1879
  608TMC3    O2 9072   1.390   2.372  12.758  0.5739  0.6296  0.3295
  609TMC3    C1 9073   0.220   1.353   9.109  0.9155 -0.2688 -0.5820
  609TMC3    C2 9074   0.135   1.301   9.020  0.1915 -0.4118  0.0727
  609TMC3    C3 9075   0.179   1.208   8.935  0.5008  0.4826 -0.4352
  609TMC3    C4 9076   0.348   1.317   9.118 -0.4806 -0.1497  0.4809
  609TMC3    C5 9077   0.395   1.223   9.035  0.8840 -0.3274  0.4491
  609TMC3    C6 9078   0.313   1.163   8.941  0.0425  0.2353 -0.3903
  609TMC3     C 9079   0.160   1.375   9.249  0.0186  0.3613 -0.0558
  609TMC3     O 9080   0.037   1.366   9.256 -0.5737 -0.7461 -0.2575
  609TMC3     H 9081   0.042   1.357   9.009  0.7238  0.0461 -2.0248
  609TMC3    H1 9082   0.411   1.347   9.201  2.4057 -1.5065 -1.1839
  609TMC3    H2 9083   0.346   1.092   8.867 -0.0394 -0.9035  0.6697
  609TMC3    C7 9084   0.503   1.145   9.082 -0.0865  0.1931 -0.4003
  609TMC3    C8 9085   0.087   1.129   8.861  1.0536 -0.1287  0.0382
  609TMC3    O1 9086   0.558   1.185   9.186  0.2549 -0.0353  0.0427
  609TMC3    O2 9087   0.121   1.019   8.830  0.0809 -0.1496  0.5198
  610TMC3    C1 9088   2.232   1.855  12.162  0.7317 -0.2379  0.5309
  610TMC3    C2 9089   2.099   1.838  12.155 -0.2165  0.0287  0.0316
  610TMC3    C3 9090   2.026   1.883  12.260  0.2946 -0.5108  0.1274
  610TMC3    C4 9091   2.298   1.913  12.262  0.1739  0.0443 -0.8569
  610TMC3    C5 9092   2.220   1.972  12.368 -0.1503 -0.3711  0.1200
  610TMC3    C6 9093   2.082   1.945  12.372  0.6112 -0.0836  0.1313
  610TMC3     C 9094   2.308   1.770  12.082 -0.0102  0.2631  0.2984
  610TMC3     O 9095   2.282   1.771  11.965 -0.1427  0.4116  0.0963
  610TMC3     H 9096   2.051   1.775  12.081 -0.0267 -0.5890  0.4437
  610TMC3    H1 9097   2.406   1.916  12.259  0.2217  0.3661  1.2194
  610TMC3    H2 9098   2.009   1.973  12.447  0.0538  1.9517 -1.1556
  610TMC3    C7 9099   2.296   1.990  12.497 -0.4549  0.9683  0.5816
  610TMC3    C8 9100   1.879   1.882  12.254 -0.9063  0.4423 -0.5338
  610TMC3    O1 9101   2.412   1.960  12.494 -0.0967  0.1104 -0.0614
  610TMC3    O2 9102   1.816   1.976  12.296 -0.3713  0.6963  0.1437
  611MPD2     C 9103   1.380   2.113  10.637  0.0933 -0.4017 -0.8271
  611MPD2    C1 9104   1.412   1.979  10.638 -0.1314 -0.1902 -1.0443
  611MPD2    C2 9105   1.547   1.949  10.634  0.2880 -0.1926  0.0010
  611MPD2    C3 9106   1.643   2.055  10.638  0.5346  0.0944 -0.3181
  611MPD2    C4 9107   1.600   2.190  10.641 -0.2169 -0.0519  0.2251
  611MPD2    C5 9108   1.471   2.214  10.632 -0.0462  0.4069  0.7286
  611MPD2     H 9109   1.575   1.845  10.629  0.0554 -0.1665 -2.1016
  611MPD2    H1 9110   1.655   2.283  10.642 -0.7018  0.2323  0.4210
  611MPD2    H2 9111   1.275   2.138  10.639  0.4611  0.9181  1.7217
  611MPD2    H3 9112   1.448   2.320  10.639  0.3928  0.4940  0.8102
  611MPD2     N 9113   1.780   2.037  10.654 -0.0513 -0.3436 -0.2657
  611MPD2    H5 9114   1.835   2.115  10.689 -0.3337  0.1937 -1.0009
  611MPD2    N1 9115   1.307   1.886  10.662 -0.2658 -0.0159 -0.3384
  611MPD2    H7 9116   1.212   1.922  10.668 -0.7151 -1.1623 -0.5668
  612TMC3    C1 9117   1.992   1.936  10.618  0.0411  0.5107 -0.0335
  612TMC3    C2 9118   2.062   1.849  10.542 -0.2046 -0.9230 -0.1170
  612TMC3    C3 9119   2.198   1.861  10.554 -0.3023 -0.1100  0.1969
  612TMC3    C4 9120   2.050   2.025  10.706  0.8408  0.2646 -1.0058
  612TMC3    C5 9121   2.187   2.032  10.712 -0.0976  0.9136  0.9789
  612TMC3    C6 9122   2.266   1.955  10.638  0.6696  0.3816 -0.2081
  612TMC3     C 9123   1.844   1.921  10.612  0.2511  0.2806  0.6572
  612TMC3     O 9124   1.802   1.822  10.557  0.1327  0.1036 -0.1278
  612TMC3     H 9125   2.023   1.774  10.474 -0.9761 -1.8569  1.3740
  612TMC3    H1 9126   1.994   2.088  10.774 -1.1979 -2.3381 -0.3122
  612TMC3    H2 9127   2.373   1.967  10.650  0.6545  0.1767  0.1449
  612TMC3    C7 9128   2.255   2.077  10.834  0.7248  0.0751 -0.6076
  612TMC3    C8 9129   2.280   1.764  10.478 -0.0406 -0.3468 -0.0588
  612TMC3    O1 9130   2.361   2.023  10.858 -0.0771  0.1084  0.0892
  612TMC3    O2 9131   2.244   1.749  10.363 -0.1971 -0.8907 -0.2699
  613MPD2     C 9132   0.376   4.069  16.506  0.0076  0.2960  0.6145
  613MPD2    C1 9133   0.413   4.011  16.389  0.5619 -0.2391  0.2780
  613MPD2    C2 9134   0.314   3.984  16.298 -0.4515  0.2449 -0.1293
  613MPD2    C3 9135   0.179   4.012  16.316  0.2675  0.6219 -0.5571
  613MPD2    C4 9136   0.152   4.090  16.433 -0.5251 -0.0451 -0.0917
  613MPD2    C5 9137   0.247   4.115  16.520 -0.3923  0.0186  0.1698
  613MPD2     H 9138   0.338   3.941  16.201  0.3483 -0.0150  0.1798
  613MPD2    H1 9139   0.052   4.126  16.453 -1.0575  0.2434 -3.2830
  613MPD2    H2 9140   0.444   4.101  16.584  0.7312 -0.8632  0.4468
  613MPD2    H3 9141   0.233   4.183  16.604  1.3381 -0.8202  1.1498
  613MPD2     N 9142   0.073   3.983  16.228 -0.1505 -0.7157  0.3351
  613MPD2    H5 9143   4.721   4.023  16.247 -0.5323 -1.8793  0.9591
  613MPD2    N1 9144   0.554   4.019  16.360  0.0775  0.1215 -0.6319
  613MPD2    H7 9145   0.620   4.055  16.428 -0.2257 -0.9545  0.2200
  614TMC3    C1 9146   0.744   4.018  16.198  0.5137 -0.2882 -0.8739
  614TMC3    C2 9147   0.796   3.948  16.092  0.0882  0.6233  0.1221
  614TMC3    C3 9148   0.850   4.016  15.989  0.0639  0.3852 -0.7555
  614TMC3    C4 9149   0.778   4.146  16.216 -0.3736 -0.6051  0.7158
  614TMC3    C5 9150   0.842   4.205  16.113  0.6075 -0.0399  0.4637
  614TMC3    C6 9151   0.880   4.145  15.996  0.4151  0.0247  0.4921
  614TMC3     C 9152   0.605   3.976  16.235 -0.6991  0.6529  0.6575
  614TMC3     O 9153   0.547   3.917  16.143 -0.0430 -0.2961 -0.6593
  614TMC3     H 9154   0.762   3.845  16.080  0.0847  0.7656 -1.0518
  614TMC3    H1 9155   0.721   4.212  16.280 -2.8141 -0.2392 -1.8203
  614TMC3    H2 9156   0.919   4.203  15.913  1.2088 -1.3650 -0.1018
  614TMC3    C7 9157   0.840   4.351  16.117 -0.1410  0.0062 -0.3545
  614TMC3    C8 9158   0.805   3.961  15.858  0.1528  0.1417 -0.5764
  614TMC3    O1 9159   0.881   4.400  16.222 -0.0005 -0.0008  0.1285
  614TMC3    O2 9160   0.882   3.927  15.767 -0.2715  0.1748  0.2347
  615MPD2     C 9161   0.146   0.857  15.879 -0.2013  0.8259  0.2676
  615MPD2    C1 9162   0.150   0.992  15.916 -0.0256 -0.6811 -0.6670
  615MPD2    C2 9163   0.063   1.081  15.848  0.0857  0.7125 -0.4430
  615MPD2    C3 9164   4.710   1.037  15.761 -0.3608 -0.1677 -0.2039
  615MPD2    C4 9165   4.710   0.900  15.721 -0.4237 -0.5776  0.1488
  615MPD2    C5 9166   0.060   0.813  15.783  0.1986 -0.2753 -1.0388
  615MPD2     H 9167   0.064   1.186  15.873 -0.3925  0.5681  0.1705
  615MPD2    H1 9168   4.639   0.858  15.651 -0.7021  1.8704 -1.0394
  615MPD2    H2 9169   0.215   0.787  15.925 -0.5651  1.7117  2.1587
  615MPD2    H3 9170   0.067   0.708  15.756 -1.3110 -0.0503 -2.3621
  615MPD2     N 9171   4.615   1.128  15.715 -0.3106  0.3499  0.0741
  615MPD2    H5 9172   4.636   1.227  15.721  1.5995 -0.1448  1.6427
  615MPD2    N1 9173   0.219   1.047  16.027 -0.3969  0.4368  0.4063
  615MPD2    H7 9174   0.200   1.143  16.053  2.3537  1.0819  0.0759
  616TMC3    C1 9175   0.333   1.053  16.236 -0.0169 -0.2848 -0.9398
  616TMC3    C2 9176   0.372   1.183  16.234 -0.5053 -1.0496 -0.3880
  616TMC3    C3 9177   0.400   1.236  16.352  0.5470 -0.0391  0.1120
  616TMC3    C4 9178   0.297   0.990  16.350 -0.0519  0.1262  0.3675
  616TMC3    C5 9179   0.328   1.048  16.472 -0.5391  0.1817 -0.2009
  616TMC3    C6 9180   0.378   1.179  16.470  0.5917  0.0361  0.1565
  616TMC3     C 9181   0.289   0.971  16.122  0.4930 -0.2980 -0.7529
  616TMC3     O 9182   0.309   0.851  16.126  0.0809  0.4543 -0.0742
  616TMC3     H 9183   0.412   1.218  16.140  0.2387  0.0785  0.3565
  616TMC3    H1 9184   0.285   0.882  16.349  0.8488  0.0123  1.1171
  616TMC3    H2 9185   0.377   1.236  16.562 -0.3318 -1.2878  0.9725
  616TMC3    C7 9186   0.230   1.021  16.578  0.8434 -0.8589 -0.5377
  616TMC3    C8 9187   0.406   1.383  16.355 -0.5476 -0.5588 -0.8696
  616TMC3    O1 9188   0.179   1.115  16.635 -0.4645 -0.3501 -0.1805
  616TMC3    O2 9189   0.368   1.435  16.252 -0.3715 -0.0722 -0.4250
  617MPD2     C 9190   3.074   3.977  13.343  0.6479 -0.3449  1.4259
  617MPD2    C1 9191   3.068   3.963  13.477  0.5675 -0.0689  0.5465
  617MPD2    C2 9192   2.987   3.864  13.530  0.2840 -1.0291 -0.2729
  617MPD2    C3 9193   2.893   3.801  13.449  0.0381 -0.2238 -0.0575
  617MPD2    C4 9194   2.891   3.829  13.314 -0.3181 -0.6071  0.5298
  617MPD2    C5 9195   2.984   3.916  13.261 -0.4983  0.5012  0.2645
  617MPD2     H 9196   2.999   3.840  13.635  1.5189  2.2207  0.3363
  617MPD2    H1 9197   2.807   3.797  13.254 -0.3568 -2.7502  1.6908
  617MPD2    H2 9198   3.147   4.041  13.294 -3.2817  3.0465 -0.0437
  617MPD2    H3 9199   2.987   3.936  13.155  0.2504  1.4454  0.4693
  617MPD2     N 9200   2.785   3.725  13.502 -0.0749 -0.3760  0.5381
  617MPD2    H5 9201   2.713   3.706  13.433  1.2619  0.4994 -1.0853
  617MPD2    N1 9202   3.164   4.027  13.561 -0.1325 -0.5269  0.0745
  617MPD2    H7 9203   3.239   4.078  13.516 -1.2486  0.4594 -0.6542
  618TMC3    C1 9204   3.306   4.076  13.735  0.5542  0.3536 -0.2178
  618TMC3    C2 9205   3.398   3.987  13.780  0.7289  0.5214  0.3964
  618TMC3    C3 9206   3.533   4.024  13.760  0.3352  0.7095 -0.5000
  618TMC3    C4 9207   3.334   4.203  13.688 -0.0283 -0.6189 -0.8295
  618TMC3    C5 9208   3.468   4.233  13.674  0.2804  0.7491 -0.3364
  618TMC3    C6 9209   3.569   4.150  13.720  0.3326 -0.0855 -0.6283
  618TMC3     C 9210   3.173   4.022  13.702  0.0916 -0.2006  0.2285
  618TMC3     O 9211   3.131   3.931  13.774 -0.0648  0.4038 -0.1812
  618TMC3     H 9212   3.355   3.897  13.823  1.3853  0.3361  0.6717
  618TMC3    H1 9213   3.257   4.264  13.642 -1.4151  0.2214  2.5875
  618TMC3    H2 9214   3.672   4.179  13.705  0.6007 -1.5149 -1.5840
  618TMC3    C7 9215   3.491   4.362  13.624  0.2847 -0.8499  0.3111
  618TMC3    C8 9216   3.637   3.923  13.752 -0.2771 -0.2386 -0.5990
  618TMC3    O1 9217   3.428   4.454  13.670  0.1521  0.0211  0.1169
  618TMC3    O2 9218   3.750   3.964  13.774  0.1183  0.3324 -0.0357
  619MPD2     C 9219   4.109   0.500  14.474 -0.0741 -0.3147  0.9790
  619MPD2    C1 9220   4.063   0.597  14.381 -0.2089  0.2107 -0.4197
  619MPD2    C2 9221   3.938   0.590  14.339 -0.4396 -0.5177  0.5839
  619MPD2    C3 9222   3.860   0.478  14.375  0.5251 -0.5630 -0.2859
  619MPD2    C4 9223   3.903   0.390  14.471 -0.1274  0.5383  0.2348
  619MPD2    C5 9224   4.026   0.401  14.521 -0.6530  0.2215 -0.4351
  619MPD2     H 9225   3.900   0.659  14.264  0.3527 -0.0850  0.5781
  619MPD2    H1 9226   3.835   0.315  14.509  2.0163 -0.9384  1.1571
  619MPD2    H2 9227   4.215   0.494  14.492  0.3763 -0.4054 -1.6833
  619MPD2    H3 9228   4.064   0.327  14.591 -0.9263 -0.9180 -1.4759
  619MPD2     N 9229   3.736   0.460  14.303  0.3693 -0.4262  0.0533
  619MPD2    H5 9230   3.716   0.528  14.231 -0.1674 -0.9866 -0.3240
  619MPD2    N1 9231   4.147   0.686  14.309 -0.2106 -0.4169 -0.2521
  619MPD2    H7 9232   4.111   0.737  14.229 -1.5791 -0.4362  0.3511
  620TMC3    C1 9233   4.356   0.775  14.230 -0.0763 -0.7067  1.3339
  620TMC3    C2 9234   4.324   0.741  14.098  0.2886 -0.4386 -0.3745
  620TMC3    C3 9235   4.369   0.825  13.993  0.0904  0.8321 -0.8218
  620TMC3    C4 9236   4.425   0.891  14.256  0.5658 -0.5000 -0.2483
  620TMC3    C5 9237   4.457   0.974  14.153 -0.0398 -0.7634  0.2853
  620TMC3    C6 9238   4.434   0.939  14.022  0.1241 -1.2253 -0.5506
  620TMC3     C 9239   4.279   0.717  14.341 -0.3673 -0.0056 -0.1929
  620TMC3     O 9240   4.343   0.707  14.449  0.4041 -0.2376 -0.6022
  620TMC3     H 9241   4.276   0.648  14.072  1.8098 -1.7885  1.6941
  620TMC3    H1 9242   4.423   0.916  14.362  1.2033 -0.7558 -0.1765
  620TMC3    H2 9243   4.474   1.001  13.942  1.9586 -1.5729  0.0960
  620TMC3    C7 9244   4.558   1.069  14.193 -0.2138 -1.2720  0.1565
  620TMC3    C8 9245   4.250   0.858  13.914 -0.0971 -0.1800  0.7951
  620TMC3    O1 9246   4.627   1.027  14.286  0.5799  0.0911  0.7454
  620TMC3    O2 9247   4.205   0.970  13.923  0.0637 -0.5155  0.3498
  621MPD2     C 9248   4.446   0.175  10.034  0.5551  0.5087  0.5834
  621MPD2    C1 9249   4.514   0.189  10.158 -0.3991  0.0537 -0.3926
  621MPD2    C2 9250   4.600   0.305  10.173  1.3539  0.4022 -0.5861
  621MPD2    C3 9251   4.617   0.392  10.071  0.3532  0.8973 -0.0178
  621MPD2    C4 9252   4.555   0.372   9.951 -0.1090  0.7756  0.1665
  621MPD2    C5 9253   4.469   0.266   9.937  0.4044 -0.5153  0.2786
  621MPD2     H 9254   4.662   0.310  10.262  0.5633 -2.2018  0.0889
  621MPD2    H1 9255   4.575   0.436   9.866  0.3628  0.0111 -0.3012
  621MPD2    H2 9256   4.378   0.096  10.005  0.9035  1.8042 -3.6559
  621MPD2    H3 9257   4.417   0.257   9.842  1.5505 -0.8860 -0.3174
  621MPD2     N 9258   4.713   0.494  10.099  0.1792  0.9836 -0.2568
  621MPD2    H5 9259   0.018   0.484  10.190  0.3005 -1.5089 -0.5809
  621MPD2    N1 9260   4.503   0.098  10.268  0.8022 -0.1717  0.4299
  621MPD2    H7 9261   4.543   0.135  10.353 -0.6549  1.2165  0.5120
  622TMC3    C1 9262   4.389   4.676  10.377 -1.0110  0.0268 -0.0881
  622TMC3    C2 9263   4.349   0.027  10.482 -0.2946 -0.1514 -0.4275
  622TMC3    C3 9264   4.249   0.000  10.567  0.1652  0.4235 -0.3466
  622TMC3    C4 9265   4.323   4.563  10.365  0.5227 -0.3420  0.5415
  622TMC3    C5 9266   4.212   4.543  10.440 -0.0962  0.7828  0.1270
  622TMC3    C6 9267   4.176   4.622  10.548 -0.0936  0.0180 -0.5656
  622TMC3     C 9268   4.436   4.722  10.255 -0.9256 -0.2356  0.4878
  622TMC3     O 9269   4.389   4.671  10.153  0.2074  0.8325 -0.3529
  622TMC3     H 9270   4.409   0.118  10.481  2.3730 -1.9584 -2.8783
  622TMC3    H1 9271   4.363   4.491  10.294 -1.4119 -2.4877  1.6312
  622TMC3    H2 9272   4.095   4.585  10.611  0.4845 -0.3041 -0.0076
  622TMC3    C7 9273   4.130   4.425  10.419  0.3490 -0.1967  0.1698
  622TMC3    C8 9274   4.175   0.127  10.584 -0.7596 -0.0499  0.0118
  622TMC3    O1 9275   4.019   4.417  10.470 -0.3471 -0.2002  0.1018
  622TMC3    O2 9276   4.200   0.189  10.687  0.2107 -0.0549 -0.0375
  623MPD2     C 9277   3.215   1.721  15.880  0.3665 -0.3873  0.0072
  623MPD2    C1 9278   3.154   1.654  15.989 -0.1596 -0.3820 -0.2942
  623MPD2    C2 9279   3.225   1.635  16.104  0.8297 -0.1855 -0.9312
  623MPD2    C3 9280   3.348   1.697  16.117  0.2205 -0.0291  1.1529
  623MPD2    C4 9281   3.410   1.752  16.003  0.1839  0.2483  0.2343
  623MPD2    C5 9282   3.343   1.764  15.887  0.3647  0.5295  0.5384
  623MPD2     H 9283   3.171   1.588  16.185  1.3004  1.1573  0.1678
  623MPD2    H1 9284   3.505   1.803  16.011  0.5303 -0.6930  2.1973
  623MPD2    H2 9285   3.163   1.731  15.785 -0.5182  0.7799  0.6112
  623MPD2    H3 9286   3.380   1.815  15.799 -1.8190  0.3905 -0.4613
  623MPD2     N 9287   3.413   1.681  16.239 -0.2005 -0.8889  0.1786
  623MPD2    H5 9288   3.363   1.626  16.308 -0.9006 -0.5547 -0.0689
  623MPD2    N1 9289   3.025   1.594  15.986  0.7360 -0.5280 -0.3146
  623MPD2    H7 9290   2.997   1.549  16.073 -1.6129  0.6315 -0.4775
  624TMC3    C1 9291   3.732   1.599  16.535  0.5241  0.1716 -0.3175
  624TMC3    C2 9292   3.642   1.516  16.595  0.8071  0.3304  0.1556
  624TMC3    C3 9293   3.512   1.528  16.563  0.0628  0.8192  1.2633
  624TMC3    C4 9294   3.699   1.678  16.432 -0.3154  0.2773  0.0673
  624TMC3    C5 9295   3.568   1.685  16.406 -0.3365  0.5748 -0.2823
  624TMC3    C6 9296   3.466   1.616  16.471  0.6220 -0.4007 -0.2617
  624TMC3     C 9297   3.866   1.548  16.537 -0.1338 -0.6761 -0.1168
  624TMC3     O 9298   3.958   1.628  16.556  0.3820 -0.4086  0.3186
  624TMC3     H 9299   3.674   1.446  16.671  0.9942 -1.4782 -1.6086
  624TMC3    H1 9300   3.769   1.744  16.381 -1.8677  0.7276 -1.4798
  624TMC3    H2 9301   3.360   1.638  16.467  0.7614  0.3044 -0.0926
  624TMC3    C7 9302   3.540   1.720  16.267  0.5785 -0.2994  0.2105
  624TMC3    C8 9303   3.416   1.433  16.614 -0.9809 -0.0630 -0.2309
  624TMC3    O1 9304   3.630   1.767  16.195 -0.1476 -0.1132  0.1675
  624TMC3    O2 9305   3.300   1.474  16.604 -1.0478 -0.3782  0.0031
  625MPD2     C 9306   3.891   2.486   0.982 -0.4617 -0.2248 -0.3427
  625MPD2    C1 9307   3.907   2.600   0.906  0.9578 -0.6474  0.0768
  625MPD2    C2 9308   4.029   2.652   0.894 -0.0257  0.2394 -0.4066
  625MPD2    C3 9309   4.139   2.593   0.956 -0.0361  0.2803  0.4893
  625MPD2    C4 9310   4.122   2.471   1.026  0.3695  0.4678  0.0665
  625MPD2    C5 9311   3.997   2.420   1.039  0.4356  0.0331 -0.1351
  625MPD2     H 9312   4.047   2.725   0.816 -1.2785  1.2907  0.2824
  625MPD2    H1 9313   4.208   2.417   1.065 -1.4202 -0.6746  2.4792
  625MPD2    H2 9314   3.794   2.438   0.990 -0.0918 -0.6975  1.3087
  625MPD2    H3 9315   3.972   2.327   1.090 -1.2173  1.2749  1.3022
  625MPD2     N 9316   4.269   2.633   0.915  0.1518 -0.7001  0.1612
  625MPD2    H5 9317   4.256   2.708   0.847  0.4889 -1.4037 -0.6696
  625MPD2    N1 9318   3.784   2.649   0.842 -0.4696 -1.0820 -0.2617
  625MPD2    H7 9319   3.700   2.596   0.865 -0.5729 -0.4328  0.8515
  626TMC3    C1 9320   3.632   2.794   0.737  0.2633 -0.1859  0.2024
  626TMC3    C2 9321   3.600   2.868   0.628  1.0200  0.7512 -0.5463
  626TMC3    C3 9322   3.477   2.920   0.621  0.0950  0.3055  0.2013
  626TMC3    C4 9323   3.548   2.797   0.848 -0.5810 -0.4561 -0.0245
  626TMC3    C5 9324   3.425   2.863   0.844 -0.0413 -0.3067  0.2806
  626TMC3    C6 9325   3.387   2.925   0.727 -0.5489  0.3011  0.3935
  626TMC3     C 9326   3.770   2.753   0.752 -0.0211 -0.5923  0.1129
  626TMC3     O 9327   3.859   2.824   0.704  0.1249  0.0906 -0.0042
  626TMC3     H 9328   3.657   2.867   0.536  1.2067 -0.4179 -0.4246
  626TMC3    H1 9329   3.562   2.735   0.936  1.4728 -0.0342 -0.0497
  626TMC3    H2 9330   3.284   2.952   0.704  0.0618  3.0965  0.8874
  626TMC3    C7 9331   3.342   2.878   0.970  1.0425  0.1178  0.5600
  626TMC3    C8 9332   3.436   2.981   0.493  0.5033  0.4182 -0.6349
  626TMC3    O1 9333   3.358   2.807   1.067  0.1947  0.1081 -0.3329
  626TMC3    O2 9334   3.490   2.936   0.391  0.5701  0.8160  0.6166
  627MPD2     C 9335   2.331   2.593  14.163  0.3158  0.2399 -0.0580
  627MPD2    C1 9336   2.328   2.584  14.297  0.7590  0.4365  0.1685
  627MPD2    C2 9337   2.292   2.466  14.355 -0.5678  0.5949 -0.6012
  627MPD2    C3 9338   2.251   2.353  14.280 -0.0992  0.5112  0.2795
  627MPD2    C4 9339   2.265   2.362  14.147  0.1680  0.2893 -1.0657
  627MPD2    C5 9340   2.306   2.479  14.087  0.7497 -0.3985  0.4024
  627MPD2     H 9341   2.295   2.451  14.462 -1.9888  0.0382 -0.6400
  627MPD2    H1 9342   2.252   2.270  14.092  0.0308 -0.2476 -0.1264
  627MPD2    H2 9343   2.375   2.680  14.116  0.1668 -0.4700 -1.5286
  627MPD2    H3 9344   2.300   2.476  13.978 -0.4540  0.2290  0.4542
  627MPD2     N 9345   2.210   2.234  14.349 -0.1982 -0.7618  0.2608
  627MPD2    H5 9346   2.200   2.242  14.450 -1.1713  0.6006  0.0613
  627MPD2    N1 9347   2.362   2.701  14.373  0.3374 -0.0812 -0.0081
  627MPD2    H7 9348   2.391   2.781  14.317 -0.2249 -1.0188 -1.6270
  628TMC3    C1 9349   2.435   2.819  14.551 -0.5116  0.2958 -0.2634
  628TMC3    C2 9350   2.530   2.774  14.638  0.1382  0.1012 -0.4215
  628TMC3    C3 9351   2.623   2.868  14.689  0.4007 -0.0488 -0.2825
  628TMC3    C4 9352   2.425   2.947  14.503  0.0355 -0.4094  0.7346
  628TMC3    C5 9353   2.513   3.034  14.562  0.1030  0.1260 -0.3844
  628TMC3    C6 9354   2.624   2.997  14.634  0.0065 -0.2348 -0.6635
  628TMC3     C 9355   2.350   2.717  14.503 -0.2925  0.4010 -1.0024
  628TMC3     O 9356   2.296   2.646  14.588  0.1954  0.0947  0.5562
  628TMC3     H 9357   2.551   2.672  14.666 -0.2152 -0.2346 -1.3976
  628TMC3    H1 9358   2.345   2.986  14.441  1.5981  2.9424  0.8260
  628TMC3    H2 9359   2.688   3.074  14.675  0.5552  0.3482 -2.6142
  628TMC3    C7 9360   2.493   3.172  14.546  0.3355  0.5588  0.2988
  628TMC3    C8 9361   2.762   2.822  14.716 -0.0985  0.4362  0.2367
  628TMC3    O1 9362   2.518   3.238  14.648 -0.5629 -0.2281 -0.1336
  628TMC3    O2 9363   2.831   2.831  14.615 -1.0326  0.1690 -0.3928
  629MPD2     C 9364   0.646   1.799  16.533  1.4029  0.8901 -0.7707
  629MPD2    C1 9365   0.709   1.681  16.569 -0.8813  0.7638  0.2639
  629MPD2    C2 9366   0.653   1.555  16.548 -0.6347  0.4365  0.8571
  629MPD2    C3 9367   0.529   1.542  16.482  0.4544 -0.1905 -0.0881
  629MPD2    C4 9368   0.469   1.658  16.433 -0.1888  0.1801  0.6584
  629MPD2    C5 9369   0.525   1.781  16.460 -0.5001 -0.9511  0.2298
  629MPD2     H 9370   0.710   1.469  16.580  2.3557  2.1375  0.0318
  629MPD2    H1 9371   0.380   1.660  16.370  0.1565 -1.7145  0.1106
  629MPD2    H2 9372   0.686   1.898  16.552  1.1186  1.2539 -2.0843
  629MPD2    H3 9373   0.481   1.870  16.416 -4.2019 -1.8349  2.1693
  629MPD2     N 9374   0.475   1.419  16.463 -0.3609 -0.2331  0.0589
  629MPD2    H5 9375   0.516   1.344  16.517 -0.7429 -0.2073  0.3852
  629MPD2    N1 9376   0.833   1.694  16.633  0.1273 -0.4971  0.2826
  629MPD2    H7 9377   0.873   1.786  16.647 -0.4685 -0.5292  2.1547
  630TMC3    C1 9378   1.032   1.672  16.751 -0.0186  0.2440 -0.0822
  630TMC3    C2 9379   1.073   1.785  16.685  0.5464  0.6528  0.5488
  630TMC3    C3 9380   1.185   1.843  16.739  0.3768 -0.1445 -0.1141
  630TMC3    C4 9381   1.096   1.620  16.864 -0.1342  0.4779  0.5765
  630TMC3    C5 9382   1.205   1.684  16.912 -0.2630  0.1933 -0.9973
  630TMC3    C6 9383   1.249   1.797  16.852  0.2989  0.0823 -0.2695
  630TMC3     C 9384   0.907   1.602  16.704  0.4858 -0.0173  0.5111
  630TMC3     O 9385   0.861   1.503  16.764 -0.2058  0.0718  0.0964
  630TMC3     H 9386   1.025   1.824  16.596 -0.3908  0.0767  0.8020
  630TMC3    H1 9387   1.044   1.557  16.935 -0.8802  0.8899  0.3960
  630TMC3    H2 9388   1.344   1.842  16.880  0.2703 -0.3627  0.5564
  630TMC3    C7 9389   1.247   1.651  17.050 -0.0179  0.3495 -0.1678
  630TMC3    C8 9390   1.260   1.948  16.659 -0.1445 -0.4352 -0.6750
  630TMC3    O1 9391   1.187   1.566  17.109 -0.3226 -0.4340 -0.1306
  630TMC3    O2 9392   1.346   2.014  16.724 -0.1815  0.1764  0.1116
  631MPD2     C 9393   3.752   1.725  15.786 -0.2592 -0.3275 -0.7767
  631MPD2    C1 9394   3.863   1.782  15.736 -0.2608  0.3226  0.1371
  631MPD2    C2 9395   3.958   1.699  15.678 -0.0910 -0.0338 -0.0005
  631MPD2    C3 9396   3.950   1.564  15.681  0.6833 -0.7025  0.2712
  631MPD2    C4 9397   3.838   1.505  15.737  0.9821 -0.3128 -0.0687
  631MPD2    C5 9398   3.743   1.592  15.788 -0.2526  0.2761 -0.7846
  631MPD2     H 9399   4.051   1.744  15.646 -0.4890  0.9533  0.2476
  631MPD2    H1 9400   3.834   1.398  15.752 -0.0433 -0.0399  1.6771
  631MPD2    H2 9401   3.670   1.785  15.824  0.7861  1.1086 -0.8092
  631MPD2    H3 9402   3.657   1.547  15.836  0.4087  0.6447  0.7746
  631MPD2     N 9403   4.055   1.490  15.630  0.0540  0.1784  0.6236
  631MPD2    H5 9404   4.127   1.538  15.576 -0.8773  0.7164 -0.1465
  631MPD2    N1 9405   3.847   1.922  15.712 -0.0153  0.8916  0.1853
  631MPD2    H7 9406   3.775   1.973  15.761 -0.8120 -0.2218  0.1646
  632TMC3    C1 9407   3.870   2.123  15.588  0.3975 -0.2399  0.3687
  632TMC3    C2 9408   3.741   2.138  15.624  0.9439 -0.5794  0.5620
  632TMC3    C3 9409   3.639   2.144  15.530 -0.0117 -0.0041  0.1066
  632TMC3    C4 9410   3.900   2.152  15.457  0.4970  0.2441 -0.7796
  632TMC3    C5 9411   3.800   2.137  15.364 -0.2343 -0.2336  0.6248
  632TMC3    C6 9412   3.669   2.139  15.396  0.4273 -0.0109 -0.0315
  632TMC3     C 9413   3.925   1.996  15.622 -0.4943 -0.2422  0.7861
  632TMC3     O 9414   4.012   1.954  15.551 -0.0100 -0.1218 -0.2569
  632TMC3     H 9415   3.713   2.132  15.729  0.0078  0.4242  0.3585
  632TMC3    H1 9416   4.005   2.153  15.427 -0.0237 -0.1637 -2.6065
  632TMC3    H2 9417   3.592   2.158  15.323 -0.2196 -1.1820  0.3352
  632TMC3    C7 9418   3.830   2.042  15.251  0.2377  0.3838 -0.6005
  632TMC3    C8 9419   3.508   2.136  15.591 -0.8912  0.5197  0.4145
  632TMC3    O1 9420   3.771   2.052  15.149  0.2668  0.8075 -0.8094
  632TMC3    O2 9421   3.481   2.164  15.708 -0.2391  0.0133  0.1864
  633MPD2     C 9422   3.445   4.624  17.368 -0.2985 -0.2429  0.0983
  633MPD2    C1 9423   3.445   4.532  17.259  0.2079 -0.8706 -0.1514
  633MPD2    C2 9424   3.424   4.400  17.285  0.0441 -0.2032  0.8047
  633MPD2    C3 9425   3.423   4.351  17.416 -0.0274 -0.2829 -0.3565
  633MPD2    C4 9426   3.435   4.442  17.520 -0.0722  0.4177 -0.3612
  633MPD2    C5 9427   3.432   4.578  17.500 -0.3778  0.1950  0.2208
  633MPD2     H 9428   3.437   4.332  17.202  0.5181  1.3485 -0.4123
  633MPD2    H1 9429   3.458   4.406  17.620 -1.5249  0.5049 -0.0026
  633MPD2    H2 9430   3.447   4.731  17.351  0.8009  0.0966  2.4206
  633MPD2    H3 9431   3.456   4.642  17.584 -0.8736 -1.4612  1.6281
  633MPD2     N 9432   3.430   4.220  17.444 -0.4618  0.2417  0.0167
  633MPD2    H5 9433   3.468   4.191  17.534 -1.1781  0.1929  0.3024
  633MPD2    N1 9434   3.472   4.564  17.126 -0.4722  0.0666  0.0751
  633MPD2    H7 9435   3.477   4.493  17.054  1.9198  0.5313 -0.2390
  634TMC3    C1 9436   3.521   4.706  16.939 -0.2986 -0.9368 -0.6903
  634TMC3    C2 9437   3.584   4.592  16.883 -0.2120  0.0030  0.3788
  634TMC3    C3 9438   3.584   4.599  16.744  0.3290 -0.2009  0.2575
  634TMC3    C4 9439   3.476   0.076  16.866 -0.5288 -0.2766  0.1578
  634TMC3    C5 9440   3.471   0.066  16.729 -0.3270  0.3399 -0.3444
  634TMC3    C6 9441   3.526   4.695  16.670 -0.4009 -1.0096  0.4676
  634TMC3     C 9442   3.497   4.697  17.079  0.2252  0.1737  0.5510
  634TMC3     O 9443   3.471   0.063  17.137  0.3038  0.0582  0.2100
  634TMC3     H 9444   3.638   4.518  16.940 -0.1461 -0.4039 -0.2187
  634TMC3    H1 9445   3.452   0.164  16.924 -3.0575 -0.3817 -0.7180
  634TMC3    H2 9446   3.534   4.689  16.563  1.4618  2.8566  0.3614
  634TMC3    C7 9447   3.409   0.170  16.642 -0.9927  1.0547  0.6192
  634TMC3    C8 9448   3.629   4.472  16.682  0.3041  0.4459  0.5163
  634TMC3    O1 9449   3.432   0.147  16.524 -0.9486  0.0136 -0.4398
  634TMC3    O2 9450   3.635   4.376  16.757 -0.2795  0.0406  0.0391
  635TMC3    C1 9451   3.743   0.564   0.103  0.1790  0.3623 -0.4075
  635TMC3    C2 9452   3.750   0.433   0.071  0.1825  0.5055 -0.0622
  635TMC3    C3 9453   3.741   0.338   0.173  0.0058 -1.0266 -0.1234
  635TMC3    C4 9454   3.714   0.609   0.229 -0.4540 -0.3144  0.4353
  635TMC3    C5 9455   3.695   0.509   0.324 -0.1190  0.0388  0.3472
  635TMC3    C6 9456   3.716   0.373   0.300  0.0883 -0.5413  0.0825
  635TMC3     C 9457   3.787   0.660   0.008  0.2502 -0.8786 -0.1623
  635TMC3     O 9458   3.802   0.633  17.641  0.1048 -0.6606  0.6720
  635TMC3     H 9459   3.779   0.421  17.723  2.5027 -0.6399  0.7346
  635TMC3    H1 9460   3.695   0.714   0.253  3.2202  0.6228 -0.8256
  635TMC3    H2 9461   3.696   0.301   0.379  1.3723  0.7421  1.5719
  635TMC3    C7 9462   3.629   0.532   0.451  0.1182 -0.1427 -0.9501
  635TMC3    C8 9463   3.711   0.206   0.135  0.0626  0.1882  0.0469
  635TMC3    O1 9464   3.549   0.448   0.495  0.3659 -0.2224  0.6625
  635TMC3    O2 9465   3.710   0.189   0.015  0.0840  0.5727 -0.0998
  636MPD2     C 9466   4.246   4.573  15.956  0.0080  0.3604 -0.7702
  636MPD2    C1 9467   4.331   4.550  16.065  0.5070 -0.4770  0.5743
  636MPD2    C2 9468   4.412   4.446  16.053  0.4876 -0.1631  0.0004
  636MPD2    C3 9469   4.432   4.375  15.935 -0.4710 -0.3489  0.0091
  636MPD2    C4 9470   4.355   4.406  15.820 -0.3213  0.4125  0.5227
  636MPD2    C5 9471   4.261   4.504  15.837 -0.3461  0.0270  0.3171
  636MPD2     H 9472   4.479   4.426  16.136  0.2875  0.3872  0.2901
  636MPD2    H1 9473   4.363   4.346  15.730 -0.3994 -1.2093  1.6029
  636MPD2    H2 9474   4.171   4.651  15.954 -0.9320 -0.5850 -2.6176
  636MPD2    H3 9475   4.199   4.526  15.751 -0.4400 -1.0427  0.1009
  636MPD2     N 9476   4.525   4.271  15.943  0.4142 -0.1984 -0.9597
  636MPD2    H5 9477   4.558   4.241  16.034  0.5431 -1.9969 -1.6085
  636MPD2    N1 9478   4.324   4.614  16.189  0.4881 -0.1690 -0.4381
  636MPD2    H7 9479   4.395   4.577  16.251  1.0012  1.6286  0.0699
  637TMC3    C1 9480   4.647   4.089  15.868  0.1641 -0.4962 -0.1748
  637TMC3    C2 9481   4.659   4.053  15.997 -0.9353 -0.0754 -0.1903
  637TMC3    C3 9482   4.720   3.932  16.016 -0.8406 -0.3269  0.8136
  637TMC3    C4 9483   4.691   4.017  15.756 -0.5684 -0.8995  0.0746
  637TMC3    C5 9484   0.005   3.898  15.779 -0.4953 -0.2663 -0.5502
  637TMC3    C6 9485   0.014   3.860  15.913  0.4217 -0.4564  0.9514
  637TMC3     C 9486   4.567   4.198  15.834  0.4494 -0.5995  0.5170
  637TMC3     O 9487   4.543   4.223  15.716  0.0728  0.1518  0.1428
  637TMC3     H 9488   4.666   4.115  16.086  1.3635  0.7216 -0.9350
  637TMC3    H1 9489   4.693   4.046  15.651  0.0779  2.6117  1.0580
  637TMC3    H2 9490   0.035   3.756  15.935 -0.8638 -0.7744  0.6967
  637TMC3    C7 9491   0.105   3.842  15.691  0.2049  0.0829  0.1734
  637TMC3    C8 9492   0.093   3.916  16.111 -0.7147 -0.1470 -0.6287
  637TMC3    O1 9493   0.091   3.860  15.573  0.0058 -0.0432  0.2862
  637TMC3    O2 9494   0.189   3.851  16.070  0.0635 -0.0067 -0.1140
  638MPD2     C 9495   4.594   3.518  14.922  0.1082 -0.7717 -0.4542
  638MPD2    C1 9496   4.635   3.388  14.934  0.5875  0.1936 -0.2354
  638MPD2    C2 9497   4.572   3.308  15.024  0.0466  0.0094 -0.1995
  638MPD2    C3 9498   4.476   3.352  15.111  0.2088  0.6403  0.3446
  638MPD2    C4 9499   4.443   3.488  15.109  0.0396 -0.1428 -0.2310
  638MPD2    C5 9500   4.513   3.566  15.026  0.4119 -0.1037 -0.1467
  638MPD2     H 9501   4.603   3.204  15.026  2.0857  0.6399  0.3816
  638MPD2    H1 9502   4.362   3.524  15.173 -0.9647 -0.5925 -1.2445
  638MPD2    H2 9503   4.638   3.591  14.856  0.7564 -1.2240 -0.5275
  638MPD2    H3 9504   4.489   3.672  15.031 -0.7084 -0.3948  0.5835
  638MPD2     N 9505   4.428   3.253  15.197 -0.0167  0.5001 -0.2071
  638MPD2    H5 9506   4.486   3.170  15.199  0.2370  0.6831  0.0587
  638MPD2    N1 9507   4.737   3.323  14.859  0.5123  0.0880  0.3009
  638MPD2    H7 9508   4.737   3.222  14.868 -1.9028 -0.0514 -1.2401
  639TMC3    C1 9509   4.294   3.125  15.320 -0.9757  0.1023  0.2904
  639TMC3    C2 9510   4.198   3.041  15.264  0.1430 -0.2376 -0.7689
  639TMC3    C3 9511   4.222   2.907  15.272  0.0388  0.6359  0.2665
  639TMC3    C4 9512   4.406   3.074  15.368 -0.2320 -0.3913 -0.0924
  639TMC3    C5 9513   4.433   2.940  15.362  0.4193 -1.0333 -0.0103
  639TMC3    C6 9514   4.345   2.853  15.314 -0.0774  0.3161 -1.1787
  639TMC3     C 9515   4.307   3.255  15.263  0.0158  0.6346 -0.2839
  639TMC3     O 9516   4.208   3.322  15.249  0.6517 -0.1457 -0.0934
  639TMC3     H 9517   4.112   3.084  15.213 -0.1041 -0.2022 -0.3244
  639TMC3    H1 9518   4.477   3.137  15.420  0.2035 -0.4819 -0.5775
  639TMC3    H2 9519   4.369   2.747  15.312 -3.5879 -0.5308  1.0873
  639TMC3    C7 9520   4.569   2.908  15.325  0.4563 -0.4013 -0.5467
  639TMC3    C8 9521   4.127   2.829  15.202 -0.4127 -0.2180  0.3648
  639TMC3    O1 9522   4.618   2.996  15.256 -0.0067 -0.2105 -0.9332
  639TMC3    O2 9523   4.017   2.877  15.182 -0.7113  0.8319  0.3136
  640MPD2     C 9524   0.385   1.818  10.312 -0.3332  0.1204 -0.2008
  640MPD2    C1 9525   0.472   1.924  10.304 -0.0390 -0.5718 -0.0404
  640MPD2    C2 9526   0.425   2.048  10.321  0.1485  0.2586  0.0912
  640MPD2    C3 9527   0.288   2.071  10.335 -0.0807  0.2073  0.0950
  640MPD2    C4 9528   0.201   1.965  10.330  0.1620  0.3723 -0.2227
  640MPD2    C5 9529   0.249   1.836  10.324 -0.3031  0.5479 -0.0017
  640MPD2     H 9530   0.495   2.130  10.326  0.7592 -0.0640 -3.4485
  640MPD2    H1 9531   0.093   1.971  10.332  0.1579  0.1142  0.2978
  640MPD2    H2 9532   0.432   1.723  10.287 -2.1972 -1.3878  2.0557
  640MPD2    H3 9533   0.183   1.751  10.313  0.7280 -0.2222 -0.3483
  640MPD2     N 9534   0.237   2.201  10.337 -0.5311  0.0078 -0.1006
  640MPD2    H5 9535   0.136   2.211  10.337 -0.6001 -0.6796 -1.0880
  640MPD2    N1 9536   0.606   1.883  10.263 -0.0379 -0.1572  0.0537
  640MPD2    H7 9537   0.609   1.784  10.237 -2.3101 -0.5795  1.4385
  641TMC3    C1 9538   0.812   1.902  10.156  0.2260 -0.2286 -0.3116
  641TMC3    C2 9539   0.802   1.768  10.123  0.4937  0.6442 -0.1507
  641TMC3    C3 9540   0.901   1.721  10.033 -0.1168  0.6778 -0.2090
  641TMC3    C4 9541   0.889   1.989  10.088  0.3032 -0.2047  0.3935
  641TMC3    C5 9542   0.982   1.934  10.003 -0.5830  0.2165 -0.1734
  641TMC3    C6 9543   0.996   1.803   9.972 -0.0941  0.1042  0.5314
  641TMC3     C 9544   0.708   1.961  10.236  0.6435  0.0764 -0.7174
  641TMC3     O 9545   0.731   2.072  10.282  0.6680 -0.0964  0.4895
  641TMC3     H 9546   0.754   1.700  10.192  1.9267  1.5861  1.7855
  641TMC3    H1 9547   0.896   2.094  10.114  2.6987 -1.0312  3.1539
  641TMC3    H2 9548   1.065   1.763   9.899 -0.7460 -0.9530  0.4899
  641TMC3    C7 9549   1.100   2.018   9.972 -0.0336 -0.4689 -0.0098
  641TMC3    C8 9550   0.903   1.581   9.988  0.2550 -0.0949 -0.0108
  641TMC3    O1 9551   1.207   1.955   9.966 -0.1496  0.3037  0.1877
  641TMC3    O2 9552   0.962   1.549   9.886  0.2174 -0.0491 -0.2874
  642TMC3    C1 9553   1.015   3.113  12.467  0.3012  0.1632  0.5389
  642TMC3    C2 9554   1.143   3.155  12.493  0.3779  0.2886  0.3244
  642TMC3    C3 9555   1.206   3.078  12.589  0.3908 -0.1046 -0.3743
  642TMC3    C4 9556   0.960   2.995  12.515 -0.4261  0.3794 -0.3733
  642TMC3    C5 9557   1.035   2.912  12.597  0.2125 -0.5110  0.0360
  642TMC3    C6 9558   1.157   2.959  12.636  0.0619 -0.6135  0.6231
  642TMC3     C 9559   0.931   3.217  12.408  0.1895  0.4389  0.6211
  642TMC3     O 9560   0.981   3.289  12.323  0.3236  0.6808 -0.8202
  642TMC3     H 9561   1.171   3.254  12.459  1.3080 -0.1369 -0.1360
  642TMC3    H1 9562   0.863   2.973  12.473 -0.2402  0.6351 -0.9392
  642TMC3    H2 9563   1.217   2.903  12.707 -1.5503 -0.5016  2.0612
  642TMC3    C7 9564   1.018   2.769  12.577  0.7952 -0.0677 -0.2811
  642TMC3    C8 9565   1.324   3.130  12.655 -0.0401  0.1751  0.2605
  642TMC3    O1 9566   0.949   2.742  12.481 -0.4991 -0.0167  0.0594
  642TMC3    O2 9567   1.396   3.056  12.725 -0.7842  0.2479  0.2273
  643TMC3    C1 9568   0.676   2.245   0.374 -0.2267  0.3824  0.4164
  643TMC3    C2 9569   0.580   2.305   0.299 -0.4839 -0.3486 -0.0486
  643TMC3    C3 9570   0.555   2.256   0.175 -0.2275  0.0188 -0.9541
  643TMC3    C4 9571   0.770   2.160   0.325 -0.6608 -0.1094 -0.3380
  643TMC3    C5 9572   0.742   2.121   0.191  0.6168 -0.4332  0.4613
  643TMC3    C6 9573   0.630   2.159   0.121  0.3410 -0.2879  0.5611
  643TMC3     C 9574   0.731   2.355   0.458  0.0509  0.2657  0.0053
  643TMC3     O 9575   0.717   2.467   0.418 -0.4970 -0.2399  0.2242
  643TMC3     H 9576   0.520   2.391   0.326 -0.3390 -0.8023  1.7248
  643TMC3    H1 9577   0.852   2.121   0.384 -0.5466 -1.4364 -1.3623
  643TMC3    H2 9578   0.614   2.130   0.018 -2.4397  0.5906  0.7214
  643TMC3    C7 9579   0.865   2.116   0.112 -0.2413 -0.3347 -0.1927
  643TMC3    C8 9580   0.496   2.342   0.077 -0.0144  0.1742  0.8091
  643TMC3    O1 9581   0.841   2.143  17.752  0.4062 -0.6514  0.2719
  643TMC3    O2 9582   0.457   2.286  17.733 -0.2127 -0.2362 -0.0234
  644MPD2     C 9583   1.244   2.685  10.346 -0.3223  0.0838 -0.2979
  644MPD2    C1 9584   1.157   2.586  10.299 -0.3776  0.4966 -0.5771
  644MPD2    C2 9585   1.034   2.623  10.252 -0.0300 -0.3924 -0.0698
  644MPD2    C3 9586   0.987   2.751  10.251 -0.3078  0.9114 -0.7470
  644MPD2    C4 9587   1.072   2.847  10.305 -0.4908  0.4394 -0.3725
  644MPD2    C5 9588   1.197   2.809  10.355 -0.5248  0.1919  0.6118
  644MPD2     H 9589   0.967   2.547  10.214 -0.3376 -0.6432  0.9925
  644MPD2    H1 9590   1.041   2.951  10.315 -0.8531  0.3024 -0.0748
  644MPD2    H2 9591   1.343   2.668  10.388 -1.8597 -0.8471  2.9908
  644MPD2    H3 9592   1.268   2.891  10.366 -0.4758  0.3509 -0.8882
  644MPD2     N 9593   0.854   2.779  10.220 -0.2696  0.1425 -0.3549
  644MPD2    H5 9594   0.799   2.698  10.194 -0.5850  0.5452 -0.9338
  644MPD2    N1 9595   1.218   2.454  10.297  0.5570  0.4730  0.4857
  644MPD2    H7 9596   1.316   2.448  10.325  0.4706  3.1200  1.3786
  645TMC3    C1 9597   0.661   2.904  10.146  0.5297  0.3543  0.1105
  645TMC3    C2 9598   0.588   3.026  10.130 -0.4063 -0.3009 -0.3423
  645TMC3    C3 9599   0.473   3.032  10.063  0.5375  0.2507 -0.3290
  645TMC3    C4 9600   0.600   2.784  10.112  0.1598  0.6003  0.3694
  645TMC3    C5 9601   0.483   2.798  10.040  0.5130 -0.2560 -0.0024
  645TMC3    C6 9602   0.424   2.919  10.015 -0.6352  0.2128  0.5079
  645TMC3     C 9603   0.792   2.903  10.203  0.0102 -0.8863  0.2462
  645TMC3     O 9604   0.843   3.010  10.223  0.4646  0.3339 -0.5986
  645TMC3     H 9605   0.641   3.117  10.156  0.0365 -0.8913  0.8424
  645TMC3    H1 9606   0.648   2.687  10.124 -1.5303 -0.2790  0.0442
  645TMC3    H2 9607   0.332   2.913   9.958  1.6399 -3.7881 -2.7474
  645TMC3    C7 9608   0.393   2.687  10.008  0.8127 -0.4994 -0.1957
  645TMC3    C8 9609   0.445   3.155   9.994 -0.4785  0.3870  0.3908
  645TMC3    O1 9610   0.287   2.709   9.955  0.4047  0.3641  0.6630
  645TMC3    O2 9611   0.516   3.251  10.023  0.6531  0.4612 -0.1497
  646MPD2     C 9612   0.292   1.974  14.880  0.3791  0.2627  0.3994
  646MPD2    C1 9613   0.188   1.972  14.973  0.2738 -0.1071 -0.7166
  646MPD2    C2 9614   0.059   2.006  14.940 -0.1524  0.7277  0.2139
  646MPD2    C3 9615   0.032   2.055  14.815 -0.8691  0.9472 -0.6651
  646MPD2    C4 9616   0.137   2.064  14.725  0.0262  0.0328 -0.0130
  646MPD2    C5 9617   0.267   2.024  14.757  0.3400  0.0363 -0.5057
  646MPD2     H 9618   4.722   1.999  15.016 -1.0825 -2.3317 -1.0102
  646MPD2    H1 9619   0.123   2.103  14.625 -4.2085 -1.1907  0.0737
  646MPD2    H2 9620   0.395   1.960  14.911 -0.1646 -2.0109  1.1859
  646MPD2    H3 9621   0.341   2.035  14.679  0.8942 -1.3499 -0.1861
  646MPD2     N 9622   4.636   2.095  14.782 -0.4327  0.8369 -0.2820
  646MPD2    H5 9623   4.571   2.057  14.850 -1.0018  1.4155 -0.5113
  646MPD2    N1 9624   0.221   1.910  15.098 -0.4494  0.6884  0.0650
  646MPD2    H7 9625   0.319   1.893  15.115 -1.3655 -0.9798  3.7299
  647TMC3    C1 9626   0.203   1.812  15.319 -0.9236  0.2423 -0.1404
  647TMC3    C2 9627   0.126   1.738  15.405  0.3220 -0.1409 -0.3560
  647TMC3    C3 9628   0.178   1.695  15.518 -0.3718 -0.2716 -0.5238
  647TMC3    C4 9629   0.320   1.867  15.365  0.1985 -0.0307 -0.9135
  647TMC3    C5 9630   0.370   1.821  15.484  0.1634 -0.2376  0.0505
  647TMC3    C6 9631   0.296   1.739  15.564 -0.1363  0.2565 -0.3871
  647TMC3     C 9632   0.137   1.877  15.205  0.5774 -0.0374  0.5889
  647TMC3     O 9633   0.020   1.902  15.230  0.0478 -0.4386 -0.0347
  647TMC3     H 9634   0.022   1.712  15.386  1.3413 -4.4229  0.0845
  647TMC3    H1 9635   0.367   1.938  15.298 -2.0512  1.6488 -0.7051
  647TMC3    H2 9636   0.334   1.720  15.663  0.6048  0.6762 -0.5958
  647TMC3    C7 9637   0.506   1.796  15.504 -0.4092 -0.1601  0.3882
  647TMC3    C8 9638   0.165   1.555  15.546  0.0416  0.1329  0.2656
  647TMC3    O1 9639   0.534   1.698  15.575 -0.1019 -0.4954 -0.1498
  647TMC3    O2 9640   0.175   1.518  15.664  0.0396  0.2650  1.0712
  648TMC3    C1 9641   3.951   4.474  16.179 -0.1887  0.5086  0.2053
  648TMC3    C2 9642   4.006   4.356  16.141 -0.2149  0.3967 -0.2864
  648TMC3    C3 9643   3.997   4.317  16.011 -1.0074 -0.1590  0.3156
  648TMC3    C4 9644   3.879   4.546  16.083  0.1676  0.1929  0.1259
  648TMC3    C5 9645   3.862   4.499  15.954 -0.1957 -0.1315  0.8755
  648TMC3    C6 9646   3.921   4.380  15.919 -0.1245  0.5868 -0.5631
  648TMC3     C 9647   3.950   4.521  16.319 -0.2183  0.4196  0.5698
  648TMC3     O 9648   3.922   4.638  16.341  0.1434 -0.5977 -0.1118
  648TMC3     H 9649   4.073   4.304  16.209  1.0958  1.0218 -1.0882
  648TMC3    H1 9650   3.845   4.648  16.094  1.2311  0.7826 -2.0359
  648TMC3    H2 9651   3.929   4.355  15.814  0.2599 -2.9906  0.3155
  648TMC3    C7 9652   3.847   4.591  15.843 -0.5810 -0.3348 -0.5449
  648TMC3    C8 9653   4.032   4.176  16.008 -0.2519  0.1552  0.4572
  648TMC3    O1 9654   3.904   4.579  15.735 -0.1723 -0.0862 -0.0981
  648TMC3    O2 9655   4.003   4.109  16.109 -0.1797 -0.6561 -0.0736
  649TMC3    C1 9656   2.941   0.727  13.041  0.0354 -0.3819 -0.1659
  649TMC3    C2 9657   3.081   0.730  13.027  0.2782  0.2960  0.8605
  649TMC3    C3 9658   3.156   0.679  13.134 -0.1958 -0.2205  1.0213
  649TMC3    C4 9659   2.884   0.671  13.151  0.8409  0.1897 -0.5907
  649TMC3    C5 9660   2.962   0.604  13.247 -0.0418  0.0986 -0.0554
  649TMC3    C6 9661   3.101   0.608  13.242  0.0865 -0.2590  0.0328
  649TMC3     C 9662   2.868   0.818  12.954  0.1806  0.0082 -0.3016
  649TMC3     O 9663   2.770   0.869  13.005  0.1282  0.6764  0.1647
  649TMC3     H 9664   3.126   0.784  12.945  2.6544 -0.0989  1.9051
  649TMC3    H1 9665   2.776   0.674  13.151  0.8582  0.6364 -1.2425
  649TMC3    H2 9666   3.163   0.550  13.309  1.8819  0.1573 -1.2856
  649TMC3    C7 9667   2.896   0.538  13.352  0.1170  0.3584  0.1723
  649TMC3    C8 9668   3.284   0.623  13.106 -0.1002 -0.4357  0.6397
  649TMC3    O1 9669   2.780   0.505  13.326 -0.0579  0.2741 -0.2450
  649TMC3    O2 9670   3.324   0.542  13.188 -0.4939  0.2660  0.5452
  650TMC3    C1 9671   0.516   2.429  13.333  0.0729 -0.0253  0.3181
  650TMC3    C2 9672   0.453   2.548  13.332  0.2469  0.7712  0.2665
  650TMC3    C3 9673   0.315   2.554  13.320  0.3196 -0.1514  0.2632
  650TMC3    C4 9674   0.445   2.317  13.289 -0.1547 -0.2314  0.0858
  650TMC3    C5 9675   0.311   2.322  13.283 -0.2947 -0.6286  0.2053
  650TMC3    C6 9676   0.241   2.441  13.295  0.8177 -0.2488  0.2288
  650TMC3     C 9677   0.658   2.418  13.369  0.3269  0.0634  0.1219
  650TMC3     O 9678   0.714   2.525  13.382  0.2021 -0.3442  0.0212
  650TMC3     H 9679   0.501   2.643  13.354  3.0610 -0.7453  0.6342
  650TMC3    H1 9680   0.489   2.219  13.271  0.7105  0.1280  0.2346
  650TMC3    H2 9681   0.133   2.429  13.298  0.7664  0.3392  0.6360
  650TMC3    C7 9682   0.258   2.239  13.181  0.4927  0.1018 -0.1128
  650TMC3    C8 9683   0.255   2.676  13.273  0.3110  0.0620  0.1237
  650TMC3    O1 9684   0.219   2.129  13.211 -0.3180  0.2002 -0.5068
  650TMC3    O2 9685   0.325   2.776  13.276  0.1424  0.4512  0.2011
  651MPD2     C 9686   4.172   4.153  10.686  0.5079  0.4127 -0.1916
  651MPD2    C1 9687   4.143   4.215  10.808 -0.9224  0.4580 -0.4034
  651MPD2    C2 9688   4.250   4.258  10.892  0.1920 -0.1459 -0.4208
  651MPD2    C3 9689   4.381   4.232  10.853 -0.5357 -0.6767 -0.1122
  651MPD2    C4 9690   4.405   4.182  10.729  0.3187 -0.0217  0.0838
  651MPD2    C5 9691   4.304   4.148  10.644 -0.7501 -0.5037  0.3852
  651MPD2     H 9692   4.220   4.302  10.986  0.1500  0.1202 -0.5583
  651MPD2    H1 9693   4.504   4.164  10.689 -0.2120  0.2160 -1.3282
  651MPD2    H2 9694   4.097   4.129  10.611 -1.1259 -0.6275  1.7721
  651MPD2    H3 9695   4.314   4.125  10.539 -1.4862  0.5349  0.0875
  651MPD2     N 9696   4.484   4.268  10.943  0.1139  0.2109  0.3762
  651MPD2    H5 9697   4.453   4.292  11.037 -1.1586  0.5769 -0.1413
  651MPD2    N1 9698   4.014   4.250  10.844  0.0612 -0.0977  0.3408
  651MPD2    H7 9699   3.993   4.308  10.925  1.3405 -1.0932  1.3780
  652TMC3    C1 9700   0.145   4.284  11.179  0.6150  0.0284  0.0358
  652TMC3    C2 9701   0.073   4.253  11.071  0.0089  0.2525  0.1256
  652TMC3    C3 9702   4.684   4.296  11.057 -0.1814 -0.4404 -0.0840
  652TMC3    C4 9703   0.088   4.354  11.283  0.0261  0.3684 -0.4754
  652TMC3    C5 9704   4.695   4.394  11.271  0.2404  0.6069  0.0133
  652TMC3    C6 9705   4.626   4.370  11.156 -0.5116 -0.4401 -0.0311
  652TMC3     C 9706   0.289   4.305  11.175 -0.5720  0.7805  0.2074
  652TMC3     O 9707   0.348   4.302  11.282  0.6219  0.2335 -0.0133
  652TMC3     H 9708   0.125   4.194  10.996 -0.3913  1.9354 -1.4652
  652TMC3    H1 9709   0.151   4.372  11.369  0.0433 -1.3181 -0.1311
  652TMC3    H2 9710   4.541   4.435  11.141 -0.0506 -0.0164 -0.8411
  652TMC3    C7 9711   4.668   4.520  11.336 -0.1210  0.1322 -0.7202
  652TMC3    C8 9712   4.622   4.267  10.928  0.5676  0.0690  0.7127
  652TMC3    O1 9713   4.570   4.548  11.398 -0.5621 -0.0122 -0.7557
  652TMC3    O2 9714   4.686   4.228  10.830  0.3256  0.3153 -0.2363
  653MPD2     C 9715   3.250   4.420   0.079  0.4087 -0.2222 -0.4667
  653MPD2    C1 9716   3.183   4.522   0.024  0.1079  0.0814 -0.4532
  653MPD2    C2 9717   3.114   4.501  17.657 -0.3053  0.1581  0.1914
  653MPD2    C3 9718   3.103   4.372  17.603 -1.1184 -0.4024 -0.0518
  653MPD2    C4 9719   3.164   4.270  17.670  0.2318 -0.0334 -0.2974
  653MPD2    C5 9720   3.243   4.290   0.028 -0.3497 -0.1861 -0.4650
  653MPD2     H 9721   3.079   4.586  17.601  0.4525  0.3598  0.0255
  653MPD2    H1 9722   3.167   4.171  17.625 -0.1360  0.1196 -0.6600
  653MPD2    H2 9723   3.314   4.442   0.164 -0.9735  1.8628  0.0302
  653MPD2    H3 9724   3.313   4.217   0.067 -3.1957 -2.5817  0.1204
  653MPD2     N 9725   3.028   4.352  17.484 -0.4927  0.2283 -0.2553
  653MPD2    H5 9726   2.995   4.430  17.428  0.8996  0.9553 -0.0598
  653MPD2    N1 9727   3.196   4.647   0.077 -0.7177 -0.5774  0.0601
  653MPD2    H7 9728   3.154   4.723   0.024  1.3679 -0.0237 -0.8002
  654TMC3    C1 9729   2.934   4.212  17.313  0.0187 -0.1507  0.1025
  654TMC3    C2 9730   2.880   4.319  17.254  0.0953  0.0026 -0.6508
  654TMC3    C3 9731   2.842   4.305  17.118  0.3251  0.1360 -0.4551
  654TMC3    C4 9732   2.961   4.096  17.241  0.0491  0.2141  0.2306
  654TMC3    C5 9733   2.924   4.083  17.104  0.7449  0.3004 -0.0581
  654TMC3    C6 9734   2.866   4.190  17.037  0.1620 -0.0331 -1.1285
  654TMC3     C 9735   2.986   4.222  17.448 -0.7895 -0.1768 -0.2043
  654TMC3     O 9736   2.994   4.110  17.501 -0.1805 -0.1513  0.7210
  654TMC3     H 9737   2.869   4.414  17.304  2.7715 -0.2337  0.3951
  654TMC3    H1 9738   3.020   4.022  17.293 -0.0824  0.1545  0.2962
  654TMC3    H2 9739   2.835   4.164  16.936  0.2248 -0.3009 -1.0781
  654TMC3    C7 9740   2.939   3.956  17.035 -0.9008 -0.7529 -0.4691
  654TMC3    C8 9741   2.779   4.419  17.054  0.8237 -0.5314 -0.5212
  654TMC3    O1 9742   2.932   3.958  16.912  0.3965 -0.1978  0.1251
  654TMC3    O2 9743   2.718   4.496  17.128 -0.8109  0.0938  0.2071
  655MPD2     C 9744   4.581   4.668  15.749  0.6441 -0.1837 -0.0258
  655MPD2    C1 9745   4.531   0.012  15.652 -0.0424 -0.4855  0.1966
  655MPD2    C2 9746   4.561   4.723  15.521  0.2622  0.6384  0.1745
  655MPD2    C3 9747   4.642   4.615  15.487 -0.3851 -0.2519 -0.2220
  655MPD2    C4 9748   4.685   4.529  15.590  0.1078  0.2137  0.0438
  655MPD2    C5 9749   4.657   4.558  15.718 -0.3357 -0.1698  0.0411
  655MPD2     H 9750   4.532   0.045  15.437 -2.7282 -0.8526  0.1000
  655MPD2    H1 9751   0.012   4.446  15.569 -1.4012 -0.9844 -0.0096
  655MPD2    H2 9752   4.561   4.682  15.855  1.6788 -3.0137  0.5225
  655MPD2    H3 9753   4.688   4.488  15.795 -3.1522 -0.9333  0.5010
  655MPD2     N 9754   4.663   4.580  15.354 -0.0837  0.7198  0.0064
  655MPD2    H5 9755   4.683   4.482  15.334 -0.8060  0.1990  1.8086
  655MPD2    N1 9756   4.447   0.126  15.683  0.1258  0.1456  0.2958
  655MPD2    H7 9757   4.412   0.185  15.609  1.9836  0.2477 -0.5028
  656TMC3    C1 9758   4.333   0.282  15.818  0.5412  0.1378  0.4877
  656TMC3    C2 9759   4.259   0.292  15.928  0.2364  0.0106  0.2833
  656TMC3    C3 9760   4.128   0.318  15.911 -0.0328 -0.0002  0.3496
  656TMC3    C4 9761   4.288   0.326  15.698 -0.2036  0.5288 -0.0407
  656TMC3    C5 9762   4.158   0.370  15.690 -0.6137 -0.0519  0.7849
  656TMC3    C6 9763   4.072   0.356  15.792 -0.2387  0.2535  0.0902
  656TMC3     C 9764   4.418   0.171  15.810 -0.0373  0.0588  0.4687
  656TMC3     O 9765   4.447   0.119  15.919 -0.0422 -0.1768  0.7654
  656TMC3     H 9766   4.298   0.255  16.022 -0.9532 -1.2978  0.2666
  656TMC3    H1 9767   4.363   0.336  15.621  0.7819 -0.4590  0.7993
  656TMC3    H2 9768   3.965   0.366  15.776 -0.2326 -2.7895 -1.8447
  656TMC3    C7 9769   4.129   0.445  15.574  0.0866  0.4973 -0.1266
  656TMC3    C8 9770   4.061   0.345  16.041 -0.2045 -0.3446  0.4524
  656TMC3    O1 9771   4.197   0.436  15.472  0.0309 -0.3702 -0.5617
  656TMC3    O2 9772   4.114   0.408  16.133  0.4290 -0.5310  0.3449
  657TMC3    C1 9773   3.409   3.349  14.750  0.5700  0.2985 -0.7081
  657TMC3    C2 9774   3.318   3.425  14.812 -0.2053 -0.0975  0.1245
  657TMC3    C3 9775   3.288   3.540  14.745 -0.7000 -0.2503  0.1753
  657TMC3    C4 9776   3.480   3.388  14.641 -0.0907 -0.2108  0.7401
  657TMC3    C5 9777   3.462   3.512  14.588 -0.2255  0.2076  0.0146
  657TMC3    C6 9778   3.353   3.585  14.633  0.5049  0.8064 -0.0039
  657TMC3     C 9779   3.434   3.209  14.788 -0.3960 -0.0968  0.4808
  657TMC3     O 9780   3.411   3.134  14.690 -0.4308  0.1218 -0.2239
  657TMC3     H 9781   3.257   3.387  14.894 -2.4936 -1.6976 -2.3003
  657TMC3    H1 9782   3.550   3.315  14.601  0.6066  1.5129 -1.1383
  657TMC3    H2 9783   3.334   3.690  14.615 -2.3540 -0.0484 -1.8957
  657TMC3    C7 9784   3.531   3.544  14.459 -0.6454  0.4266  0.1214
  657TMC3    C8 9785   3.164   3.603  14.782  0.3681  0.2746  0.2839
  657TMC3    O1 9786   3.589   3.450  14.401 -0.0867  0.0639  0.6878
  657TMC3    O2 9787   3.124   3.589  14.895  0.1869  0.5339  0.3061
  658MPD2     C 9788   0.073   0.327  14.752 -0.2445  0.0754 -0.0413
  658MPD2    C1 9789   0.037   0.198  14.706  0.5274  0.0783 -0.4270
  658MPD2    C2 9790   0.002   0.184  14.573 -0.4724 -0.6285  0.0279
  658MPD2    C3 9791   0.006   0.286  14.482 -0.0176  0.3307  0.3114
  658MPD2    C4 9792   0.043   0.412  14.535  0.4734  0.2791 -0.1302
  658MPD2    C5 9793   0.069   0.432  14.668  0.5045  0.3948  0.5656
  658MPD2     H 9794   4.718   0.086  14.533  1.2728 -0.4237 -1.5205
  658MPD2    H1 9795   0.060   0.495  14.468 -1.6003 -0.0010 -1.0164
  658MPD2    H2 9796   0.122   0.351  14.846 -0.6317  1.2594 -0.1459
  658MPD2    H3 9797   0.101   0.531  14.701  0.8381  0.2750  0.6024
  658MPD2     N 9798   4.723   0.257  14.351 -0.8315  0.6408  0.4368
  658MPD2    H5 9799   4.702   0.164  14.316 -1.2944  1.0503 -0.3809
  658MPD2    N1 9800   0.011   0.094  14.801 -0.4284  0.3259 -0.2652
  658MPD2    H7 9801   0.037   0.113  14.897 -2.2289 -2.7705  0.8106
  659TMC3    C1 9802   4.681   4.627  14.884  0.3951  0.6834  1.1559
  659TMC3    C2 9803   4.674   4.687  15.007 -0.9180 -0.3349 -0.0890
  659TMC3    C3 9804   4.652   4.605  15.116  0.7958 -0.1853  0.3323
  659TMC3    C4 9805   4.653   4.495  14.860 -0.0432  0.2567  0.5525
  659TMC3    C5 9806   4.609   4.426  14.970 -0.4884 -0.0899  0.2138
  659TMC3    C6 9807   4.609   4.477  15.095 -0.4902  0.6317  0.1053
  659TMC3     C 9808   4.700   4.709  14.773  0.3320  0.3946  0.4391
  659TMC3     O 9809   4.655   4.654  14.674 -0.1941 -0.0051 -0.1055
  659TMC3     H 9810   4.667   0.053  15.030 -1.0979  0.1116 -2.1438
  659TMC3    H1 9811   4.647   4.447  14.763 -4.1932  1.0629  0.4358
  659TMC3    H2 9812   4.591   4.420  15.186 -0.4273  0.9976  0.3472
  659TMC3    C7 9813   4.541   4.296  14.934 -0.3740 -0.6585  0.1626
  659TMC3    C8 9814   4.665   4.667  15.245  0.2561  0.4375  0.2990
  659TMC3    O1 9815   4.572   4.248  14.826 -0.1754 -0.2225 -0.3054
  659TMC3    O2 9816   4.696   0.049  15.251  0.2391 -0.1815  0.5260
  660MPD2     C 9817   2.195   3.032  12.770  0.3100 -0.2917 -0.4422
  660MPD2    C1 9818   2.087   3.119  12.784 -0.5646 -1.0143  0.2914
  660MPD2    C2 9819   2.011   3.098  12.902 -0.2429  0.0231 -0.1844
  660MPD2    C3 9820   2.043   2.999  12.994 -0.1760 -0.5800  0.4079
  660MPD2    C4 9821   2.138   2.906  12.962  0.3551 -0.1037 -0.8208
  660MPD2    C5 9822   2.217   2.923  12.850 -0.4071  0.5337  0.1483
  660MPD2     H 9823   1.915   3.148  12.900 -0.4185 -0.2737  1.0463
  660MPD2    H1 9824   2.158   2.823  13.029 -3.8714 -0.9248 -0.5957
  660MPD2    H2 9825   2.254   3.032  12.679  5.1675 -0.9969  2.6798
  660MPD2    H3 9826   2.302   2.864  12.818 -0.2788  0.9869 -0.3379
  660MPD2     N 9827   1.975   2.972  13.117  0.5406 -0.1126  0.0438
  660MPD2    H5 9828   1.994   2.882  13.160  1.3380  1.5037  3.0535
  660MPD2    N1 9829   2.059   3.216  12.682  0.5111 -0.1936  0.3476
  660MPD2    H7 9830   2.109   3.216  12.594  1.0854 -1.1782  0.6733
  661TMC3    C1 9831   1.946   3.415  12.587  0.4806  0.3641  0.6759
  661TMC3    C2 9832   2.045   3.449  12.493  0.0951  0.4761 -0.5599
  661TMC3    C3 9833   2.007   3.545  12.410  0.1833 -0.3248  0.2804
  661TMC3    C4 9834   1.819   3.474  12.589  0.5573  0.1965  0.2705
  661TMC3    C5 9835   1.786   3.569  12.496  0.5167 -0.2714  1.1457
  661TMC3    C6 9836   1.878   3.597  12.402 -0.3355  0.0683  0.4726
  661TMC3     C 9837   1.980   3.329  12.705  0.1471  0.0416  0.1528
  661TMC3     O 9838   1.925   3.360  12.808 -0.0568 -0.0561  0.5657
  661TMC3     H 9839   2.142   3.401  12.494 -1.6400 -3.0508  2.4749
  661TMC3    H1 9840   1.746   3.441  12.662  2.1310 -0.0726  1.7308
  661TMC3    H2 9841   1.858   3.658  12.315 -1.6251 -0.4145  0.4298
  661TMC3    C7 9842   1.655   3.591  12.447 -0.4191 -0.0035  0.0836
  661TMC3    C8 9843   2.078   3.560  12.281 -0.0954 -0.6074  0.3275
  661TMC3    O1 9844   1.642   3.680  12.364 -0.1959  0.3114  0.0322
  661TMC3    O2 9845   2.055   3.659  12.216  0.4659  0.3117  0.1484
  662MPD2     C 9846   2.747   3.475  17.186 -0.4778 -0.5887 -0.4689
  662MPD2    C1 9847   2.726   3.353  17.246 -0.7420  0.2915 -0.4489
  662MPD2    C2 9848   2.682   3.347  17.375 -0.2928 -0.8612  0.3939
  662MPD2    C3 9849   2.645   3.460  17.443 -0.3308 -0.6424 -0.2849
  662MPD2    C4 9850   2.658   3.580  17.381 -0.2778 -0.2704 -0.1556
  662MPD2    C5 9851   2.709   3.588  17.255 -0.0710  0.1551  0.1988
  662MPD2     H 9852   2.680   3.253  17.430 -1.5622 -2.6127 -2.6165
  662MPD2    H1 9853   2.622   3.668  17.433 -0.9328 -1.9884  2.2738
  662MPD2    H2 9854   2.797   3.476  17.090  1.5280 -3.4209  0.5300
  662MPD2    H3 9855   2.727   3.687  17.214 -0.0263  0.5477  1.1577
  662MPD2     N 9856   2.591   3.457  17.578  0.3338 -0.5028  0.5192
  662MPD2    H5 9857   2.564   3.547  17.616 -1.2180 -0.9893  0.5542
  662MPD2    N1 9858   2.775   3.236  17.190 -0.1173  0.1525  0.3149
  662MPD2    H7 9859   2.779   3.160  17.257  2.1546 -1.5483 -1.7283
  663TMC3    C1 9860   2.861   3.082  17.052  0.5988  0.2211 -0.2282
  663TMC3    C2 9861   2.742   3.022  17.048  0.7727  0.8313 -0.3018
  663TMC3    C3 9862   2.719   2.895  17.074  0.5184  0.2467  0.9184
  663TMC3    C4 9863   2.964   3.010  17.116 -0.1234  0.6849  0.4022
  663TMC3    C5 9864   2.947   2.874  17.134  0.4036  0.8045 -0.1685
  663TMC3    C6 9865   2.827   2.816  17.103 -1.0776  0.3575 -0.4360
  663TMC3     C 9866   2.834   3.219  17.062  0.7371  0.1946  0.3438
  663TMC3     O 9867   2.814   3.284  16.962 -0.2272 -0.1881 -0.2849
  663TMC3     H 9868   2.662   3.071  16.994 -1.0663 -1.0250  0.7529
  663TMC3    H1 9869   3.060   3.055  17.137  0.0112  0.7414 -0.3197
  663TMC3    H2 9870   2.809   2.709  17.106  0.8374  0.0143 -1.2819
  663TMC3    C7 9871   3.022   2.816  17.238  0.3520 -0.0128 -0.0522
  663TMC3    C8 9872   2.621   2.877  17.169 -0.3211  0.7488  0.3066
  663TMC3    O1 9873   3.127   2.868  17.262 -0.2924 -0.4125 -0.4449
  663TMC3    O2 9874   2.627   2.776  17.239  0.1195  0.1892 -0.3994
  664MPD2     C 9875   0.822   1.097  17.742 -0.0588 -0.1463  0.3890
  664MPD2    C1 9876   0.851   1.227   0.023 -0.0663 -0.7706  0.6079
  664MPD2    C2 9877   0.804   1.274   0.146 -0.7331  0.7224 -0.2365
  664MPD2    C3 9878   0.734   1.190   0.228 -0.1182 -0.0986  0.1560
  664MPD2    C4 9879   0.702   1.059   0.194  0.0124  0.3113  0.0150
  664MPD2    C5 9880   0.744   1.021   0.070  0.1607  0.2177 -0.7025
  664MPD2     H 9881   0.828   1.375   0.177  0.6763  0.4959 -0.5935
  664MPD2    H1 9882   0.648   0.982   0.247  1.2947  0.1027  1.0233
  664MPD2    H2 9883   0.835   1.051  17.644  2.2400  2.0972 -0.3737
  664MPD2    H3 9884   0.714   0.924   0.033  1.9542 -1.4956  2.3169
  664MPD2     N 9885   0.716   1.224   0.364  0.6624  0.8399  0.2348
  664MPD2    H5 9886   0.767   1.306   0.395  0.1810  1.0843  0.3728
  664MPD2    N1 9887   0.918   1.310  17.690  0.1369 -0.2832 -0.2887
  664MPD2    H7 9888   0.937   1.404  17.722 -1.9811 -0.5922  1.8797
  665TMC3    C1 9889   0.647   1.205   0.598 -0.2214  0.0625 -0.2032
  665TMC3    C2 9890   0.532   1.210   0.677  0.1321 -0.0818  0.1400
  665TMC3    C3 9891   0.528   1.289   0.783  0.0054 -0.1276 -0.0733
  665TMC3    C4 9892   0.758   1.272   0.634  0.3375  0.1799 -0.6653
  665TMC3    C5 9893   0.755   1.347   0.748  0.3364  0.0561  0.2303
  665TMC3    C6 9894   0.638   1.356   0.819 -0.3327  0.0573 -0.6735
  665TMC3     C 9895   0.635   1.163   0.459 -0.2941  0.9089  0.3204
  665TMC3     O 9896   0.551   1.080   0.446  0.0690  0.1193 -0.6107
  665TMC3     H 9897   0.452   1.140   0.656  0.8384 -0.6202 -0.7606
  665TMC3    H1 9898   0.845   1.269   0.570  2.8769 -2.2259  2.9084
  665TMC3    H2 9899   0.618   1.435   0.890 -1.2354 -2.1486  1.5469
  665TMC3    C7 9900   0.878   1.400   0.793 -0.1682  0.5890  0.2725
  665TMC3    C8 9901   0.399   1.310   0.848 -0.2343 -0.2457  0.4060
  665TMC3    O1 9902   0.951   1.444   0.707  0.1479  0.1393 -0.0635
  665TMC3    O2 9903   0.297   1.292   0.782 -0.0703 -0.2841 -0.6487
  666TMC3    C1 9904   0.113   0.676  10.080 -0.3142  0.5150  0.2438
  666TMC3    C2 9905   0.213   0.610  10.150 -0.1110 -0.4520 -0.2896
  666TMC3    C3 9906   0.301   0.688  10.224  0.4606 -0.3557 -0.2336
  666TMC3    C4 9907   0.097   0.812  10.094  0.9308 -0.3524  0.2454
  666TMC3    C5 9908   0.194   0.882  10.160  0.2639  0.4653 -0.2236
  666TMC3    C6 9909   0.293   0.823  10.241  0.6687  0.2916 -0.0915
  666TMC3     C 9910   0.002   0.602  10.019 -0.8940 -0.1457 -0.0890
  666TMC3     O 9911   4.673   0.672   9.938  0.3905 -0.2766 -0.1814
  666TMC3     H 9912   0.220   0.502  10.154  1.7083 -0.3838 -1.5274
  666TMC3    H1 9913   0.023   0.872  10.044  0.1242 -0.2652  1.5559
  666TMC3    H2 9914   0.364   0.883  10.297  1.3532  1.1533 -1.9082
  666TMC3    C7 9915   0.149   1.013  10.201  0.8111  0.1507  0.1354
  666TMC3    C8 9916   0.397   0.616  10.290  0.2590 -1.1999 -0.5442
  666TMC3    O1 9917   0.027   1.012  10.220  0.2345  0.1633 -0.1442
  666TMC3    O2 9918   0.388   0.496  10.301 -0.6117  0.4864  0.0826
  667MPD2     C 9919   1.706   0.667  14.879  0.2060  0.2064  0.8795
  667MPD2    C1 9920   1.618   0.732  14.964 -0.1640  0.7700  0.3009
  667MPD2    C2 9921   1.521   0.658  15.025 -0.9169  0.1248 -0.2088
  667MPD2    C3 9922   1.500   0.525  14.995  0.3265  0.2854  0.3166
  667MPD2    C4 9923   1.595   0.454  14.914 -0.1900 -0.0969 -0.2402
  667MPD2    C5 9924   1.698   0.527  14.864 -0.4283  0.6307 -0.0685
  667MPD2     H 9925   1.454   0.707  15.094 -1.1964 -0.4745 -0.0496
  667MPD2    H1 9926   1.588   0.347  14.899  2.3436 -0.0967 -1.4849
  667MPD2    H2 9927   1.778   0.725  14.823 -0.7023 -1.0710 -1.6280
  667MPD2    H3 9928   1.761   0.469  14.798 -0.3786  0.8361 -0.2041
  667MPD2     N 9929   1.394   0.456  15.051  0.4200 -0.3438 -0.2573
  667MPD2    H5 9930   1.403   0.355  15.047 -0.5298 -0.4867  1.1160
  667MPD2    N1 9931   1.629   0.869  14.996 -0.4145 -0.0400 -0.6188
  667MPD2    H7 9932   1.592   0.901  15.085 -0.4989  0.9014 -0.9847
  668TMC3    C1 9933   1.712   1.093  14.995  0.1384  0.1666  0.1172
  668TMC3    C2 9934   1.820   1.178  14.965 -0.0520  0.0487  0.2442
  668TMC3    C3 9935   1.846   1.288  15.038  0.6018  0.6903  0.2237
  668TMC3    C4 9936   1.632   1.130  15.105 -0.6050 -0.1137 -0.0569
  668TMC3    C5 9937   1.664   1.251  15.163 -0.1440  0.4010 -0.0269
  668TMC3    C6 9938   1.767   1.331  15.134 -0.5567  0.3046 -0.2179
  668TMC3     C 9939   1.697   0.960  14.924 -0.6035  0.3770  0.4531
  668TMC3     O 9940   1.763   0.942  14.822  0.5878 -0.2960  0.3823
  668TMC3     H 9941   1.885   1.148  14.884 -1.0789  1.2664 -1.0131
  668TMC3    H1 9942   1.556   1.063  15.145 -0.5484 -0.7536 -1.0093
  668TMC3    H2 9943   1.777   1.428  15.181  0.0945  0.7970 -1.3723
  668TMC3    C7 9944   1.619   1.268  15.303  0.3759 -0.9673  0.4231
  668TMC3    C8 9945   1.981   1.345  15.040  0.8322 -0.2288  0.2142
  668TMC3    O1 9946   1.692   1.324  15.381 -0.5180 -0.1188  0.5328
  668TMC3    O2 9947   2.035   1.365  15.147 -0.0892  0.2764  0.4468
  669TMC3    C1 9948   4.352   1.440  14.957 -0.5953 -0.3993  0.0580
  669TMC3    C2 9949   4.261   1.424  14.856  0.7599 -0.3037 -0.7965
  669TMC3    C3 9950   4.297   1.441  14.725 -0.1469  0.0196  0.8195
  669TMC3    C4 9951   4.478   1.474  14.926  0.4673  0.5246 -0.5614
  669TMC3    C5 9952   4.512   1.506  14.796  0.0208  0.5844 -1.2726
  669TMC3    C6 9953   4.421   1.495  14.688  0.2298 -0.0743 -0.8218
  669TMC3     C 9954   4.328   1.327  15.047  0.5933 -0.2846 -0.2924
  669TMC3     O 9955   4.217   1.308  15.094 -0.3109  0.2585  0.2226
  669TMC3     H 9956   4.164   1.381  14.882  0.1720  0.9678 -0.8763
  669TMC3    H1 9957   4.546   1.495  15.007 -0.2950 -1.7699  0.6545
  669TMC3    H2 9958   4.454   1.511  14.586  1.6287 -1.6518 -0.6209
  669TMC3    C7 9959   4.646   1.555  14.785  0.2443  0.8248 -0.0462
  669TMC3    C8 9960   4.198   1.394  14.632  0.0677 -0.4582 -0.3774
  669TMC3    O1 9961   4.708   1.559  14.891  0.3066  0.8376  0.0469
  669TMC3    O2 9962   4.106   1.332  14.674  0.0111 -0.3338 -0.1514
  670MPD2     C 9963   2.954   3.401  13.407  0.0989 -0.4349  0.6137
  670MPD2    C1 9964   3.022   3.442  13.521 -0.6849  0.0061 -0.3309
  670MPD2    C2 9965   2.958   3.436  13.653 -0.2885  0.0498 -0.0256
  670MPD2    C3 9966   2.846   3.353  13.664  0.1467  0.4746 -0.1411
  670MPD2    C4 9967   2.783   3.310  13.549  0.6735 -0.9357 -0.5030
  670MPD2    C5 9968   2.837   3.339  13.426  0.6389 -0.1366 -0.1068
  670MPD2     H 9969   3.013   3.484  13.733  0.8771 -0.0723 -0.7510
  670MPD2    H1 9970   2.692   3.252  13.546  2.0727 -3.2268  0.8666
  670MPD2    H2 9971   2.985   3.428  13.307 -1.8408 -0.8481 -0.0948
  670MPD2    H3 9972   2.778   3.309  13.340  0.6682  2.5238 -1.0554
  670MPD2     N 9973   2.804   3.324  13.794 -0.5529 -0.5375  0.4393
  670MPD2    H5 9974   2.852   3.373  13.869 -1.8193 -0.9047  1.4832
  670MPD2    N1 9975   3.143   3.506  13.504 -0.4819 -0.2405 -0.2066
  670MPD2    H7 9976   3.179   3.567  13.577 -2.3888 -0.5013  0.9439
  671TMC3    C1 9977   2.709   3.209  13.972  0.5994 -0.4200  0.0285
  671TMC3    C2 9978   2.827   3.203  14.040 -0.1551 -0.2901  0.5754
  671TMC3    C3 9979   2.835   3.118  14.153 -0.1391  0.4985  0.1966
  671TMC3    C4 9980   2.609   3.134  14.015 -0.4535 -0.4301 -0.0824
  671TMC3    C5 9981   2.621   3.047  14.120 -0.0533  0.6615  0.1563
  671TMC3    C6 9982   2.733   3.048  14.199  0.5376 -0.7857 -0.4672
  671TMC3     C 9983   2.722   3.224  13.829 -0.6656  0.0116  0.4029
  671TMC3     O 9984   2.645   3.146  13.770  0.5938 -0.2522 -0.7929
  671TMC3     H 9985   2.920   3.253  14.015 -0.1710  0.5096  2.0798
  671TMC3    H1 9986   2.510   3.141  13.972 -0.0687  0.4702 -0.8336
  671TMC3    H2 9987   2.753   2.964  14.265  1.6851 -1.0428 -1.1491
  671TMC3    C7 9988   2.583   2.912  14.072  0.2618  0.7434 -0.2540
  671TMC3    C8 9989   2.966   3.061  14.170 -0.2843  0.5333  0.0601
  671TMC3    O1 9990   2.572   2.820  14.147 -0.1878  0.1917 -0.4340
  671TMC3    O2 9991   3.036   3.052  14.069  0.3593 -0.0926  0.4752
  672MPD2     C 9992   3.094   3.970   1.278 -0.2500 -0.4075  0.0065
  672MPD2    C1 9993   3.197   3.969   1.186  0.0484  0.9348  0.1149
  672MPD2    C2 9994   3.316   4.027   1.224 -0.6751  0.3777 -0.8363
  672MPD2    C3 9995   3.334   4.090   1.348  0.4858 -0.4570  0.5024
  672MPD2    C4 9996   3.226   4.087   1.429 -0.6224  0.2811 -0.0753
  672MPD2    C5 9997   3.110   4.027   1.406  0.6199 -0.4445  0.8640
  672MPD2     H 9998   3.402   4.020   1.157 -1.7147 -2.3098 -1.8792
  672MPD2    H1 9999   3.227   4.138   1.525 -0.4221 -1.7883  1.0255
  672MPD2    H210000   3.000   3.918   1.264  0.2319 -1.4006  0.4352
  672MPD2    H310001   3.026   4.035   1.474  0.8538  1.9380  0.8911
  672MPD2     N10002   3.453   4.154   1.389  0.2850 -0.1208 -0.1387
  672MPD2    H510003   3.440   4.213   1.471 -1.7857  0.2208 -0.7187
  672MPD2    N110004   3.184   3.922   1.054  0.4570  0.1139  0.0192
  672MPD2    H710005   3.273   3.913   1.006  1.5480 -1.9922  2.4856
  673TMC3    C110006   3.095   3.843   0.856  0.1431  0.0932 -0.0610
  673TMC3    C210007   3.175   3.737   0.839  0.0724  0.4152 -0.6341
  673TMC3    C310008   3.178   3.682   0.709 -0.7389  0.0918 -0.0164
  673TMC3    C410009   3.016   3.890   0.754  0.1342 -0.3476  0.4866
  673TMC3    C510010   3.012   3.825   0.636  0.6029  0.1066  0.4021
  673TMC3    C610011   3.095   3.721   0.604  0.6371 -0.4932  0.8292
  673TMC3     C10012   3.066   3.893   0.993  0.5251 -0.1234  0.5617
  673TMC3     O10013   2.951   3.923   1.020  0.2071 -0.3167 -0.8891
  673TMC3     H10014   3.233   3.703   0.924 -0.2483  0.8320 -0.2505
  673TMC3    H110015   2.946   3.969   0.774 -1.0311 -0.7942 -1.9218
  673TMC3    H210016   3.083   3.664   0.513  0.3903  0.7492  0.0771
  673TMC3    C710017   2.915   3.861   0.533  0.8375  0.2914  0.6739
  673TMC3    C810018   3.275   3.576   0.671 -0.2073  0.0407 -0.5822
  673TMC3    O110019   2.894   3.773   0.450  0.1044 -1.0239 -0.7359
  673TMC3    O210020   3.236   3.501   0.580 -0.0147  0.1538 -0.0145
  674MPD2     C10021   2.749   4.529  17.726  1.0136  0.0776  0.2523
  674MPD2    C110022   2.699   4.403  17.753 -0.2842 -0.5242  0.4997
  674MPD2    C210023   2.566   4.382   0.004  0.1924 -0.1871 -0.4886
  674MPD2    C310024   2.484   4.487  17.733  0.0892  0.8743  0.2082
  674MPD2    C410025   2.533   4.609  17.703  0.6833 -0.4666 -0.3469
  674MPD2    C510026   2.666   4.635  17.698  0.2897  0.1528  0.3040
  674MPD2     H10027   2.528   4.285   0.033 -0.2071 -0.0976 -0.7224
  674MPD2    H110028   2.461   4.687  17.679  1.3379  0.7973  1.7986
  674MPD2    H210029   2.855   4.550  17.710  0.3933  3.3216  0.3071
  674MPD2    H310030   2.714   4.732  17.691  1.5639 -0.5173 -0.1779
  674MPD2     N10031   2.348   4.456   0.003  0.0453 -0.3649 -0.2295
  674MPD2    H510032   2.326   4.361   0.030  2.1106 -0.4126  1.2784
  674MPD2    N110033   2.787   4.300   0.020 -0.0216  0.7356 -0.2704
  674MPD2    H710034   2.887   4.319   0.029  0.0253 -0.4440  1.7151
  675TMC3    C110035   2.852   4.062   0.043  0.0415  0.2593 -0.3291
  675TMC3    C210036   2.817   3.928   0.040 -0.3235 -0.4178  0.8151
  675TMC3    C310037   2.899   3.836   0.106  0.0295 -0.1263 -0.4485
  675TMC3    C410038   2.952   4.097   0.129  0.3435 -0.1723 -0.3811
  675TMC3    C510039   3.023   4.006   0.201 -0.3692 -0.8103 -0.0305
  675TMC3    C610040   3.005   3.874   0.181  1.2932 -0.1560 -0.2512
  675TMC3     C10041   2.750   4.160   0.008 -0.1620  0.1318  0.0407
  675TMC3     O10042   2.654   4.118  17.704  0.0386  0.6488 -0.6298
  675TMC3     H10043   2.733   3.889  17.737 -0.5165  2.1746 -0.6554
  675TMC3    H110044   2.955   4.200   0.164  1.9715 -0.6970  1.0319
  675TMC3    H210045   3.063   3.795   0.226  0.2935 -2.3346 -2.8258
  675TMC3    C710046   3.125   4.053   0.299  0.1970 -0.0078 -0.1440
  675TMC3    C810047   2.860   3.698   0.099  0.1651 -0.5255  0.1151
  675TMC3    O110048   3.120   4.171   0.327 -0.0817  0.3086  0.0676
  675TMC3    O210049   2.858   3.650  17.740 -0.2882 -0.1617  0.3666
  676MPD2     C10050   0.754   1.714  11.633  0.6707 -0.1071  0.4483
  676MPD2    C110051   0.634   1.653  11.661 -0.1717  0.6661  0.2213
  676MPD2    C210052   0.626   1.516  11.665 -0.1078  0.6817  0.0687
  676MPD2    C310053   0.731   1.436  11.624  0.3367  0.0988 -0.4131
  676MPD2    C410054   0.855   1.496  11.600 -0.3589  0.4973 -0.1300
  676MPD2    C510055   0.866   1.631  11.612 -0.6771 -0.5283 -0.0456
  676MPD2     H10056   0.532   1.472  11.694 -0.6760  1.1762 -1.0199
  676MPD2    H110057   0.943   1.444  11.563 -0.0604  0.4144  0.7044
  676MPD2    H210058   0.768   1.821  11.642  2.7128 -0.3210 -0.1041
  676MPD2    H310059   0.959   1.686  11.597 -0.3253 -0.4708  2.3056
  676MPD2     N10060   0.723   1.299  11.613  0.2273  0.0445 -0.2151
  676MPD2    H510061   0.802   1.247  11.577  0.5550 -1.9722  3.4362
  676MPD2    N110062   0.518   1.724  11.690 -0.6520  0.3640  0.1357
  676MPD2    H710063   0.435   1.666  11.691  0.1973 -0.9225 -3.1680
  677TMC3    C110064   0.380   1.895  11.771  0.3521 -0.9242  0.4459
  677TMC3    C210065   0.273   1.804  11.779 -0.3506 -0.0879  0.7631
  677TMC3    C310066   0.165   1.842  11.839 -0.9296  0.5133 -0.7394
  677TMC3    C410067   0.366   2.022  11.824 -0.0251  0.8561 -0.5267
  677TMC3    C510068   0.256   2.051  11.896  0.4107  0.2199  0.3601
  677TMC3    C610069   0.149   1.963  11.892  0.1443 -0.3592  0.6115
  677TMC3     C10070   0.505   1.860  11.708  0.4143  0.2296 -0.3116
  677TMC3     O10071   0.585   1.950  11.701 -0.1479 -0.0887 -0.2316
  677TMC3     H10072   0.268   1.714  11.718  0.4894  0.4687 -0.1395
  677TMC3    H110073   0.447   2.093  11.829  0.8733  0.0873 -4.6576
  677TMC3    H210074   0.063   1.991  11.953  0.8086  0.5858  1.1074
  677TMC3    C710075   0.278   2.129  12.017 -0.0062  0.3744 -0.4870
  677TMC3    C810076   0.053   1.753  11.847  0.0349 -0.0225  0.1105
  677TMC3    O110077   0.218   2.103  12.119  0.0485 -0.6323  0.1542
  677TMC3    O210078   4.739   1.724  11.738  0.5450  0.2225  0.2449
  678MPD2     C10079   2.612   2.090   1.523 -0.0142  0.4268  0.9009
  678MPD2    C110080   2.533   2.075   1.410 -0.1165  0.3414  0.1889
  678MPD2    C210081   2.399   2.040   1.423  0.5370 -0.6045  0.2923
  678MPD2    C310082   2.345   2.011   1.551 -0.2012 -0.2253  0.1665
  678MPD2    C410083   2.431   2.011   1.661 -0.2959 -0.1800 -0.5923
  678MPD2    C510084   2.563   2.055   1.644 -0.6100  0.0559 -0.1655
  678MPD2     H10085   2.329   2.037   1.340 -0.4990  3.5354  1.0449
  678MPD2    H110086   2.402   1.974   1.758  2.9723 -1.9447 -0.2658
  678MPD2    H210087   2.719   2.100   1.515 -0.1385 -0.6395 -1.8608
  678MPD2    H310088   2.630   2.060   1.729 -0.6527 -0.2633 -0.1112
  678MPD2     N10089   2.212   1.960   1.557  0.4621  0.2661 -0.2242
  678MPD2    H510090   2.161   1.973   1.470  0.0293 -0.9589 -0.1478
  678MPD2    N110091   2.599   2.097   1.290 -0.1052 -0.3013 -0.3086
  678MPD2    H710092   2.701   2.093   1.285 -0.0066  2.1560 -0.3782
  679TMC3    C110093   2.840   2.114   0.965 -0.1022  0.3510  0.0799
  679TMC3    C210094   2.748   2.077   1.066 -0.2146 -0.7257  0.7480
  679TMC3    C310095   2.622   2.125   1.053  0.1623 -0.1639  0.6669
  679TMC3    C410096   2.814   2.179   0.851 -0.1910  0.3408  0.4775
  679TMC3    C510097   2.685   2.227   0.848  0.0974 -0.1681  0.1167
  679TMC3    C610098   2.591   2.206   0.944  0.3797 -0.1273  0.0121
  679TMC3     C10099   2.945   2.020   0.945  0.2217 -0.2067  0.6759
  679TMC3     O10100   2.930   1.908   0.991  0.3047 -0.4797 -0.2137
  679TMC3     H10101   2.778   2.018   1.151  0.2446 -1.9690 -0.2798
  679TMC3    H110102   2.867   2.175   0.756 -0.1983  1.0337  0.4448
  679TMC3    H210103   2.494   2.252   0.927  0.7322  0.9467  0.9171
  679TMC3    C710104   2.653   2.321   0.735 -0.1770  0.0011  0.2462
  679TMC3    C810105   2.534   2.117   1.170  0.4830 -0.5110  0.1990
  679TMC3    O110106   2.537   2.362   0.730  0.2349  0.1418  0.6035
  679TMC3    O210107   2.415   2.136   1.148  0.2480 -0.1619 -0.4308
  680MPD2     C10108   2.008   0.508  13.728 -0.3394  0.0952 -0.1240
  680MPD2    C110109   2.141   0.498  13.744 -0.5373  0.8288  0.0050
  680MPD2    C210110   2.213   0.598  13.796 -0.5907 -0.0658  0.1382
  680MPD2    C310111   2.148   0.722  13.829 -0.0045  0.3157  0.1319
  680MPD2    C410112   2.017   0.738  13.800  0.4263 -0.2167  0.4976
  680MPD2    C510113   1.947   0.628  13.755 -0.2522  0.3652  0.3048
  680MPD2     H10114   2.317   0.579  13.820 -0.3659 -0.2806 -0.9859
  680MPD2    H110115   1.965   0.830  13.825  0.2077 -0.4753  0.9820
  680MPD2    H210116   1.937   0.440  13.685  0.5663 -1.1371  0.3305
  680MPD2    H310117   1.841   0.633  13.735 -0.0572 -1.6849 -1.2107
  680MPD2     N10118   2.219   0.828  13.887  0.0053  1.0502 -0.0722
  680MPD2    H510119   2.161   0.910  13.902 -1.0040 -0.3775  3.7423
  680MPD2    N110120   2.210   0.379  13.704  0.6119 -0.3154 -0.1646
  680MPD2    H710121   2.311   0.387  13.711  0.8001 -1.6259 -1.5034
  681TMC3    C110122   2.255   0.147  13.647 -0.2671  0.3316  0.8518
  681TMC3    C210123   2.209   0.032  13.699  0.5585 -0.3317 -0.1842
  681TMC3    C310124   2.288   4.707  13.795  0.1254 -0.1804 -0.2946
  681TMC3    C410125   2.383   0.195  13.679  0.3870 -0.3947 -0.2678
  681TMC3    C510126   2.458   0.125  13.763 -0.0237 -0.4253  0.4030
  681TMC3    C610127   2.410   0.020  13.831 -0.1883 -0.0953 -0.0866
  681TMC3     C10128   2.158   0.260  13.653  0.5187 -0.8914  0.4009
  681TMC3     O10129   2.039   0.232  13.634  0.5837 -0.7502 -0.0240
  681TMC3     H10130   2.110   4.736  13.673 -1.2731  3.0585  2.2614
  681TMC3    H110131   2.426   0.273  13.617  0.0152  1.4490  1.8097
  681TMC3    H210132   2.459   4.726  13.922 -0.4556  2.8797  1.1519
  681TMC3    C710133   2.599   0.168  13.796 -0.6459 -0.1650 -0.6322
  681TMC3    C810134   2.198   4.658  13.906 -0.3043  0.3044  0.2668
  681TMC3    O110135   2.640   0.135  13.908  0.2679 -0.8982 -0.7490
  681TMC3    O210136   2.103   4.597  13.868 -0.4918  0.1788  0.3906
  682MPD2     C10137   4.378   1.856  11.114 -0.0307  0.5146 -0.5933
  682MPD2    C110138   4.407   1.719  11.106  0.2220  0.1761  0.3320
  682MPD2    C210139   4.421   1.647  11.222  0.2610  0.4577  0.6516
  682MPD2    C310140   4.404   1.709  11.345 -0.3235 -0.0078  0.4804
  682MPD2    C410141   4.386   1.844  11.351 -0.2481 -0.0047 -0.9173
  682MPD2    C510142   4.371   1.920  11.236  0.5585 -0.7718  0.3320
  682MPD2     H10143   4.444   1.542  11.210 -3.0531 -0.3234  1.0342
  682MPD2    H110144   4.373   1.901  11.442  3.0157  1.1948 -1.1984
  682MPD2    H210145   4.374   1.925  11.030  0.1828  0.2855 -0.7914
  682MPD2    H310146   4.358   2.028  11.234 -0.5762 -0.9180  0.3581
  682MPD2     N10147   4.429   1.635  11.467  0.1928 -0.0934  0.4220
  682MPD2    H510148   4.425   1.694  11.549 -1.6108  1.6386 -0.9102
  682MPD2    N110149   4.421   1.641  10.992  0.2055 -0.9729  0.2462
  682MPD2    H710150   4.444   1.543  11.004  0.0566 -1.1951 -1.3140
  683TMC3    C110151   4.473   1.490  11.831  0.0089 -0.3355  0.2659
  683TMC3    C210152   4.444   1.357  11.867  0.5778  0.2863 -0.5969
  683TMC3    C310153   4.432   1.270  11.761  0.7335  0.2042  0.5790
  683TMC3    C410154   4.481   1.530  11.702  0.0189 -0.1081  0.1929
  683TMC3    C510155   4.437   1.444  11.602 -0.1524 -0.3268 -0.2137
  683TMC3    C610156   4.412   1.314  11.632 -0.0643  0.3043  0.7742
  683TMC3     C10157   4.422   1.595  11.924 -0.4270 -0.2063  0.4554
  683TMC3     O10158   4.473   1.711  11.919  0.8939 -0.0354 -0.1551
  683TMC3     H10159   4.434   1.325  11.970 -1.6806 -0.4496 -1.0409
  683TMC3    H110160   4.501   1.635  11.685 -2.6764  0.7423  2.1740
  683TMC3    H210161   4.382   1.246  11.553  2.0893 -0.5228  0.6552
  683TMC3    C710162   4.407   1.500  11.475  0.3245 -0.4111  1.0668
  683TMC3    C810163   4.404   1.130  11.768  0.0093  0.1354 -0.5660
  683TMC3    O110164   4.387   1.416  11.390  0.7633  0.4827  0.1918
  683TMC3    O210165   4.356   1.072  11.675 -0.4594  0.1081 -0.1218
  684MPD2     C10166   2.713   1.509  16.575  0.2822 -0.2561 -0.1825
  684MPD2    C110167   2.680   1.604  16.485  0.0483  0.0542  0.4500
  684MPD2    C210168   2.662   1.733  16.527  0.0182 -0.2989 -0.0129
  684MPD2    C310169   2.675   1.764  16.662 -0.3023  0.1883  0.2292
  684MPD2    C410170   2.706   1.664  16.754  0.4070 -0.0183  0.0479
  684MPD2    C510171   2.730   1.537  16.707 -0.2113  0.1830  0.4986
  684MPD2     H10172   2.636   1.811  16.456  0.9881 -0.9433 -1.0929
  684MPD2    H110173   2.723   1.685  16.859  1.2044 -0.9002  0.0860
  684MPD2    H210174   2.726   1.405  16.548  0.5674 -0.3881  0.4841
  684MPD2    H310175   2.753   1.458  16.778 -0.2082 -0.2996 -0.0392
  684MPD2     N10176   2.669   1.900  16.706 -0.2308  0.1526  0.0403
  684MPD2    H510177   2.701   1.922  16.800 -0.6987 -0.7095  0.4071
  684MPD2    N110178   2.668   1.584  16.351 -0.3697  0.2235  0.8976
  684MPD2    H710179   2.619   1.658  16.302  2.3939  0.9232 -0.8049
  685TMC3    C110180   2.690   1.490  16.131  0.6525 -0.3282  0.2090
  685TMC3    C210181   2.579   1.563  16.101  0.5434  0.2778 -0.1006
  685TMC3    C310182   2.581   1.630  15.983 -0.3713  0.2734  0.1507
  685TMC3    C410183   2.801   1.486  16.057 -0.2537  1.0882 -0.2593
  685TMC3    C510184   2.800   1.559  15.942  0.1925 -0.1518 -0.8681
  685TMC3    C610185   2.688   1.629  15.895  0.4510 -0.0782 -0.3673
  685TMC3     C10186   2.716   1.482  16.278 -0.2079  0.0699  0.2344
  685TMC3     O10187   2.802   1.402  16.310  0.0022  0.1667  0.2641
  685TMC3     H10188   2.487   1.573  16.157 -1.0898 -2.1150 -2.3371
  685TMC3    H110189   2.890   1.433  16.088  1.1868  3.4285 -0.3862
  685TMC3    H210190   2.678   1.674  15.797  2.5705 -0.0097 -0.5416
  685TMC3    C710191   2.923   1.624  15.903  1.0905 -0.5375 -0.1333
  685TMC3    C810192   2.452   1.658  15.921 -0.8759 -0.2376 -0.1007
  685TMC3    O110193   2.918   1.693  15.801 -0.2720 -0.4571 -0.4858
  685TMC3    O210194   2.442   1.606  15.810  0.4265  0.1445  0.0738
  686MPD2     C10195   4.292   1.888  15.659  0.4000 -0.2308 -0.7587
  686MPD2    C110196   4.323   1.761  15.701 -0.5450 -0.0708 -0.7196
  686MPD2    C210197   4.376   1.667  15.610 -0.5401 -0.8294 -0.3554
  686MPD2    C310198   4.398   1.709  15.478  0.3723  0.1725 -0.6901
  686MPD2    C410199   4.362   1.832  15.438 -0.2851 -0.6606 -0.0236
  686MPD2    C510200   4.315   1.925  15.529  0.1741  0.5061  0.2656
  686MPD2     H10201   4.412   1.568  15.638 -1.7734 -0.9734  0.7295
  686MPD2    H110202   4.375   1.862  15.334 -0.4022 -0.2964  0.0673
  686MPD2    H210203   4.248   1.959  15.727 -0.2855  1.0265 -2.5070
  686MPD2    H310204   4.278   2.018  15.488 -2.2575 -0.0593  1.1850
  686MPD2     N10205   4.451   1.621  15.379 -0.3527  0.3588  0.1583
  686MPD2    H510206   4.475   1.662  15.290 -0.4841  2.6931  1.2163
  686MPD2    N110207   4.273   1.721  15.826  0.1401  0.8204  0.1929
  686MPD2    H710208   4.240   1.799  15.881 -0.9093  0.5874 -0.1182
  687TMC3    C110209   4.416   1.386  15.476  0.1755 -0.3928 -0.7599
  687TMC3    C210210   4.281   1.406  15.506  0.6201  0.1655  0.2581
  687TMC3    C310211   4.219   1.324  15.592  0.0685  0.2281 -0.1563
  687TMC3    C410212   4.486   1.283  15.532 -0.2425  0.0612 -0.5945
  687TMC3    C510213   4.416   1.200  15.617 -0.2165 -0.5156 -0.8942
  687TMC3    C610214   4.279   1.219  15.649 -0.9485 -0.4020  0.3824
  687TMC3     C10215   4.487   1.481  15.389  0.8729 -0.3621  0.1082
  687TMC3     O10216   4.570   1.422  15.321  0.1623 -0.6525  0.1861
  687TMC3     H10217   4.222   1.478  15.451  0.2453 -0.0546  0.3666
  687TMC3    H110218   4.589   1.261  15.505  0.5797  4.1411 -0.8263
  687TMC3    H210219   4.237   1.161  15.730 -1.9843  0.5831  0.5471
  687TMC3    C710220   4.490   1.090  15.674 -0.0900  0.2786 -0.0972
  687TMC3    C810221   4.081   1.358  15.638  0.4304  0.1401  0.4368
  687TMC3    O110222   4.430   0.989  15.708 -0.1786  0.0829 -0.8816
  687TMC3    O210223   4.016   1.267  15.685 -0.1964  0.0893 -0.2848
  688MPD2     C10224   3.473   0.550  17.613  0.3596  0.3172 -0.4590
  688MPD2    C110225   3.474   0.409  17.614  0.3037  0.2052 -0.1515
  688MPD2    C210226   3.533   0.338  17.504 -0.1394  0.0417 -1.1997
  688MPD2    C310227   3.586   0.412  17.397 -0.1032 -0.7672 -0.0935
  688MPD2    C410228   3.588   0.545  17.401  0.1696 -0.5468 -0.1659
  688MPD2    C510229   3.527   0.614  17.500 -0.2498 -0.0724  0.2198
  688MPD2     H10230   3.543   0.230  17.500  1.6657  0.1957 -0.9614
  688MPD2    H110231   3.654   0.598  17.333 -1.7341  1.9668 -0.0823
  688MPD2    H210232   3.429   0.609  17.692  1.0865 -0.7867  0.7792
  688MPD2    H310233   3.535   0.722  17.504  0.7562 -0.1856  1.4612
  688MPD2     N10234   3.649   0.356  17.287  0.0204  0.2021 -0.8524
  688MPD2    H510235   3.689   0.408  17.209  0.9466  0.0088 -0.5040
  688MPD2    N110236   3.421   0.338  17.725  0.0057  0.7482  0.3609
  688MPD2    H710237   3.421   0.237  17.714 -0.5572  0.8554 -0.5968
  689TMC3    C110238   3.329   0.288   0.184 -0.2585 -0.3036  0.3109
  689TMC3    C210239   3.275   0.339   0.300 -0.5283 -0.0092 -0.5961
  689TMC3    C310240   3.223   0.254   0.389  0.6118  0.0631  0.4044
  689TMC3    C410241   3.315   0.158   0.143 -0.0740 -0.1883 -1.1759
  689TMC3    C510242   3.252   0.080   0.234 -0.1302 -0.0005 -0.2853
  689TMC3    C610243   3.222   0.119   0.361 -0.4204  0.1454  0.1852
  689TMC3     C10244   3.386   0.389   0.093  0.1660 -0.0525  0.0573
  689TMC3     O10245   3.396   0.502   0.140 -0.4990 -0.3062  0.1059
  689TMC3     H10246   3.303   0.440   0.324  1.0849 -0.4402 -0.6880
  689TMC3    H110247   3.343   0.111   0.049  2.5928 -0.1142 -0.4213
  689TMC3    H210248   3.178   0.049   0.431  0.0329 -0.4828 -0.1597
  689TMC3    C710249   3.219   4.681   0.208 -0.5372  0.1460 -0.6731
  689TMC3    C810250   3.191   0.297   0.519  0.1670 -0.3449 -0.6337
  689TMC3    O110251   3.219   4.604   0.303  0.4000  0.2339  0.8125
  689TMC3    O210252   3.193   0.217   0.609 -0.1978 -0.2896  0.2999
  690MPD2     C10253   1.226   2.328  15.853  0.0023  0.1097  0.4693
  690MPD2    C110254   1.154   2.283  15.745 -0.2141  0.2876 -0.5415
  690MPD2    C210255   1.209   2.301  15.614 -0.3043 -0.6986 -0.1402
  690MPD2    C310256   1.338   2.352  15.603 -0.4717 -0.4651 -0.4859
  690MPD2    C410257   1.410   2.394  15.716  0.2355 -0.1923  0.1836
  690MPD2    C510258   1.350   2.388  15.832  0.5247  0.1544 -0.7136
  690MPD2     H10259   1.151   2.275  15.527  1.6258  2.3078 -2.3285
  690MPD2    H110260   1.512   2.427  15.699 -0.5380  0.7161 -2.7803
  690MPD2    H210261   1.185   2.336  15.953 -1.3327  3.0027 -0.3055
  690MPD2    H310262   1.400   2.405  15.927 -0.5764  1.0247 -0.2922
  690MPD2     N10263   1.386   2.349  15.473  0.1640 -0.0555 -0.2425
  690MPD2    H510264   1.322   2.318  15.399  0.5245  2.3613 -1.5595
  690MPD2    N110265   1.039   2.199  15.762  0.3850 -0.0352 -1.0727
  690MPD2    H710266   0.978   2.176  15.683  0.1447  2.1974 -1.5352
  691TMC3    C110267   0.901   2.048  15.899  0.4360 -0.1331  0.1790
  691TMC3    C210268   0.778   2.080  15.856  0.1615  0.7522  0.4628
  691TMC3    C310269   0.684   1.977  15.867 -0.3797 -0.1766 -0.4876
  691TMC3    C410270   0.940   1.918  15.935  0.5604 -0.3497  0.2323
  691TMC3    C510271   0.844   1.823  15.936  0.4272  0.0023  0.9008
  691TMC3    C610272   0.716   1.847  15.891  0.2527  0.3864  0.8000
  691TMC3     C10273   1.018   2.129  15.880 -0.3083 -0.6045  0.5091
  691TMC3     O10274   1.102   2.117  15.969 -0.2442  0.5574  0.0279
  691TMC3     H10275   0.754   2.184  15.834  0.9325  1.2147  1.8100
  691TMC3    H110276   1.037   1.907  15.982  0.8990 -1.4064 -0.7213
  691TMC3    H210277   0.639   1.779  15.924 -2.1317  1.7068 -2.0784
  691TMC3    C710278   0.870   1.729  16.032 -0.3079  0.2145 -0.0035
  691TMC3    C810279   0.542   1.995  15.825  0.0067  0.5624  0.8419
  691TMC3    O110280   0.908   1.760  16.143  0.2775 -0.3940  0.5294
  691TMC3    O210281   0.473   1.896  15.807 -0.0477 -0.0811  0.8067
  692TMC3    C110282   2.348   3.259  16.091 -0.2692 -0.3938  0.5052
  692TMC3    C210283   2.455   3.299  16.169 -0.1567  0.2388 -0.0648
  692TMC3    C310284   2.544   3.201  16.206  0.4225 -0.3283  0.2146
  692TMC3    C410285   2.322   3.131  16.061  0.2064 -0.1573 -0.2886
  692TMC3    C510286   2.400   3.037  16.122  0.3295  0.3888  0.2136
  692TMC3    C610287   2.504   3.069  16.198  0.1681  0.3840 -0.9605
  692TMC3     C10288   2.240   3.355  16.084 -0.0829 -0.4659  0.6703
  692TMC3     O10289   2.123   3.322  16.058 -0.3115  0.2247 -0.4604
  692TMC3     H10290   2.437   3.386  16.230 -0.7116  1.1024 -1.4602
  692TMC3    H110291   2.238   3.103  15.998  1.2450 -0.1483 -1.6804
  692TMC3    H210292   2.577   2.993  16.222 -0.7620 -0.0020  0.6428
  692TMC3    C710293   2.367   2.902  16.094  0.2143  0.0552  0.9350
  692TMC3    C810294   2.622   3.235  16.316  0.1430  0.1979 -0.0795
  692TMC3    O110295   2.298   2.874  15.996 -0.7658 -0.1962  0.1366
  692TMC3    O210296   2.620   3.150  16.410  0.4852 -0.1692 -0.0770
  693MPD2     C10297   1.922   1.027  10.584  0.2919  0.9886 -0.1484
  693MPD2    C110298   1.955   1.032  10.717 -0.0592  0.1832  0.1660
  693MPD2    C210299   2.087   1.026  10.759 -0.1542  0.2048 -0.3357
  693MPD2    C310300   2.187   1.000  10.669 -0.0321 -0.6220 -0.4082
  693MPD2    C410301   2.164   1.017  10.532 -0.2894 -0.2315 -0.5701
  693MPD2    C510302   2.026   1.021  10.491  0.4255  0.4701  0.0651
  693MPD2     H10303   2.112   1.026  10.865  0.9657  0.3065 -0.5954
  693MPD2    H110304   2.245   1.017  10.461  2.4075 -0.1093  2.5082
  693MPD2    H210305   1.819   1.013  10.552  0.3400  1.8677 -0.6715
  693MPD2    H310306   1.993   1.009  10.389  3.4313  0.6364 -0.9221
  693MPD2     N10307   2.317   0.967  10.699  0.8288  0.6640 -0.1137
  693MPD2    H510308   2.375   0.933  10.623  1.4127  0.8550  0.2435
  693MPD2    N110309   1.840   1.032  10.807 -0.7980  0.0240 -0.3055
  693MPD2    H710310   1.749   1.057  10.769 -1.0776 -1.3813 -0.5580
  694TMC3    C110311   1.725   0.964  10.988  1.1892  0.2394  0.3836
  694TMC3    C210312   1.667   0.848  10.938  0.1317  0.3587  0.0357
  694TMC3    C310313   1.589   0.773  11.021 -0.3837 -0.2061 -0.8903
  694TMC3    C410314   1.708   1.003  11.116  0.0398  0.0441 -0.1736
  694TMC3    C510315   1.620   0.933  11.190  0.1974  0.2221  0.4017
  694TMC3    C610316   1.560   0.819  11.150 -0.3166  1.1308  0.0849
  694TMC3     C10317   1.853   0.994  10.938  0.2999 -0.7933 -0.3888
  694TMC3     O10318   1.947   0.940  10.990 -0.6056  0.3722 -0.2458
  694TMC3     H10319   1.702   0.815  10.841 -1.7354  1.1034 -0.8949
  694TMC3    H110320   1.765   1.082  11.165 -0.4143 -0.2225  0.7696
  694TMC3    H210321   1.485   0.770  11.211 -0.7314 -1.2610 -2.3231
  694TMC3    C710322   1.617   0.980  11.333  0.5998 -0.3269 -0.5366
  694TMC3    C810323   1.518   0.658  10.964  0.0539  0.1677 -0.2188
  694TMC3    O110324   1.654   1.095  11.361 -0.2478  0.1161 -0.3584
  694TMC3    O210325   1.422   0.623  11.032 -0.1202  0.1992  0.0296
  695MPD2     C10326   3.455   2.624  13.290  0.0280  0.1181 -0.0259
  695MPD2    C110327   3.374   2.633  13.403 -0.5550 -0.7311  1.1454
  695MPD2    C210328   3.235   2.631  13.389 -0.0559 -0.3162  0.7897
  695MPD2    C310329   3.180   2.615  13.262  0.1815 -0.4528  0.6885
  695MPD2    C410330   3.266   2.614  13.152 -0.0759 -0.4753 -0.5326
  695MPD2    C510331   3.401   2.619  13.165 -0.6776  0.1679  0.1511
  695MPD2     H10332   3.169   2.642  13.474  0.5937 -0.7780  1.3579
  695MPD2    H110333   3.229   2.613  13.050 -0.0620 -2.1891 -0.5224
  695MPD2    H210334   3.563   2.622  13.297  0.0543  0.5062 -0.2925
  695MPD2    H310335   3.454   2.609  13.071  0.3249  1.7073  0.5507
  695MPD2     N10336   3.042   2.626  13.250  0.0579  0.3093  0.4532
  695MPD2    H510337   2.990   2.634  13.337 -0.2020 -0.3439  0.3546
  695MPD2    N110338   3.414   2.650  13.536 -0.0071 -0.0549 -0.0074
  695MPD2    H710339   3.342   2.671  13.605  0.1154 -1.4552  0.5456
  696TMC3    C110340   2.832   2.658  13.155 -0.5798  0.2481  0.0428
  696TMC3    C210341   2.781   2.601  13.264  0.1309 -0.6941  0.3582
  696TMC3    C310342   2.657   2.641  13.295  0.9301 -0.6730  0.1300
  696TMC3    C410343   2.767   2.737  13.071  0.0657  0.1066 -0.2744
  696TMC3    C510344   2.639   2.776  13.104 -0.1794 -0.2932 -0.6003
  696TMC3    C610345   2.588   2.733  13.223  0.1514  0.2507 -0.3936
  696TMC3     C10346   2.968   2.647  13.130 -0.1650 -0.7270 -0.5571
  696TMC3     O10347   3.005   2.677  13.018 -0.2023  0.5552  0.2796
  696TMC3     H10348   2.838   2.537  13.331  1.4451 -1.7378 -1.7531
  696TMC3    H110349   2.809   2.781  12.982 -0.3811  1.3084  0.1059
  696TMC3    H210350   2.487   2.760  13.250  0.7321  1.8301  0.1964
  696TMC3    C710351   2.602   2.904  13.048 -0.5792 -1.0653 -0.5014
  696TMC3    C810352   2.600   2.592  13.419 -0.3357  0.7010  0.4224
  696TMC3    O110353   2.631   2.919  12.931 -0.0766  0.4608 -0.2661
  696TMC3    O210354   2.612   2.470  13.431  0.1169 -0.7431 -0.3176
  697MPD2     C10355   2.406   4.620  15.871 -0.9330  0.1822 -0.0257
  697MPD2    C110356   2.385   4.595  15.738 -0.9770  0.1502  0.1956
  697MPD2    C210357   2.413   4.701  15.648  0.0576 -0.2615  0.2714
  697MPD2    C310358   2.460   0.084  15.698  0.1073 -0.3950 -0.4182
  697MPD2    C410359   2.483   0.100  15.833 -0.1816  0.0935  0.2686
  697MPD2    C510360   2.444   0.002  15.922  0.6237 -0.1874 -0.4844
  697MPD2     H10361   2.390   4.694  15.542 -0.4626  1.3803  0.2868
  697MPD2    H110362   2.510   0.198  15.871 -1.3925  0.3117  0.5779
  697MPD2    H210363   2.378   4.550  15.949 -0.3097  0.3973  0.3911
  697MPD2    H310364   2.425   0.018  16.028  1.3043 -0.5167 -0.3106
  697MPD2     N10365   2.466   0.186  15.593 -0.0898 -0.2907 -0.3930
  697MPD2    H510366   2.449   0.157  15.498 -0.1762 -0.0553 -0.4484
  697MPD2    N110367   2.329   4.478  15.685  0.0314 -0.1427  0.2676
  697MPD2    H710368   2.296   4.491  15.590 -2.5570  3.1071  1.6047
  698TMC3    C110369   2.528   0.379  15.484 -0.8717  0.4839 -0.1352
  698TMC3    C210370   2.651   0.435  15.468 -1.2123 -0.8036 -0.2743
  698TMC3    C310371   2.683   0.469  15.339 -0.6424 -0.1651  0.4223
  698TMC3    C410372   2.433   0.359  15.384  0.3317  0.9384  0.2840
  698TMC3    C510373   2.466   0.397  15.257 -0.2381 -0.0845 -0.1351
  698TMC3    C610374   2.596   0.455  15.231  0.1684 -0.2583 -0.0358
  698TMC3     C10375   2.506   0.318  15.616 -0.4479  0.0500 -0.0721
  698TMC3     O10376   2.537   0.375  15.716  0.3391  0.0295 -0.3568
  698TMC3     H10377   2.718   0.443  15.553  0.1962 -2.2681 -1.2498
  698TMC3    H110378   2.339   0.312  15.410  1.7385 -0.0597  3.5682
  698TMC3    H210379   2.618   0.485  15.129 -0.0563 -1.9415 -0.5866
  698TMC3    C710380   2.392   0.330  15.147 -0.0520 -0.6591 -0.3094
  698TMC3    C810381   2.826   0.494  15.327 -0.5932 -0.6297 -0.1615
  698TMC3    O110382   2.293   0.268  15.183 -0.0082 -0.5431  0.6734
  698TMC3    O210383   2.895   0.446  15.418 -0.5711 -0.1330  0.0173
  699TMC3    C110384   1.851   3.024  13.314 -0.0868 -0.2328  0.9103
  699TMC3    C210385   1.949   2.983  13.402  0.1392  0.1629  0.7920
  699TMC3    C310386   1.920   2.978  13.532 -0.4249  0.3810 -0.4821
  699TMC3    C410387   1.731   3.071  13.359  0.1641 -0.0467  1.0994
  699TMC3    C510388   1.707   3.079  13.495  0.3672 -0.6480 -0.1758
  699TMC3    C610389   1.799   3.031  13.577  0.2500 -0.1826 -0.2916
  699TMC3     C10390   1.890   3.062  13.176  0.2196 -0.1238 -0.1704
  699TMC3     O10391   1.873   3.178  13.140 -0.0716 -0.0828 -0.1024
  699TMC3     H10392   2.051   2.966  13.369 -0.3910  1.5367 -1.5795
  699TMC3    H110393   1.655   3.097  13.287 -0.2715  2.6989  2.5225
  699TMC3    H210394   1.774   3.024  13.682 -0.0479  0.7953 -0.2980
  699TMC3    C710395   1.574   3.092  13.554 -0.0181  0.1274 -0.1659
  699TMC3    C810396   1.965   2.865  13.612  0.7399 -0.5677  0.6941
  699TMC3    O110397   1.562   3.033  13.665  0.1780 -0.2008 -0.0782
  699TMC3    O210398   1.894   2.838  13.703  0.1087 -0.7031  0.0469
  700TMC3    C110399   1.425   0.721  17.594  0.7298 -0.2354  0.0226
  700TMC3    C210400   1.423   0.588  17.542  0.0465  0.5276 -1.2801
  700TMC3    C310401   1.544   0.533  17.511 -0.0713  0.0165 -0.0847
  700TMC3    C410402   1.544   0.786  17.631  0.0589 -0.5224  0.2890
  700TMC3    C510403   1.661   0.715  17.602  0.6287  0.2851  0.5008
  700TMC3    C610404   1.663   0.597  17.537  0.1542  0.4018  0.7941
  700TMC3     C10405   1.343   0.817  17.527 -0.6467  0.7307  0.3031
  700TMC3     O10406   1.237   0.780  17.480 -0.0948  0.0580 -0.5722
  700TMC3     H10407   1.331   0.540  17.512 -2.3767  2.8768  2.4905
  700TMC3    H110408   1.546   0.873  17.697  1.1781 -1.0956  1.0194
  700TMC3    H210409   1.759   0.559  17.502 -0.6443 -0.2808 -0.6260
  700TMC3    C710410   1.777   0.796  17.589  0.7105 -0.3350  0.1586
  700TMC3    C810411   1.534   0.399  17.453  0.4602  0.0563  1.1479
  700TMC3    O110412   1.744   0.917  17.590 -0.0319 -0.4164 -0.0690
  700TMC3    O210413   1.434   0.342  17.482  0.1185 -1.0216  0.4432
  701TMC3    C110414   1.551   4.173  15.727  0.4501 -0.3132 -0.1927
  701TMC3    C210415   1.563   4.091  15.614 -0.4903  0.1208  0.1431
  701TMC3    C310416   1.674   4.118  15.535  0.3164  0.7601  0.4140
  701TMC3    C410417   1.639   4.272  15.750 -0.0648 -0.1032  0.5428
  701TMC3    C510418   1.745   4.290  15.665  0.1822  0.3629 -0.3540
  701TMC3    C610419   1.763   4.224  15.546 -0.1295  0.2963  0.1361
  701TMC3     C10420   1.437   4.162  15.821 -0.2936 -0.4303 -0.5849
  701TMC3     O10421   1.433   4.246  15.908 -0.1480 -0.0510  0.2421
  701TMC3     H10422   1.511   3.996  15.610  0.2645 -0.2640 -0.5008
  701TMC3    H110423   1.621   4.325  15.843 -3.2098 -0.3554  0.0896
  701TMC3    H210424   1.840   4.247  15.473 -0.6938 -0.6196 -0.7376
  701TMC3    C710425   1.844   4.395  15.695  0.9164  0.2078 -0.2801
  701TMC3    C810426   1.705   4.030  15.431 -0.7890  0.2516  0.1924
  701TMC3    O110427   1.902   4.437  15.601  0.5137  0.7688  0.1859
  701TMC3    O210428   1.827   4.024  15.405  0.2200  0.1012  0.1917
  702MPD2     C10429   0.890   0.926  10.923 -0.2254 -0.6411 -0.4576
  702MPD2    C110430   0.849   1.037  10.991 -0.1489  0.1986 -0.6355
  702MPD2    C210431   0.878   1.162  10.941 -0.3197  0.0193 -0.1868
  702MPD2    C310432   0.972   1.174  10.841 -0.6035 -1.0271  0.5121
  702MPD2    C410433   1.010   1.065  10.759 -0.4908 -0.3733 -0.4156
  702MPD2    C510434   0.969   0.943  10.811  0.5800  0.3579  0.6636
  702MPD2     H10435   0.837   1.247  10.994 -1.1759 -0.8176  0.4858
  702MPD2    H110436   1.087   1.064  10.683  0.4308  0.8212  0.5077
  702MPD2    H210437   0.854   0.828  10.954 -0.6692 -0.8294 -1.5697
  702MPD2    H310438   0.990   0.854  10.753 -1.6234  0.4015 -0.2050
  702MPD2     N10439   0.999   1.306  10.806  0.2108 -0.3041 -0.6592
  702MPD2    H510440   0.964   1.376  10.870  0.0360  0.9985 -2.1762
  702MPD2    N110441   0.774   1.008  11.107 -0.2561 -0.4619  0.3427
  702MPD2    H710442   0.752   0.911  11.126 -1.1801 -0.3187 -0.0447
  703TMC3    C110443   1.088   1.490  10.702  0.6286 -0.5436 -0.5042
  703TMC3    C210444   0.973   1.552  10.732  0.3428  0.1060 -0.5984
  703TMC3    C310445   0.970   1.687  10.743  0.3625 -0.6672  0.1493
  703TMC3    C410446   1.194   1.559  10.656 -0.6689  0.3151  0.3376
  703TMC3    C510447   1.194   1.690  10.684 -0.9526 -0.0776  0.7279
  703TMC3    C610448   1.086   1.754  10.719  0.4921  0.9443  0.4848
  703TMC3     C10449   1.087   1.346  10.713  0.0222  0.1721 -0.6653
  703TMC3     O10450   1.154   1.279  10.637 -0.1268  0.0096 -0.0015
  703TMC3     H10451   0.882   1.492  10.732  0.5925 -0.2731 -1.3202
  703TMC3    H110452   1.287   1.506  10.639 -0.2990  0.1899  2.7413
  703TMC3    H210453   1.079   1.857  10.752  2.7851  0.6084  2.0746
  703TMC3    C710454   1.322   1.751  10.670 -0.0015 -0.6728 -0.4866
  703TMC3    C810455   0.851   1.754  10.703  0.5136 -0.4304 -0.2805
  703TMC3    O110456   1.427   1.683  10.678  0.5649 -0.0100 -0.4371
  703TMC3    O210457   0.876   1.869  10.659  0.0614 -0.7575 -0.1283
  704TMC3    C110458   3.082   4.361  12.830 -0.1808  0.5842  0.8374
  704TMC3    C210459   3.189   4.419  12.761  0.9065 -0.7224  0.2753
  704TMC3    C310460   3.308   4.358  12.754 -0.0983 -0.0382 -0.1773
  704TMC3    C410461   3.109   4.250  12.908 -0.0360 -0.3026 -0.0959
  704TMC3    C510462   3.239   4.202  12.923  0.4530 -0.3140 -0.3077
  704TMC3    C610463   3.335   4.241  12.826 -0.1273 -0.0267  0.2876
  704TMC3     C10464   2.955   4.370  12.767 -0.4804  0.1108 -0.1417
  704TMC3     O10465   2.858   4.331  12.826  0.0529 -0.2936 -0.1003
  704TMC3     H10466   3.174   4.506  12.698  0.1223  1.9792  4.2446
  704TMC3    H110467   3.028   4.205  12.966  0.9053 -0.9665  0.6945
  704TMC3    H210468   3.432   4.194  12.822  0.9638  2.4736 -2.0207
  704TMC3    C710469   3.267   4.069  12.980 -0.4039  0.4772  0.5204
  704TMC3    C810470   3.345   4.342  12.611  0.1145  0.1191 -0.0760
  704TMC3    O110471   3.170   3.992  12.988 -0.9421 -0.7243 -0.7715
  704TMC3    O210472   3.252   4.357  12.533  0.1401  0.1574 -0.1205
  705MPD2     C10473   2.718   2.607  16.764 -0.3203  0.1696 -0.0557
  705MPD2    C110474   2.726   2.736  16.729 -0.2202 -0.0425 -0.1779
  705MPD2    C210475   2.610   2.817  16.739 -0.3320  0.7091  0.3665
  705MPD2    C310476   2.498   2.766  16.791  0.1976 -0.8640  0.1909
  705MPD2    C410477   2.485   2.631  16.826 -0.6452 -0.2657 -0.0680
  705MPD2    C510478   2.600   2.552  16.818  0.3604 -0.4253  0.0891
  705MPD2     H10479   2.608   2.920  16.707  0.8954  0.5460 -0.2609
  705MPD2    H110480   2.394   2.589  16.868 -0.1672 -0.1785  1.0571
  705MPD2    H210481   2.808   2.545  16.768  0.7809  1.8341  0.7717
  705MPD2    H310482   2.597   2.466  16.883  1.1691 -1.0925 -0.7500
  705MPD2     N10483   2.383   2.843  16.802 -0.3521  0.4328 -0.2045
  705MPD2    H510484   2.297   2.806  16.839  0.7319 -0.4137  1.4577
  705MPD2    N110485   2.842   2.797  16.676  0.7560  0.1536  0.5647
  705MPD2    H710486   2.835   2.890  16.635 -2.5181 -1.1001 -1.7368
  706TMC3    C110487   3.129   2.739  16.326  0.1391  0.1371  0.1541
  706TMC3    C210488   3.108   2.869  16.276 -0.2290  0.7692  0.0298
  706TMC3    C310489   3.036   2.949  16.356 -0.8133  0.9590 -0.5088
  706TMC3    C410490   3.090   2.699  16.448 -0.3718 -0.6131  0.2440
  706TMC3    C510491   3.027   2.790  16.527 -0.1334 -0.5905 -0.5272
  706TMC3    C610492   3.007   2.918  16.488  0.1890 -0.2471 -0.1956
  706TMC3     C10493   3.239   2.660  16.273  0.1421  0.0042 -0.4194
  706TMC3     O10494   3.309   2.609  16.355 -0.7905 -0.2127 -0.0003
  706TMC3     H10495   3.137   2.906  16.179 -0.9887  4.8790  1.3570
  706TMC3    H110496   3.090   2.595  16.479  0.0717 -1.1723 -1.6529
  706TMC3    H210497   2.972   2.987  16.563  0.4749 -1.2016  0.8076
  706TMC3    C710498   2.956   2.729  16.635 -0.0372  0.1849 -0.4168
  706TMC3    C810499   3.034   3.092  16.317  0.0563  0.5038 -0.2718
  706TMC3    O110500   2.998   2.620  16.674  0.1419  0.3192  0.6686
  706TMC3    O210501   3.026   3.111  16.196 -0.1988 -0.6292 -0.5015
  707TMC3    C110502   4.075   1.954   1.478 -0.0837  0.0731  0.4802
  707TMC3    C210503   4.154   1.999   1.585  0.2388  0.2985  0.1243
  707TMC3    C310504   4.130   2.125   1.631 -0.6180  0.0136 -0.2064
  707TMC3    C410505   3.982   2.038   1.421 -0.6324  0.3107 -0.7780
  707TMC3    C510506   3.958   2.155   1.479 -0.9190 -0.6803 -1.0623
  707TMC3    C610507   4.031   2.208   1.582 -0.4707 -0.2161 -0.1758
  707TMC3     C10508   4.139   1.871   1.382  0.3103  0.9355  0.7799
  707TMC3     O10509   4.262   1.872   1.381 -0.2913  0.3254 -0.1193
  707TMC3     H10510   4.232   1.933   1.620 -1.6709 -2.3894 -0.6282
  707TMC3    H110511   3.912   2.011   1.342 -0.9363 -0.7333 -0.1524
  707TMC3    H210512   4.017   2.303   1.631 -0.2207 -1.0788  1.5845
  707TMC3    C710513   3.852   2.228   1.426 -0.2480  0.4893  0.5995
  707TMC3    C810514   4.217   2.180   1.736 -0.0290  0.4928  0.1105
  707TMC3    O110515   3.744   2.169   1.433  0.0748 -0.4942 -0.0637
  707TMC3    O210516   4.188   2.293   1.784  0.2063  0.0694 -0.1730
  708MPD2     C10517   0.765   0.782  14.631 -0.0655 -0.3987 -0.1016
  708MPD2    C110518   0.854   0.863  14.565  0.0631  0.3044 -0.6609
  708MPD2    C210519   0.937   0.938  14.646  0.9388  0.3104 -0.2578
  708MPD2    C310520   0.938   0.939  14.785 -0.5203  0.1072  0.8868
  708MPD2    C410521   0.841   0.873  14.845 -0.3418  0.6343 -0.6819
  708MPD2    C510522   0.760   0.796  14.766 -0.2669 -0.3085  0.1360
  708MPD2     H10523   1.019   0.993  14.603  0.7546  1.1809  0.4836
  708MPD2    H110524   0.831   0.880  14.953  0.4375  0.2862 -0.5874
  708MPD2    H210525   0.685   0.725  14.585  2.2337 -3.1232 -0.6910
  708MPD2    H310526   0.682   0.742  14.820 -1.4639  0.6259 -0.6613
  708MPD2     N10527   1.022   1.031  14.847  0.4097 -0.1813  0.1664
  708MPD2    H510528   1.081   1.094  14.794  1.9947 -0.8417  1.1466
  708MPD2    N110529   0.850   0.878  14.423 -0.4070 -0.3528  0.0289
  708MPD2    H710530   0.801   0.801  14.379  1.3398 -1.4392 -0.0068
  709TMC3    C110531   0.911   1.107  14.382  0.4650  0.2600 -0.0224
  709TMC3    C210532   1.002   1.186  14.315 -0.4130  0.0247  0.2530
  709TMC3    C310533   0.994   1.322  14.312  0.0297  0.1116 -0.2150
  709TMC3    C410534   0.822   1.163  14.463 -0.4182 -0.3463  0.5052
  709TMC3    C510535   0.831   1.301  14.489  0.0287  0.0404  0.3138
  709TMC3    C610536   0.910   1.383  14.403  0.7562 -0.3513  0.2915
  709TMC3     C10537   0.914   0.972  14.348 -0.3290 -0.4451 -0.0036
  709TMC3     O10538   0.964   0.954  14.239 -0.0692 -0.0229  0.1180
  709TMC3     H10539   1.073   1.127  14.258 -2.0520 -0.0874 -1.6818
  709TMC3    H110540   0.749   1.104  14.518 -1.1731  0.0001 -0.1175
  709TMC3    H210541   0.906   1.491  14.415 -1.9063 -0.3999  0.0176
  709TMC3    C710542   0.817   1.338  14.630 -0.9335 -0.4018  0.0092
  709TMC3    C810543   1.088   1.399  14.217 -0.8704 -1.0941  0.1605
  709TMC3    O110544   0.888   1.434  14.662  0.2609  0.2397 -0.6637
  709TMC3    O210545   1.155   1.335  14.137  0.2997  0.3074 -0.4410
  710TMC3    C110546   2.114   2.726   0.171  0.2127  0.4689 -0.2459
  710TMC3    C210547   2.159   2.780   0.051 -0.2805  0.5571 -0.6025
  710TMC3    C310548   2.288   2.748   0.016 -0.7176 -0.0215  0.6507
  710TMC3    C410549   2.193   2.654   0.257  0.8726 -0.1581 -0.4934
  710TMC3    C510550   2.315   2.632   0.217  0.1392 -0.2424 -0.0097
  710TMC3    C610551   2.364   2.670   0.096 -0.1748  0.3599  0.8301
  710TMC3     C10552   1.973   2.756   0.204 -0.0021  0.4192 -0.0426
  710TMC3     O10553   1.895   2.759   0.110 -0.5772 -0.9607  0.0974
  710TMC3     H10554   2.095   2.842  17.744 -0.5780  0.2084 -0.6482
  710TMC3    H110555   2.150   2.601   0.341 -0.6477  3.2517  0.9010
  710TMC3    H210556   2.461   2.633   0.066  1.2734  3.9940  0.9551
  710TMC3    C710557   2.411   2.574   0.319  0.1331 -0.3545 -0.3020
  710TMC3    C810558   2.349   2.805  17.654 -0.5420  0.4537 -0.3162
  710TMC3    O110559   2.354   2.495   0.395  0.0117  0.2165 -0.1537
  710TMC3    O210560   2.453   2.748  17.611  0.1229  0.2849 -0.1384
  711TMC3    C110561   2.258   3.519  14.899 -0.5945 -0.5217 -0.1642
  711TMC3    C210562   2.207   3.558  15.019 -0.0911  0.0119 -0.0357
  711TMC3    C310563   2.301   3.586  15.120  0.0650  0.2304  0.0508
  711TMC3    C410564   2.389   3.519  14.871 -0.1786  0.3236 -0.7896
  711TMC3    C510565   2.480   3.561  14.968 -0.1336  0.1067 -0.7162
  711TMC3    C610566   2.438   3.593  15.093  0.1671 -0.4310 -0.4576
  711TMC3     C10567   2.165   3.484  14.794  0.1798  0.8541 -0.5287
  711TMC3     O10568   2.051   3.458  14.830  0.2155 -0.2687 -0.2247
  711TMC3     H10569   2.100   3.567  15.036 -0.0739 -1.1716  0.7019
  711TMC3    H110570   2.417   3.482  14.772 -0.5324 -0.2824 -0.6662
  711TMC3    H210571   2.513   3.599  15.172  1.3300 -0.0600 -1.6012
  711TMC3    C710572   2.587   3.470  14.991 -0.8975 -0.0540 -0.1509
  711TMC3    C810573   2.275   3.513  15.239 -0.6102 -0.7780  0.1757
  711TMC3    O110574   2.682   3.513  15.058  0.4221  0.4999 -0.6797
  711TMC3    O210575   2.187   3.431  15.233 -0.3806 -0.1079  0.4983
  712MPD2     C10576   3.258   4.396  13.979  0.3939  0.5097 -0.2474
  712MPD2    C110577   3.152   4.481  14.005  0.2232  0.2992  0.3189
  712MPD2    C210578   3.177   4.603  14.068 -0.3097  0.6227  0.7032
  712MPD2    C310579   3.307   4.647  14.091  0.1508  0.2297 -0.4181
  712MPD2    C410580   3.409   4.564  14.067  0.2905  0.1337 -0.2091
  712MPD2    C510581   3.384   4.438  14.014 -0.2132 -0.6153 -0.0243
  712MPD2     H10582   3.095   4.673  14.075 -2.5603 -1.8767 -0.5208
  712MPD2    H110583   3.510   4.596  14.087 -0.3071  1.5153  0.5747
  712MPD2    H210584   3.241   4.305  13.922  0.1752  0.8935 -0.7982
  712MPD2    H310585   3.469   4.377  13.986  0.4380  0.8344 -1.2139
  712MPD2     N10586   3.343   0.040  14.144  0.3542 -0.2660  0.6714
  712MPD2    H510587   3.443   0.052  14.161  0.3152 -0.5272  1.0962
  712MPD2    N110588   3.020   4.447  13.981  0.3921 -0.1475 -0.3735
  712MPD2    H710589   2.948   4.504  14.024 -0.8091 -0.7742 -1.5409
  713TMC3    C110590   3.323   0.265  14.189 -0.2694 -0.0015 -0.3516
  713TMC3    C210591   3.438   0.260  14.268  0.3304 -0.5913 -0.2636
  713TMC3    C310592   3.517   0.371  14.288 -0.5439  0.1173 -0.7235
  713TMC3    C410593   3.272   0.386  14.137 -0.2462 -0.4040 -0.0343
  713TMC3    C510594   3.352   0.498  14.163 -0.0671 -0.5882 -0.6020
  713TMC3    C610595   3.477   0.491  14.229  1.0256  0.5787 -1.2824
  713TMC3     C10596   3.252   0.145  14.161  0.9756  0.1194  0.0574
  713TMC3     O10597   3.135   0.145  14.121 -0.1016  0.1457 -0.1362
  713TMC3     H10598   3.476   0.168  14.310 -2.3186 -1.3231  0.5664
  713TMC3    H110599   3.189   0.393  14.068  1.2304  2.7420 -1.4665
  713TMC3    H210600   3.528   0.580  14.263  0.3498 -0.3641  2.1195
  713TMC3    C710601   3.322   0.626  14.090  0.1095  0.3884 -0.5437
  713TMC3    C810602   3.649   0.352  14.325 -1.0842  0.5330  0.3447
  713TMC3    O110603   3.423   0.690  14.058 -0.3928 -0.0012 -0.2618
  713TMC3    O210604   3.672   0.251  14.392  0.7546 -0.1173  0.0248
  714MPD2     C10605   0.464   3.752   1.245  0.4920 -0.9365  0.0899
  714MPD2    C110606   0.508   3.639   1.175 -0.6039  0.6150 -0.6341
  714MPD2    C210607   0.441   3.613   1.060 -0.0227  0.0353 -0.2398
  714MPD2    C310608   0.337   3.685   1.006 -0.2119  0.4513  0.4682
  714MPD2    C410609   0.291   3.796   1.082  0.3278 -0.3104  0.2415
  714MPD2    C510610   0.357   3.824   1.198 -1.0160 -0.1064 -0.0003
  714MPD2     H10611   0.480   3.533   0.998 -1.3731  0.5929 -1.8063
  714MPD2    H110612   0.211   3.862   1.049  1.6167  1.2647  0.2703
  714MPD2    H210613   0.518   3.785   1.333 -1.4500 -0.1884  0.9998
  714MPD2    H310614   0.330   3.915   1.251 -0.4284 -0.9092  1.6591
  714MPD2     N10615   0.290   3.639   0.882 -0.0067  0.7570  0.7665
  714MPD2    H510616   0.324   3.556   0.835 -1.2068  0.1274  1.0086
  714MPD2    N110617   0.606   3.552   1.225 -0.0428  0.1002  0.6150
  714MPD2    H710618   0.647   3.583   1.312  1.4970  4.5771 -1.6948
  715TMC3    C110619   0.749   3.372   1.259 -0.3819  0.1179  0.6370
  715TMC3    C210620   0.768   3.241   1.257  0.2223  0.0145  1.0383
  715TMC3    C310621   0.889   3.203   1.308 -0.1775 -0.5077 -0.6070
  715TMC3    C410622   0.830   3.467   1.306 -0.1223 -0.5222 -0.5255
  715TMC3    C510623   0.947   3.426   1.362  0.4456 -0.2735 -0.4313
  715TMC3    C610624   0.983   3.292   1.354  0.1363 -0.7741 -0.5426
  715TMC3     C10625   0.633   3.421   1.186 -0.1828  0.2311  0.2638
  715TMC3     O10626   0.593   3.345   1.099 -0.6081  0.1482 -0.8553
  715TMC3     H10627   0.696   3.168   1.224 -0.3769 -0.2417  2.8752
  715TMC3    H110628   0.815   3.573   1.294  1.2717 -0.3676 -0.8935
  715TMC3    H210629   1.082   3.263   1.386  0.5592  2.4695  1.0473
  715TMC3    C710630   1.036   3.518   1.438 -0.1435  0.0136  0.1047
  715TMC3    C810631   0.897   3.060   1.347  0.2592  0.1356  0.0570
  715TMC3    O110632   1.158   3.502   1.437  0.0758  0.2845 -0.1307
  715TMC3    O210633   0.851   2.976   1.272  0.6147  0.0688  1.1475
  716MPD2     C10634   0.770   1.305  10.192  0.1870  0.2250  0.9417
  716MPD2    C110635   0.823   1.363  10.072 -0.0265  0.4259  0.6124
  716MPD2    C210636   0.860   1.273   9.970 -0.2674 -0.9380 -0.3637
  716MPD2    C310637   0.843   1.137   9.976 -0.4250  0.2496 -0.1648
  716MPD2    C410638   0.801   1.089  10.096 -0.4501  0.5260 -0.2304
  716MPD2    C510639   0.761   1.169  10.193  0.1305 -0.2946 -0.3132
  716MPD2     H10640   0.898   1.313   9.877  1.8444 -1.6005  0.2106
  716MPD2    H110641   0.812   0.982  10.111  2.2892  0.7080 -0.9604
  716MPD2    H210642   0.723   1.355  10.276  1.1594  0.5922  1.2685
  716MPD2    H310643   0.741   1.124  10.290 -0.7022 -0.0300 -0.3621
  716MPD2     N10644   0.882   1.054   9.865 -0.3880 -0.2534  0.1847
  716MPD2    H510645   0.907   1.103   9.780 -1.3623 -1.2068 -0.6498
  716MPD2    N110646   0.835   1.506  10.080 -0.2437  0.5512 -0.1150
  716MPD2    H710647   0.816   1.552  10.168 -0.9188 -0.3940  0.2310
  717TMC3    C110648   0.928   0.849   9.751  0.1279 -0.0392 -0.6018
  717TMC3    C210649   0.871   0.895   9.635  0.0135 -0.1884 -0.0527
  717TMC3    C310650   0.877   0.813   9.533 -0.9965 -0.7406  0.0064
  717TMC3    C410651   1.009   0.741   9.751 -0.6497  0.0824 -0.1065
  717TMC3    C510652   1.018   0.662   9.640 -0.1116  1.1069  0.1201
  717TMC3    C610653   0.948   0.694   9.528  0.5132  0.3289  0.2738
  717TMC3     C10654   0.909   0.918   9.872 -0.1600  0.3198 -0.7097
  717TMC3     O10655   0.927   0.848   9.973  0.2416 -0.4041  0.2295
  717TMC3     H10656   0.812   0.985   9.625 -0.6780 -0.8005 -1.4516
  717TMC3    H110657   1.063   0.721   9.843  0.2345  2.4991 -0.0909
  717TMC3    H210658   0.966   0.641   9.436  1.6046 -1.5839  1.5880
  717TMC3    C710659   1.119   0.560   9.640 -0.2771 -0.7432  0.7103
  717TMC3    C810660   0.797   0.848   9.419 -0.1818 -0.3025  0.1288
  717TMC3    O110661   1.194   0.560   9.738  0.2829 -0.1863  0.0788
  717TMC3    O210662   0.723   0.944   9.436 -0.3452 -0.2863  0.6289
  718MPD2     C10663   4.531   0.079  13.372  0.1870 -0.6473 -0.5563
  718MPD2    C110664   4.584   0.036  13.253  0.1008 -0.6214 -0.0992
  718MPD2    C210665   4.514   4.676  13.190  0.3947  0.4448  0.3538
  718MPD2    C310666   4.392   4.634  13.237  0.4422 -0.4913 -0.4727
  718MPD2    C410667   4.334   4.683  13.356  0.8441 -0.9755  0.1833
  718MPD2    C510668   4.414   0.038  13.423  0.3029  0.3377 -0.5951
  718MPD2     H10669   4.555   4.636  13.097  0.0506  0.1068  0.3475
  718MPD2    H110670   4.236   4.657  13.394  0.1176  1.7859  0.1811
  718MPD2    H210671   4.576   0.160  13.428 -1.0685  0.5348 -1.2471
  718MPD2    H310672   4.383   0.086  13.515  2.1291 -0.3156  0.3636
  718MPD2     N10673   4.334   4.543  13.155  0.8799  0.1945 -0.2654
  718MPD2    H510674   4.408   4.513  13.092  1.1513  1.1147 -0.3953
  718MPD2    N110675   4.703   0.091  13.193 -0.8219  0.0257  0.3546
  718MPD2    H710676   4.726   0.058  13.099  1.6801 -1.0614  1.3341
  719TMC3    C110677   0.136   0.243  13.144  0.2901 -0.2864 -0.3709
  719TMC3    C210678   0.160   0.141  13.052  0.2839 -0.3132  0.3048
  719TMC3    C310679   0.162   0.174  12.918 -0.7231 -0.4412  0.1100
  719TMC3    C410680   0.139   0.371  13.107 -0.4206 -0.2885 -0.0328
  719TMC3    C510681   0.165   0.393  12.977  0.0451 -0.3029 -0.4765
  719TMC3    C610682   0.178   0.301  12.878 -0.6246 -0.2281  0.2937
  719TMC3     C10683   0.028   0.204  13.239  0.2751 -0.1043  0.5480
  719TMC3     O10684   4.738   0.280  13.332  0.1816 -0.0351 -0.0250
  719TMC3     H10685   0.187   0.041  13.084  1.7079 -1.1902 -3.5744
  719TMC3    H110686   0.126   0.446  13.184 -2.4313 -1.1794  0.4961
  719TMC3    H210687   0.181   0.335  12.775 -0.4121 -0.8004  0.1106
  719TMC3    C710688   0.232   0.522  12.960 -0.2600  0.4639 -0.6704
  719TMC3    C810689   0.058   0.097  12.851  0.0215 -0.3664 -0.5352
  719TMC3    O110690   0.192   0.616  13.032 -0.0483 -0.4627  0.1765
  719TMC3    O210691   0.015   0.015  12.933 -0.0143 -0.4140  0.4112
  720MPD2     C10692   3.522   2.174  14.107  0.0299  0.3210  0.1264
  720MPD2    C110693   3.575   2.062  14.051 -0.0566 -0.2642  0.6013
  720MPD2    C210694   3.679   2.002  14.116  0.5374 -0.4340  0.3161
  720MPD2    C310695   3.724   2.045  14.233 -0.3817  0.2481 -0.1354
  720MPD2    C410696   3.660   2.149  14.295 -0.0208 -0.2966 -0.2094
  720MPD2    C510697   3.560   2.213  14.232 -0.2330  0.4523 -0.0598
  720MPD2     H10698   3.732   1.922  14.064  0.2955  0.6588 -1.6004
  720MPD2    H110699   3.691   2.202  14.385 -0.7836 -2.6185  1.4355
  720MPD2    H210700   3.439   2.223  14.058  0.3679  0.4811 -0.2816
  720MPD2    H310701   3.518   2.291  14.294 -0.3856  2.1753 -2.3486
  720MPD2     N10702   3.842   1.988  14.286 -0.4361  0.1899  0.4034
  720MPD2    H510703   3.884   1.912  14.232  2.3020  2.2929 -0.4242
  720MPD2    N110704   3.544   2.017  13.923 -0.1129  0.4059 -0.2322
  720MPD2    H710705   3.590   1.929  13.903  1.3845  1.2611 -0.5303
  721TMC3    C110706   4.007   1.932  14.443 -0.2693 -0.6309  0.0478
  721TMC3    C210707   4.041   1.929  14.575 -0.9743 -0.0027  0.5680
  721TMC3    C310708   4.147   1.849  14.603  0.0812  0.0121  0.6758
  721TMC3    C410709   4.080   1.876  14.339  0.4297  0.0171 -0.6215
  721TMC3    C510710   4.187   1.801  14.374 -0.2421  0.2385  0.2689
  721TMC3    C610711   4.220   1.781  14.506 -0.4046 -1.0349  0.5876
  721TMC3     C10712   3.893   2.014  14.414  0.3185 -0.7051 -0.1621
  721TMC3     O10713   3.870   2.094  14.501  0.3756 -0.2647 -0.1972
  721TMC3     H10714   3.983   1.977  14.653 -1.0718  3.0569 -1.3576
  721TMC3    H110715   4.051   1.890  14.236 -1.6642 -1.1019 -0.1771
  721TMC3    H210716   4.303   1.718  14.538 -0.3457 -1.7796 -1.0171
  721TMC3    C710717   4.295   1.788  14.275 -0.2755 -0.0520  0.6687
  721TMC3    C810718   4.202   1.819  14.738  0.1211  0.6633 -0.2546
  721TMC3    O110719   4.407   1.800  14.321  0.5525 -0.0636  0.1783
  721TMC3    O210720   4.311   1.767  14.757 -0.5132  0.5714 -0.0326
  722MPD2     C10721   2.315   0.419  13.358 -0.1051 -0.7068 -0.9407
  722MPD2    C110722   2.255   0.529  13.414  0.3155 -0.7119  0.2282
  722MPD2    C210723   2.131   0.570  13.358  0.1230 -0.5194  0.0951
  722MPD2    C310724   2.061   0.490  13.273 -0.0603 -0.6075  0.3467
  722MPD2    C410725   2.121   0.374  13.224 -0.1682 -0.3480  0.7862
  722MPD2    C510726   2.248   0.343  13.267  0.2233  0.3089  0.8564
  722MPD2     H10727   2.082   0.662  13.387 -1.2003 -0.4867 -2.2747
  722MPD2    H110728   2.078   0.313  13.146 -1.2339  2.8723 -1.1662
  722MPD2    H210729   2.413   0.381  13.384 -0.0098 -0.6447 -1.2015
  722MPD2    H310730   2.315   0.273  13.218 -0.3161  0.9556 -0.7763
  722MPD2     N10731   1.932   0.528  13.233 -0.2828 -0.3929 -0.3714
  722MPD2    H510732   1.903   0.623  13.256 -1.1026 -0.6008 -0.5309
  722MPD2    N110733   2.322   0.628  13.489 -0.4379 -0.6042 -0.0390
  722MPD2    H710734   2.292   0.724  13.478  1.0960 -0.0840  0.3540
  723TMC3    C110735   1.710   0.491  13.184 -0.3055  0.3035  0.6215
  723TMC3    C210736   1.606   0.401  13.183  0.0948 -1.1348  0.5498
  723TMC3    C310737   1.481   0.446  13.168  0.7144 -0.1144 -0.0542
  723TMC3    C410738   1.693   0.624  13.169  0.6325  0.0021 -0.5897
  723TMC3    C510739   1.565   0.668  13.161  0.3800  0.1558 -0.3696
  723TMC3    C610740   1.462   0.582  13.159 -0.4909  0.0233  0.2363
  723TMC3     C10741   1.844   0.434  13.181  0.3162  0.0858 -0.2135
  723TMC3     O10742   1.848   0.312  13.178 -0.0650 -0.2517 -0.1204
  723TMC3     H10743   1.630   0.296  13.193  1.5226 -0.7840  0.9196
  723TMC3    H110744   1.777   0.688  13.145 -0.9725  2.0663 -0.6320
  723TMC3    H210745   1.359   0.616  13.151 -0.8760 -0.6774  2.3757
  723TMC3    C710746   1.550   0.807  13.120 -0.6878  0.5987  1.2445
  723TMC3    C810747   1.365   0.364  13.205 -1.0528 -0.0738 -0.6706
  723TMC3    O110748   1.643   0.885  13.136 -0.1148 -0.3218  0.0336
  723TMC3    O210749   1.260   0.413  13.247 -0.6627  0.0920  0.0589
  724TMC3    C110750   2.473   3.029  10.383 -0.0536  0.1736 -0.2793
  724TMC3    C210751   2.367   3.092  10.319  0.3591  0.3539  0.6215
  724TMC3    C310752   2.376   3.217  10.264  0.8568  0.1510 -1.1319
  724TMC3    C410753   2.598   3.084  10.390 -0.0930 -0.1442  0.5540
  724TMC3    C510754   2.604   3.208  10.329  0.6881 -0.0641 -0.5764
  724TMC3    C610755   2.503   3.273  10.260 -0.3814  0.1386 -0.0548
  724TMC3     C10756   2.441   2.962  10.505  0.5029  0.1450 -0.4469
  724TMC3     O10757   2.332   2.989  10.548  0.1837 -0.3841  0.0205
  724TMC3     H10758   2.265   3.058  10.325  0.2310  0.6241 -0.0137
  724TMC3    H110759   2.678   3.045  10.451 -0.9059 -0.6846  1.2828
  724TMC3    H210760   2.526   3.367  10.213  0.4993  1.0013  2.1086
  724TMC3    C710761   2.726   3.277  10.370 -0.2746  0.0218  0.6577
  724TMC3    C810762   2.258   3.284  10.223 -0.5880 -0.4177 -1.2583
  724TMC3    O110763   2.820   3.221  10.424  0.5788 -0.8197  0.7204
  724TMC3    O210764   2.155   3.244  10.272 -0.3067 -0.4687 -0.1087
  725TMC3    C110765   4.214   1.837  12.758 -0.0777  0.2730 -0.1602
  725TMC3    C210766   4.102   1.876  12.692  0.1294 -0.0437  0.5486
  725TMC3    C310767   4.005   1.784  12.673  0.0961 -0.0165  0.2838
  725TMC3    C410768   4.233   1.702  12.781  0.0987 -0.1657 -0.6432
  725TMC3    C510769   4.133   1.611  12.751 -0.7927 -0.2120 -0.4886
  725TMC3    C610770   4.013   1.652  12.706  0.3735  0.3293 -0.4616
  725TMC3     C10771   4.280   1.942  12.833 -0.1516 -0.1993  0.2198
  725TMC3     O10772   4.240   2.059  12.814  0.0850  0.4798 -0.2730
  725TMC3     H10773   4.082   1.982  12.686  0.8458  0.0146 -0.9357
  725TMC3    H110774   4.322   1.663  12.829 -0.0726  0.7838  0.4461
  725TMC3    H210775   3.926   1.588  12.706 -1.3790  2.7071  1.4172
  725TMC3    C710776   4.144   1.490  12.825  0.0243 -0.2696  0.2952
  725TMC3    C810777   3.873   1.837  12.650  0.0372  0.6626  0.6969
  725TMC3    O110778   4.259   1.449  12.825  0.5846 -0.3531 -0.3863
  725TMC3    O210779   3.776   1.782  12.700  0.2471  0.7557 -0.3036
  726MPD2     C10780   1.853   3.749  11.004  0.3846 -0.2334 -0.4463
  726MPD2    C110781   1.766   3.749  10.894 -0.1633  0.2604  0.6939
  726MPD2    C210782   1.642   3.687  10.901 -0.2838 -0.1521 -0.0964
  726MPD2    C310783   1.603   3.619  11.015 -0.6879 -0.4250  0.1480
  726MPD2    C410784   1.698   3.615  11.123  0.4412 -0.1324  1.1276
  726MPD2    C510785   1.818   3.678  11.115 -0.3002  0.7803 -0.3247
  726MPD2     H10786   1.580   3.698  10.813 -1.3367 -1.3689  0.5038
  726MPD2    H110787   1.677   3.562  11.215  1.2926 -0.6890  1.0016
  726MPD2    H210788   1.938   3.817  11.005  1.1445 -1.1755 -1.1380
  726MPD2    H310789   1.884   3.669  11.201  0.1085 -1.2640 -0.8614
  726MPD2     N10790   1.471   3.565  11.020 -0.1830  0.8553 -0.2358
  726MPD2    H510791   1.417   3.548  10.936 -0.4331  0.7395 -0.0518
  726MPD2    N110792   1.783   3.843  10.786  0.1406 -0.2804  0.4264
  726MPD2    H710793   1.710   3.857  10.716  0.6820  2.9884  0.5405
  727TMC3    C110794   1.891   3.974  10.628  0.2044  0.0056  0.7877
  727TMC3    C210795   2.016   3.991  10.567  0.1682  0.2743  0.4619
  727TMC3    C310796   2.023   4.090  10.474 -0.0267  1.1349 -0.5598
  727TMC3    C410797   1.785   4.063  10.608 -0.0895  0.5008  0.2200
  727TMC3    C510798   1.806   4.160  10.518 -0.4245  0.2572  0.3134
  727TMC3    C610799   1.918   4.171  10.445 -0.5988  0.3812  0.0515
  727TMC3     C10800   1.906   3.893  10.749  0.1779 -0.0152  0.6088
  727TMC3     O10801   2.022   3.863  10.783 -1.5841 -0.2486 -0.4176
  727TMC3     H10802   2.087   3.912  10.587  1.2706  0.8132 -1.4025
  727TMC3    H110803   1.693   4.062  10.665 -0.2168 -0.6543  0.0075
  727TMC3    H210804   1.925   4.256  10.378  1.9274  0.5699  0.5907
  727TMC3    C710805   1.715   4.271  10.505 -0.5617 -0.5032  0.1913
  727TMC3    C810806   2.151   4.118  10.426 -0.4986  0.4806 -0.0106
  727TMC3    O110807   1.754   4.376  10.453  0.1551 -0.5494 -0.1665
  727TMC3    O210808   2.227   4.028  10.453 -0.1194  0.2716  0.2742
  728TMC3    C110809   1.561   2.377  15.284  0.7682 -0.0940 -0.6929
  728TMC3    C210810   1.689   2.388  15.251 -0.3639 -0.2197  0.4995
  728TMC3    C310811   1.715   2.399  15.115  0.1615 -0.4477  0.1841
  728TMC3    C410812   1.461   2.379  15.192  0.4131 -0.5775  0.1760
  728TMC3    C510813   1.496   2.405  15.058 -0.7225 -0.3223 -0.2286
  728TMC3    C610814   1.624   2.408  15.020 -0.1840  0.6509  0.0849
  728TMC3     C10815   1.518   2.375  15.431 -0.4755  0.4912 -0.0943
  728TMC3     O10816   1.618   2.393  15.499  0.3659 -0.1799  0.6232
  728TMC3     H10817   1.768   2.369  15.323 -0.2089  1.4397  0.7705
  728TMC3    H110818   1.357   2.385  15.218  0.5166  0.2542  0.3812
  728TMC3    H210819   1.649   2.427  14.916  1.7169 -1.8285  0.1035
  728TMC3    C710820   1.393   2.459  14.975 -0.0731  0.5413  0.7739
  728TMC3    C810821   1.846   2.425  15.074  0.7049  0.4468  0.3824
  728TMC3    O110822   1.280   2.421  14.990  0.5372  0.0866  0.5984
  728TMC3    O210823   1.863   2.423  14.956 -0.5065  0.2703 -0.0445
  729MPD2     C10824   3.298   3.936  16.687 -0.0986  0.2923 -0.9595
  729MPD2    C110825   3.376   3.828  16.726  0.0675 -0.0114 -0.4597
  729MPD2    C210826   3.389   3.803  16.853  0.1750  0.0854  0.1657
  729MPD2    C310827   3.319   3.875  16.947 -0.5414  0.5252  0.2559
  729MPD2    C410828   3.245   3.980  16.910  0.0232 -0.0871 -0.7070
  729MPD2    C510829   3.229   4.003  16.775  0.8847  0.0943 -0.0117
  729MPD2     H10830   3.462   3.730  16.888  1.8880  1.4897 -0.4828
  729MPD2    H110831   3.182   4.046  16.968 -1.1389 -0.4651 -1.5286
  729MPD2    H210832   3.290   3.958  16.581 -3.0203  0.9080 -0.6040
  729MPD2    H310833   3.154   4.072  16.738  0.0713  0.5630  2.4908
  729MPD2     N10834   3.331   3.848  17.082 -0.2392  0.3443 -0.2820
  729MPD2    H510835   3.291   3.927  17.132  1.1683  1.5026 -0.9952
  729MPD2    N110836   3.456   3.767  16.627  0.2993 -0.1065  0.0868
  729MPD2    H710837   3.467   3.826  16.545  0.3649 -1.2323 -0.7102
  730TMC3    C110838   3.418   3.781  17.276  0.2425  0.0239 -0.4141
  730TMC3    C210839   3.554   3.761  17.317  0.1610 -0.1343  0.0587
  730TMC3    C310840   3.625   3.864  17.377  0.6811 -0.0900 -0.1067
  730TMC3    C410841   3.357   3.894  17.310  0.2477  0.4678  0.1364
  730TMC3    C510842   3.423   3.989  17.384  0.7182 -0.4332  0.3544
  730TMC3    C610843   3.559   3.979  17.406  0.6334 -0.1975  0.3954
  730TMC3     C10844   3.397   3.745  17.141  0.2117 -0.3695 -0.4827
  730TMC3     O10845   3.454   3.642  17.099  0.6559  0.2634 -0.1412
  730TMC3     H10846   3.601   3.666  17.293  0.1427 -0.0437 -0.3277
  730TMC3    H110847   3.249   3.893  17.300  0.3483  1.8155 -1.0590
  730TMC3    H210848   3.619   4.063  17.440 -0.1268  0.4877  0.0441
  730TMC3    C710849   3.375   4.122  17.360 -0.5369 -0.5971 -0.4683
  730TMC3    C810850   3.747   3.878  17.308  0.1578  0.3418 -0.1404
  730TMC3    O110851   3.309   4.127  17.258  0.1971 -0.0885  0.4493
  730TMC3    O210852   3.784   3.787  17.232 -0.0635  0.1557  0.2323
  731MPD2     C10853   3.613   1.163  12.693 -1.1876  0.6110 -0.6491
  731MPD2    C110854   3.725   1.114  12.744 -0.4054 -0.6208  0.1233
  731MPD2    C210855   3.725   1.056  12.865  0.5154  0.1799 -0.4674
  731MPD2    C310856   3.601   1.030  12.931  0.1335 -0.0645  0.0848
  731MPD2    C410857   3.485   1.066  12.869 -1.0930 -0.8067  0.5103
  731MPD2    C510858   3.495   1.129  12.751  0.2702 -0.4125  0.2337
  731MPD2     H10859   3.819   1.027  12.910  0.0330 -0.9807 -0.2050
  731MPD2    H110860   3.387   1.042  12.907 -2.5931 -0.2084 -3.0106
  731MPD2    H210861   3.602   1.212  12.597 -1.0735  0.6056 -0.6645
  731MPD2    H310862   3.403   1.160  12.704 -0.1983 -0.4832  1.1065
  731MPD2     N10863   3.604   0.967  13.053 -0.6471  0.5635  0.6731
  731MPD2    H510864   3.691   0.927  13.085 -2.1231 -1.0169  2.7203
  731MPD2    N110865   3.845   1.149  12.675  0.1611 -0.3439 -0.2613
  731MPD2    H710866   3.837   1.221  12.604  0.2791  0.9989  1.0906
  732TMC3    C110867   4.067   1.152  12.604 -0.2394 -0.7494 -1.0362
  732TMC3    C210868   4.018   1.146  12.477  0.0848 -0.1102  0.1460
  732TMC3    C310869   4.105   1.178  12.376 -0.0752  0.8668  0.0036
  732TMC3    C410870   4.198   1.173  12.630 -0.0311  0.1193 -0.2091
  732TMC3    C510871   4.286   1.208  12.530  0.0983 -0.1672 -0.0241
  732TMC3    C610872   4.233   1.212  12.401 -0.0898 -0.2700 -0.8848
  732TMC3     C10873   3.975   1.133  12.714  0.2795  0.3910  0.9323
  732TMC3     O10874   4.016   1.069  12.808 -0.6356 -0.2180  0.0199
  732TMC3     H10875   3.917   1.123  12.443  0.4864 -1.0442 -0.4283
  732TMC3    H110876   4.226   1.158  12.734  0.8100  0.6783 -0.3493
  732TMC3    H210877   4.302   1.242  12.322  1.1650  0.6527  0.5690
  732TMC3    C710878   4.427   1.219  12.549 -0.1033 -0.1098 -0.0682
  732TMC3    C810879   4.061   1.215  12.246 -0.2680 -1.3834 -0.4901
  732TMC3    O110880   4.499   1.226  12.448 -0.2218 -0.1385 -0.4455
  732TMC3    O210881   4.137   1.197  12.153 -0.1748 -0.5917 -0.1721
  733TMC3    C110882   3.950   4.517  12.954 -0.6585  0.2631  0.3308
  733TMC3    C210883   4.015   4.460  13.059  0.7188 -0.1265  0.1446
  733TMC3    C310884   4.151   4.444  13.045  0.0825  0.2200 -0.4242
  733TMC3    C410885   4.017   4.543  12.836 -0.3264  0.5088 -0.2994
  733TMC3    C510886   4.150   4.520  12.830  0.4140 -0.0664 -0.0658
  733TMC3    C610887   4.222   4.470  12.934  0.8568 -0.4198  0.5584
  733TMC3     C10888   3.856   4.624  12.990  0.3612 -0.2040 -0.6613
  733TMC3     O10889   3.773   4.657  12.907  0.1542  0.2453 -0.0489
  733TMC3     H10890   3.968   4.417  13.146 -0.2804  2.3975  0.8456
  733TMC3    H110891   3.972   4.595  12.753 -0.8650 -1.5986 -1.3232
  733TMC3    H210892   4.327   4.447  12.923  0.3019 -2.8142  0.4359
  733TMC3    C710893   4.221   4.582  12.717 -0.2962 -0.2463 -0.2716
  733TMC3    C810894   4.207   4.504  13.163 -0.1406  0.5576 -0.8754
  733TMC3    O110895   4.159   4.602  12.611 -0.1010  0.4687 -0.0618
  733TMC3    O210896   4.118   4.531  13.245  0.0226  1.3374  0.0440
  734MPD2     C10897   1.562   1.897  12.958  0.0411 -0.1329 -0.1202
  734MPD2    C110898   1.516   1.849  12.838  0.1786 -0.5132 -0.0637
  734MPD2    C210899   1.434   1.935  12.763  1.3004  0.3308  0.6899
  734MPD2    C310900   1.420   2.070  12.795 -0.5247 -0.0450  0.0244
  734MPD2    C410901   1.468   2.115  12.917  0.3240 -0.2035 -0.2579
  734MPD2    C510902   1.534   2.027  12.996 -0.4335 -0.3640 -0.2890
  734MPD2     H10903   1.397   1.910  12.664  2.5388  1.7052 -0.1258
  734MPD2    H110904   1.442   2.214  12.950 -1.5171 -0.9208  0.4581
  734MPD2    H210905   1.620   1.830  13.021  0.1033  2.1209  2.2429
  734MPD2    H310906   1.569   2.055  13.095  0.1884  0.3018 -0.6983
  734MPD2     N10907   1.348   2.148  12.698  0.2180  0.4736 -0.2833
  734MPD2    H510908   1.313   2.101  12.616 -1.6136  0.6809  0.3840
  734MPD2    N110909   1.529   1.717  12.810  0.2924  0.0427  0.1332
  734MPD2    H710910   1.605   1.671  12.860  0.9820 -1.3701 -2.1499
  735TMC3    C110911   1.470   1.508  12.683 -0.0498 -0.4738 -0.2619
  735TMC3    C210912   1.364   1.457  12.610  0.0228  0.4131  0.0184
  735TMC3    C310913   1.385   1.407  12.483  0.2395 -0.2567 -0.5226
  735TMC3    C410914   1.597   1.487  12.641  0.7291  0.0815 -0.5477
  735TMC3    C510915   1.619   1.435  12.517 -0.2736 -0.0870 -1.0556
  735TMC3    C610916   1.514   1.412  12.431  0.3379  0.3056  0.0414
  735TMC3     C10917   1.438   1.646  12.725  0.5500 -0.0649 -0.6748
  735TMC3     O10918   1.334   1.682  12.676  0.4075  0.4752  0.2382
  735TMC3     H10919   1.260   1.463  12.642 -0.6034  1.0336 -2.0968
  735TMC3    H110920   1.672   1.516  12.714 -2.0596  1.6625  1.7183
  735TMC3    H210921   1.526   1.373  12.331  0.0273  1.3140 -0.3865
  735TMC3    C710922   1.747   1.379  12.488  0.1168 -0.4485  0.8889
  735TMC3    C810923   1.286   1.452  12.384  0.3451  0.0135  0.1738
  735TMC3    O110924   1.768   1.347  12.371  0.1301  0.1726  0.6074
  735TMC3    O210925   1.287   1.397  12.270 -0.0986 -0.7395  0.3859
  736MPD2     C10926   1.989   1.253  12.720 -0.9308  0.2530 -0.1975
  736MPD2    C110927   1.952   1.301  12.600  0.0081  0.2692  0.4696
  736MPD2    C210928   2.026   1.288  12.487 -0.0369 -0.4181  0.5260
  736MPD2    C310929   2.142   1.215  12.491  0.0648  0.9215  0.4251
  736MPD2    C410930   2.177   1.164  12.616 -0.3744  0.1922  0.0661
  736MPD2    C510931   2.101   1.184  12.728  0.4889  0.2547 -0.3418
  736MPD2     H10932   1.984   1.333  12.398  1.1996  0.0790  0.1900
  736MPD2    H110933   2.269   1.106  12.620 -1.4894 -1.5628  0.4762
  736MPD2    H210934   1.933   1.277  12.809  0.0748  0.5215  0.3552
  736MPD2    H310935   2.129   1.155  12.829 -0.6021  3.7830  0.9856
  736MPD2     N10936   2.226   1.196  12.376 -0.4651  0.5165 -0.7038
  736MPD2    H510937   2.318   1.155  12.390 -1.0916 -0.5971  0.1505
  736MPD2    N110938   1.825   1.363  12.600  0.5027 -0.1056  0.1512
  736MPD2    H710939   1.776   1.374  12.688 -0.1216  1.4661 -0.3857
  737TMC3    C110940   2.285   1.204  12.136  1.1147  0.1724 -0.6146
  737TMC3    C210941   2.260   1.251  12.010 -0.0787 -0.2845 -0.0070
  737TMC3    C310942   2.340   1.222  11.908 -0.7870 -0.1573 -0.8767
  737TMC3    C410943   2.400   1.128  12.157  0.0598  0.0735  0.0739
  737TMC3    C510944   2.470   1.087  12.043  0.1580  0.2489  0.5722
  737TMC3    C610945   2.447   1.132  11.918 -0.0020  0.3307 -0.5885
  737TMC3     C10946   2.197   1.242  12.247 -0.7206 -0.1547 -0.2788
  737TMC3     O10947   2.094   1.304  12.214  0.3887  0.0424 -0.2033
  737TMC3     H10948   2.180   1.322  11.995 -0.9295 -1.4819 -1.0787
  737TMC3    H110949   2.430   1.091  12.254 -2.2396  1.6332  1.3740
  737TMC3    H210950   2.499   1.090  11.833 -0.4222  0.6188 -0.9888
  737TMC3    C710951   2.601   1.031  12.071  0.1728  0.3856 -0.3095
  737TMC3    C810952   2.305   1.281  11.785  0.3799 -1.3405 -0.1826
  737TMC3    O110953   2.621   1.016  12.190  0.3687 -0.1931 -0.2442
  737TMC3    O210954   2.186   1.298  11.759  0.3573 -0.8324  0.0158
  738MPD2     C10955   3.101   0.603  15.289  0.0533 -0.3110  0.6980
  738MPD2    C110956   2.993   0.632  15.212  0.4099 -0.1246 -0.0214
  738MPD2    C210957   3.003   0.741  15.122  0.5877 -1.0730 -0.4781
  738MPD2    C310958   3.118   0.815  15.106 -0.2827 -0.3627  0.3072
  738MPD2    C410959   3.226   0.775  15.182  0.2023  0.1505  0.9940
  738MPD2    C510960   3.218   0.671  15.267 -0.0991 -0.2738  0.4961
  738MPD2     H10961   2.918   0.765  15.059 -1.5718 -1.1278  2.3668
  738MPD2    H110962   3.325   0.817  15.169 -0.2014  1.0820  0.9171
  738MPD2    H210963   3.105   0.535  15.373  2.1729 -1.5411 -0.3915
  738MPD2    H310964   3.311   0.645  15.315  0.1292  1.4437  1.0016
  738MPD2     N10965   3.135   0.930  15.019  0.2939  0.0888 -0.4470
  738MPD2    H510966   3.224   0.978  15.030  0.7441 -0.8234 -0.0700
  738MPD2    N110967   2.867   0.577  15.220  0.2549  0.1871  0.0173
  738MPD2    H710968   2.789   0.619  15.168 -1.3428 -0.2493  2.0584
  739TMC3    C110969   3.065   1.093  14.867  0.1333  0.2194  0.6551
  739TMC3    C210970   3.006   1.107  14.744 -0.3289 -0.0176  0.2247
  739TMC3    C310971   3.071   1.194  14.659  0.0628 -0.4798 -0.3293
  739TMC3    C410972   3.178   1.156  14.903  0.6327 -0.0216 -0.2386
  739TMC3    C510973   3.228   1.251  14.819  0.0081 -0.4623 -0.4781
  739TMC3    C610974   3.177   1.270  14.695  0.4735 -0.7665 -0.2058
  739TMC3     C10975   3.025   0.979  14.953  0.8054 -0.2354 -0.0835
  739TMC3     O10976   2.913   0.939  14.925  0.2323 -0.1284  0.1158
  739TMC3     H10977   2.936   1.036  14.703 -0.5357  0.6079 -0.5099
  739TMC3    H110978   3.226   1.144  14.999  1.3064 -0.5098 -0.6334
  739TMC3    H210979   3.241   1.317  14.621 -0.0121 -3.3388 -2.2825
  739TMC3    C710980   3.332   1.348  14.869  0.9524  0.1833 -0.6368
  739TMC3    C810981   3.008   1.209  14.524 -0.3739  0.1215  0.0920
  739TMC3    O110982   3.412   1.301  14.952 -0.4802  0.4829  0.2896
  739TMC3    O210983   2.900   1.153  14.510  0.0717 -0.1463  0.3026
  740TMC3    C110984   2.948   2.554  14.439 -0.3036  0.1438 -0.0710
  740TMC3    C210985   3.034   2.491  14.531  0.2725  0.4909 -0.6560
  740TMC3    C310986   3.143   2.420  14.492  0.5202  0.6212 -1.0425
  740TMC3    C410987   2.977   2.534  14.299  0.0394 -0.2265 -0.2529
  740TMC3    C510988   3.099   2.483  14.267  0.2831  0.1210  0.2991
  740TMC3    C610989   3.173   2.418  14.358 -0.1197  0.0299  0.2139
  740TMC3     C10990   2.808   2.526  14.465 -0.0660 -0.0869 -0.0105
  740TMC3     O10991   2.738   2.470  14.382 -0.1100 -1.1004  0.5214
  740TMC3     H10992   3.011   2.505  14.636 -2.9232 -0.1684 -1.2721
  740TMC3    H110993   2.903   2.563  14.225  0.2998 -0.0927 -0.4617
  740TMC3    H210994   3.269   2.377  14.328 -0.4445 -1.6591  1.4864
  740TMC3    C710995   3.134   2.445  14.123 -0.6368 -0.1001  0.0530
  740TMC3    C810996   3.244   2.385  14.590 -0.6531  0.6467 -0.1850
  740TMC3    O110997   3.238   2.384  14.097  0.8728 -0.4534  0.1065
  740TMC3    O210998   3.259   2.466  14.676  0.4571  0.4697 -0.0184
  741TMC3    C110999   2.695   1.403  14.416 -0.2460 -0.0766 -0.0200
  741TMC3    C211000   2.594   1.320  14.455  0.7220  0.8807  0.2895
  741TMC3    C311001   2.569   1.285  14.583 -0.0956  0.3238 -0.3688
  741TMC3    C411002   2.766   1.465  14.517  0.4611 -0.1061 -0.9389
  741TMC3    C511003   2.748   1.431  14.652  0.5777  0.4701 -0.8594
  741TMC3    C611004   2.647   1.334  14.685  0.0244  0.6778  0.2714
  741TMC3     C11005   2.688   1.448  14.276  0.2066  0.7108 -0.7455
  741TMC3     O11006   2.590   1.419  14.208  0.4105  0.6720  0.3310
  741TMC3     H11007   2.523   1.299  14.376  1.2391 -1.3434  0.4051
  741TMC3    H111008   2.832   1.549  14.496  0.4389  0.2524  0.4313
  741TMC3    H211009   2.650   1.298  14.787 -0.2291 -2.5483 -0.8262
  741TMC3    C711010   2.776   1.534  14.756  0.0320  0.2876  0.3593
  741TMC3    C811011   2.450   1.212  14.615 -0.1374  0.1773 -0.7792
  741TMC3    O111012   2.717   1.530  14.863 -0.2128 -0.0902  0.7566
  741TMC3    O211013   2.382   1.189  14.514  0.2145  0.4848 -0.2539
  742TMC3    C111014   3.264   0.022  15.645  0.0133 -0.5631  0.1464
  742TMC3    C211015   3.173   0.003  15.546 -0.2884 -0.3474  0.7586
  742TMC3    C311016   3.211   4.661  15.437  0.5418  0.2751 -0.1465
  742TMC3    C411017   3.391   4.716  15.631  0.1491 -0.2081  0.4812
  742TMC3    C511018   3.417   4.631  15.529 -0.4046 -0.0515  0.3982
  742TMC3    C611019   3.333   4.609  15.429  0.1068 -0.7233  0.0034
  742TMC3     C11020   3.231   0.091  15.764  0.7466 -0.0303 -0.8650
  742TMC3     O11021   3.322   0.117  15.844  0.4182  0.0369 -0.0589
  742TMC3     H11022   3.067   0.022  15.559 -0.3054 -0.6924  1.1469
  742TMC3    H111023   3.468   4.739  15.703  1.1168 -1.2383 -0.2295
  742TMC3    H211024   3.369   4.545  15.349 -2.2416 -3.0073  0.7926
  742TMC3    C711025   3.507   4.530  15.560  0.0871 -0.3858 -0.7228
  742TMC3    C811026   3.115   4.632  15.331  0.2793  0.2965  0.1655
  742TMC3    O111027   3.576   4.482  15.470  0.5296 -0.6164 -0.0208
  742TMC3    O211028   3.113   4.516  15.288 -0.8305 -0.9625  0.6608
  743MPD2     C11029   0.613   2.114   2.023 -0.6446  0.1332 -0.2054
  743MPD2    C111030   0.632   2.014   1.929 -0.1405 -0.2405  0.6351
  743MPD2    C211031   0.749   1.945   1.930  0.4486 -0.3104  0.2606
  743MPD2    C311032   0.848   1.978   2.024  0.0282  0.0494 -0.6117
  743MPD2    C411033   0.826   2.077   2.118 -0.0239  0.5226 -0.2992
  743MPD2    C511034   0.707   2.151   2.117 -0.0132  0.3865 -0.0761
  743MPD2     H11035   0.778   1.878   1.850 -1.1094 -1.7151  0.8613
  743MPD2    H111036   0.905   2.115   2.181  0.6471  1.0882 -1.4919
  743MPD2    H211037   0.516   2.161   2.022 -0.2535  0.9290 -1.1822
  743MPD2    H311038   0.676   2.228   2.186  0.9501  2.2367 -1.7105
  743MPD2     N11039   0.964   1.894   2.019 -0.4602  0.1965 -0.2444
  743MPD2    H511040   0.952   1.806   1.971  0.6127 -1.1157  1.9151
  743MPD2    N111041   0.524   1.983   1.844 -0.1177 -0.4910 -0.1109
  743MPD2    H711042   0.441   2.038   1.860 -0.3368 -1.0027  0.5103
  744TMC3    C111043   0.409   1.866   1.675  0.3921 -0.4243  0.0897
  744TMC3    C211044   0.291   1.888   1.734 -0.0747  0.4367 -0.6114
  744TMC3    C311045   0.181   1.824   1.688 -0.3282  0.0550  1.0674
  744TMC3    C411046   0.416   1.771   1.575  0.2892 -0.2284 -0.5189
  744TMC3    C511047   0.305   1.705   1.532 -0.7246  0.7191  0.9437
  744TMC3    C611048   0.186   1.739   1.582  0.1238 -0.2025 -0.2979
  744TMC3     C11049   0.526   1.880   1.755 -0.0563  0.0357 -0.2329
  744TMC3     O11050   0.594   1.784   1.750 -0.1660 -0.1499 -0.0897
  744TMC3     H11051   0.293   1.950   1.823  0.4597  1.3843 -1.2783
  744TMC3    H111052   0.514   1.741   1.538  0.8659  1.5660 -0.4562
  744TMC3    H211053   0.098   1.695   1.539  2.2720 -4.0158 -0.7892
  744TMC3    C711054   0.331   1.598   1.438 -0.3791  0.3488  0.2755
  744TMC3    C811055   0.049   1.881   1.717 -0.4763 -0.2484  0.5595
  744TMC3    O111056   0.447   1.574   1.407 -0.5097 -0.1142  0.4997
  744TMC3    O211057   4.693   1.838   1.654  0.6647 -0.0190  0.2005
  745TMC3    C111058   2.834   4.375  13.859  0.8468  0.3545 -0.5688
  745TMC3    C211059   2.760   4.374  13.971  0.0997 -0.1010  1.0253
  745TMC3    C311060   2.619   4.392  13.957  0.4486 -0.2908 -0.5317
  745TMC3    C411061   2.780   4.409  13.735 -0.2563  0.6005 -0.0178
  745TMC3    C511062   2.650   4.431  13.727 -1.3515  0.1575  0.7365
  745TMC3    C611063   2.566   4.411  13.832 -0.5112  0.4300  0.0864
  745TMC3     C11064   2.976   4.379  13.874 -0.1976 -0.4372 -0.1702
  745TMC3     O11065   3.032   4.328  13.782  0.1982  0.1159  0.0289
  745TMC3     H11066   2.814   4.353  14.062  0.9372  0.8001  0.7373
  745TMC3    H111067   2.839   4.419  13.644  0.3313 -0.2944  0.2710
  745TMC3    H211068   2.460   4.433  13.832 -0.1613  2.1149  0.1597
  745TMC3    C711069   2.591   4.517  13.632  0.3991  0.0161  0.0778
  745TMC3    C811070   2.551   4.450  14.066  0.0908 -0.3919 -1.0126
  745TMC3    O111071   2.471   4.500  13.616  0.0129 -0.4483  0.1956
  745TMC3    O211072   2.433   4.476  14.050  0.1615  0.3176 -0.3771
  746TMC3    C111073   0.604   1.113  11.524 -0.4692  0.1624  0.5076
  746TMC3    C211074   0.699   1.102  11.426  0.0723 -0.6296  0.2781
  746TMC3    C311075   0.673   1.035  11.310  0.4938  0.3753 -0.4054
  746TMC3    C411076   0.482   1.047  11.515  0.2511 -0.7522  0.5391
  746TMC3    C511077   0.462   0.976  11.394 -0.5139  0.4232  0.1504
  746TMC3    C611078   0.554   0.974  11.299  0.0170 -0.5515 -0.0626
  746TMC3     C11079   0.597   1.234  11.600  0.1104  0.5589 -0.2538
  746TMC3     O11080   0.487   1.265  11.637  0.3702 -0.1773  0.8868
  746TMC3     H11081   0.774   1.180  11.415  0.1578 -0.8709 -0.8265
  746TMC3    H111082   0.408   1.051  11.594 -1.4854 -0.7685 -1.0970
  746TMC3    H211083   0.519   0.940  11.202 -0.6475 -0.5033  0.1636
  746TMC3    C711084   0.337   0.908  11.372 -0.6896  0.2705  0.1303
  746TMC3    C811085   0.724   1.099  11.195  0.2034 -0.0930  0.8614
  746TMC3    O111086   0.297   0.896  11.257  0.2382 -0.1920 -0.3877
  746TMC3    O211087   0.741   1.222  11.193 -0.0012 -0.4484 -0.6335
  747TMC3    C111088   3.269   1.116  11.334 -0.6178  0.0813  0.0929
  747TMC3    C211089   3.154   1.130  11.411 -0.1066  0.0539 -0.0644
  747TMC3    C311090   3.176   1.177  11.534  0.1908 -1.1135  0.5082
  747TMC3    C411091   3.391   1.167  11.373 -0.1126 -1.4282  0.0762
  747TMC3    C511092   3.404   1.210  11.497  0.4033 -0.5471 -0.1203
  747TMC3    C611093   3.298   1.216  11.579  0.3728  0.8393 -0.0773
  747TMC3     C11094   3.247   1.125  11.191  0.2040 -0.2923 -0.2238
  747TMC3     O11095   3.161   1.201  11.147 -0.2478 -0.9270 -0.7861
  747TMC3     H11096   3.051   1.104  11.389 -0.7018 -0.1833  3.0556
  747TMC3    H111097   3.477   1.152  11.308  0.0174  1.7979 -0.4681
  747TMC3    H211098   3.306   1.248  11.683  1.3492  1.0851 -0.2347
  747TMC3    C711099   3.515   1.293  11.535 -0.4422  0.2487 -0.7118
  747TMC3    C811100   3.075   1.160  11.640  0.3010  0.6428  0.2073
  747TMC3    O111101   3.493   1.373  11.624 -0.4373  0.3943 -0.0434
  747TMC3    O211102   2.959   1.179  11.612  0.2232 -0.1263  0.4340
  748MPD2     C11103   0.008   2.012   0.759 -0.2305  0.6821 -0.1876
  748MPD2    C111104   0.004   2.095   0.868 -0.2002  0.9674  0.7025
  748MPD2    C211105   0.112   2.170   0.894  0.6375 -0.2070  0.3479
  748MPD2    C311106   0.227   2.170   0.817 -0.9297 -0.6974 -0.9894
  748MPD2    C411107   0.239   2.083   0.710 -1.1052 -1.0148 -0.3410
  748MPD2    C511108   0.126   2.002   0.683 -0.4463  0.7348  0.2961
  748MPD2     H11109   0.118   2.237   0.979  0.9849  1.9601 -1.3810
  748MPD2    H111110   0.332   2.065   0.657 -2.4505 -2.6858 -2.1041
  748MPD2    H211111   4.668   1.939   0.754  0.2071  0.1510  0.6390
  748MPD2    H311112   0.143   1.926   0.607  1.2580  1.5972 -0.1887
  748MPD2     N11113   0.326   2.263   0.853 -0.8437  0.0570  0.0074
  748MPD2    H511114   0.318   2.321   0.936 -4.5334 -2.0030  1.0553
  748MPD2    N111115   4.624   2.102   0.944 -0.3103 -0.0735 -0.2224
  748MPD2    H711116   4.543   2.054   0.907 -0.4251  1.2358 -1.6476
  749TMC3    C111117   0.510   2.400   0.832 -0.2834 -0.5052  0.1823
  749TMC3    C211118   0.535   2.412   0.967 -1.0541 -0.2670 -0.2229
  749TMC3    C311119   0.592   2.525   1.018  0.7016 -0.8543 -0.1324
  749TMC3    C411120   0.553   2.497   0.748  0.2115 -0.0263  0.5799
  749TMC3    C511121   0.597   2.617   0.801 -0.3163 -0.2043  0.5817
  749TMC3    C611122   0.614   2.637   0.936 -0.2987 -0.1602 -0.0804
  749TMC3     C11123   0.439   2.290   0.780  0.0601  0.5516 -0.2293
  749TMC3     O11124   0.470   2.245   0.668 -0.1303  0.0294 -0.1039
  749TMC3     H11125   0.522   2.322   1.026 -5.0101 -0.3578 -1.2408
  749TMC3    H111126   0.539   2.480   0.642  1.0385 -1.4452  0.6892
  749TMC3    H211127   0.669   2.720   0.977 -3.5416  2.3439 -0.7954
  749TMC3    C711128   0.608   2.733   0.724  0.3137  0.1205  0.9837
  749TMC3    C811129   0.638   2.532   1.156 -0.0774  0.3903  0.1591
  749TMC3    O111130   0.689   2.821   0.752 -0.2277  0.5206 -0.0361
  749TMC3    O211131   0.625   2.646   1.203  0.7895 -0.4857 -0.8598
  750MPD2     C11132   0.444   3.064  11.724  0.3790  0.8049 -0.0471
  750MPD2    C111133   0.322   3.012  11.728 -0.6300  0.0232 -0.3172
  750MPD2    C211134   0.305   2.894  11.652  0.3413 -0.0124  0.1628
  750MPD2    C311135   0.407   2.816  11.596  0.6996  0.3369 -0.6468
  750MPD2    C411136   0.532   2.868  11.614  0.8227  0.2018  0.1080
  750MPD2    C511137   0.547   2.990  11.672  0.3179  0.3031 -0.0603
  750MPD2     H11138   0.206   2.855  11.631  2.5648 -4.2130 -2.4199
  750MPD2    H111139   0.616   2.810  11.579  1.3172  1.6539 -1.0963
  750MPD2    H211140   0.470   3.157  11.772  0.2236  0.6768  0.2846
  750MPD2    H311141   0.648   3.029  11.673 -0.2510  1.7545  1.5163
  750MPD2     N11142   0.390   2.700  11.521 -0.4233  0.5163  0.0915
  750MPD2    H511143   0.476   2.649  11.499 -1.0393 -0.3187 -0.3909
  750MPD2    N111144   0.219   3.082  11.795  0.4873 -0.5307  0.3067
  750MPD2    H711145   0.242   3.175  11.830 -0.3281  0.4126 -1.6712
  751TMC3    C111146   0.302   2.545  11.360 -0.3454 -0.0936  0.6378
  751TMC3    C211147   0.190   2.505  11.292 -0.4253 -0.6757 -0.2355
  751TMC3    C311148   0.203   2.413  11.198  0.8739  0.3297  0.7047
  751TMC3    C411149   0.428   2.498  11.338 -0.7232 -0.5072  0.3308
  751TMC3    C511150   0.435   2.395  11.238  0.5477 -0.0196  0.0398
  751TMC3    C611151   0.323   2.342  11.182 -0.6126  0.1883  0.6080
  751TMC3     C11152   0.276   2.659  11.451  0.2978 -0.2596 -0.7873
  751TMC3     O11153   0.165   2.704  11.458 -0.1124  0.0655  0.5592
  751TMC3     H11154   0.098   2.561  11.298 -1.5909 -2.6110 -0.1782
  751TMC3    H111155   0.516   2.521  11.397 -0.0965  0.7542 -1.0689
  751TMC3    H211156   0.323   2.253  11.120 -1.5367  1.5111 -1.2528
  751TMC3    C711157   0.563   2.330  11.211  0.3132 -0.2681 -0.1989
  751TMC3    C811158   0.097   2.324  11.172  0.6564  0.2094  0.0094
  751TMC3    O111159   0.670   2.386  11.233 -0.5296  0.1992 -0.1996
  751TMC3    O211160   0.111   2.253  11.068 -0.4254 -0.5381 -0.4773
  752TMC3    C111161   4.071   3.581  17.508 -0.0186  0.1075  0.4018
  752TMC3    C211162   4.109   3.489  17.606 -0.0392 -0.0981  0.7359
  752TMC3    C311163   4.024   3.462  17.703 -0.2727 -0.0276  0.1384
  752TMC3    C411164   3.956   3.649  17.511 -0.1983  0.3460  0.0554
  752TMC3    C511165   3.872   3.622  17.621  0.5566 -0.8724 -0.0795
  752TMC3    C611166   3.902   3.520  17.716  0.1845 -0.3421 -0.0412
  752TMC3     C11167   4.140   3.573  17.388  0.7516  0.0647  0.3137
  752TMC3     O11168   4.252   3.517  17.389  0.0731  1.0378 -0.5220
  752TMC3     H11169   4.191   3.418  17.599 -0.3261 -0.5226  1.7705
  752TMC3    H111170   3.944   3.729  17.439  1.8519  0.3663 -0.2804
  752TMC3    H211171   3.833   3.494   0.041  2.0792  0.2154  1.8126
  752TMC3    C711172   3.763   3.708  17.655  0.9425 -0.1319  0.6134
  752TMC3    C811173   4.063   3.369   0.049  0.8097  0.3535 -0.7184
  752TMC3    O111174   3.786   3.830  17.633 -0.5240 -0.6593 -0.1272
  752TMC3    O211175   3.976   3.288   0.080  0.1705  0.1897 -0.8954
  753TMC3    C111176   1.402   3.924  13.996  0.7926 -1.0089 -0.2631
  753TMC3    C211177   1.481   3.916  14.107 -0.0251  0.0829 -0.6339
  753TMC3    C311178   1.577   3.814  14.103 -0.2928 -0.3541  0.1221
  753TMC3    C411179   1.415   3.843  13.884  0.1162  0.8834 -0.4698
  753TMC3    C511180   1.495   3.737  13.897 -0.2856 -0.2692  0.1730
  753TMC3    C611181   1.566   3.710  14.011 -0.1594 -0.3479 -1.2936
  753TMC3     C11182   1.296   4.026  13.988  0.1728 -0.5132  0.1775
  753TMC3     O11183   1.233   4.039  13.882 -0.6190 -0.5172 -0.1206
  753TMC3     H11184   1.477   3.987  14.189  2.6372  1.5515 -1.8023
  753TMC3    H111185   1.362   3.866  13.792 -1.2550  0.4544  0.2082
  753TMC3    H211186   1.627   3.620  14.018  1.1634  0.5652 -1.0707
  753TMC3    C711187   1.537   3.674  13.774  0.3490 -0.6412 -0.3786
  753TMC3    C811188   1.690   3.807  14.201  0.1564  0.2906 -0.0784
  753TMC3    O111189   1.457   3.691  13.681 -0.2074  0.0671 -0.8789
  753TMC3    O211190   1.747   3.704  14.218  0.2546 -0.7906  0.0074
  754MPD2     C11191   4.720   3.259  13.415 -0.1742 -0.4272 -0.3419
  754MPD2    C111192   4.722   3.146  13.498  0.0256  0.2803  0.0773
  754MPD2    C211193   4.651   3.039  13.456  0.0039  0.1151  0.0720
  754MPD2    C311194   4.574   3.030  13.340 -0.5186  0.9398 -0.2431
  754MPD2    C411195   4.574   3.141  13.260 -0.1991 -0.1886  0.2120
  754MPD2    C511196   4.643   3.254  13.298 -0.3644 -0.3252 -0.4453
  754MPD2     H11197   4.664   2.951  13.519 -1.1268  0.4249  0.7367
  754MPD2    H111198   4.519   3.147  13.167 -0.0014  0.6053  0.1401
  754MPD2    H211199   0.033   3.349  13.445 -0.4172 -0.1921 -0.6347
  754MPD2    H311200   4.645   3.342  13.235  2.1222 -1.2964 -1.7241
  754MPD2     N11201   4.497   2.919  13.305 -0.3226 -0.1402  0.2103
  754MPD2    H511202   4.455   2.937  13.215  2.1648  2.7927 -0.3624
  754MPD2    N111203   0.060   3.132  13.613 -0.2859  0.1595  0.0593
  754MPD2    H711204   0.046   3.049  13.669 -1.6143 -0.4499 -1.1870
  755MPD2     C11205   3.687   3.046  13.102 -0.2926 -0.0198 -1.0118
  755MPD2    C111206   3.689   2.962  13.212 -0.1435  0.8715 -0.3669
  755MPD2    C211207   3.806   2.884  13.231 -0.2743 -0.1800  0.2254
  755MPD2    C311208   3.923   2.894  13.164  0.0832 -0.0253 -0.0527
  755MPD2    C411209   3.917   2.991  13.074  0.3717  0.6513 -0.1282
  755MPD2    C511210   3.803   3.057  13.038 -0.5991  0.0601  0.8997
  755MPD2     H11211   3.800   2.815  13.315  1.0702 -0.4108  0.1454
  755MPD2    H111212   4.005   3.017  13.016  1.4037  0.4682  1.3552
  755MPD2    H211213   3.606   3.113  13.078  0.5451 -0.0346 -3.8368
  755MPD2    H311214   3.801   3.133  12.960  1.3239 -1.0434 -0.2330
  755MPD2     N11215   4.047   2.825  13.184  0.1719  0.7800  0.0647
  755MPD2    H511216   4.126   2.871  13.139  0.1384  1.4688  0.7033
  755MPD2    N111217   3.585   2.950  13.308  0.4310  0.4080  0.0368
  755MPD2    H711218   3.604   2.903  13.396 -0.9984 -2.0018 -0.9606
  756MPD2     C11219   0.648   4.159  10.273  0.1663 -0.3726 -0.0826
  756MPD2    C111220   0.564   4.088  10.355  0.2787 -0.1731  0.1150
  756MPD2    C211221   0.479   4.009  10.296  0.9446  0.2809 -0.4012
  756MPD2    C311222   0.456   4.002  10.161 -0.6482 -0.2827 -0.9485
  756MPD2    C411223   0.534   4.077  10.081  0.7007 -0.0553  0.6805
  756MPD2    C511224   0.637   4.152  10.136  1.0665  0.3878  0.0904
  756MPD2     H11225   0.418   3.944  10.358  2.4766 -0.4635  0.3140
  756MPD2    H111226   0.521   4.080   9.974  3.4380 -0.4002  0.3282
  756MPD2    H211227   0.725   4.224  10.312  2.0079 -1.1662 -2.4188
  756MPD2    H311228   0.705   4.208  10.073  0.2671  3.1369  1.6604
  756MPD2     N11229   0.356   3.920  10.112  0.1343  0.3410  0.0764
  756MPD2    H511230   0.300   3.871  10.181 -1.4545  1.6081 -0.3019
  756MPD2    N111231   0.550   4.098  10.497 -0.4028  0.5195 -0.1535
  756MPD2    H711232   0.494   4.026  10.543 -2.0427  2.3587  0.7554
  757MPD2     C11233   4.711   3.047  10.365 -0.1932  0.6528  0.7374
  757MPD2    C111234   4.627   3.076  10.260 -1.0551  0.6811 -0.1029
  757MPD2    C211235   4.645   3.190  10.180  0.1757 -0.1416 -0.0813
  757MPD2    C311236   0.006   3.281  10.210 -0.0333  0.4556  0.5976
  757MPD2    C411237   0.085   3.251  10.315 -0.1216 -0.3455  0.4701
  757MPD2    C511238   0.071   3.137  10.393  0.2833 -0.5123  1.2703
  757MPD2     H11239   4.576   3.214  10.100 -0.8794 -0.7654  0.6194
  757MPD2    H111240   0.175   3.308  10.333 -0.5995  0.4519  0.2896
  757MPD2    H211241   4.699   2.964  10.434 -0.4943  0.1617  0.0955
  757MPD2    H311242   0.143   3.118  10.472  2.6271  0.3280 -0.6486
  757MPD2     N11243   0.040   3.379  10.113  0.1420 -1.0559  0.2162
  757MPD2    H511244   4.729   3.372  10.025  0.7303  2.7463 -0.4294
  757MPD2    N111245   4.530   2.983  10.230 -0.5747  0.3775 -0.2395
  757MPD2    H711246   4.529   2.890  10.271 -2.0323 -1.0830 -3.5627
  758MPD2     C11247   0.252   2.988  15.963  0.2020  0.0158  0.1005
  758MPD2    C111248   0.345   2.901  16.014  0.3915 -0.2314 -0.5979
  758MPD2    C211249   0.346   2.889  16.152 -0.1575  0.3958  0.0787
  758MPD2    C311250   0.239   2.940  16.223 -0.6192 -0.3612 -0.4759
  758MPD2    C411251   0.144   3.012  16.167  0.8132 -0.8042  0.4531
  758MPD2    C511252   0.149   3.045  16.036  0.2438 -0.1214  0.1441
  758MPD2     H11253   0.429   2.842  16.203 -0.6785  1.0080  1.5127
  758MPD2    H111254   0.067   3.063  16.225  0.7443  1.0254 -1.2776
  758MPD2    H211255   0.256   3.014  15.858 -1.9602 -0.0992 -0.0181
  758MPD2    H311256   0.088   3.122  15.990  1.3290  0.7284  0.1082
  758MPD2     N11257   0.246   2.938  16.366  0.5158 -0.4152 -1.2378
  758MPD2    H511258   0.165   2.974  16.417  0.9020  2.1116 -2.4181
  758MPD2    N111259   0.443   2.840  15.933  0.0264 -0.1318  0.7828
  758MPD2    H711260   0.421   2.851  15.835  1.8231 -0.9535  0.2846
  759MPD2     C11261   3.903   0.873   9.625  0.1493  0.7983  0.2512
  759MPD2    C111262   3.931   0.837   9.751 -0.6626  0.5727  0.4925
  759MPD2    C211263   4.027   0.904   9.825  0.1489 -0.8833  0.9357
  759MPD2    C311264   4.102   1.008   9.773 -0.1120 -0.2868  0.4878
  759MPD2    C411265   4.059   1.049   9.649  0.7963  0.1185 -0.0424
  759MPD2    C511266   3.954   0.995   9.585  0.0777 -0.2413  0.0397
  759MPD2     H11267   4.045   0.873   9.928 -3.7814  0.6877  2.0780
  759MPD2    H111268   4.106   1.137   9.606  2.5985 -0.8145  0.0220
  759MPD2    H211269   3.826   0.822   9.568  0.6651  0.6883 -0.3485
  759MPD2    H311270   3.933   1.040   9.489 -1.0107 -0.8209  0.0124
  759MPD2     N11271   4.211   1.056   9.844 -0.6523  1.1854  0.1220
  759MPD2    H511272   4.233   1.021   9.936  0.1261  0.1656 -0.4425
  759MPD2    N111273   3.870   0.718   9.799 -0.6142 -0.6925 -0.4203
  759MPD2    H711274   3.894   0.683   9.891  1.1653  2.1566  0.1661
  760MPD2     C11275   3.318   3.175  12.021 -0.0747  0.5118  0.4025
  760MPD2    C111276   3.451   3.170  11.979  0.4513  0.8486 -0.0498
  760MPD2    C211277   3.503   3.039  11.966  0.2735  0.1956  0.2971
  760MPD2    C311278   3.437   2.924  11.996  0.2058  0.3219  0.5578
  760MPD2    C411279   3.301   2.931  12.030 -0.4691  0.4362  0.0849
  760MPD2    C511280   3.241   3.060  12.043 -0.5998  0.1692  0.3550
  760MPD2     H11281   3.606   3.032  11.933  0.1742 -1.3977  0.3069
  760MPD2    H111282   3.240   2.848  12.063 -1.6281  1.1337 -0.3082
  760MPD2    H211283   3.271   3.269  12.048  0.1131  0.8437 -0.4068
  760MPD2    H311284   3.139   3.069  12.077 -0.5527  0.8688  0.3129
  760MPD2     N11285   3.497   2.796  11.995 -0.0166  0.4472  0.6002
  760MPD2    H511286   3.439   2.721  12.032 -0.4963  0.3747 -0.3107
  760MPD2    N111287   3.529   3.292  11.966 -0.4415  0.0072 -0.1990
  760MPD2    H711288   3.620   3.271  11.927 -1.2770 -1.9517 -1.0664
  761MPD2     C11289   4.733   1.945  11.477  0.8944  0.3010 -0.0834
  761MPD2    C111290   0.005   1.943  11.342  0.4051  0.1818 -1.0859
  761MPD2    C211291   0.021   2.065  11.276  0.2499  0.2290 -0.2951
  761MPD2    C311292   0.014   2.178  11.356  0.3352  0.4475  0.1625
  761MPD2    C411293   4.737   2.181  11.494  0.1543  0.4755  0.1990
  761MPD2    C511294   4.714   2.060  11.554  0.7171  0.5085 -0.6223
  761MPD2     H11295   0.028   2.068  11.168 -0.7319 -0.6177 -0.3790
  761MPD2    H111296   4.724   2.262  11.564 -0.4073 -0.4026  1.1096
  761MPD2    H211297   4.710   1.855  11.532  1.4741  0.9169  1.1836
  761MPD2    H311298   4.714   2.051  11.662  0.5541 -0.5970 -0.7097
  761MPD2     N11299   0.029   2.303  11.292 -0.1911  0.9852 -0.7447
  761MPD2    H511300   0.023   2.372  11.366 -0.0234 -1.4397  1.5114
  761MPD2    N111301   0.005   1.818  11.269  0.1606  0.3927 -0.5033
  761MPD2    H711302   0.028   1.737  11.324 -1.1165 -0.1572 -0.7759
  762MPD2     C11303   0.341   1.825  10.669  0.3599  0.3621 -0.1837
  762MPD2    C111304   0.367   1.711  10.741  0.2301 -0.2764  0.0885
  762MPD2    C211305   0.498   1.670  10.756  0.0742 -0.1315  1.0458
  762MPD2    C311306   0.605   1.750  10.713  0.6291  0.1260  0.3201
  762MPD2    C411307   0.575   1.873  10.651 -0.3330 -0.2847 -0.3940
  762MPD2    C511308   0.445   1.911  10.631  0.4016  0.3517 -0.1346
  762MPD2     H11309   0.518   1.576  10.805 -1.7833 -1.1161 -0.0928
  762MPD2    H111310   0.654   1.943  10.626  0.1212 -0.2371  1.1775
  762MPD2    H211311   0.239   1.851  10.641  1.0857 -1.1084 -4.3046
  762MPD2    H311312   0.419   2.000  10.575 -1.1428  0.5232  0.8505
  762MPD2     N11313   0.736   1.692  10.735 -0.6708  0.5292  0.2241
  762MPD2    H511314   0.732   1.602  10.782 -2.2328 -0.5384 -1.9800
  762MPD2    N111315   0.259   1.643  10.798  0.3011  0.3139  0.2508
  762MPD2    H711316   0.173   1.697  10.790 -0.8199 -1.3651  1.1075
  763MPD2     C11317   2.257   3.182  16.491  0.3122  0.2072  0.0929
  763MPD2    C111318   2.173   3.272  16.431 -0.0022 -0.1647  0.8890
  763MPD2    C211319   2.185   3.408  16.461  0.4397 -0.4314  0.8860
  763MPD2    C311320   2.281   3.453  16.555 -0.6093 -0.5337  0.6976
  763MPD2    C411321   2.371   3.361  16.597 -0.1538  0.4945 -0.5392
  763MPD2    C511322   2.364   3.229  16.555  0.9470  0.4252 -0.2652
  763MPD2     H11323   2.108   3.468  16.414  1.3740 -0.0749 -0.1939
  763MPD2    H111324   2.456   3.394  16.656  1.1120  1.1088 -2.7264
  763MPD2    H211325   2.252   3.073  16.486 -2.3925  0.3872 -1.1734
  763MPD2    H311326   2.448   3.172  16.593  0.9156 -0.3696 -1.4017
  763MPD2     N11327   2.296   3.592  16.584  0.0614 -0.6456 -0.2172
  763MPD2    H511328   2.390   3.625  16.600  0.4277 -1.9376  0.3042
  763MPD2    N111329   2.067   3.226  16.347  0.1371  0.2704  0.3193
  763MPD2    H711330   2.004   3.295  16.305 -2.3228 -1.5999  0.9260
  764MPD2     C11331   0.071   0.210  17.372 -0.4699  0.1064 -0.2104
  764MPD2    C111332   0.005   0.086  17.381 -0.4167  0.1099 -1.2114
  764MPD2    C211333   0.002   0.016  17.498  0.2767  0.0042  0.0438
  764MPD2    C311334   0.054   0.068  17.617  0.1852  0.1286  0.1169
  764MPD2    C411335   0.120   0.188  17.609  0.5867  0.6799 -0.5237
  764MPD2    C511336   0.123   0.263  17.490 -0.0528 -0.3911  0.1372
  764MPD2     H11337   4.676   4.669  17.499 -0.2106  0.3493 -1.2231
  764MPD2    H111338   0.172   0.236  17.691 -2.1833  1.1372  0.9963
  764MPD2    H211339   0.090   0.260  17.278 -2.2971  1.7662  0.3059
  764MPD2    H311340   0.187   0.350  17.483  1.1782 -1.3236 -0.0434
  764MPD2     N11341   0.037   0.001  17.738  0.0273  0.0859  0.4467
  764MPD2    H511342   0.004   4.644  17.742 -1.4426  0.6364  1.8052
  764MPD2    N111343   4.680   0.032  17.266  0.1461 -0.8367 -0.8380
  764MPD2    H711344   4.651   4.677  17.287  0.1634 -0.6245  0.1360
  765MPD2     C11345   0.127   2.266  15.683  0.2567  0.5865  0.5755
  765MPD2    C111346   0.229   2.360  15.711  0.1753 -0.4227 -0.2883
  765MPD2    C211347   0.359   2.321  15.748  0.7658  0.8206  0.0338
  765MPD2    C311348   0.383   2.179  15.764 -0.4085  0.0095 -0.6134
  765MPD2    C411349   0.285   2.089  15.717  0.6091  0.5551  0.1510
  765MPD2    C511350   0.164   2.131  15.671 -0.0965 -0.6356 -0.0986
  765MPD2     H11351   0.440   2.391  15.765  1.3645  0.1037  0.0917
  765MPD2    H111352   0.301   1.982  15.720 -0.7532  0.3264 -0.7972
  765MPD2    H211353   0.025   2.287  15.654 -0.3645 -0.8960  1.6735
  765MPD2    H311354   0.092   2.054  15.644  0.3892 -1.1448  0.0797
  765MPD2     N11355   0.509   2.130  15.810  0.3785 -0.0941 -0.2605
  765MPD2    H511356   0.578   2.195  15.846  0.8704 -0.2089 -0.9857
  765MPD2    N111357   0.172   2.490  15.727  0.0405 -1.2646  0.6053
  765MPD2    H711358   0.070   2.494  15.725  0.0553 -1.5893 -0.5685
  766MPD2     C11359   4.511   2.349  15.912  0.5488  0.0037 -0.3811
  766MPD2    C111360   4.517   2.453  15.819  0.4565 -0.1480  0.2703
  766MPD2    C211361   4.493   2.416  15.690  0.5019 -0.8493 -0.5379
  766MPD2    C311362   4.495   2.284  15.649  0.4302 -0.0138 -0.5598
  766MPD2    C411363   4.496   2.183  15.737 -0.4812 -0.1694 -0.5219
  766MPD2    C511364   4.501   2.217  15.869  0.9834  0.0450 -0.7370
  766MPD2     H11365   4.493   2.498  15.619 -1.5991 -1.3099 -1.0729
  766MPD2    H111366   4.503   2.080  15.702 -1.5077  0.0502 -1.3652
  766MPD2    H211367   4.523   2.375  16.016  0.1390  2.7981 -1.0366
  766MPD2    H311368   4.508   2.136  15.940  0.1130  0.4121 -0.2379
  766MPD2     N11369   4.517   2.249  15.516 -0.2336  0.5725  0.1446
  766MPD2    H511370   4.549   2.155  15.494  1.5693  0.9612  1.0863
  766MPD2    N111371   4.567   2.578  15.850 -0.4570  0.2251  0.1139
  766MPD2    H711372   4.608   2.597  15.941  0.4427 -1.7567  0.1177
  767MPD2     C11373   3.987   2.580  15.127 -0.0970 -0.9837  0.1800
  767MPD2    C111374   4.116   2.610  15.093 -0.7930  0.0175  0.0352
  767MPD2    C211375   4.189   2.521  15.021 -0.0990 -0.6491  0.4306
  767MPD2    C311376   4.132   2.400  14.972  0.3548  0.2937  0.3526
  767MPD2    C411377   4.000   2.374  15.019  0.1872 -0.0424 -0.2291
  767MPD2    C511378   3.932   2.461  15.095 -0.9082  0.0724  0.6403
  767MPD2     H11379   4.285   2.553  14.981 -0.3569 -0.1094  0.2515
  767MPD2    H111380   3.953   2.281  14.992 -2.4581  0.7680  1.5794
  767MPD2    H211381   3.926   2.653  15.179  0.4183 -1.5742  1.6056
  767MPD2    H311382   3.829   2.434  15.115 -0.8058 -1.8343 -1.3780
  767MPD2     N11383   4.207   2.315  14.882  0.0486  0.3654  0.2564
  767MPD2    H511384   4.300   2.344  14.854 -0.8164 -0.4681 -3.5220
  767MPD2    N111385   4.188   2.721  15.141  0.2361  0.0399 -0.2156
  767MPD2    H711386   4.289   2.720  15.137  0.1720 -2.2620 -1.6613
  768MPD2     C11387   0.359   0.650  10.916 -0.0562 -0.4963 -0.0955
  768MPD2    C111388   0.297   0.606  11.025 -0.3592  0.1471  0.3140
  768MPD2    C211389   0.363   0.600  11.145  0.0505 -0.0576 -0.7193
  768MPD2    C311390   0.494   0.636  11.159  0.1021 -0.7209 -0.3260
  768MPD2    C411391   0.561   0.677  11.043 -0.6687  0.5650  0.2670
  768MPD2    C511392   0.489   0.685  10.928  0.9525  0.5326  0.0018
  768MPD2     H11393   0.304   0.593  11.236  0.8121  0.9651 -0.1437
  768MPD2    H111394   0.668   0.697  11.045 -0.7202  1.0046 -1.1834
  768MPD2    H211395   0.312   0.649  10.819  0.7944 -1.0927 -0.5023
  768MPD2    H311396   0.546   0.713  10.840 -0.1844  1.3818 -0.4634
  768MPD2     N11397   0.553   0.623  11.287  0.3207 -0.5883 -0.0117
  768MPD2    H511398   0.642   0.671  11.284  0.5591 -1.1310 -1.7226
  768MPD2    N111399   0.165   0.562  11.021 -0.2355 -0.5018 -0.3112
  768MPD2    H711400   0.132   0.514  11.104 -1.1391  0.3572 -0.1760
  769MPD2     C11401   1.644   3.677  15.061  0.0438 -0.3209  0.4960
  769MPD2    C111402   1.525   3.748  15.069 -0.8463 -0.3931 -0.3553
  769MPD2    C211403   1.518   3.846  15.171  0.0171  0.3637  0.1209
  769MPD2    C311404   1.618   3.864  15.268 -0.0537 -0.8737  0.5079
  769MPD2    C411405   1.732   3.795  15.248 -1.3989  0.1848 -0.0419
  769MPD2    C511406   1.744   3.698  15.149 -0.3397 -0.2449 -0.4434
  769MPD2     H11407   1.425   3.899  15.188 -1.1342 -1.1610 -1.3673
  769MPD2    H111408   1.818   3.798  15.314  1.5989  0.1895 -3.9343
  769MPD2    H211409   1.653   3.606  14.980  0.8684 -1.3622  1.4826
  769MPD2    H311410   1.832   3.636  15.140 -1.2173 -1.4088 -0.9684
  769MPD2     N11411   1.600   3.954  15.376 -0.0861 -0.2499 -0.4890
  769MPD2    H511412   1.504   3.976  15.403 -0.3559  1.4280 -2.8945
  769MPD2    N111413   1.420   3.717  14.982  0.0923  0.0318  0.9976
  769MPD2    H711414   1.428   3.623  14.945 -0.1280  0.1689  0.6020
  770MPD2     C11415   0.433   3.473  14.930 -0.2073  0.0476  0.1820
  770MPD2    C111416   0.545   3.393  14.920  0.8723  0.1003  0.2662
  770MPD2    C211417   0.666   3.464  14.901 -0.2239 -0.1559 -0.6797
  770MPD2    C311418   0.682   3.601  14.908 -0.0828 -0.5955  0.0243
  770MPD2    C411419   0.566   3.676  14.923  0.5014  0.5396  0.0834
  770MPD2    C511420   0.451   3.610  14.929  0.3284 -0.1433 -0.2347
  770MPD2     H11421   0.749   3.402  14.867  1.0352  1.9000 -1.3451
  770MPD2    H111422   0.568   3.785  14.928  3.1348  0.5205 -0.3020
  770MPD2    H211423   0.330   3.439  14.928 -0.1857  0.1504 -2.3152
  770MPD2    H311424   0.363   3.671  14.947 -0.6284 -1.8002  0.6516
  770MPD2     N11425   0.813   3.646  14.891  0.4215 -0.3535  0.4670
  770MPD2    H511426   0.877   3.580  14.847  1.3693  0.3980  0.7313
  770MPD2    N111427   0.532   3.251  14.917  0.7032 -0.4803  0.0051
  770MPD2    H711428   0.440   3.211  14.927 -0.6565  2.6968  0.1529
  771MPD2     C11429   1.646   1.665  13.901 -0.1589  0.6084 -0.0850
  771MPD2    C111430   1.710   1.758  13.821 -0.0224  0.4590 -0.3963
  771MPD2    C211431   1.692   1.743  13.682 -0.3780  0.6136 -0.6057
  771MPD2    C311432   1.627   1.631  13.626 -0.4546  0.4503  0.3852
  771MPD2    C411433   1.593   1.529  13.714 -1.1858 -0.3432 -0.7120
  771MPD2    C511434   1.597   1.550  13.848  0.2060  0.1612 -0.2154
  771MPD2     H11435   1.732   1.818  13.615  0.9426 -1.4233 -2.0830
  771MPD2    H111436   1.567   1.430  13.680  1.0902 -1.9887  2.2619
  771MPD2    H211437   1.643   1.676  14.008 -1.0155 -0.3703 -0.0077
  771MPD2    H311438   1.574   1.463  13.910  0.1135  0.3083 -0.0449
  771MPD2     N11439   1.605   1.631  13.485 -0.4009 -0.3832  0.1013
  771MPD2    H511440   1.620   1.720  13.437 -2.8751  0.3470  0.6612
  771MPD2    N111441   1.767   1.877  13.876  0.3574  0.5591  0.5266
  771MPD2    H711442   1.813   1.932  13.804  0.8008 -0.3443  0.1207
  772MPD2     C11443   1.623   2.345  14.532  0.2357 -0.2364  0.1383
  772MPD2    C111444   1.576   2.284  14.416 -0.4631  0.3237 -0.4035
  772MPD2    C211445   1.451   2.223  14.413  0.1553  0.8581 -0.0753
  772MPD2    C311446   1.377   2.217  14.534 -0.0946  0.3651 -0.1454
  772MPD2    C411447   1.422   2.285  14.645 -0.3138  0.1598 -0.2101
  772MPD2    C511448   1.538   2.352  14.637 -0.1782 -0.1374 -0.4148
  772MPD2     H11449   1.417   2.169  14.325  1.1753  2.2809 -1.3558
  772MPD2    H111450   1.353   2.287  14.729 -1.1003  2.8031 -0.9229
  772MPD2    H211451   1.721   2.390  14.540 -0.6464  1.7295 -0.1175
  772MPD2    H311452   1.564   2.406  14.727 -2.1655  0.6755 -0.3189
  772MPD2     N11453   1.247   2.154  14.555 -0.4883 -0.2748 -0.1247
  772MPD2    H511454   1.203   2.171  14.644 -1.4073 -0.5241 -0.5308
  772MPD2    N111455   1.652   2.267  14.295 -0.2594  0.3159 -0.4785
  772MPD2    H711456   1.613   2.206  14.223  0.6715  0.3201 -0.9845
  773MPD2     C11457   1.044   3.242   0.447  0.2927  0.0985  0.0758
  773MPD2    C111458   0.999   3.134   0.370 -0.6061 -0.3669 -0.2369
  773MPD2    C211459   1.045   3.008   0.397 -0.4189  0.4785  0.6780
  773MPD2    C311460   1.129   2.973   0.503  0.2753  0.2435 -0.0186
  773MPD2    C411461   1.166   3.079   0.579  0.0353 -0.0166  0.3191
  773MPD2    C511462   1.134   3.208   0.553  0.2725  0.8910 -0.7294
  773MPD2     H11463   1.004   2.927   0.337  1.2684  0.9061 -1.0341
  773MPD2    H111464   1.234   3.055   0.660  1.0638  0.2432 -0.4723
  773MPD2    H211465   1.017   3.344   0.424 -1.4254 -0.7784 -1.7414
  773MPD2    H311466   1.176   3.285   0.616 -2.1690  1.0472  0.7251
  773MPD2     N11467   1.176   2.844   0.520  0.1873  0.9746  0.6239
  773MPD2    H511468   1.153   2.785   0.441  0.7117  1.7679 -0.1258
  773MPD2    N111469   0.915   3.150   0.256 -0.1726  0.1863 -0.4000
  773MPD2    H711470   0.897   3.073   0.191  1.2309  0.0828 -0.6653
  774MPD2     C11471   0.600   2.535  13.705  0.0076  0.2907  0.2395
  774MPD2    C111472   0.466   2.545  13.723  0.2994  0.0344 -0.0289
  774MPD2    C211473   0.408   2.664  13.756  0.1320  0.0973 -0.8332
  774MPD2    C311474   0.494   2.778  13.775  0.5615 -0.0415  0.5448
  774MPD2    C411475   0.630   2.769  13.742  0.0128 -0.2777  0.6800
  774MPD2    C511476   0.680   2.646  13.712  0.6236  0.4293  0.3330
  774MPD2     H11477   0.305   2.666  13.790  0.5601 -0.0831  0.5005
  774MPD2    H111478   0.698   2.853  13.754 -0.0319  0.1147 -1.9256
  774MPD2    H211479   0.648   2.440  13.684  1.5565  1.2323 -0.5080
  774MPD2    H311480   0.785   2.625  13.697  0.2627 -0.0067 -1.6561
  774MPD2     N11481   0.434   2.899  13.824  0.1691  0.3170  0.1229
  774MPD2    H511482   0.341   2.883  13.863  0.2233 -0.7601 -0.2029
  774MPD2    N111483   0.393   2.425  13.721 -0.5393 -0.2224 -0.2541
  774MPD2    H711484   0.441   2.335  13.715  1.4495  0.7410  1.2816
  775MPD2     C11485   1.570   3.701  15.820  1.1086  0.2175  0.0941
  775MPD2    C111486   1.621   3.783  15.919 -0.3647  0.6077  0.2912
  775MPD2    C211487   1.736   3.845  15.881  0.0261  0.6255  0.5340
  775MPD2    C311488   1.786   3.846  15.746 -0.2892 -0.7393  0.3004
  775MPD2    C411489   1.730   3.766  15.651  0.0493  0.8023  0.5834
  775MPD2    C511490   1.619   3.693  15.693  0.5440 -0.0757 -0.8912
  775MPD2     H11491   1.793   3.901  15.955  0.3371  3.3183 -1.7458
  775MPD2    H111492   1.766   3.756  15.549  0.4326  0.7854  0.7194
  775MPD2    H211493   1.488   3.633  15.843  0.4819  0.5961 -1.0381
  775MPD2    H311494   1.579   3.620  15.625 -2.0943 -0.6862  1.3170
  775MPD2     N11495   1.895   3.919  15.693  0.4282 -0.3236  0.2734
  775MPD2    H511496   1.915   3.902  15.595  1.4446  0.2135  0.3807
  775MPD2    N111497   1.564   3.774  16.046  0.0144 -0.6117  0.3217
  775MPD2    H711498   1.481   3.717  16.063 -0.2735 -0.9610 -2.3102
  776MPD2     C11499   0.251   3.596  12.120  0.4867 -0.2117  0.1475
  776MPD2    C111500   0.143   3.621  12.036  0.2165 -0.0723  0.5833
  776MPD2    C211501   0.125   3.749  11.988  0.4496  0.4502  0.1856
  776MPD2    C311502   0.205   3.848  12.032  0.6731  0.1028 -0.4421
  776MPD2    C411503   0.309   3.824  12.121 -0.5392  0.1074 -0.0114
  776MPD2    C511504   0.333   3.695  12.162  0.1081  0.2807 -0.3944
  776MPD2     H11505   0.053   3.764  11.909  0.7687  2.5244  0.2821
  776MPD2    H111506   0.387   3.892  12.154 -1.3777 -0.0505  2.2665
  776MPD2    H211507   0.280   3.496  12.147  1.6231  0.2884  0.7763
  776MPD2    H311508   0.425   3.675  12.215 -0.0625 -0.8924 -0.5447
  776MPD2     N11509   0.213   3.979  11.983 -0.4283  0.3069  0.1398
  776MPD2    H511510   0.284   4.039  12.023 -0.5609  1.1476 -0.9147
  776MPD2    N111511   0.082   3.504  11.984 -0.9015 -0.4570  0.2704
  776MPD2    H711512   0.112   3.412  12.016 -0.8085  0.1393  1.8800
  777MPD2     C11513   1.206   1.594   1.109 -0.2590  0.1792 -0.8851
  777MPD2    C111514   1.099   1.578   1.188  0.1927  0.6733  0.6510
  777MPD2    C211515   0.984   1.527   1.119 -0.6235  0.4087 -0.6742
  777MPD2    C311516   0.989   1.493   0.985  0.2000  0.6578  0.3553
  777MPD2    C411517   1.115   1.487   0.925  0.0393 -0.2016  0.5183
  777MPD2    C511518   1.224   1.547   0.983  0.1629  0.1305 -0.2192
  777MPD2     H11519   0.886   1.527   1.165 -0.0024  0.2251  0.6595
  777MPD2    H111520   1.126   1.441   0.828  2.5384 -2.1560  1.7210
  777MPD2    H211521   1.298   1.624   1.158  0.7864 -2.9151 -0.9455
  777MPD2    H311522   1.319   1.551   0.932  1.7280  1.0321  2.7429
  777MPD2     N11523   0.870   1.447   0.924 -0.6310  0.4039 -0.5286
  777MPD2    H511524   0.791   1.428   0.985 -0.2594 -0.5643 -0.3482
  777MPD2    N111525   1.105   1.611   1.328  0.1483 -0.5499  0.1381
  777MPD2    H711526   1.185   1.667   1.353  0.2247 -1.3955  1.7621
  778MPD2     C11527   2.230   1.473  14.965 -0.0381 -0.4324  0.1105
  778MPD2    C111528   2.132   1.447  14.869  0.1553 -0.7613  0.8423
  778MPD2    C211529   2.155   1.470  14.738 -0.5069  0.1040  0.4317
  778MPD2    C311530   2.264   1.534  14.695 -0.3145  0.3827  0.6393
  778MPD2    C411531   2.355   1.584  14.792 -0.1173  0.5701  0.1302
  778MPD2    C511532   2.335   1.549  14.924 -1.3832 -0.0659 -0.1096
  778MPD2     H11533   2.092   1.425  14.662 -1.5203 -1.1813  2.0385
  778MPD2    H111534   2.435   1.647  14.755 -0.8867  1.2224 -0.4251
  778MPD2    H211535   2.238   1.453  15.071  1.9281 -1.1422 -0.1698
  778MPD2    H311536   2.412   1.585  14.991 -1.5881  0.9256 -0.4069
  778MPD2     N11537   2.276   1.554  14.551  0.2513 -0.0030 -0.0472
  778MPD2    H511538   2.212   1.508  14.487 -1.9709  2.5866  0.3230
  778MPD2    N111539   2.018   1.371  14.910 -0.2622 -0.2126  0.3316
  778MPD2    H711540   1.961   1.334  14.835  1.7230 -2.1641 -0.2282
  779MPD2     C11541   1.435   0.267  14.664  0.5820  0.3784  0.0259
  779MPD2    C111542   1.567   0.267  14.638  0.3386 -0.6959 -0.1782
  779MPD2    C211543   1.616   0.389  14.587 -0.4307 -0.5379 -0.0318
  779MPD2    C311544   1.537   0.504  14.570  0.0962 -0.2920  0.1475
  779MPD2    C411545   1.405   0.500  14.608  0.2279  0.6457  0.6813
  779MPD2    C511546   1.353   0.376  14.638  0.3412  0.3350 -0.3049
  779MPD2     H11547   1.723   0.399  14.575 -0.1033 -2.7966  1.1788
  779MPD2    H111548   1.343   0.589  14.613  1.2611  1.4407 -0.3540
  779MPD2    H211549   1.388   0.180  14.709  1.1954  1.7578  3.3018
  779MPD2    H311550   1.250   0.371  14.670  0.9799 -0.3553  1.6297
  779MPD2     N11551   1.611   0.612  14.521 -0.0569 -0.1967 -0.3250
  779MPD2    H511552   1.704   0.598  14.483  0.5334 -0.2609  1.1745
  779MPD2    N111553   1.654   0.158  14.669 -0.6281 -0.1716  0.1717
  779MPD2    H711554   1.749   0.188  14.654  0.2410 -0.3687  5.1582
  780MPD2     C11555   1.269   0.693   1.133 -0.4962  0.2007  0.1370
  780MPD2    C111556   1.205   0.653   1.019 -0.2951 -0.0415 -0.1840
  780MPD2    C211557   1.263   0.692   0.903  0.6111 -0.3623  0.1718
  780MPD2    C311558   1.366   0.787   0.896  0.1329  0.9766  0.2096
  780MPD2    C411559   1.416   0.844   1.009 -0.0872 -0.1878 -0.3401
  780MPD2    C511560   1.368   0.787   1.126  0.5400 -0.1398  0.5753
  780MPD2     H11561   1.219   0.643   0.816  1.6154  1.6343 -1.4478
  780MPD2    H111562   1.490   0.923   1.005  1.0139 -1.2525 -0.7732
  780MPD2    H211563   1.235   0.664   1.232 -2.2086  2.0247  0.0853
  780MPD2    H311564   1.409   0.818   1.222 -0.9157 -0.1294  1.1956
  780MPD2     N11565   1.400   0.837   0.762 -0.0273 -0.1232  0.6620
  780MPD2    H511566   1.345   0.803   0.684  0.7280  0.1471  0.0230
  780MPD2    N111567   1.106   0.558   1.024 -0.0673 -0.0389 -0.3755
  780MPD2    H711568   1.093   0.520   1.117 -2.4915  0.5628 -0.4546
  781MPD2     C11569   3.339   2.299  11.890 -0.8714  0.7383 -0.8190
  781MPD2    C111570   3.380   2.237  12.009 -0.1762  0.2128  0.2765
  781MPD2    C211571   3.495   2.155  12.004 -0.4581 -0.1732  0.8525
  781MPD2    C311572   3.557   2.124  11.883 -0.1673  0.2139  0.0410
  781MPD2    C411573   3.512   2.184  11.764 -0.2765  0.4493  0.2860
  781MPD2    C511574   3.404   2.270  11.771  0.4856 -0.3148 -0.1584
  781MPD2     H11575   3.537   2.127  12.100  1.8953  0.5788  0.0450
  781MPD2    H111576   3.559   2.164  11.669 -2.7456  2.2548 -1.3153
  781MPD2    H211577   3.266   2.380  11.888 -1.2919  0.3532 -0.9061
  781MPD2    H311578   3.379   2.320  11.678  1.1552  0.9070  0.3054
  781MPD2     N11579   3.671   2.042  11.871  0.6433 -0.2061 -0.0758
  781MPD2    H511580   3.712   2.032  11.779 -2.2172 -2.0067 -1.1704
  781MPD2    N111581   3.313   2.257  12.134  0.0392 -0.0799  0.4978
  781MPD2    H711582   3.360   2.230  12.219  4.4894  0.4771 -1.7909
  782MPD2     C11583   1.101   2.720  10.658 -0.5083 -1.0599  0.4203
  782MPD2    C111584   1.166   2.694  10.773  1.1776  0.3565  0.0516
  782MPD2    C211585   1.194   2.802  10.853 -0.2091  0.1548 -0.3337
  782MPD2    C311586   1.157   2.932  10.820 -0.1817 -0.5558 -0.1542
  782MPD2    C411587   1.082   2.953  10.706  0.1035 -1.0862 -0.2460
  782MPD2    C511588   1.052   2.842  10.638  0.6506 -0.1356 -0.3332
  782MPD2     H11589   1.232   2.778  10.952 -0.3687 -2.5433 -0.9117
  782MPD2    H111590   1.030   3.044  10.678  0.7718 -0.8493 -0.7164
  782MPD2    H211591   1.065   2.638  10.597 -2.7650  0.2550  0.0249
  782MPD2    H311592   0.974   2.847  10.563  0.3549 -2.8408 -0.2019
  782MPD2     N11593   1.179   3.034  10.924  0.3328 -0.4808 -0.5865
  782MPD2    H511594   1.212   3.011  11.018 -1.9294 -0.2464  0.2729
  782MPD2    N111595   1.204   2.561  10.803 -0.3706 -0.5220  0.3356
  782MPD2    H711596   1.170   2.485  10.745  0.2364  0.5096 -1.3729
  783MPD2     C11597   0.617   2.007  11.049 -0.6518  0.6048 -1.0543
  783MPD2    C111598   0.658   2.125  11.105 -0.3655 -0.1618 -0.0800
  783MPD2    C211599   0.791   2.172  11.099 -0.4130 -0.1915 -0.1626
  783MPD2    C311600   0.886   2.108  11.030  0.4014 -0.3473 -0.2250
  783MPD2    C411601   0.848   1.983  10.986  0.9041 -0.0372 -0.1991
  783MPD2    C511602   0.720   1.932  10.994  1.3007 -0.6621 -0.7446
  783MPD2     H11603   0.822   2.267  11.142  0.7455 -0.6277 -0.0293
  783MPD2    H111604   0.910   1.921  10.922  1.2673 -1.2339  1.2991
  783MPD2    H211605   0.514   1.981  11.031 -0.4337 -1.2924  0.4241
  783MPD2    H311606   0.704   1.838  10.944  0.9665 -1.4996  0.9151
  783MPD2     N11607   1.014   2.163  11.029  0.0716 -0.5618  0.9307
  783MPD2    H511608   1.029   2.252  11.076  0.7396  0.3406 -1.0295
  783MPD2    N111609   0.554   2.202  11.155 -0.4674 -0.8503  0.5856
  783MPD2    H711610   0.460   2.165  11.153  0.0387 -1.9335 -2.5182
  784MPD2     C11611   3.717   3.301   0.719 -0.1514 -0.2585 -0.5192
  784MPD2    C111612   3.717   3.405   0.812 -0.3307  0.2305 -0.4954
  784MPD2    C211613   3.610   3.493   0.816  0.0265 -0.1509  0.6739
  784MPD2    C311614   3.499   3.486   0.734  0.2047  0.5001 -0.1233
  784MPD2    C411615   3.505   3.390   0.640  0.2144  0.4718 -0.3687
  784MPD2    C511616   3.614   3.299   0.629  0.0293 -0.3305  0.3188
  784MPD2     H11617   3.618   3.567   0.895  2.0449 -1.0155  1.2770
  784MPD2    H111618   3.428   3.368   0.566 -0.5897  2.0507  0.0006
  784MPD2    H211619   3.797   3.229   0.713 -0.0880 -0.2678  0.4092
  784MPD2    H311620   3.609   3.211   0.566  0.1454 -0.1526  0.0585
  784MPD2     N11621   3.387   3.579   0.745 -0.4585 -0.0800  0.5371
  784MPD2    H511622   3.377   3.644   0.822 -2.2060 -0.1570  0.3673
  784MPD2    N111623   3.822   3.436   0.895 -0.8447 -0.5265 -0.2150
  784MPD2    H711624   3.825   3.527   0.939 -0.5276 -0.4563 -0.3778
  785MPD2     C11625   3.839   0.959  10.789  0.2253  0.0646  0.1789
  785MPD2    C111626   3.726   1.030  10.757  0.5152  0.0331  0.8160
  785MPD2    C211627   3.670   0.997  10.635  0.3132 -0.4700 -0.8736
  785MPD2    C311628   3.720   0.902  10.549  0.0827  0.4701  0.6751
  785MPD2    C411629   3.839   0.839  10.583 -0.7389 -0.8234  0.8763
  785MPD2    C511630   3.896   0.870  10.704 -0.5569 -0.6387 -0.0097
  785MPD2     H11631   3.582   1.049  10.599 -0.0259  0.7781  1.8014
  785MPD2    H111632   3.888   0.762  10.523  0.4768  0.3894  0.3019
  785MPD2    H211633   3.902   0.966  10.877  1.0729  1.8028 -0.5576
  785MPD2    H311634   3.996   0.835  10.729 -1.3158  0.7829  4.9417
  785MPD2     N11635   3.660   0.893  10.425 -0.2792  0.3155 -0.0565
  785MPD2    H511636   3.574   0.945  10.411  0.1112  0.9041 -0.2643
  785MPD2    N111637   3.681   1.140  10.840  0.0320  0.1656  0.1461
  785MPD2    H711638   3.711   1.145  10.937  1.6243 -0.4860 -0.3066
  786MPD2     C11639   2.687   4.734  15.076  0.6151  0.1595  0.7668
  786MPD2    C111640   2.750   4.610  15.100 -0.1389 -0.3489  0.5088
  786MPD2    C211641   2.855   4.612  15.185 -0.0410 -0.0759 -0.5182
  786MPD2    C311642   2.898   4.730  15.247  0.6632  0.1274 -0.0003
  786MPD2    C411643   2.830   0.109  15.225  0.8947 -0.7499 -0.3145
  786MPD2    C511644   2.722   0.108  15.137  0.3042  0.0936 -0.0578
  786MPD2     H11645   2.908   4.518  15.199 -0.5836 -0.0931  1.3828
  786MPD2    H111646   2.860   0.202  15.272  0.2251 -0.9715  0.5708
  786MPD2    H211647   2.615   0.011  14.997  1.7764 -1.1455 -0.5544
  786MPD2    H311648   2.668   0.197  15.109  1.9130  0.8956 -0.6333
  786MPD2     N11649   3.021   4.734  15.318 -0.3532  0.2529  0.4250
  786MPD2    H511650   3.053   0.078  15.365 -3.8088  1.2187  0.9899
  786MPD2    N111651   2.725   4.492  15.039 -0.2341  0.7987 -1.0684
  786MPD2    H711652   2.792   4.418  15.062 -0.3902  1.0821  0.3274
  787MPD2     C11653   2.908   3.995  15.313 -0.5450 -0.1549 -0.3784
  787MPD2    C111654   2.825   3.936  15.223  0.3612  0.2135 -0.5820
  787MPD2    C211655   2.826   3.800  15.200 -0.6740 -0.5507 -0.3826
  787MPD2    C311656   2.907   3.713  15.280 -0.8598  0.3355  0.4416
  787MPD2    C411657   2.980   3.776  15.380  0.3158  0.0775  0.4644
  787MPD2    C511658   2.995   3.914  15.384 -0.2692 -0.9318 -0.0093
  787MPD2     H11659   2.761   3.756  15.124 -2.0101  1.2759 -0.3198
  787MPD2    H111660   3.037   3.718  15.452 -0.1042 -2.1443 -0.9749
  787MPD2    H211661   2.908   4.103  15.325  0.0315 -0.2763  0.6622
  787MPD2    H311662   3.058   3.957  15.460 -2.0707  2.3196 -0.3822
  787MPD2     N11663   2.911   3.574  15.253  0.1488 -0.0496  0.4894
  787MPD2    H511664   2.860   3.538  15.173  1.9828  0.4854 -0.9075
  787MPD2    N111665   2.748   4.026  15.150 -0.3991 -0.6298  0.2672
  787MPD2    H711666   2.777   4.123  15.157 -0.4996 -0.7383  2.0999
  788MPD2     C11667   4.663   3.295   0.966 -0.4297  0.2106  0.4489
  788MPD2    C111668   4.566   3.235   0.886  0.5469  0.1489 -0.1974
  788MPD2    C211669   4.487   3.313   0.810  0.6417  0.2752 -0.1060
  788MPD2    C311670   4.491   3.450   0.827  0.6787 -0.3466 -0.2395
  788MPD2    C411671   4.581   3.506   0.920 -0.0265 -0.0649 -0.2725
  788MPD2    C511672   4.674   3.428   0.984  0.5323 -0.5400 -0.0661
  788MPD2     H11673   4.402   3.278   0.753 -1.0453  0.6945  2.1047
  788MPD2    H111674   4.598   3.612   0.933 -0.8343 -0.2365  2.1025
  788MPD2    H211675   4.723   3.235   1.033 -0.4231  0.2246  0.4554
  788MPD2    H311676   4.732   3.475   1.062 -0.5035  1.0300 -0.2298
  788MPD2     N11677   4.394   3.548   0.773 -0.2936  0.1730  0.9472
  788MPD2    H511678   4.419   3.645   0.788 -0.5055  0.2910  0.5371
  788MPD2    N111679   4.550   3.092   0.882  0.1062 -0.1013 -0.2588
  788MPD2    H711680   4.491   3.056   0.809  0.0440 -0.5114 -0.0048
  789MPD2     C11681   0.126   2.679  16.906 -0.5216 -0.4824 -0.3905
  789MPD2    C111682   0.063   2.750  16.807  0.2689  0.3476  0.1393
  789MPD2    C211683   4.725   2.855  16.840  0.8228  0.3880  0.8380
  789MPD2    C311684   4.704   2.895  16.966 -0.3451  0.3618 -0.3716
  789MPD2    C411685   0.016   2.821  17.066 -0.6729 -0.2901  0.0237
  789MPD2    C511686   0.107   2.719  17.036  1.0638  0.0783  0.1970
  789MPD2     H11687   4.675   2.914  16.764  3.0234  0.3533 -0.6228
  789MPD2    H111688   0.006   2.856  17.168 -0.4641  2.0159 -0.7439
  789MPD2    H211689   0.181   2.586  16.899  1.1827  0.6493 -1.9610
  789MPD2    H311690   0.154   2.673  17.122  1.2593 -0.9861 -0.4845
  789MPD2     N11691   4.621   3.005  16.992 -0.4012 -0.1578 -0.4746
  789MPD2    H511692   4.612   3.026  17.091  0.5463 -2.0659  0.0128
  789MPD2    N111693   0.073   2.715  16.672 -0.2703 -0.6244  0.1259
  789MPD2    H711694   0.026   2.782  16.613  0.2512 -0.8662 -0.5564
  790MPD2     C11695   0.628   4.638  13.843  0.0235 -1.3790 -0.0548
  790MPD2    C111696   0.602   4.506  13.860  0.0184  0.0476 -0.7867
  790MPD2    C211697   0.547   4.436  13.756 -0.0027  0.0915  0.1039
  790MPD2    C311698   0.501   4.497  13.642  0.0753 -0.2842 -0.1534
  790MPD2    C411699   0.524   4.632  13.627 -0.5497 -0.3860 -0.7565
  790MPD2    C511700   0.580   4.705  13.735  0.6031 -1.1006 -0.1862
  790MPD2     H11701   0.525   4.332  13.778  0.9088  0.1606  1.3358
  790MPD2    H111702   0.489   4.686  13.540  1.3901  0.2982 -1.1330
  790MPD2    H211703   0.663   4.692  13.930  2.9020  0.3083 -2.2545
  790MPD2    H311704   0.599   0.070  13.714 -0.6832 -0.7468  0.4185
  790MPD2     N11705   0.434   4.423  13.544  0.1362 -0.4770 -0.0240
  790MPD2    H511706   0.430   4.322  13.552  0.7518 -0.4042  1.1333
  790MPD2    N111707   0.644   4.443  13.982 -0.1540  0.4112  0.1309
  790MPD2    H711708   0.671   4.497  14.063  1.3461 -0.2770  0.0807
  791MPD2     C11709   4.446   4.293  13.351 -0.3333 -0.3959 -0.2781
  791MPD2    C111710   4.532   4.229  13.262  0.2793 -0.2674  0.5004
  791MPD2    C211711   4.487   4.127  13.181  0.1402 -0.3537 -0.1061
  791MPD2    C311712   4.356   4.097  13.185 -0.8255  0.0962  0.8010
  791MPD2    C411713   4.269   4.157  13.274 -0.2887  0.3130 -0.0523
  791MPD2    C511714   4.312   4.265  13.348  0.0710 -0.5837  0.4633
  791MPD2     H11715   4.547   4.072  13.110  3.6892  0.9452  1.9164
  791MPD2    H111716   4.166   4.124  13.276  0.3649 -1.6924  0.7346
  791MPD2    H211717   4.491   4.372  13.410  2.3259  0.0899 -2.9032
  791MPD2    H311718   4.251   4.320  13.419 -0.0718  0.5898 -0.5736
  791MPD2     N11719   4.318   3.992  13.101  0.3241  0.4323 -0.3249
  791MPD2    H511720   4.389   3.936  13.056 -1.5268 -0.1995 -2.4752
  791MPD2    N111721   4.672   4.261  13.271 -0.2727  0.0023 -0.2377
  791MPD2    H711722   4.694   4.345  13.323 -1.0079 -0.5860  1.0334
  792MPD2     C11723   1.095   3.836  11.763  0.6551 -0.1901  0.5878
  792MPD2    C111724   0.992   3.920  11.718 -0.8808  0.9482 -0.7168
  792MPD2    C211725   0.863   3.868  11.719 -0.2406 -0.0308  0.1161
  792MPD2    C311726   0.830   3.741  11.770  0.0828 -0.3459  0.1444
  792MPD2    C411727   0.936   3.660  11.816  0.6099  0.1336 -0.1346
  792MPD2    C511728   1.071   3.704  11.811 -1.6069  0.4319 -0.2979
  792MPD2     H11729   0.783   3.930  11.679  0.6004  1.2440  0.4054
  792MPD2    H111730   0.927   3.565  11.869  0.7271 -0.0778 -0.4936
  792MPD2    H211731   1.200   3.863  11.763  0.2567  1.3260  1.4270
  792MPD2    H311732   1.153   3.636  11.828 -0.8827  1.7474  1.4513
  792MPD2     N11733   0.692   3.702  11.778  0.2903 -0.4681  0.3194
  792MPD2    H511734   0.684   3.609  11.816  1.6046 -0.4739  0.6128
  792MPD2    N111735   1.023   4.034  11.641 -0.2452 -0.0724 -0.4286
  792MPD2    H711736   1.120   4.063  11.630  0.2540 -1.1768  0.9765
  793MPD2     C11737   0.089   3.887  11.051  0.3365 -1.2796  0.2160
  793MPD2    C111738   0.200   3.937  11.117 -0.5244 -0.8078 -1.0785
  793MPD2    C211739   0.209   3.924  11.251 -0.2613  0.4879  0.1313
  793MPD2    C311740   0.120   3.839  11.318  0.2325 -0.2733  0.1329
  793MPD2    C411741   0.012   3.783  11.252 -0.1459  1.0395  0.3340
  793MPD2    C511742   4.736   3.815  11.122  0.2331 -0.5474  0.4797
  793MPD2     H11743   0.295   3.961  11.306 -0.0849 -1.3444  1.0939
  793MPD2    H111744   4.690   3.716  11.310 -1.4641 -0.2280 -2.5266
  793MPD2    H211745   0.073   3.902  10.945 -0.0785  0.9842  0.5895
  793MPD2    H311746   4.659   3.775  11.057  1.9829  0.2336 -2.0780
  793MPD2     N11747   0.142   3.794  11.446  0.4792 -0.3031  0.4035
  793MPD2    H511748   0.066   3.748  11.494 -1.0330  1.9827  0.1867
  793MPD2    N111749   0.316   3.981  11.044  0.4501  0.8714 -0.8366
  793MPD2    H711750   0.404   3.967  11.092 -0.9018 -0.3100  1.3126
  794MPD2     C11751   0.766   3.704  17.352  0.5632  0.6209 -0.2313
  794MPD2    C111752   0.682   3.592  17.346 -0.0516 -0.4912 -0.3671
  794MPD2    C211753   0.595   3.583  17.230 -0.2253  0.0127 -0.3022
  794MPD2    C311754   0.575   3.687  17.147 -0.1609  0.4464  0.4451
  794MPD2    C411755   0.641   3.807  17.173 -0.2961 -0.3544  0.1271
  794MPD2    C511756   0.735   3.811  17.271 -0.5512  0.3466  0.2901
  794MPD2     H11757   0.539   3.492  17.214 -0.3303  0.2029 -1.0142
  794MPD2    H111758   0.616   3.903  17.130  0.0503  0.0989  0.9256
  794MPD2    H211759   0.841   3.727  17.426  1.6905  2.2175 -1.8660
  794MPD2    H311760   0.783   3.907  17.288 -1.6038  0.9780 -0.3196
  794MPD2     N11761   0.482   3.689  17.038 -0.0715 -0.3633 -0.1433
  794MPD2    H511762   0.466   3.779  16.994 -0.6439 -0.2470  0.2991
  794MPD2    N111763   0.689   3.483  17.435 -0.0193 -0.0545  0.3074
  794MPD2    H711764   0.632   3.404  17.408 -0.6555  0.0874  1.2336
  795MPD2     C11765   3.031   0.951  13.821 -0.2520 -0.0483  0.2032
  795MPD2    C111766   2.979   0.824  13.814  0.2381  0.2485 -0.1837
  795MPD2    C211767   3.029   0.725  13.895  0.3360 -0.5616  0.4254
  795MPD2    C311768   3.151   0.743  13.955 -0.1619 -0.2503  0.1563
  795MPD2    C411769   3.209   0.870  13.968 -0.2172  0.3478  0.6499
  795MPD2    C511770   3.149   0.966  13.895  0.1407  0.4822  0.7591
  795MPD2     H11771   2.977   0.630  13.888  1.5809 -1.1054 -1.3761
  795MPD2    H111772   3.292   0.900  14.031  0.4038 -1.3195  0.6269
  795MPD2    H211773   2.989   1.039  13.773 -0.8662 -0.4601 -0.0019
  795MPD2    H311774   3.200   1.061  13.884  1.1661  0.2206  3.2289
  795MPD2     N11775   3.200   0.627  14.021  0.1274 -0.8158 -0.3896
  795MPD2    H511776   3.136   0.549  14.027 -0.7494  0.0229  1.2706
  795MPD2    N111777   2.864   0.802  13.741 -0.6378 -0.0226  0.1999
  795MPD2    H711778   2.794   0.740  13.781 -0.3539  1.0315  2.3322
  796MPD2     C11779   2.355   2.411  16.228  0.2618 -0.5920  0.4164
  796MPD2    C111780   2.456   2.474  16.303 -0.0043  0.9658 -0.4725
  796MPD2    C211781   2.463   2.617  16.299  0.2835  0.5695 -0.4772
  796MPD2    C311782   2.379   2.686  16.211 -0.4994 -0.8644 -0.1874
  796MPD2    C411783   2.288   2.615  16.132 -0.6945 -0.1921 -0.1316
  796MPD2    C511784   2.270   2.480  16.150  0.7211 -0.3020 -1.0204
  796MPD2     H11785   2.533   2.669  16.364  0.8583  1.6176 -1.9333
  796MPD2    H111786   2.228   2.675  16.065 -1.9152 -0.3493  0.8353
  796MPD2    H211787   2.338   2.305  16.238  1.8207 -0.8572  0.3374
  796MPD2    H311788   2.198   2.422  16.094  1.6364 -1.0127 -1.4729
  796MPD2     N11789   2.404   2.825  16.201  0.0827  0.0109 -0.1744
  796MPD2    H511790   2.446   2.872  16.280 -1.1797 -2.6609  2.0998
  796MPD2    N111791   2.530   2.387  16.388 -0.0122 -0.4950  0.1291
  796MPD2    H711792   2.499   2.292  16.405  2.1642 -0.9267  1.8053
  797MPD2     C11793   3.683   1.925  17.682  0.5774 -0.8239  0.0302
  797MPD2    C111794   3.776   2.025  17.662  0.5319 -0.6641  0.2877
  797MPD2    C211795   3.823   2.028  17.537  0.2043  0.2147  0.0480
  797MPD2    C311796   3.759   1.969  17.430  0.2140  0.0475  0.1344
  797MPD2    C411797   3.663   1.879  17.451  0.5159  0.4763  0.7516
  797MPD2    C511798   3.636   1.853  17.578 -0.0995 -0.0917  0.1341
  797MPD2     H11799   3.901   2.100  17.515  1.0064 -0.9436 -0.9419
  797MPD2    H111800   3.626   1.820  17.368  1.3957 -1.1226  1.4988
  797MPD2    H211801   3.639   1.903   0.024  2.1516 -0.3115  0.8482
  797MPD2    H311802   3.550   1.790  17.596  0.0332 -0.2169  0.3320
  797MPD2     N11803   3.790   2.011  17.306 -0.7080  0.2592  0.1540
  797MPD2    H511804   3.865   2.080  17.303  0.6371 -1.1639  0.4916
  797MPD2    N111805   3.835   2.112   0.001  0.0831  1.2913  0.9168
  797MPD2    H711806   3.907   2.172  17.717 -0.0559  0.7173 -0.2323
  798MPD2     C11807   3.978   2.647  17.311 -0.0578 -0.2495  1.0248
  798MPD2    C111808   3.983   2.510  17.330  0.2958  0.4965 -0.1780
  798MPD2    C211809   3.969   2.463  17.460 -0.2512 -0.8505 -0.2448
  798MPD2    C311810   3.979   2.549  17.566 -0.5660 -0.6352 -0.6242
  798MPD2    C411811   3.988   2.687  17.549 -0.5451 -0.1382  0.1396
  798MPD2    C511812   3.983   2.734  17.422 -0.7415 -0.2417  0.6577
  798MPD2     H11813   3.942   2.359  17.475 -1.4226 -0.5745 -0.3819
  798MPD2    H111814   3.991   2.749  17.638 -1.9526 -0.9079  0.7278
  798MPD2    H211815   3.969   2.691  17.213  1.3683 -0.0477  0.9875
  798MPD2    H311816   3.971   2.841  17.415  1.2763  0.1319  3.0525
  798MPD2     N11817   3.976   2.491  17.693  0.3107 -0.1251 -0.1896
  798MPD2    H511818   3.984   2.390  17.688  0.7702 -0.1524  1.3343
  798MPD2    N111819   3.970   2.434  17.210  0.5909  0.3985  0.6936
  798MPD2    H711820   3.985   2.472  17.117 -1.4199  1.0488  0.6512
  799MPD2     C11821   2.528   3.441  14.433 -0.5200 -0.7675 -0.7182
  799MPD2    C111822   2.481   3.335  14.359 -0.7098 -0.3210  0.1961
  799MPD2    C211823   2.470   3.355  14.218  0.1991 -0.1432 -0.0337
  799MPD2    C311824   2.500   3.483  14.165  0.1870 -0.1194 -0.1201
  799MPD2    C411825   2.546   3.583  14.245  0.8780 -0.5470  0.2301
  799MPD2    C511826   2.558   3.566  14.380 -0.2976 -0.2660  0.1794
  799MPD2     H11827   2.441   3.270  14.158  2.0303 -1.1310  0.4737
  799MPD2    H111828   2.567   3.679  14.199  0.7715 -0.9986 -0.7682
  799MPD2    H211829   2.551   3.436  14.539  1.1365 -0.1871 -1.0376
  799MPD2    H311830   2.594   3.651  14.437 -0.8179 -1.0293  1.6684
  799MPD2     N11831   2.500   3.517  14.028  0.4217 -0.2538  0.7199
  799MPD2    H511832   2.536   3.611  14.014 -0.1365 -0.0932  0.3637
  799MPD2    N111833   2.460   3.205  14.417  0.1407  0.3169  0.5289
  799MPD2    H711834   2.436   3.128  14.356 -0.4775  0.8348  0.1152
  800MPD2     C11835   2.565   4.674  14.529 -0.0373  0.2685  0.3326
  800MPD2    C111836   2.693   4.654  14.486 -0.0279 -1.1226  0.3448
  800MPD2    C211837   2.712   4.584  14.368  0.0884 -0.6576 -0.2024
  800MPD2    C311838   2.609   4.540  14.283  0.2362  0.4072  0.4194
  800MPD2    C411839   2.479   4.569  14.328  0.1424  0.0572 -0.0885
  800MPD2    C511840   2.460   4.622  14.451 -0.2878 -0.1319 -0.4446
  800MPD2     H11841   2.814   4.577  14.332  0.7539 -0.9806  1.7443
  800MPD2    H111842   2.391   4.528  14.279  1.6941 -1.1778 -1.8433
  800MPD2    H211843   2.548   4.729  14.621 -0.0719  0.7825  0.0161
  800MPD2    H311844   2.359   4.646  14.483 -0.8670 -1.6324 -1.1638
  800MPD2     N11845   2.645   4.481  14.164  0.1449 -0.5273  0.5593
  800MPD2    H511846   2.743   4.466  14.144 -0.0852  0.4919 -1.4454
  800MPD2    N111847   2.796   4.732  14.547 -0.3275  0.3472 -0.4876
  800MPD2    H711848   2.770   0.059  14.619 -0.0774 -1.0252  0.8764
  801MPD2     C11849   2.792   0.613  14.300  0.0129  0.4109  0.5893
  801MPD2    C111850   2.757   0.538  14.413 -0.8368 -0.6415 -0.1586
  801MPD2    C211851   2.625   0.546  14.464 -0.0217 -0.2272 -0.3605
  801MPD2    C311852   2.523   0.613  14.393 -0.4214 -0.4418  0.1555
  801MPD2    C411853   2.559   0.665  14.269  1.0247  0.5784  0.6349
  801MPD2    C511854   2.694   0.677  14.234  0.0048  0.0541  0.4069
  801MPD2     H11855   2.595   0.498  14.556 -2.0359  1.1522 -0.2910
  801MPD2    H111856   2.490   0.727  14.214  2.6320  1.0999 -0.7491
  801MPD2    H211857   2.898   0.614  14.275  0.4923 -0.1674  2.5534
  801MPD2    H311858   2.711   0.739  14.147  0.5110  2.1766  2.0173
  801MPD2     N11859   2.390   0.608  14.425 -0.4558 -0.7983  0.2175
  801MPD2    H511860   2.319   0.610  14.353  0.6735 -0.9607 -0.9105
  801MPD2    N111861   2.852   0.467  14.485 -0.1271  0.3856 -0.0694
  801MPD2    H711862   2.817   0.435  14.575  2.0596  0.9952  0.9862
  802MPD2     C11863   2.550   1.833   0.764  0.0959 -0.7575 -0.1732
  802MPD2    C111864   2.466   1.765   0.672  0.1039 -0.3814  0.1756
  802MPD2    C211865   2.522   1.675   0.587  0.2842  0.0870  0.1313
  802MPD2    C311866   2.657   1.657   0.579 -0.2694 -0.1243  0.2800
  802MPD2    C411867   2.741   1.725   0.667 -0.9919 -0.2758 -0.2103
  802MPD2    C511868   2.686   1.813   0.757 -0.2515 -0.6150 -0.4218
  802MPD2     H11869   2.466   1.625   0.508 -0.1834  0.1295  0.4388
  802MPD2    H111870   2.847   1.703   0.673 -1.0023  0.0839  1.2378
  802MPD2    H211871   2.517   1.912   0.831  3.4788  0.2230  0.3371
  802MPD2    H311872   2.744   1.855   0.839 -1.5108 -0.3659  0.3409
  802MPD2     N11873   2.704   1.554   0.494  0.5519  0.9889  0.0724
  802MPD2    H511874   2.635   1.493   0.451  0.8110  0.0394  1.0325
  802MPD2    N111875   2.335   1.800   0.647  0.6250 -0.0988 -0.4370
  802MPD2    H711876   2.278   1.751   0.579 -1.9667  1.4438  0.6574
  803MPD2     C11877   2.771   3.704  12.472 -0.4490 -0.4695  0.3608
  803MPD2    C111878   2.875   3.626  12.418 -0.1522 -0.1325  0.1277
  803MPD2    C211879   2.922   3.514  12.496  0.4409 -0.8731  0.0178
  803MPD2    C311880   2.881   3.494  12.628 -1.0154 -1.2109  0.8987
  803MPD2    C411881   2.777   3.576  12.680 -0.4459 -0.0761  0.0547
  803MPD2    C511882   2.725   3.679  12.599 -1.2558 -0.0868  0.3490
  803MPD2     H11883   3.006   3.460  12.452  0.1775 -2.0993  1.0420
  803MPD2    H111884   2.743   3.568  12.783 -1.5941  0.8038 -0.2530
  803MPD2    H211885   2.725   3.786  12.419  0.4779 -0.0651  0.1700
  803MPD2    H311886   2.650   3.743  12.644  0.6001  3.0500 -1.1160
  803MPD2     N11887   2.956   3.419  12.716  0.0990 -0.2459  0.0082
  803MPD2    H511888   2.930   3.428  12.814 -1.8797  1.8536 -0.7150
  803MPD2    N111889   2.925   3.654  12.289  0.2281 -0.5674 -0.3920
  803MPD2    H711890   2.983   3.580  12.250 -0.0982  1.4998 -4.8358
  804MPD2     C11891   3.458   0.617  17.020  0.3281 -0.1330 -0.3555
  804MPD2    C111892   3.378   0.626  17.130  0.1900  0.0455 -0.2643
  804MPD2    C211893   3.379   0.741  17.204 -0.0364  0.5060  0.2644
  804MPD2    C311894   3.473   0.841  17.182  0.8635 -0.9915 -0.1679
  804MPD2    C411895   3.569   0.822  17.086  0.1437  0.0435  0.2180
  804MPD2    C511896   3.556   0.715  16.997 -0.2078  0.0897 -0.3450
  804MPD2     H11897   3.310   0.733  17.287 -0.0545  0.3432  0.2340
  804MPD2    H111898   3.651   0.892  17.072 -0.0012 -0.6352 -4.2538
  804MPD2    H211899   3.464   0.529  16.957 -1.7837 -0.8037  0.3883
  804MPD2    H311900   3.624   0.701  16.914  2.0368 -1.8339  1.8166
  804MPD2     N11901   3.463   0.956  17.258 -0.5999  0.5355 -0.3930
  804MPD2    H511902   3.382   0.973  17.316 -0.7381 -2.4362  0.2481
  804MPD2    N111903   3.300   0.516  17.180 -0.6286 -0.1245 -0.0018
  804MPD2    H711904   3.251   0.529  17.268 -1.2865 -0.3810 -0.3300
  805MPD2     C11905   2.316   3.388  15.530  0.0832 -0.4435 -0.5117
  805MPD2    C111906   2.374   3.500  15.480  0.0525 -0.2058  0.1929
  805MPD2    C211907   2.469   3.563  15.558  0.5982  0.1208  0.0929
  805MPD2    C311908   2.480   3.532  15.689 -0.8640 -1.2378 -0.6021
  805MPD2    C411909   2.407   3.423  15.746  0.3943 -0.2050  0.0599
  805MPD2    C511910   2.340   3.350  15.656 -0.4955 -0.1045  0.0494
  805MPD2     H11911   2.516   3.647  15.508  0.6685  0.2968  0.4529
  805MPD2    H111912   2.414   3.387  15.848 -0.0159 -1.5911 -0.4050
  805MPD2    H211913   2.248   3.324  15.475 -1.9297 -0.8061  2.4113
  805MPD2    H311914   2.290   3.257  15.683 -0.4296  0.1165  0.9528
  805MPD2     N11915   2.566   3.609  15.773  0.2604 -0.4544 -0.0926
  805MPD2    H511916   2.600   3.695  15.731 -2.0175 -0.0523 -1.1070
  805MPD2    N111917   2.357   3.553  15.349  0.1320  0.3621 -0.5480
  805MPD2    H711918   2.416   3.631  15.322 -2.3593  2.3575 -0.2643
  806MPD2     C11919   2.763   3.247   0.309 -0.4488 -0.0723 -0.2971
  806MPD2    C111920   2.755   3.343   0.407  0.3277  0.3244  1.1299
  806MPD2    C211921   2.797   3.470   0.372  0.2094 -0.3738  0.6838
  806MPD2    C311922   2.809   3.508   0.242  0.1507 -0.9739  0.3343
  806MPD2    C411923   2.809   3.411   0.140 -0.7324 -0.2666 -0.1736
  806MPD2    C511924   2.785   3.282   0.177  0.8171 -0.1653  0.6516
  806MPD2     H11925   2.806   3.547   0.448  0.6229  1.2999 -1.0560
  806MPD2    H111926   2.822   3.436   0.036 -0.5905 -0.4807 -0.2080
  806MPD2    H211927   2.754   3.142   0.332 -0.8087 -0.1831 -0.9482
  806MPD2    H311928   2.805   3.208   0.101 -1.5392 -0.5876  0.4278
  806MPD2     N11929   2.832   3.646   0.218 -0.5725  0.2846  0.2179
  806MPD2    H511930   2.857   3.703   0.298 -1.4277 -0.0914  0.7600
  806MPD2    N111931   2.712   3.310   0.540 -0.2755  0.2693  0.0584
  806MPD2    H711932   2.689   3.213   0.556 -1.0136  0.3938 -0.2252
  807MPD2     C11933   2.354   2.835   0.715  0.3884 -0.9813 -0.2496
  807MPD2    C111934   2.351   2.872   0.847 -0.6386  0.2426 -0.2568
  807MPD2    C211935   2.322   2.779   0.943  0.4053  0.3351  0.2958
  807MPD2    C311936   2.303   2.644   0.907  0.2486  0.0680 -0.0100
  807MPD2    C411937   2.311   2.608   0.771 -0.4216  0.2735  0.1042
  807MPD2    C511938   2.332   2.706   0.678  0.0138 -0.1269 -0.7872
  807MPD2     H11939   2.313   2.816   1.045 -0.4050 -0.1323  0.3913
  807MPD2    H111940   2.302   2.505   0.741  0.6087  0.6579 -1.5352
  807MPD2    H211941   2.378   2.905   0.636 -2.4917 -0.1678 -0.4012
  807MPD2    H311942   2.352   2.672   0.576  1.3383 -1.4524 -0.0868
  807MPD2     N11943   2.271   2.554   1.016  0.4458 -0.2810  0.2288
  807MPD2    H511944   2.271   2.590   1.111 -0.9387 -2.7239  1.1795
  807MPD2    N111945   2.371   3.008   0.882 -0.6157  0.4566 -0.0086
  807MPD2    H711946   2.387   3.029   0.981  1.0010 -1.8640  0.2020
  808MPD2     C11947   2.581   4.201   9.307 -0.1401  0.2105 -0.3162
  808MPD2    C111948   2.630   4.092   9.380 -0.1295  0.0117 -0.5579
  808MPD2    C211949   2.768   4.082   9.396  0.1604  0.2212 -0.1706
  808MPD2    C311950   2.852   4.191   9.364 -0.0758 -0.4183 -0.2378
  808MPD2    C411951   2.792   4.303   9.310  0.2791  0.1736  0.0180
  808MPD2    C511952   2.660   4.308   9.273 -0.0211 -0.0204 -0.3786
  808MPD2     H11953   2.810   3.994   9.443 -1.3660  0.3565  1.4484
  808MPD2    H111954   2.851   4.393   9.296 -2.3716  1.7284 -1.0182
  808MPD2    H211955   2.478   4.216   9.280 -0.6876 -1.8788  0.5872
  808MPD2    H311956   2.616   4.395   9.226  0.9836  1.0545  0.6678
  808MPD2     N11957   2.991   4.197   9.388  0.0872  0.6589 -0.6983
  808MPD2    H511958   3.025   4.286   9.353  2.4570 -0.2557 -0.7154
  808MPD2    N111959   2.542   3.982   9.413 -0.3383  0.2848  0.4470
  808MPD2    H711960   2.573   3.926   9.492  2.5769 -1.4545 -1.9210
  809MPD2     C11961   3.798   3.599   9.653  0.2642 -0.0466  0.3985
  809MPD2    C111962   3.837   3.724   9.600  0.0074  0.5617 -0.0441
  809MPD2    C211963   3.742   3.815   9.561 -0.3119  0.1634 -0.3522
  809MPD2    C311964   3.605   3.789   9.587 -0.4821  0.9699 -0.1934
  809MPD2    C411965   3.569   3.672   9.645 -0.5158 -0.5428 -0.5460
  809MPD2    C511966   3.663   3.578   9.681  0.6589  0.9602 -1.3604
  809MPD2     H11967   3.778   3.912   9.531 -0.5914  0.7059  1.0786
  809MPD2    H111968   3.464   3.664   9.670 -0.1460  0.2116  1.2778
  809MPD2    H211969   3.874   3.527   9.681 -0.4374 -0.8371  0.2816
  809MPD2    H311970   3.626   3.485   9.721  1.3390  0.4043 -2.0293
  809MPD2     N11971   3.503   3.894   9.580 -0.0579  0.2034  0.6106
  809MPD2    H511972   3.412   3.870   9.617  1.6421 -3.4836  2.3966
  809MPD2    N111973   3.975   3.756   9.609  0.0649 -0.3685 -0.5758
  809MPD2    H711974   4.030   3.698   9.672  2.1656  0.9605 -1.1893
  810MPD2     C11975   2.963   3.378  10.742  0.1384 -0.3863 -0.7489
  810MPD2    C111976   2.841   3.445  10.731 -0.4788 -0.4280  0.0795
  810MPD2    C211977   2.838   3.581  10.702 -0.3420  0.3203  0.4890
  810MPD2    C311978   2.962   3.638  10.669  0.2534 -0.1173 -0.2390
  810MPD2    C411979   3.080   3.567  10.683  0.1372  0.0732  0.1600
  810MPD2    C511980   3.083   3.442  10.730 -0.2537 -0.8220 -0.4017
  810MPD2     H11981   2.744   3.636  10.697 -1.4685 -1.6232  0.4218
  810MPD2    H111982   3.177   3.600  10.648 -1.0308  0.6146 -2.5186
  810MPD2    H211983   2.958   3.273  10.771 -2.6318  0.1926  0.8911
  810MPD2    H311984   3.178   3.389  10.726 -0.5725 -1.4694  0.6871
  810MPD2     N11985   2.969   3.772  10.614 -0.3058  0.0095 -0.5267
  810MPD2    H511986   3.055   3.795  10.566 -0.0267  1.5792  0.6936
  810MPD2    N111987   2.715   3.376  10.751 -0.1547 -0.4168  0.0875
  810MPD2    H711988   2.629   3.423  10.724  0.7352  1.4822  0.5371
  811MPD2     C11989   1.920   3.439  10.649 -0.2714  0.5386  0.1145
  811MPD2    C111990   2.048   3.447  10.608  0.4698  0.3875  0.3693
  811MPD2    C211991   2.076   3.532  10.510 -0.0018  0.0882 -0.1516
  811MPD2    C311992   1.986   3.611  10.448  0.1310 -0.8512 -0.0263
  811MPD2    C411993   1.859   3.611  10.486  0.4098  0.3636 -0.5000
  811MPD2    C511994   1.829   3.527  10.591  0.0852 -0.5448  0.3045
  811MPD2     H11995   2.181   3.554  10.498 -0.3428  0.8438 -1.7793
  811MPD2    H111996   1.778   3.674  10.452 -1.0930 -0.6258  1.2340
  811MPD2    H211997   1.893   3.367  10.725 -0.5652 -0.4645 -0.9419
  811MPD2    H311998   1.726   3.514  10.622 -0.0851 -0.7801 -0.3594
  811MPD2     N11999   2.034   3.698  10.341  0.0075 -0.4471 -0.1678
  811MPD2    H512000   2.134   3.698  10.326  0.1962  0.0618  1.0309
  811MPD2    N112001   2.133   3.355  10.672  0.1150  0.1016  0.5190
  811MPD2    H712002   2.101   3.296  10.747 -0.5923 -0.6107 -0.3406
  812MPD2     C12003   0.975   3.664  12.680 -1.0529 -0.4660  0.2265
  812MPD2    C112004   1.052   3.771  12.715  0.6589 -0.0352 -0.3627
  812MPD2    C212005   1.150   3.749  12.817  0.5636  0.2965  0.0340
  812MPD2    C312006   1.163   3.626  12.883 -0.0931  0.6982  0.3398
  812MPD2    C412007   1.089   3.521  12.838  0.1155  0.1380 -0.4504
  812MPD2    C512008   0.994   3.546  12.743  0.3842 -0.2089  0.2603
  812MPD2     H12009   1.207   3.832  12.858 -1.4168  1.3591  0.6267
  812MPD2    H112010   1.087   3.428  12.892 -2.7659 -0.1912 -1.1483
  812MPD2    H212011   0.901   3.678  12.602 -1.9311  1.1781  1.3581
  812MPD2    H312012   0.932   3.464  12.711  0.2718 -0.5240  1.2952
  812MPD2     N12013   1.229   3.617  13.007  0.8375 -1.0251  0.5061
  812MPD2    H512014   1.261   3.705  13.045 -0.9647 -1.2884  2.5985
  812MPD2    N112015   1.030   3.890  12.645  0.2422  0.3434  0.3019
  812MPD2    H712016   0.970   3.887  12.563  1.9930  0.7069 -0.9767
  813MPD2     C12017   0.893   1.146  13.517 -0.5081 -0.1583 -0.2380
  813MPD2    C112018   0.849   1.271  13.506 -0.5015 -0.5787 -0.3597
  813MPD2    C212019   0.725   1.301  13.564  0.1943  0.2238  0.1799
  813MPD2    C312020   0.661   1.220  13.658  0.9328  0.5946  0.1316
  813MPD2    C412021   0.722   1.101  13.686 -0.2892 -0.4310  0.9155
  813MPD2    C512022   0.824   1.062  13.600 -0.0239  1.0612 -0.3269
  813MPD2     H12023   0.672   1.392  13.537  1.3809  0.7394 -0.4190
  813MPD2    H112024   0.680   1.041  13.766 -2.2565  1.1205  1.0352
  813MPD2    H212025   0.988   1.108  13.482 -0.3523 -2.4036  2.6083
  813MPD2    H312026   0.872   0.965  13.608 -1.7332 -0.0905 -3.9964
  813MPD2     N12027   0.545   1.270  13.725  0.4312 -0.0094  0.6645
  813MPD2    H512028   0.528   1.370  13.717  0.4112 -0.0648  0.0164
  813MPD2    N112029   0.924   1.376  13.443  0.3659 -1.0979  0.0444
  813MPD2    H712030   0.886   1.468  13.459  0.6823 -1.0479  0.5154
  814MPD2     C12031   0.955   2.294  12.772  0.6105 -0.3266  0.3175
  814MPD2    C112032   0.898   2.354  12.657  0.1161  0.2149 -0.1990
  814MPD2    C212033   0.938   2.486  12.623 -0.3330  0.4196  1.0129
  814MPD2    C312034   1.030   2.554  12.699 -0.4000  0.2149  0.3229
  814MPD2    C412035   1.067   2.496  12.820  0.7402  0.4076  0.3536
  814MPD2    C512036   1.041   2.365  12.850 -0.2943 -0.7063 -0.3553
  814MPD2     H12037   0.909   2.522  12.525 -1.2725 -0.6832  0.8868
  814MPD2    H112038   1.144   2.540  12.882  0.5907 -1.4119  1.8413
  814MPD2    H212039   0.934   2.196  12.811 -2.0364  0.0986 -0.0158
  814MPD2    H312040   1.084   2.332  12.943  1.0024 -0.0446 -0.7030
  814MPD2     N12041   1.073   2.692  12.673  0.2264  0.3433  0.8714
  814MPD2    H512042   1.125   2.739  12.746 -0.7150  0.4546  1.4571
  814MPD2    N112043   0.815   2.283  12.570  0.1857  0.4211  0.0252
  814MPD2    H712044   0.789   2.327  12.483  0.8152 -0.1505 -0.4563
  815MPD2     C12045   1.573   1.111  12.095  0.8074  0.0318  0.1635
  815MPD2    C112046   1.583   0.971  12.091 -0.3383 -0.5125  0.2699
  815MPD2    C212047   1.509   0.893  12.182 -0.4079  0.2774 -0.2713
  815MPD2    C312048   1.417   0.957  12.261 -0.0877 -0.0869 -0.1825
  815MPD2    C412049   1.408   1.096  12.263 -0.2813  0.6432 -0.2626
  815MPD2    C512050   1.478   1.162  12.171  0.7792  0.0385  0.4516
  815MPD2     H12051   1.518   0.785  12.183  1.2976  0.4073 -1.3573
  815MPD2    H112052   1.332   1.151  12.319 -1.0834 -0.1819 -0.5398
  815MPD2    H212053   1.629   1.181  12.034 -1.2932  0.8680 -0.7978
  815MPD2    H312054   1.457   1.268  12.165 -0.8196 -0.3386 -0.9721
  815MPD2     N12055   1.322   0.874  12.328 -0.2941 -0.4696 -0.2524
  815MPD2    H512056   1.331   0.774  12.315 -1.2589 -0.5769 -0.0788
  815MPD2    N112057   1.683   0.921  12.007 -0.0828  0.3545 -0.0151
  815MPD2    H712058   1.716   0.977  11.929  0.3374 -1.8599 -1.4468
  816MPD2     C12059   1.561   0.123  17.356  0.6877 -0.2239 -0.6617
  816MPD2    C112060   1.657   0.225  17.336  0.0117  0.8285 -0.0065
  816MPD2    C212061   1.765   0.189  17.259 -0.1062  0.1053  0.2994
  816MPD2    C312062   1.782   0.063  17.202 -0.2522 -0.3380  0.7483
  816MPD2    C412063   1.685   4.703  17.230 -0.1253  0.6227 -0.6349
  816MPD2    C512064   1.583   4.732  17.313  0.5015  0.4238  0.4810
  816MPD2     H12065   1.831   0.272  17.237  0.1317  0.0591  0.8376
  816MPD2    H112066   1.701   4.599  17.205 -1.3205  0.8550 -2.3651
  816MPD2    H212067   1.474   0.139  17.419  1.2397 -0.9552  0.2832
  816MPD2    H312068   1.507   4.661  17.345  0.3850 -0.6419 -2.1083
  816MPD2     N12069   1.890   0.035  17.111  0.5348 -0.7678  0.1245
  816MPD2    H512070   1.966   0.102  17.106 -0.3030  0.2789  1.5989
  816MPD2    N112071   1.645   0.357  17.386 -0.8726  0.0302 -0.2249
  816MPD2    H712072   1.719   0.421  17.362 -0.6238  0.5704  1.9241
  817MPD2     C12073   1.115   1.373  10.292 -0.1920  0.8057  1.3029
  817MPD2    C112074   1.213   1.407  10.201 -0.0227  0.2173  0.1910
  817MPD2    C212075   1.234   1.543  10.182 -0.0122  0.8140  0.1517
  817MPD2    C312076   1.178   1.641  10.255 -0.2952 -0.1742  0.3532
  817MPD2    C412077   1.082   1.601  10.340  0.2927  0.4300 -0.5651
  817MPD2    C512078   1.049   1.472  10.357 -0.8318  0.2099  0.7478
  817MPD2     H12079   1.297   1.582  10.103 -0.2829 -0.5330 -0.7390
  817MPD2    H112080   1.027   1.671  10.401  3.2931  1.6987  0.7013
  817MPD2    H212081   1.085   1.272  10.320 -3.8786  2.0520  1.9068
  817MPD2    H312082   0.965   1.447  10.421 -1.0957 -0.2949  0.2026
  817MPD2     N12083   1.222   1.772  10.235  0.2089  0.7707  0.4017
  817MPD2    H512084   1.279   1.793  10.154 -1.0190 -0.9133 -0.8805
  817MPD2    N112085   1.276   1.315  10.122 -0.5578  1.4514 -0.3991
  817MPD2    H712086   1.330   1.351  10.044 -2.1342  3.3258 -0.6093
  818MPD2     C12087   0.222   1.477  10.416 -0.2499  0.0077  0.1204
  818MPD2    C112088   0.103   1.397  10.407 -0.5072 -0.1605 -0.2418
  818MPD2    C212089   0.116   1.280  10.336  0.1152  0.3303  0.3326
  818MPD2    C312090   0.234   1.231  10.289  0.9578 -0.4808  0.3851
  818MPD2    C412091   0.347   1.311  10.297 -0.3316 -0.3930  0.3857
  818MPD2    C512092   0.340   1.428  10.365 -0.4853  0.6082  0.5649
  818MPD2     H12093   0.030   1.215  10.323  0.2550 -0.4196  2.9949
  818MPD2    H112094   0.443   1.276  10.261 -0.1059 -0.2426  0.8518
  818MPD2    H212095   0.227   1.565  10.478 -1.5545  1.0541 -1.2680
  818MPD2    H312096   0.429   1.489  10.370 -0.8515  0.9678  2.9288
  818MPD2     N12097   0.250   1.099  10.238 -0.4226  0.3548 -0.0494
  818MPD2    H512098   0.345   1.072  10.216 -1.0350 -0.9663 -1.0459
  818MPD2    N112099   4.709   1.434  10.450  0.1831 -0.0411 -0.1266
  818MPD2    H712100   4.635   1.372  10.418  0.5552 -1.1476  1.2086
  819MPD2     C12101   3.054   3.583  15.833 -0.3810  0.5797 -0.4797
  819MPD2    C112102   3.002   3.464  15.887  0.1529 -0.1562 -0.3914
  819MPD2    C212103   3.068   3.401  15.989  0.2206 -0.5454 -0.2274
  819MPD2    C312104   3.181   3.455  16.042  0.5716  0.1558  0.9294
  819MPD2    C412105   3.232   3.568  15.983  0.5662  0.7364  0.7538
  819MPD2    C512106   3.164   3.635  15.888  0.1314  0.0241  0.5004
  819MPD2     H12107   3.042   3.301  16.022  0.6062 -0.1791  1.1738
  819MPD2    H112108   3.316   3.615  16.033  0.1161  1.5637  0.7203
  819MPD2    H212109   3.004   3.639  15.755  0.2372 -1.4242 -2.3226
  819MPD2    H312110   3.213   3.716  15.836 -0.1587 -1.1082 -1.5413
  819MPD2     N12111   3.251   3.368  16.136 -0.1411  0.3784  0.1641
  819MPD2    H512112   3.198   3.285  16.164 -0.9289  0.2072 -1.8797
  819MPD2    N112113   2.888   3.418  15.831  0.5364  0.3166 -0.1954
  819MPD2    H712114   2.850   3.453  15.744 -1.5477  0.0969  0.6062
  820MPD2     C12115   2.556   3.116  14.954 -0.0082 -0.4032  0.3245
  820MPD2    C112116   2.584   3.231  15.023  0.3005 -0.5310  0.0381
  820MPD2    C212117   2.641   3.234  15.149  0.3547  0.2221  0.0628
  820MPD2    C312118   2.644   3.117  15.218  0.1345 -0.8517 -0.1293
  820MPD2    C412119   2.617   3.001  15.145  0.0467 -0.3989  0.3779
  820MPD2    C512120   2.560   2.998  15.022  0.3646 -0.7759  0.2338
  820MPD2     H12121   2.657   3.328  15.199  1.6567  0.5040 -0.8822
  820MPD2    H112122   2.617   2.911  15.205 -1.1007 -0.4702  0.2801
  820MPD2    H212123   2.502   3.114  14.859  0.0907  0.1491  0.2536
  820MPD2    H312124   2.524   2.902  14.987 -0.0766 -1.3898  2.3717
  820MPD2     N12125   2.659   3.111  15.357 -0.1694  0.5115 -0.3327
  820MPD2    H512126   2.642   3.018  15.393  3.0081 -0.4802 -1.3326
  820MPD2    N112127   2.552   3.347  14.951 -0.0706 -0.0802  0.0667
  820MPD2    H712128   2.504   3.336  14.862  3.7062  2.0713 -2.2187
  821MPD2     C12129   2.516   4.725  13.447  0.0679 -0.1727  0.3603
  821MPD2    C112130   2.646   4.700  13.481  0.0935  0.1762  0.2219
  821MPD2    C212131   2.752   0.039  13.433 -0.3638 -0.4421  0.2653
  821MPD2    C312132   2.729   0.127  13.328 -0.5567 -0.3648 -1.0360
  821MPD2    C412133   2.595   0.160  13.302  0.1409 -0.6969 -0.1809
  821MPD2    C512134   2.499   0.090  13.362 -0.0230 -0.7255  0.1914
  821MPD2     H12135   2.856   0.019  13.458  0.1393  1.1296 -0.5715
  821MPD2    H112136   2.574   0.233  13.225  1.1408  2.1752  2.2944
  821MPD2    H212137   2.432   4.664  13.477  0.6335 -1.0567  0.1543
  821MPD2    H312138   2.392   0.107  13.352 -0.0215 -0.6967  0.2208
  821MPD2     N12139   2.831   0.183  13.251  0.1615  0.7147 -0.5101
  821MPD2    H512140   2.802   0.235  13.168 -3.6944 -1.0857 -0.3046
  821MPD2    N112141   2.678   4.602  13.567  0.1169  0.8941  0.5670
  821MPD2    H712142   2.774   4.602  13.599 -0.2093 -0.7964  1.5445
  822MPD2     C12143   3.784   0.087  15.644  0.1034 -0.3424  0.3883
  822MPD2    C112144   3.732   0.071  15.770 -0.8147 -0.0197 -0.1258
  822MPD2    C212145   3.652   0.167  15.822  0.0596 -1.0526 -0.0982
  822MPD2    C312146   3.633   0.287  15.753  0.5629  0.3701 -0.4234
  822MPD2    C412147   3.710   0.308  15.635 -0.3542  0.0463  0.7720
  822MPD2    C512148   3.783   0.206  15.582  0.0863  0.1148 -0.3522
  822MPD2     H12149   3.602   0.149  15.916 -0.9803  1.4935 -0.1548
  822MPD2    H112150   3.714   0.405  15.587 -0.5168 -0.0098  0.6463
  822MPD2    H212151   3.846   0.014  15.594  1.4386  1.4050 -0.5110
  822MPD2    H312152   3.831   0.217  15.486  0.4839 -1.5052 -0.3482
  822MPD2     N12153   3.555   0.384  15.827 -0.5369  0.3480 -0.9128
  822MPD2    H512154   3.522   0.352  15.917 -0.2237  2.5944  0.0034
  822MPD2    N112155   3.758   4.700  15.857 -0.0589  0.3306  0.3804
  822MPD2    H712156   3.712   4.699  15.947 -0.6477 -0.5988  0.0665
  823MPD2     C12157   3.233   0.637  16.553 -0.9228  0.3825 -0.7129
  823MPD2    C112158   3.285   0.539  16.468 -0.5435  0.1283  0.3110
  823MPD2    C212159   3.314   0.416  16.519 -0.3413 -0.5585  0.1653
  823MPD2    C312160   3.291   0.391  16.652 -0.3624  0.2287 -0.4363
  823MPD2    C412161   3.235   0.483  16.738  0.2802  0.0000 -0.4635
  823MPD2    C512162   3.199   0.603  16.683 -0.0258 -0.2175  0.1361
  823MPD2     H12163   3.363   0.348  16.451 -0.7505 -1.8475  1.1514
  823MPD2    H112164   3.207   0.464  16.841 -1.4690  0.8968 -0.7703
  823MPD2    H212165   3.199   0.731  16.511 -2.9069 -0.2608 -0.5674
  823MPD2    H312166   3.144   0.675  16.742  1.2337 -0.0579  1.1045
  823MPD2     N12167   3.334   0.267  16.710 -0.6083  0.5136 -0.5179
  823MPD2    H512168   3.317   0.262  16.810 -0.8160  1.6522 -0.4951
  823MPD2    N112169   3.315   0.581  16.336 -0.0859  0.1547 -0.1492
  823MPD2    H712170   3.285   0.674  16.307 -1.3501 -0.9065 -2.3226
  824MPD2     C12171   4.138   3.908  15.934  0.2656  0.8394 -0.9133
  824MPD2    C112172   4.159   4.023  15.862  0.1012 -0.3092 -0.8486
  824MPD2    C212173   4.240   4.020  15.753 -0.4355 -0.2627  0.0024
  824MPD2    C312174   4.305   3.901  15.722 -0.6105  0.4106  0.3907
  824MPD2    C412175   4.278   3.784  15.789  0.4052 -0.1748 -0.0071
  824MPD2    C512176   4.198   3.790  15.900  0.4767 -0.6501  0.1643
  824MPD2     H12177   4.242   4.110  15.693 -0.8719  0.1008  0.5330
  824MPD2    H112178   4.330   3.692  15.764 -2.6848 -2.1310  0.8087
  824MPD2    H212179   4.070   3.918  16.018  2.6484  1.3701  0.9670
  824MPD2    H312180   4.182   3.700  15.957  0.9713  0.6014  2.2800
  824MPD2     N12181   4.385   3.902  15.601 -0.2250  0.2071 -0.0420
  824MPD2    H512182   4.419   3.995  15.578  0.0701  0.3767  1.0370
  824MPD2    N112183   4.100   4.145  15.894 -0.1771 -0.3088 -0.1847
  824MPD2    H712184   4.122   4.222  15.831  0.4049  1.3658  2.0776
  825MPD2     C12185   0.194   4.257  15.002  0.3823 -0.6650 -0.0760
  825MPD2    C112186   0.134   4.230  15.125  0.0760 -0.4096  0.5061
  825MPD2    C212187   0.164   4.324  15.227  0.3043  0.1295  0.2233
  825MPD2    C312188   0.241   4.434  15.209 -0.3732 -0.9343  0.4494
  825MPD2    C412189   0.289   4.463  15.087  0.4905  0.4142 -0.0212
  825MPD2    C512190   0.261   4.374  14.984  1.1246  0.4096 -0.5788
  825MPD2     H12191   0.125   4.294  15.323  0.9721  0.5186  0.6151
  825MPD2    H112192   0.351   4.547  15.056 -0.0389  0.8559  0.1120
  825MPD2    H212193   0.180   4.197  14.912 -1.7771  0.9439 -0.8037
  825MPD2    H312194   0.308   4.409  14.893  1.6861 -0.0911 -0.4834
  825MPD2     N12195   0.269   4.511  15.322  0.6429  0.2831 -0.3378
  825MPD2    H512196   0.245   4.476  15.414 -1.7057  2.3135 -0.1772
  825MPD2    N112197   0.051   4.117  15.148 -0.4534 -0.0583 -0.6800
  825MPD2    H712198   0.047   4.039  15.084  0.1985  0.1656 -0.9945
  826MPD2     C12199   4.504   3.402  13.635  0.4376  0.2849  0.2138
  826MPD2    C112200   4.370   3.426  13.621  0.2979  0.1854  0.1615
  826MPD2    C212201   4.308   3.536  13.678 -0.0521 -0.2674 -0.5129
  826MPD2    C312202   4.386   3.626  13.747 -0.3718  0.2157 -0.9265
  826MPD2    C412203   4.531   3.615  13.740  0.0467 -0.4892  0.6542
  826MPD2    C512204   4.588   3.498  13.688 -0.5786  0.3053  0.4500
  826MPD2     H12205   4.202   3.555  13.673  0.2640  1.7263  0.7646
  826MPD2    H112206   4.596   3.691  13.781 -0.1574 -0.0731  0.2099
  826MPD2    H212207   4.555   3.317  13.591  0.5801 -0.7563  2.3633
  826MPD2    H312208   4.695   3.480  13.680 -0.7242 -0.3708  0.1059
  826MPD2     N12209   4.341   3.740  13.819  0.6793  0.0351  0.0451
  826MPD2    H512210   4.410   3.792  13.873  0.9090 -2.2091  1.9279
  826MPD2    N112211   4.296   3.323  13.548  0.2041 -0.1418  0.7427
  826MPD2    H712212   4.340   3.234  13.526 -1.0291 -0.6197  0.2237
  827MPD2     C12213   0.938   0.055  10.370 -0.4954 -0.5381  0.0753
  827MPD2    C112214   0.842   0.082  10.466  0.2917 -0.6490  0.1902
  827MPD2    C212215   0.716   0.121  10.428 -0.3125 -0.0286  0.2501
  827MPD2    C312216   0.681   0.111  10.291 -0.3834  0.2807 -0.5341
  827MPD2    C412217   0.777   0.084  10.197  0.3763  0.1468  0.0704
  827MPD2    C512218   0.898   0.043  10.240  0.3880 -0.2744 -0.1747
  827MPD2     H12219   0.634   0.140  10.497 -0.9601  1.9797 -1.0600
  827MPD2    H112220   0.762   0.074  10.090  2.0510 -1.4307 -0.0083
  827MPD2    H212221   1.035   0.024  10.406  0.2505  2.0771  0.2568
  827MPD2    H312222   0.967   4.738  10.169  0.5147  1.2617 -1.0022
  827MPD2     N12223   0.546   0.134  10.249 -0.5169  0.3317  0.0286
  827MPD2    H512224   0.485   0.171  10.321  1.2547  0.3003  1.5476
  827MPD2    N112225   0.883   0.070  10.602  0.1731 -0.1551 -0.5091
  827MPD2    H712226   0.983   0.070  10.620 -0.0841  1.3606  0.8752
  828MPD2     C12227   3.759   4.693  12.464 -0.6233 -0.2344 -0.1295
  828MPD2    C112228   3.662   4.620  12.407 -0.0621 -0.3495 -0.2119
  828MPD2    C212229   3.699   4.535  12.300  0.5154  0.4843 -0.1628
  828MPD2    C312230   3.835   4.526  12.262  0.8305 -0.0372 -0.5104
  828MPD2    C412231   3.930   4.604  12.327 -0.0809  0.4674  0.2535
  828MPD2    C512232   3.891   4.677  12.439 -0.2463  0.1296  0.0191
  828MPD2     H12233   3.625   4.481  12.242 -0.9024 -0.6451  2.6882
  828MPD2    H112234   4.033   4.601  12.294 -0.0086  0.4010  0.4805
  828MPD2    H212235   3.730   0.023  12.542 -2.9487  0.1572 -1.3508
  828MPD2    H312236   3.971   4.728  12.491 -1.0894  1.0477  0.4299
  828MPD2     N12237   3.883   4.430  12.175 -0.1323 -0.2977 -0.2630
  828MPD2    H512238   3.983   4.427  12.158 -0.6205  0.2592 -3.2920
  828MPD2    N112239   3.519   4.643  12.424  0.4514 -1.0031 -0.1967
  828MPD2    H712240   3.467   4.584  12.359  0.8694 -1.9642  0.3400
  829MPD2     C12241   3.053   4.477  11.798  0.4941  0.1509 -1.0174
  829MPD2    C112242   2.952   4.530  11.871 -0.1599 -0.6070  0.5009
  829MPD2    C212243   2.977   4.551  12.001 -0.1437  0.3656  0.8023
  829MPD2    C312244   3.100   4.527  12.063  0.1157  0.4262  0.0857
  829MPD2    C412245   3.197   4.475  11.990  0.7085 -0.1115 -0.2038
  829MPD2    C512246   3.173   4.441  11.859 -0.0087  1.2508  0.3246
  829MPD2     H12247   2.890   4.585  12.055  1.3114  3.8469  0.8990
  829MPD2    H112248   3.293   4.454  12.037 -0.1954 -0.6391  1.3955
  829MPD2    H212249   3.049   4.441  11.696  2.2223  0.6505 -1.2759
  829MPD2    H312250   3.253   4.400  11.798  0.4412 -0.6374  2.1500
  829MPD2     N12251   3.128   4.547  12.200 -0.1164  0.5329  0.3408
  829MPD2    H512252   3.217   4.513  12.235  0.3528  1.8021  0.4032
  829MPD2    N112253   2.829   4.568  11.810 -0.0620  0.2199 -0.1105
  829MPD2    H712254   2.755   4.589  11.876 -0.5305 -1.8504  0.0168
  830MPD2     C12255   3.705   2.709  16.314 -0.1282 -0.6989  0.1784
  830MPD2    C112256   3.627   2.794  16.237  0.1466  0.1078  0.6390
  830MPD2    C212257   3.650   2.784  16.101  0.2609 -0.7755  0.2408
  830MPD2    C312258   3.759   2.707  16.051  0.4806  0.3595  0.6682
  830MPD2    C412259   3.847   2.650  16.139  0.0958 -0.0568  0.0283
  830MPD2    C512260   3.812   2.635  16.269 -0.1271  0.4290 -0.1347
  830MPD2     H12261   3.583   2.838  16.035  0.5241 -0.3677  0.3082
  830MPD2    H112262   3.928   2.582  16.113 -0.0670  0.7737 -2.6333
  830MPD2    H212263   3.695   2.704  16.421  2.4886 -2.5866  0.3487
  830MPD2    H312264   3.882   2.585  16.334 -2.0022 -1.0202  0.7613
  830MPD2     N12265   3.792   2.696  15.914  0.3806 -0.1331 -0.8569
  830MPD2    H512266   3.865   2.628  15.894  0.3926 -0.7465  1.2773
  830MPD2    N112267   3.530   2.868  16.306  0.3783 -0.9326 -0.4568
  830MPD2    H712268   3.527   2.850  16.406  0.0920 -1.0886 -0.4912
  831MPD2     C12269   3.846   0.393  16.234  0.3449  0.1729 -0.8707
  831MPD2    C112270   3.843   0.291  16.143  0.7171  0.4352  0.2159
  831MPD2    C212271   3.738   0.199  16.144 -0.2292 -0.3240 -0.3910
  831MPD2    C312272   3.634   0.202  16.239 -0.4664  0.4768 -0.1106
  831MPD2    C412273   3.637   0.318  16.320  0.8969 -0.7899 -0.2098
  831MPD2    C512274   3.743   0.410  16.317 -0.6922  0.5991  0.0097
  831MPD2     H12275   3.744   0.121  16.069 -0.0067 -0.0233 -0.6798
  831MPD2    H112276   3.555   0.338  16.388  1.8059  0.1303  0.5925
  831MPD2    H212277   3.929   0.462  16.246  0.9982 -0.5608 -1.2020
  831MPD2    H312278   3.749   0.496  16.383 -1.0152  1.8123 -1.5368
  831MPD2     N12279   3.518   0.118  16.238  0.3342 -0.3556 -0.0233
  831MPD2    H512280   3.443   0.149  16.299 -0.2324 -0.5130 -0.6464
  831MPD2    N112281   3.942   0.279  16.042  0.0649 -0.0286 -0.4397
  831MPD2    H712282   3.927   0.200  15.980  0.4035 -1.0665  0.7996
  832MPD2     C12283   2.518   1.490  17.479  0.3431  0.9856  0.0233
  832MPD2    C112284   2.470   1.617  17.444  0.3050 -0.0860 -0.3790
  832MPD2    C212285   2.350   1.633  17.363 -0.1719  0.1424 -0.2048
  832MPD2    C312286   2.280   1.521  17.322  0.6578  0.4229  0.6765
  832MPD2    C412287   2.338   1.398  17.349  0.3045  0.1831 -0.5415
  832MPD2    C512288   2.445   1.384  17.436 -0.0219 -0.7510  0.0583
  832MPD2     H12289   2.303   1.728  17.344  1.2593  0.5343 -1.7526
  832MPD2    H112290   2.288   1.302  17.339  0.2098 -0.1486  2.7905
  832MPD2    H212291   2.588   1.467  17.559  2.0229  0.3997 -1.6224
  832MPD2    H312292   2.473   1.284  17.465 -0.2293 -0.3879  1.5375
  832MPD2     N12293   2.149   1.521  17.267  0.1262  0.2374 -0.2547
  832MPD2    H512294   2.107   1.430  17.257  0.8110 -0.1747  0.6701
  832MPD2    N112295   2.526   1.730  17.516 -0.3875 -0.1284  1.1404
  832MPD2    H712296   2.591   1.701  17.588 -1.3021  0.1068  2.0469
  833MPD2     C12297   3.914   2.489  13.004  0.0179 -1.0570  0.2057
  833MPD2    C112298   3.962   2.576  12.908  0.1823  0.3529 -0.2756
  833MPD2    C212299   4.060   2.531  12.821 -0.2480  0.6446  0.5647
  833MPD2    C312300   4.108   2.402  12.832  0.1447 -0.7713  0.5594
  833MPD2    C412301   4.072   2.325  12.939 -0.1507 -0.0014 -0.9368
  833MPD2    C512302   3.974   2.367  13.023 -1.0588  0.2175  0.2834
  833MPD2     H12303   4.088   2.583  12.730  0.1612 -1.0465 -0.2594
  833MPD2    H112304   4.110   2.226  12.962 -1.6374 -0.6456 -1.2237
  833MPD2    H212305   3.839   2.515  13.077  0.5628 -0.3676  0.5219
  833MPD2    H312306   3.960   2.313  13.116 -0.0775 -1.5688 -0.6204
  833MPD2     N12307   4.197   2.345  12.735 -0.8016 -0.1320 -0.1111
  833MPD2    H512308   4.214   2.245  12.734  0.0876  0.0286 -1.5084
  833MPD2    N112309   3.886   2.689  12.877  0.1323  0.3579  0.6746
  833MPD2    H712310   3.799   2.705  12.927 -0.6181 -2.0571  0.1379
  834MPD2     C12311   4.104   1.586  12.112 -0.2576  0.1868  1.1163
  834MPD2    C112312   4.233   1.630  12.086  0.2089 -0.4618 -0.0282
  834MPD2    C212313   4.272   1.753  12.144  0.2817  0.2233  0.8955
  834MPD2    C312314   4.190   1.834  12.222  0.3257 -0.0236 -0.0500
  834MPD2    C412315   4.059   1.796  12.234  0.1481 -0.1155 -0.6039
  834MPD2    C512316   4.019   1.673  12.178 -0.9878  0.4300  0.5368
  834MPD2     H12317   4.369   1.796  12.126  0.0983  0.0353 -0.5350
  834MPD2    H112318   3.978   1.850  12.282  0.6267 -1.0400  1.2599
  834MPD2    H212319   4.069   1.488  12.081  0.8513  0.5140 -1.1780
  834MPD2    H312320   3.919   1.639  12.198 -0.2228 -0.8451  2.1948
  834MPD2     N12321   4.237   1.955  12.265  0.2587  0.0632 -0.0972
  834MPD2    H512322   4.324   1.983  12.222  1.8727 -3.3776  0.9120
  834MPD2    N112323   4.309   1.551  11.993  0.2152 -0.0045  0.0529
  834MPD2    H712324   4.264   1.466  11.960 -2.2275  1.0411  0.6929
  835MPD2     C12325   4.357   0.225  11.056 -0.4448  0.0165  0.3503
  835MPD2    C112326   4.277   0.254  11.164  0.5136 -0.5399 -0.3002
  835MPD2    C212327   4.292   0.189  11.283 -0.3016  0.1111 -0.2575
  835MPD2    C312328   4.372   0.083  11.302 -0.0197 -0.2725  0.5277
  835MPD2    C412329   4.450   0.051  11.194  0.5359  0.4635 -0.3588
  835MPD2    C512330   4.445   0.125  11.078  0.2462 -0.5960  0.1792
  835MPD2     H12331   4.219   0.216  11.359  2.0497  1.4816  1.4838
  835MPD2    H112332   4.511   4.701  11.200 -0.2705  0.0133  1.2048
  835MPD2    H212333   4.352   0.269  10.957 -0.2917 -2.5091 -0.7758
  835MPD2    H312334   4.495   0.095  10.986 -0.4487  0.2706 -0.4842
  835MPD2     N12335   4.361   4.727  11.403  0.5981 -0.1671  0.8720
  835MPD2    H512336   4.434   4.656  11.399 -1.6591 -2.4964  0.7735
  835MPD2    N112337   4.182   0.362  11.154 -0.7874 -0.4264 -0.3944
  835MPD2    H712338   4.138   0.392  11.240  0.1546 -1.7129  0.5316
  836MPD2     C12339   3.731   4.365  11.619  0.3434 -0.3898  0.5098
  836MPD2    C112340   3.785   4.445  11.713  0.1905  0.0635  0.2074
  836MPD2    C212341   3.704   4.538  11.774 -0.3699  0.5283  0.3015
  836MPD2    C312342   3.569   4.535  11.766  0.2939  0.0529  0.4603
  836MPD2    C412343   3.514   4.444  11.679  0.0071  0.1418  0.7353
  836MPD2    C512344   3.593   4.359  11.602 -0.0350  0.2852 -0.0287
  836MPD2     H12345   3.745   4.613  11.840  1.3934  0.5449 -0.8189
  836MPD2    H112346   3.411   4.455  11.649  0.9631 -0.9478 -2.9019
  836MPD2    H212347   3.791   4.306  11.551  0.0121 -0.5939  0.3952
  836MPD2    H312348   3.554   4.297  11.522  0.5941 -1.2525  0.8571
  836MPD2     N12349   3.482   4.626  11.832  0.0653  0.7006 -0.3169
  836MPD2    H512350   3.381   4.627  11.819 -0.1562  1.5462  1.4562
  836MPD2    N112351   3.924   4.453  11.712 -0.1993 -0.2497  0.0180
  836MPD2    H712352   3.966   4.395  11.640 -0.0686  0.8568 -0.7922
  837MPD2     C12353   2.678   3.976  10.081  0.3980  0.0621  0.5887
  837MPD2    C112354   2.575   4.069  10.068  0.1644  0.0300 -0.2426
  837MPD2    C212355   2.595   4.208  10.060  0.1448 -0.0954  0.1447
  837MPD2    C312356   2.725   4.255  10.075 -0.8733  0.2986  0.0462
  837MPD2    C412357   2.826   4.169  10.089  0.3751  0.2291 -0.8894
  837MPD2    C512358   2.808   4.031  10.087  0.0117  0.0080 -0.1766
  837MPD2     H12359   2.511   4.272  10.037 -1.4472 -2.9810 -2.0588
  837MPD2    H112360   2.929   4.200  10.106  0.4826  0.4841 -2.0150
  837MPD2    H212361   2.672   3.868  10.094 -0.9909  0.0870  0.2183
  837MPD2    H312362   2.895   3.966  10.091  0.1430  0.1162 -1.1901
  837MPD2     N12363   2.740   4.391  10.061 -0.4238  0.2052 -0.8787
  837MPD2    H512364   2.651   4.441  10.057 -2.4403 -3.3077  0.6426
  837MPD2    N112365   2.440   4.029  10.064 -0.3515  0.1587  0.0175
  837MPD2    H712366   2.367   4.098  10.052  0.5445  1.6501  3.2385
  838MPD2     C12367   0.387   3.300  12.281  0.1357 -0.0187 -0.0779
  838MPD2    C112368   0.402   3.167  12.294 -0.2803 -0.5509 -0.2689
  838MPD2    C212369   0.326   3.096  12.386 -0.2521  0.3007  0.4675
  838MPD2    C312370   0.218   3.156  12.455 -0.4213  0.7940 -0.0979
  838MPD2    C412371   0.197   3.295  12.446  0.3327  0.5665  0.5283
  838MPD2    C512372   0.291   3.365  12.365 -0.1325  0.3499  0.2358
  838MPD2     H12373   0.342   2.989  12.392  0.5019  0.3047 -1.5894
  838MPD2    H112374   0.131   3.349  12.513  1.1244  0.4532  1.4057
  838MPD2    H212375   0.450   3.359  12.216 -0.3227  1.1292  0.5349
  838MPD2    H312376   0.282   3.473  12.368 -1.7308  0.2350 -0.3680
  838MPD2     N12377   0.125   3.074  12.527  0.0471 -0.9782 -0.7402
  838MPD2    H512378   0.158   2.978  12.533  0.2118 -0.9130 -0.5795
  838MPD2    N112379   0.490   3.090  12.221 -0.4204  0.4245 -0.0272
  838MPD2    H712380   0.502   2.993  12.248  0.1503  0.7560  0.9104
  839MPD2     C12381   0.360   2.323  12.219  0.1424  1.1267  0.3400
  839MPD2    C112382   0.387   2.331  12.083  0.2601  0.3178 -0.2727
  839MPD2    C212383   0.457   2.433  12.030 -0.7004  0.1462  0.4039
  839MPD2    C312384   0.475   2.540  12.112 -0.2094  0.0752 -0.0815
  839MPD2    C412385   0.427   2.541  12.242  0.4421 -0.3440 -0.2776
  839MPD2    C512386   0.371   2.434  12.298  0.8268  0.0807  0.3509
  839MPD2     H12387   0.476   2.450  11.925  0.3053 -0.1550  0.5380
  839MPD2    H112388   0.436   2.628  12.306 -0.7640  2.0913 -3.4039
  839MPD2    H212389   0.318   2.237  12.271 -2.4173  0.0241 -3.5401
  839MPD2    H312390   0.320   2.443  12.393  0.6258  1.6485  0.0861
  839MPD2     N12391   0.531   2.662  12.074  0.3831 -0.5790  1.0428
  839MPD2    H512392   0.531   2.731  12.148 -0.5291  0.9088 -0.3646
  839MPD2    N112393   0.355   2.234  11.992 -0.5401  0.0329  0.3919
  839MPD2    H712394   0.389   2.240  11.896  2.2078  1.4460  1.4353
  840MPD2     C12395   1.430   0.272  10.638  0.2406 -0.1383  0.3238
  840MPD2    C112396   1.365   0.305  10.755  0.7989  0.3626 -0.2487
  840MPD2    C212397   1.409   0.416  10.829  0.3490 -0.0520  0.4888
  840MPD2    C312398   1.520   0.494  10.777 -0.3037  0.4974  0.4946
  840MPD2    C412399   1.578   0.458  10.656 -0.3040 -0.4556  0.1029
  840MPD2    C512400   1.534   0.342  10.594  0.0167 -0.0738 -0.8782
  840MPD2     H12401   1.346   0.453  10.909  0.0690  1.6869 -0.5316
  840MPD2    H112402   1.661   0.510  10.609 -0.4520 -0.8331 -0.5897
  840MPD2    H212403   1.393   0.185  10.585  1.0703 -0.0494 -0.3908
  840MPD2    H312404   1.578   0.306  10.502  0.5005  0.0812 -0.7086
  840MPD2     N12405   1.567   0.607  10.847  0.0095  0.9566  0.0295
  840MPD2    H512406   1.640   0.661  10.802  0.5266  0.9946  0.9102
  840MPD2    N112407   1.265   0.220  10.813  0.4009  0.3539  0.2340
  840MPD2    H712408   1.253   0.134  10.760 -2.3112  0.3732  0.8021
  841MPD2     C12409   0.438   0.669  15.044 -0.3550  0.5564 -0.1944
  841MPD2    C112410   0.499   0.592  14.947 -0.2616  0.6476  0.0499
  841MPD2    C212411   0.616   0.531  14.982 -0.8096  0.1950 -0.0625
  841MPD2    C312412   0.663   0.521  15.106  0.1994 -0.1483 -0.2935
  841MPD2    C412413   0.603   0.599  15.206  0.1894  0.1110  0.6055
  841MPD2    C512414   0.499   0.681  15.170 -0.2948  0.3794 -0.7771
  841MPD2     H12415   0.659   0.458  14.914  0.4635  0.6638  0.2431
  841MPD2    H112416   0.640   0.606  15.308  2.3305  0.0434 -0.1567
  841MPD2    H212417   0.351   0.733  15.031 -0.1988  1.2988  2.3084
  841MPD2    H312418   0.465   0.747  15.249  0.9769 -0.2748  0.3210
  841MPD2     N12419   0.783   0.456  15.129  0.3742 -0.3499  0.3965
  841MPD2    H512420   0.814   0.403  15.049 -0.5261 -1.5802  0.8645
  841MPD2    N112421   0.454   0.585  14.809  0.2975  0.0664  0.4019
  841MPD2    H712422   0.510   0.526  14.749 -1.5405 -1.5304  0.2608
  842MPD2     C12423   1.507   1.840  17.221 -0.0409 -0.1158  0.4324
  842MPD2    C112424   1.411   1.746  17.212  0.3113 -0.6884  0.3221
  842MPD2    C212425   1.400   1.655  17.311  0.4658 -0.1235  0.1501
  842MPD2    C312426   1.461   1.681  17.433 -0.1915  0.6865 -0.4990
  842MPD2    C412427   1.562   1.781  17.445  0.5662 -0.9945 -0.1539
  842MPD2    C512428   1.586   1.851  17.330  0.6903 -0.1228  0.9732
  842MPD2     H12429   1.322   1.581  17.295 -1.7238  2.1305  0.4332
  842MPD2    H112430   1.625   1.791  17.532 -1.3942 -0.8827  1.2494
  842MPD2    H212431   1.532   1.915  17.147 -2.5774  1.2550  0.9900
  842MPD2    H312432   1.666   1.924  17.332  0.2006  0.4065  1.0676
  842MPD2     N12433   1.446   1.609  17.548  0.4697 -0.1167 -0.3570
  842MPD2    H512434   1.522   1.621  17.614 -0.1174  0.5635  0.1936
  842MPD2    N112435   1.342   1.741  17.092  0.4367  0.3753 -0.0662
  842MPD2    H712436   1.370   1.815  17.029 -3.2103  2.4392  0.7356
  843MPD2     C12437   3.574   2.325  17.288 -0.1972  0.3311 -0.1970
  843MPD2    C112438   3.512   2.289  17.400  0.7160  0.3326  0.2509
  843MPD2    C212439   3.525   2.358  17.523 -0.0472 -0.7152 -0.6612
  843MPD2    C312440   3.587   2.478  17.522 -0.1292 -1.0482  0.1796
  843MPD2    C412441   3.630   2.525  17.400 -0.1440  0.3186  0.5806
  843MPD2    C512442   3.626   2.446  17.277  0.5049 -0.4312  0.2604
  843MPD2     H12443   3.459   2.338  17.607 -0.5758 -0.6074 -1.0492
  843MPD2    H112444   3.692   2.614  17.399 -1.7833  1.4074 -3.5423
  843MPD2    H212445   3.553   2.263  17.201  1.0391 -0.8032  0.3298
  843MPD2    H312446   3.668   2.482  17.183  0.2711  0.9869  0.7086
  843MPD2     N12447   3.600   2.567  17.644  0.1198  0.0038 -0.0623
  843MPD2    H512448   3.656   2.651  17.633  0.5383 -0.5823 -2.4296
  843MPD2    N112449   3.440   2.170  17.383 -0.0719  0.6091 -0.0267
  843MPD2    H712450   3.443   2.129  17.290 -0.6250  1.7874 -0.5609
  844MPD2     C12451   2.214   0.925  16.771 -0.2077  0.0269 -0.4258
  844MPD2    C112452   2.247   1.013  16.675 -0.0337 -0.1422  0.4856
  844MPD2    C212453   2.318   1.128  16.707 -0.4905  0.8064 -0.0431
  844MPD2    C312454   2.357   1.146  16.842  0.0026 -0.1183  0.3063
  844MPD2    C412455   2.324   1.055  16.939 -0.6372 -0.1637 -0.1585
  844MPD2    C512456   2.251   0.948  16.897  0.0879  0.1035  0.6683
  844MPD2     H12457   2.350   1.204  16.636 -1.4024 -0.0102 -1.3034
  844MPD2    H112458   2.357   1.070  17.041  0.6649  1.9344 -0.8834
  844MPD2    H212459   2.150   0.839  16.754  1.5470 -1.8616  2.6535
  844MPD2    H312460   2.226   0.877  16.975 -0.9085 -0.7474 -0.4371
  844MPD2     N12461   2.412   1.275  16.869 -0.2175 -0.2904  0.2970
  844MPD2    H512462   2.391   1.340  16.793 -0.8398  0.7136  1.3313
  844MPD2    N112463   2.221   0.976  16.533  0.1724 -0.1777  0.3239
  844MPD2    H712464   2.247   1.046  16.464  2.6681 -1.9345 -0.5394
  845MPD2     C12465   2.325   2.279  16.943 -0.1174  0.3617  1.0757
  845MPD2    C112466   2.394   2.247  17.060  0.3944  0.1063  0.9786
  845MPD2    C212467   2.449   2.117  17.079 -0.5153  0.1612 -0.4168
  845MPD2    C312468   2.431   2.018  16.980  0.5820 -1.0310  0.5218
  845MPD2    C412469   2.368   2.056  16.864  0.3446  0.5879 -0.7816
  845MPD2    C512470   2.327   2.186  16.845 -0.8998  0.5159  0.1266
  845MPD2     H12471   2.506   2.092  17.168 -0.4769 -2.0610 -1.0666
  845MPD2    H112472   2.348   1.989  16.781 -0.6200  0.3619 -0.3631
  845MPD2    H212473   2.285   2.380  16.933 -1.8398 -0.4406 -0.1323
  845MPD2    H312474   2.281   2.210  16.750 -2.2136 -3.0276 -0.1470
  845MPD2     N12475   2.471   1.888  17.013  0.7794 -0.2334 -0.1059
  845MPD2    H512476   2.509   1.872  17.106 -0.5418  1.9964  0.8321
  845MPD2    N112477   2.408   2.348  17.159 -0.1856  0.2080  0.4784
  845MPD2    H712478   2.375   2.441  17.137 -0.0019  0.2053  0.1860
  846MPD2     C12479   3.039   2.411  13.619 -0.3981  0.3269 -0.0571
  846MPD2    C112480   3.146   2.380  13.693  0.1169  0.5120  0.4347
  846MPD2    C212481   3.148   2.399  13.827 -0.3225  1.0445  0.2656
  846MPD2    C312482   3.037   2.462  13.891 -0.2007  0.7802 -0.9913
  846MPD2    C412483   2.930   2.503  13.819  0.7756  0.0193 -0.6220
  846MPD2    C512484   2.934   2.468  13.687 -0.1771  0.0359 -0.1287
  846MPD2     H12485   3.238   2.362  13.876 -0.2390 -0.5456 -1.1137
  846MPD2    H112486   2.845   2.548  13.869 -0.8084  0.0375 -3.2675
  846MPD2    H212487   3.021   2.397  13.513  0.4581  2.1578 -0.4382
  846MPD2    H312488   2.842   2.481  13.632 -1.4343 -0.2983  1.8855
  846MPD2     N12489   3.037   2.486  14.035  0.3497 -0.2013 -0.5358
  846MPD2    H512490   2.959   2.542  14.069  1.2361 -0.0577  1.2603
  846MPD2    N112491   3.266   2.330  13.625  1.0685 -0.7742  0.2075
  846MPD2    H712492   3.348   2.313  13.683  0.9026 -1.3798  0.2586
  847MPD2     C12493   3.847   2.850  14.714 -0.9937 -0.6108 -0.3533
  847MPD2    C112494   3.859   2.940  14.613 -0.0639  0.1781 -0.5531
  847MPD2    C212495   3.969   3.021  14.612 -0.0423  0.5634 -0.0381
  847MPD2    C312496   4.064   3.010  14.714 -0.3437  0.7020 -0.2190
  847MPD2    C412497   4.038   2.927  14.823  0.0521  0.1768  0.0252
  847MPD2    C512498   3.928   2.848  14.823 -0.5578 -0.8369  0.1298
  847MPD2     H12499   3.982   3.091  14.530  0.2205  0.0712 -0.4160
  847MPD2    H112500   4.102   2.916  14.910  0.0439 -1.4372 -0.1761
  847MPD2    H212501   3.753   2.797  14.726 -1.4186 -0.2900 -2.3255
  847MPD2    H312502   3.904   2.770  14.894 -1.4161 -0.0754  0.6805
  847MPD2     N12503   4.160   3.115  14.716 -0.0605  0.1066  0.2696
  847MPD2    H512504   4.176   3.169  14.631  0.8300  1.8613  1.5534
  847MPD2    N112505   3.761   2.974  14.518 -0.1319 -0.1000  0.4522
  847MPD2    H712506   3.767   3.074  14.497  1.8251 -0.0173  1.4185
  848MPD2     C12507   1.600   1.790  16.674  0.0052 -0.3261 -0.6136
  848MPD2    C112508   1.704   1.845  16.746 -0.3876 -0.4586 -0.0548
  848MPD2    C212509   1.777   1.954  16.711  0.3961  0.4186  0.7064
  848MPD2    C312510   1.737   2.017  16.598 -0.1451 -0.2608  0.6613
  848MPD2    C412511   1.647   1.962  16.516 -0.3506  0.4648 -0.2664
  848MPD2    C512512   1.574   1.845  16.553 -0.0279 -0.3950  0.3280
  848MPD2     H12513   1.869   1.987  16.760 -0.2448  0.2339  2.0369
  848MPD2    H112514   1.623   2.009  16.422  2.3044 -0.3858 -1.3618
  848MPD2    H212515   1.554   1.694  16.695  1.4316 -0.5219  1.6908
  848MPD2    H312516   1.503   1.810  16.479 -1.8812  0.4086  1.7234
  848MPD2     N12517   1.788   2.141  16.551 -0.4174  0.0279  0.3133
  848MPD2    H512518   1.749   2.169  16.461  0.9499 -0.5566 -0.4685
  848MPD2    N112519   1.753   1.777  16.864 -0.1689  0.4206 -0.2782
  848MPD2    H712520   1.849   1.799  16.888 -0.0012 -1.1941  0.5080
  849MPD2     C12521   0.561   1.264  14.874 -0.5052  0.1099  0.6698
  849MPD2    C112522   0.682   1.304  14.829 -0.2094  0.3502 -0.0008
  849MPD2    C212523   0.765   1.375  14.916 -0.3767 -0.0113  0.4294
  849MPD2    C312524   0.729   1.391  15.048  0.0604 -0.0417 -0.3010
  849MPD2    C412525   0.597   1.361  15.086 -0.1075  0.6680  0.0663
  849MPD2    C512526   0.519   1.293  15.000 -0.3605 -0.4364 -0.1276
  849MPD2     H12527   0.860   1.417  14.886 -1.5025 -0.6757 -3.9998
  849MPD2    H112528   0.562   1.378  15.187 -0.8194  0.4032 -0.1349
  849MPD2    H212529   0.496   1.202  14.815  1.0827 -0.2268 -0.7340
  849MPD2    H312530   0.431   1.244  15.042  0.0782 -0.2887  0.9839
  849MPD2     N12531   0.808   1.455  15.149 -0.0723  0.2181  0.2158
  849MPD2    H512532   0.756   1.502  15.223  2.0286  2.3693  0.3342
  849MPD2    N112533   0.708   1.281  14.697  0.4901  0.5540  0.4591
  849MPD2    H712534   0.653   1.211  14.648 -0.5658  0.9639  1.0561
  850MPD2     C12535   4.282   3.867  15.045  0.4678 -0.2353 -0.8414
  850MPD2    C112536   4.272   3.946  15.156 -0.4971 -0.2493  0.4168
  850MPD2    C212537   4.337   4.070  15.151  0.2644 -0.4166 -0.2843
  850MPD2    C312538   4.403   4.119  15.041 -0.6282 -0.6012  0.1563
  850MPD2    C412539   4.416   4.028  14.936  0.3576 -0.0476 -0.1326
  850MPD2    C512540   4.358   3.904  14.934 -0.1823 -0.0678 -0.3480
  850MPD2     H12541   4.330   4.139  15.235 -1.5367 -0.1936 -0.6123
  850MPD2    H112542   4.475   4.047  14.847 -1.7957 -0.3486 -1.6148
  850MPD2    H212543   4.240   3.768  15.045  0.4947 -0.2456  0.0851
  850MPD2    H312544   4.372   3.843  14.846  0.8470 -0.9591  0.4488
  850MPD2     N12545   4.469   4.239  15.042  0.0015 -0.4605 -0.7375
  850MPD2    H512546   4.460   4.298  15.125 -0.9211 -2.1186  0.3426
  850MPD2    N112547   4.186   3.916  15.264 -0.0533 -0.0511  0.7502
  850MPD2    H712548   4.127   3.834  15.252 -1.3419  0.5845  2.7805
  851MPD2     C12549   4.334   3.378  15.637 -0.3954 -0.0662  0.3186
  851MPD2    C112550   4.205   3.402  15.609 -0.8782 -0.0264  0.0141
  851MPD2    C212551   4.124   3.293  15.600  1.0876  0.2018 -0.0134
  851MPD2    C312552   4.168   3.163  15.619 -0.0207 -0.9620  0.2997
  851MPD2    C412553   4.301   3.141  15.654 -0.2024 -0.2285 -0.0675
  851MPD2    C512554   4.385   3.249  15.649  0.0942  0.4870  0.1520
  851MPD2     H12555   4.022   3.310  15.567  1.1711  0.8016  0.0401
  851MPD2    H112556   4.346   3.044  15.673 -2.0788 -1.0018  0.4210
  851MPD2    H212557   4.402   3.461  15.621 -0.3876  0.1037  1.2756
  851MPD2    H312558   4.490   3.222  15.657 -0.6799 -2.5120  0.0994
  851MPD2     N12559   4.067   3.068  15.604  0.6149  0.5164 -0.0141
  851MPD2    H512560   3.970   3.094  15.594  0.1805 -1.7241 -1.6263
  851MPD2    N112561   4.162   3.534  15.593  0.2517  0.2523  0.4930
  851MPD2    H712562   4.229   3.601  15.558 -0.7831 -0.4458 -2.7848
  852MPD2     C12563   3.940   1.309   9.840 -0.8989 -0.0568  0.6150
  852MPD2    C112564   3.938   1.252   9.966  0.1242  0.6417 -0.1445
  852MPD2    C212565   4.038   1.285  10.048 -0.0290 -0.4923  0.5646
  852MPD2    C312566   4.133   1.376  10.014 -0.1877 -0.6017  0.3165
  852MPD2    C412567   4.121   1.451   9.898  0.4362  0.5036 -0.3389
  852MPD2    C512568   4.025   1.413   9.803  0.2114 -0.6260 -0.2874
  852MPD2     H12569   4.032   1.243  10.148  0.3166  0.3794  0.9578
  852MPD2    H112570   4.199   1.513   9.856  2.7187 -1.5255  0.8984
  852MPD2    H212571   3.864   1.292   9.765  0.7778  0.5514 -1.2235
  852MPD2    H312572   4.015   1.468   9.710 -3.2335 -3.3603 -1.5355
  852MPD2     N12573   4.229   1.416  10.107  0.3089 -0.0183  0.7013
  852MPD2    H512574   4.215   1.381  10.201  2.6165 -0.8665  0.7257
  852MPD2    N112575   3.845   1.159  10.013 -0.4081 -0.1747 -0.2551
  852MPD2    H712576   3.847   1.140  10.113  2.4268 -0.0587 -0.2873
  853MPD2     C12577   0.761   1.680  12.620  0.1486  0.4999  0.3496
  853MPD2    C112578   0.630   1.671  12.609  0.1053 -0.6052  0.2386
  853MPD2    C212579   0.572   1.624  12.494 -0.5525 -0.5759  1.1504
  853MPD2    C312580   0.650   1.571  12.392  0.3122  0.7639  0.5177
  853MPD2    C412581   0.785   1.572  12.403 -0.0508  0.4120  0.0257
  853MPD2    C512582   0.838   1.636  12.513 -0.6364  0.3788  0.0733
  853MPD2     H12583   0.465   1.619  12.478 -0.5269 -1.3608  1.2220
  853MPD2    H112584   0.846   1.540  12.320  0.7315  1.6973  0.1072
  853MPD2    H212585   0.806   1.730  12.705  0.5221  1.1163 -0.2083
  853MPD2    H312586   0.946   1.635  12.510 -0.6755 -1.7767 -1.1313
  853MPD2     N12587   0.604   1.508  12.276  0.3537  0.1424 -0.3769
  853MPD2    H512588   0.673   1.482  12.206 -0.9498  0.1068 -1.6751
  853MPD2    N112589   0.545   1.736  12.698  0.1758  0.0168  0.6592
  853MPD2    H712590   0.451   1.757  12.664  0.9895  3.1804  0.3696
  854MPD2     C12591   2.182   2.112  12.817  0.5848 -0.2530  0.4622
  854MPD2    C112592   2.256   2.029  12.736  0.4769  0.9343 -0.0704
  854MPD2    C212593   2.368   1.966  12.790  0.3327  0.0165  0.0814
  854MPD2    C312594   2.409   1.983  12.922 -0.0387  0.0278  0.0644
  854MPD2    C412595   2.328   2.064  12.997  0.3814  1.4112  0.8647
  854MPD2    C512596   2.215   2.124  12.950  0.0688 -0.1825 -0.1061
  854MPD2     H12597   2.428   1.899  12.731 -0.8182  1.0375 -2.2679
  854MPD2    H112598   2.350   2.097  13.098  1.1558  0.3524  1.0431
  854MPD2    H212599   2.097   2.171  12.784  0.1789 -1.4771 -0.6383
  854MPD2    H312600   2.165   2.189  13.021  0.5360  2.0067 -1.7607
  854MPD2     N12601   2.514   1.927  12.995 -0.3391  0.2356  0.4744
  854MPD2    H512602   2.509   1.926  13.096 -1.9081  0.8543  0.4107
  854MPD2    N112603   2.217   2.025  12.600  0.0490  0.0107 -0.1585
  854MPD2    H712604   2.125   2.063  12.580 -1.1391 -1.6082  2.2123
  855MPD2     C12605   2.361   1.612  13.766  0.0716  0.7858 -0.1158
  855MPD2    C112606   2.460   1.524  13.725 -0.1241 -0.1402 -0.9694
  855MPD2    C212607   2.528   1.553  13.606  0.8971  0.3196  0.1719
  855MPD2    C312608   2.502   1.667  13.537  0.3449  0.3089  0.3214
  855MPD2    C412609   2.411   1.755  13.589  0.4636 -0.0746  0.3068
  855MPD2    C512610   2.336   1.727  13.700 -0.9519  0.1929 -0.0770
  855MPD2     H12611   2.597   1.484  13.559 -0.7899 -1.7586  0.7371
  855MPD2    H112612   2.394   1.850  13.540  0.4150  1.8134  3.9301
  855MPD2    H212613   2.299   1.587  13.852 -0.2230  0.5654 -0.3885
  855MPD2    H312614   2.272   1.801  13.746 -1.6509 -0.5122  0.0927
  855MPD2     N12615   2.573   1.706  13.419  0.1813 -0.1294  0.1543
  855MPD2    H512616   2.526   1.776  13.362 -1.4077 -0.9987  0.4047
  855MPD2    N112617   2.485   1.403  13.786  0.8812 -0.2941  0.0607
  855MPD2    H712618   2.566   1.345  13.768  0.1216 -1.3277 -0.0052
  856MPD2     C12619   0.187   2.091  14.335 -0.2391  1.1781  0.0420
  856MPD2    C112620   0.182   2.225  14.318 -0.5748  0.0511 -0.7496
  856MPD2    C212621   0.073   2.272  14.257  0.1169 -0.9755  0.2310
  856MPD2    C312622   4.696   2.198  14.243 -0.1053  0.0251 -0.8332
  856MPD2    C412623   4.700   2.067  14.286  0.2628  0.4091 -0.3130
  856MPD2    C512624   0.077   2.015  14.318 -0.1935  0.4840  0.6345
  856MPD2     H12625   0.078   2.373  14.219 -0.8275 -0.3194  1.8193
  856MPD2    H112626   4.615   2.002  14.272  0.7887 -0.1869 -0.7687
  856MPD2    H212627   0.271   2.041  14.383 -1.4593 -0.1881  0.7827
  856MPD2    H312628   0.089   1.908  14.330  0.4597  0.1896 -2.5654
  856MPD2     N12629   4.576   2.245  14.179  0.1488 -0.8415 -0.2398
  856MPD2    H512630   4.492   2.188  14.177 -1.0994  1.0179 -1.8687
  856MPD2    N112631   0.284   2.318  14.364 -0.6547 -0.0186  0.1231
  856MPD2    H712632   0.256   2.415  14.357  2.4512  0.6768 -2.4012
  857MPD2     C12633   1.211   4.645  13.354 -0.0766 -0.2628 -0.5375
  857MPD2    C112634   1.292   4.624  13.246  0.0626  0.1482  0.3717
  857MPD2    C212635   1.350   4.737  13.187  1.1158 -0.1581  0.7021
  857MPD2    C312636   1.322   0.126  13.234  0.5138 -0.2287 -0.1042
  857MPD2    C412637   1.234   0.142  13.341  0.2271  0.1759 -0.7675
  857MPD2    C512638   1.178   0.034  13.396 -0.2041  0.2382 -0.0569
  857MPD2     H12639   1.426   4.718  13.112  0.2552  3.2414 -1.0674
  857MPD2    H112640   1.208   0.234  13.392 -1.4697 -0.3429 -0.6940
  857MPD2    H212641   1.157   4.561  13.395 -0.8775  0.2897 -0.4481
  857MPD2    H312642   1.113   0.066  13.475 -0.1166  2.2014 -0.7812
  857MPD2     N12643   1.392   0.234  13.177 -0.2059  0.0230 -0.5339
  857MPD2    H512644   1.470   0.213  13.115  0.5541  0.0832  0.4113
  857MPD2    N112645   1.320   4.492  13.207 -0.4475 -0.0609  0.5218
  857MPD2    H712646   1.287   4.419  13.270 -1.0615 -0.7220 -0.5563
  858MPD2     C12647   1.958   4.273  16.660 -0.6065 -0.1862 -0.1472
  858MPD2    C112648   2.089   4.246  16.625  0.4059 -0.6961 -0.2690
  858MPD2    C212649   2.188   4.272  16.722 -0.1240 -0.6105  0.1426
  858MPD2    C312650   2.154   4.324  16.846 -0.5715 -0.4059  0.0001
  858MPD2    C412651   2.022   4.355  16.874  0.4976  0.7379 -0.3823
  858MPD2    C512652   1.925   4.346  16.773  0.5351  0.5991 -0.0035
  858MPD2     H12653   2.289   4.240  16.702 -0.7972 -2.0571 -0.8949
  858MPD2    H112654   2.001   4.387  16.975 -1.8614 -3.2536  0.4042
  858MPD2    H212655   1.876   4.256  16.590 -0.8334  0.4832 -0.0475
  858MPD2    H312656   1.820   4.359  16.796  0.6952 -0.0198  1.0772
  858MPD2     N12657   2.241   4.335  16.959  0.2760  0.4367 -0.0808
  858MPD2    H512658   2.201   4.373  17.044 -0.8788 -0.4161 -0.2371
  858MPD2    N112659   2.114   4.167  16.510 -0.0790  0.6373  0.4496
  858MPD2    H712660   2.034   4.125  16.463 -1.5295  3.6849  0.1352
  859MPD2     C12661   0.971   1.049  15.907 -0.4450 -1.1530  0.0538
  859MPD2    C112662   1.084   1.096  15.979 -0.4054  0.0258  0.7960
  859MPD2    C212663   1.169   1.012  16.044  0.1069  0.2601 -0.3285
  859MPD2    C312664   1.147   0.879  16.041 -0.5313 -0.0440  0.3617
  859MPD2    C412665   1.038   0.831  15.967 -0.2650  0.1745  0.5232
  859MPD2    C512666   0.960   0.917  15.892  0.0269 -0.1164 -0.8611
  859MPD2     H12667   1.250   1.047  16.107 -3.2212  0.8942  3.6134
  859MPD2    H112668   1.014   0.727  15.953  1.7652 -0.0807 -1.0313
  859MPD2    H212669   0.912   1.111  15.841  0.8448  1.9530  1.8372
  859MPD2    H312670   0.880   0.867  15.837 -0.9629  1.3027 -0.6990
  859MPD2     N12671   1.233   0.780  16.098 -0.3896  0.1450 -0.3272
  859MPD2    H512672   1.209   0.684  16.074 -0.8201  0.2095 -0.1689
  859MPD2    N112673   1.111   1.234  15.960  0.2401 -0.9003  0.3912
  859MPD2    H712674   1.044   1.285  15.903  0.9997  0.0021  0.2990
  860MPD2     C12675   3.883   1.237  11.998 -0.4697 -0.0369 -0.6757
  860MPD2    C112676   3.846   1.254  12.131 -0.6125 -0.5207  0.4890
  860MPD2    C212677   3.716   1.279  12.159  0.2152  0.1307  0.8122
  860MPD2    C312678   3.614   1.279  12.061 -0.9110  0.0318  1.1615
  860MPD2    C412679   3.659   1.271  11.925  0.4232 -0.4438 -0.6272
  860MPD2    C512680   3.793   1.253  11.895 -0.1630 -0.1438 -0.0677
  860MPD2     H12681   3.685   1.292  12.262  3.1862 -1.7081  1.9282
  860MPD2    H112682   3.587   1.263  11.844 -0.6407  2.5703  0.0085
  860MPD2    H212683   3.983   1.214  11.965 -0.8675 -1.3319 -1.0015
  860MPD2    H312684   3.825   1.250  11.791 -1.4232  1.0532 -0.5022
  860MPD2     N12685   3.478   1.285  12.106 -0.6043  0.5791 -0.0811
  860MPD2    H512686   3.462   1.282  12.206 -0.2177  1.7330  0.0104
  860MPD2    N112687   3.924   1.233  12.246 -0.0872 -0.0799  0.0303
  860MPD2    H712688   3.877   1.257  12.332  1.3977  1.3928  0.4389
  861MPD2     C12689   1.380   4.165  11.374  0.2530 -0.1341 -0.7052
  861MPD2    C112690   1.462   4.274  11.386  0.1534 -0.4289  0.6218
  861MPD2    C212691   1.453   4.373  11.289 -0.2540  0.5839 -0.1201
  861MPD2    C312692   1.367   4.367  11.181  0.3406  0.4877  0.4484
  861MPD2    C412693   1.282   4.254  11.169 -0.8014  0.0712 -0.0672
  861MPD2    C512694   1.285   4.158  11.266  0.8927 -0.4970 -0.7346
  861MPD2     H12695   1.518   4.459  11.297  1.0028 -0.2534 -1.2651
  861MPD2    H112696   1.214   4.240  11.086  1.8891  0.7445 -2.3915
  861MPD2    H212697   1.382   4.088  11.450 -0.1236  0.5805  0.0273
  861MPD2    H312698   1.222   4.070  11.267  1.8568 -1.1915 -1.3897
  861MPD2     N12699   1.359   4.467  11.078 -0.4800  0.0416 -0.0553
  861MPD2    H512700   1.335   4.453  10.981 -0.7802  0.3886 -0.0294
  861MPD2    N112701   1.553   4.288  11.500 -0.1291  0.6518  0.3918
  861MPD2    H712702   1.612   4.370  11.494 -1.1895  1.5705  2.5313
  862MPD2     C12703   1.853   4.440  10.761 -0.1068  0.0161 -0.2933
  862MPD2    C112704   1.737   4.435  10.832  0.2510  0.4630 -0.0522
  862MPD2    C212705   1.697   4.319  10.893  0.3780  0.0451  0.5872
  862MPD2    C312706   1.788   4.219  10.910  0.6749 -0.3547 -0.5380
  862MPD2    C412707   1.914   4.231  10.860 -0.0920  0.4416 -0.3716
  862MPD2    C512708   1.942   4.337  10.783 -0.3167 -0.6631 -0.2986
  862MPD2     H12709   1.598   4.324  10.937  1.2592 -0.8436  2.6577
  862MPD2    H112710   1.989   4.154  10.879 -0.5865  0.0315 -0.0845
  862MPD2    H212711   1.878   4.525  10.699  0.0989 -0.9349 -1.5109
  862MPD2    H312712   2.036   4.339  10.729  0.1107  1.7472  0.5182
  862MPD2     N12713   1.758   4.106  10.992 -0.3320  0.2565 -0.0154
  862MPD2    H512714   1.839   4.056  11.025 -1.8124 -1.4609  0.9934
  862MPD2    N112715   1.636   4.534  10.826 -0.6212  0.5602  0.4102
  862MPD2    H712716   1.551   4.525  10.880  0.3260 -0.4538  1.7476
  863MPD2     C12717   0.568   2.490  16.882 -0.2937 -0.8424 -0.5769
  863MPD2    C112718   0.584   2.615  16.935 -0.1553  0.5682 -0.4008
  863MPD2    C212719   0.678   2.643  17.029 -0.1194  0.0455  0.3855
  863MPD2    C312720   0.766   2.545  17.070  0.1370  0.7848 -0.9196
  863MPD2    C412721   0.746   2.415  17.032 -0.5339 -0.1867  0.4991
  863MPD2    C512722   0.649   2.394  16.936 -0.5893  0.0472  0.0348
  863MPD2     H12723   0.703   2.748  17.041  1.0278 -0.1974  0.1871
  863MPD2    H112724   0.816   2.341  17.067 -1.0560 -1.6419 -1.5342
  863MPD2    H212725   0.490   2.461  16.814 -0.6475 -0.3949 -0.3580
  863MPD2    H312726   0.631   2.293  16.902  2.1328 -0.6824  0.7602
  863MPD2     N12727   0.883   2.565  17.148 -0.5721 -0.2577  0.2008
  863MPD2    H512728   0.931   2.478  17.169  2.3693  1.8046  1.9554
  863MPD2    N112729   0.490   2.713  16.882  0.2301  0.2587 -0.0909
  863MPD2    H712730   0.433   2.681  16.805  0.1088  2.4929 -0.9482
  864MPD2     C12731   1.010   3.907  17.618  0.2575 -0.4170 -0.1217
  864MPD2    C112732   1.097   3.847  17.530 -0.8298  0.7302 -0.0684
  864MPD2    C212733   1.190   3.925  17.463 -0.2189 -0.3163  0.0388
  864MPD2    C312734   1.185   4.063  17.472  0.1260 -0.4762 -0.7742
  864MPD2    C412735   1.097   4.113  17.551 -0.2111 -0.3002 -0.8140
  864MPD2    C512736   1.010   4.040  17.631 -0.2524 -0.4559  0.2240
  864MPD2     H12737   1.260   3.875  17.396  1.8025  0.0036  1.8987
  864MPD2    H112738   1.085   4.220  17.563 -1.0266 -0.7471  2.2543
  864MPD2    H212739   0.938   3.860  17.684  1.1275 -1.2553  0.2450
  864MPD2    H312740   0.945   4.083  17.707 -0.9976  1.7364 -1.6620
  864MPD2     N12741   1.263   4.151  17.402  0.0364 -0.6139  0.0340
  864MPD2    H512742   1.257   4.250  17.422  2.6679 -0.2213 -1.1213
  864MPD2    N112743   1.085   3.709  17.503  0.1732 -0.1724  0.0654
  864MPD2    H712744   1.022   3.652  17.558 -0.7050  0.2884 -0.4556
  865MPD2     C12745   1.545   4.374  16.525  0.6165  0.1442 -0.2953
  865MPD2    C112746   1.477   4.283  16.597 -0.0211  0.2450  0.0941
  865MPD2    C212747   1.453   4.300  16.731  0.3679 -0.6668  0.7808
  865MPD2    C312748   1.515   4.407  16.793 -1.2332  0.5415  0.2028
  865MPD2    C412749   1.591   4.499  16.721 -0.0229 -0.3240 -0.4343
  865MPD2    C512750   1.598   4.487  16.584 -0.2668 -0.5107  0.5284
  865MPD2     H12751   1.387   4.233  16.784  0.2298  0.0546  1.5233
  865MPD2    H112752   1.648   4.574  16.775  0.9654 -0.6262 -1.0681
  865MPD2    H212753   1.564   4.355  16.420  1.2116 -0.9282  0.0090
  865MPD2    H312754   1.656   4.553  16.522 -0.5632 -0.4361  0.3321
  865MPD2     N12755   1.513   4.438  16.928  0.2215 -0.5787  0.2519
  865MPD2    H512756   1.574   4.509  16.966 -0.9455  0.0056  1.0402
  865MPD2    N112757   1.451   4.165  16.522 -0.2132 -0.2870 -0.3566
  865MPD2    H712758   1.472   4.172  16.423  0.3873 -2.0619 -0.3580
  866MPD2     C12759   2.574   4.230  11.657 -0.6816  0.3061 -0.0615
  866MPD2    C112760   2.577   4.278  11.532 -0.1994 -0.3328  0.8877
  866MPD2    C212761   2.491   4.373  11.487 -0.5481 -0.3507  0.1983
  866MPD2    C312762   2.383   4.416  11.568 -0.0538 -0.1064 -0.0726
  866MPD2    C412763   2.375   4.365  11.698  0.8959  0.2108 -0.5023
  866MPD2    C512764   2.468   4.276  11.739 -0.0540 -0.2821  0.7004
  866MPD2     H12765   2.491   4.397  11.382  3.3755  0.8744  0.4916
  866MPD2    H112766   2.310   4.408  11.773  1.5505  1.0634 -0.4197
  866MPD2    H212767   2.652   4.166  11.697  0.1812  2.1980  1.2749
  866MPD2    H312768   2.473   4.252  11.845 -0.9016  1.5126  1.1381
  866MPD2     N12769   2.282   4.506  11.531  0.1297  0.0659 -0.3026
  866MPD2    H512770   2.195   4.498  11.582 -1.6129 -0.2019 -3.3298
  866MPD2    N112771   2.677   4.245  11.437 -0.1137 -0.0417 -0.8260
  866MPD2    H712772   2.669   4.293  11.349  4.3598 -2.2915 -2.4687
  867MPD2     C12773   4.493   3.924  16.758 -0.3132  0.4673  0.5186
  867MPD2    C112774   4.614   3.972  16.812 -0.2933  0.4700 -0.5640
  867MPD2    C212775   4.615   4.097  16.875  0.0573  0.5189 -0.4713
  867MPD2    C312776   4.501   4.177  16.882 -0.8503 -0.2376 -0.1974
  867MPD2    C412777   4.387   4.129  16.819 -0.1876 -0.1703 -0.1620
  867MPD2    C512778   4.384   4.010  16.747  0.3316  0.7496  0.2890
  867MPD2     H12779   4.705   4.149  16.907 -0.7903  2.6874 -1.6387
  867MPD2    H112780   4.295   4.185  16.829  0.5295  2.0327 -5.5905
  867MPD2    H212781   4.498   3.834  16.697  0.5907  0.1290  1.1068
  867MPD2    H312782   4.291   3.970  16.708  0.4399  0.9040 -0.1292
  867MPD2     N12783   4.495   4.308  16.930 -0.2348  0.0555  0.2475
  867MPD2    H512784   4.404   4.350  16.941  0.4646  1.1413  1.8583
  867MPD2    N112785   4.725   3.887  16.787  0.7130  0.4399  0.6831
  867MPD2    H712786   4.714   3.801  16.735 -1.3816  0.2717  1.3645
  868MPD2     C12787   1.255   3.228  13.432  0.4560 -0.2109  0.0342
  868MPD2    C112788   1.331   3.150  13.510  0.0336  1.2322 -0.1801
  868MPD2    C212789   1.277   3.081  13.613 -0.0565  0.4885 -0.6204
  868MPD2    C312790   1.145   3.089  13.647  0.0259 -0.3874 -0.6461
  868MPD2    C412791   1.066   3.161  13.557 -0.9099  0.0743 -0.1954
  868MPD2    C512792   1.122   3.238  13.463 -0.7221  0.0811 -0.6101
  868MPD2     H12793   1.335   3.023  13.683  0.7216  2.5511  0.4387
  868MPD2    H112794   0.958   3.164  13.568 -0.7661 -1.1298  1.5725
  868MPD2    H212795   1.291   3.293  13.353  0.5668 -0.2729  0.0326
  868MPD2    H312796   1.060   3.295  13.395 -1.3620 -0.1108 -0.1840
  868MPD2     N12797   1.100   3.033  13.769  0.3271 -0.3339  0.3090
  868MPD2    H512798   1.171   2.991  13.828 -1.5208 -1.4879  1.7083
  868MPD2    N112799   1.472   3.150  13.477 -0.1203 -0.4276 -0.1470
  868MPD2    H712800   1.493   3.188  13.385 -0.6996  0.2514 -0.0062
  869MPD2     C12801   2.624   1.003   0.945 -0.3398  0.6081  0.3876
  869MPD2    C112802   2.656   0.979   0.819 -0.0515  0.8771 -0.3792
  869MPD2    C212803   2.761   1.052   0.760  0.3519  0.0796  0.2047
  869MPD2    C312804   2.842   1.130   0.838 -0.0273 -0.0569  0.1469
  869MPD2    C412805   2.808   1.157   0.965 -0.0234 -0.4742 -0.4513
  869MPD2    C512806   2.700   1.091   1.018  0.0581 -0.1024 -0.1794
  869MPD2     H12807   2.789   1.027   0.658  0.1258 -2.0726  0.6735
  869MPD2    H112808   2.872   1.216   1.030 -1.3586  0.2049  0.2389
  869MPD2    H212809   2.543   0.952   0.995  0.4387  0.1539  1.1936
  869MPD2    H312810   2.673   1.101   1.122  2.3268  1.0283  0.3208
  869MPD2     N12811   2.957   1.190   0.786 -0.2807 -0.3619 -0.0067
  869MPD2    H512812   3.003   1.244   0.859 -0.3719 -0.7599  0.3473
  869MPD2    N112813   2.571   0.885   0.758  0.9097  0.1212  0.3748
  869MPD2    H712814   2.491   0.848   0.807 -0.3656 -0.1317 -1.8800
  870MPD2     C12815   2.038   0.606   1.675  0.1229 -0.0559 -0.0501
  870MPD2    C112816   2.144   0.590   1.587  0.3781  0.7617  0.6947
  870MPD2    C212817   2.116   0.579   1.451  0.3117 -0.2792 -0.2365
  870MPD2    C312818   1.986   0.573   1.406 -0.2732 -0.5092 -0.2766
  870MPD2    C412819   1.882   0.575   1.496  0.1109  0.5946  0.2458
  870MPD2    C512820   1.911   0.598   1.632 -0.7285  0.5338 -0.0606
  870MPD2     H12821   2.196   0.560   1.381  0.3713  0.6862 -0.4330
  870MPD2    H112822   1.777   0.573   1.468  0.5868 -0.9954 -1.4359
  870MPD2    H212823   2.064   0.613   1.780  0.6846 -0.4828 -0.1578
  870MPD2    H312824   1.827   0.623   1.696 -1.6819  1.9863 -1.8796
  870MPD2     N12825   1.958   0.544   1.265 -0.3520 -0.2418  1.2515
  870MPD2    H512826   2.038   0.523   1.207 -0.9769 -0.8115  0.5982
  870MPD2    N112827   2.268   0.563   1.638 -0.8165  0.2580 -0.0504
  870MPD2    H712828   2.271   0.534   1.735  2.6520 -0.2270 -0.3383
  871MPD2     C12829   3.643   4.392  16.324 -0.5306 -0.7407  0.0387
  871MPD2    C112830   3.651   4.357  16.456  0.1449  0.4075 -0.3202
  871MPD2    C212831   3.674   4.228  16.494  0.2197  0.0268 -0.1145
  871MPD2    C312832   3.698   4.135  16.395  0.1284  0.5097 -0.0513
  871MPD2    C412833   3.700   4.176  16.265  0.0655 -0.0349 -0.1084
  871MPD2    C512834   3.673   4.303  16.231 -0.5468 -0.1979  0.7023
  871MPD2     H12835   3.673   4.199  16.599  0.9641 -0.0753 -0.1387
  871MPD2    H112836   3.726   4.106  16.187 -3.1784 -1.6267  0.2121
  871MPD2    H212837   3.640   4.496  16.294 -0.7859 -0.9374 -0.6144
  871MPD2    H312838   3.663   4.338  16.129 -0.6919  0.2436  0.8714
  871MPD2     N12839   3.717   4.004  16.434 -0.0076  0.2136  0.0128
  871MPD2    H512840   3.742   3.984  16.531 -1.1004  0.8988  0.4271
  871MPD2    N112841   3.638   4.468  16.542  0.1163 -0.4213 -0.5230
  871MPD2    H712842   3.645   4.559  16.497 -0.7276 -0.3519 -0.5299
  872MPD2     C12843   4.425   1.915  13.799  0.6641 -0.4830 -0.2355
  872MPD2    C112844   4.486   1.942  13.918  0.1113 -0.3152  0.7057
  872MPD2    C212845   4.429   1.879  14.035  0.6614 -0.5412 -0.3763
  872MPD2    C312846   4.317   1.809  14.023 -0.0191  0.8101  0.2094
  872MPD2    C412847   4.261   1.787  13.900  0.2709  0.0989  0.1340
  872MPD2    C512848   4.312   1.839  13.786  0.1870  0.2916 -0.2423
  872MPD2     H12849   4.475   1.902  14.130 -0.0332 -0.8872  0.0393
  872MPD2    H112850   4.172   1.726  13.893  0.3435 -0.2012  1.6395
  872MPD2    H212851   4.470   1.950  13.706  0.5239 -0.8227 -0.4318
  872MPD2    H312852   4.266   1.823  13.689  1.1457  0.4276 -0.7161
  872MPD2     N12853   4.248   1.771  14.143  0.3801 -0.0029 -0.3014
  872MPD2    H512854   4.156   1.728  14.135  0.1491 -0.1788  3.1560
  872MPD2    N112855   4.607   2.016  13.928  0.0515 -0.1772 -0.3871
  872MPD2    H712856   4.664   2.000  14.010  1.1337 -2.2561 -1.5556
  873MPD2     C12857   1.954   1.694   1.097 -0.1612 -0.4072 -0.3301
  873MPD2    C112858   1.847   1.705   1.181  0.0997 -0.2920  0.1584
  873MPD2    C212859   1.739   1.623   1.169 -0.5716  0.3167  0.1074
  873MPD2    C312860   1.734   1.527   1.064  0.9841  1.0937  0.2918
  873MPD2    C412861   1.831   1.530   0.969 -0.2948 -0.2887  0.6570
  873MPD2    C512862   1.943   1.604   0.992  0.1651 -0.6291 -0.0673
  873MPD2     H12863   1.661   1.631   1.243 -2.5408  0.2538 -1.9772
  873MPD2    H112864   1.838   1.444   0.903 -1.7539  0.7498 -0.8578
  873MPD2    H212865   2.045   1.752   1.110  0.2029 -1.0323 -0.1010
  873MPD2    H312866   2.028   1.591   0.926  0.1693  0.6206 -0.3107
  873MPD2     N12867   1.631   1.433   1.041 -0.0466  0.3470  0.0657
  873MPD2    H512868   1.629   1.385   0.952 -1.1860 -1.2797  0.9669
  873MPD2    N112869   1.868   1.792   1.288  0.2834 -0.1241 -0.1968
  873MPD2    H712870   1.957   1.841   1.282 -0.9012  2.0342 -0.2206
  874MPD2     C12871   1.231   2.099  16.318  0.4790 -0.0861 -0.6437
  874MPD2    C112872   1.271   2.088  16.449 -0.4466 -0.9959 -0.7616
  874MPD2    C212873   1.371   2.170  16.491  0.3695  0.1467  0.0214
  874MPD2    C312874   1.420   2.264  16.405 -0.1621  0.6033 -0.0177
  874MPD2    C412875   1.382   2.259  16.268 -0.3893  0.1231  0.4308
  874MPD2    C512876   1.286   2.177  16.230  0.0122  0.3648 -0.4475
  874MPD2     H12877   1.408   2.174  16.593 -1.5742 -2.3998  0.8139
  874MPD2    H112878   1.412   2.326  16.189 -1.5537  0.1454  0.0095
  874MPD2    H212879   1.156   2.023  16.294 -0.3756 -0.2344  2.4071
  874MPD2    H312880   1.248   2.184  16.129  0.1195 -1.0397 -0.5822
  874MPD2     N12881   1.511   2.367  16.445 -0.5894  0.2056  0.4480
  874MPD2    H512882   1.533   2.371  16.545  0.0663 -1.4741  0.3720
  874MPD2    N112883   1.211   1.983  16.530  1.1115  0.2962  0.7718
  874MPD2    H712884   1.133   1.934  16.487  1.1429  0.7924  0.1518
  875MPD2     C12885   2.294   0.181  14.663  0.4455 -0.5683  0.8340
  875MPD2    C112886   2.238   0.141  14.785  0.1701 -0.4588  0.4687
  875MPD2    C212887   2.288   0.201  14.894  0.5467 -0.1542  0.4762
  875MPD2    C312888   2.389   0.292  14.900 -0.6157  0.6031  0.3231
  875MPD2    C412889   2.440   0.333  14.779 -0.4843  0.6477  0.3946
  875MPD2    C512890   2.391   0.276  14.664 -0.1050  0.3115  0.2500
  875MPD2     H12891   2.251   0.169  14.990 -0.2843 -0.3020  0.1048
  875MPD2    H112892   2.511   0.416  14.778 -0.2917  0.4930  2.3747
  875MPD2    H212893   2.259   0.134  14.572  0.7212  1.5538 -0.3564
  875MPD2    H312894   2.441   0.294  14.569 -0.4584 -3.1183 -0.5874
  875MPD2     N12895   2.446   0.350  15.019  0.3482  0.1671 -0.0248
  875MPD2    H512896   2.505   0.430  14.999 -0.0492  0.8393  1.4930
  875MPD2    N112897   2.133   0.041  14.794  0.1518  0.4089  0.6378
  875MPD2    H712898   2.086   0.023  14.883 -0.1184 -2.4301 -0.1081
  876MPD2     C12899   1.188   1.738  16.246  0.2260 -0.1107  0.1109
  876MPD2    C112900   1.317   1.728  16.209 -0.3780  0.5339  0.5080
  876MPD2    C212901   1.375   1.608  16.230 -0.0400 -0.3136  0.0271
  876MPD2    C312902   1.329   1.503  16.309 -0.6031  0.0371 -0.1159
  876MPD2    C412903   1.206   1.527  16.365 -0.2143 -0.0954  0.4446
  876MPD2    C512904   1.141   1.644  16.336  0.1901  0.4119  0.4622
  876MPD2     H12905   1.462   1.588  16.169 -0.2550 -2.3513  0.3959
  876MPD2    H112906   1.149   1.452  16.419 -1.5237  1.6273  1.4372
  876MPD2    H212907   1.123   1.823  16.231  0.6361  0.1706 -0.0598
  876MPD2    H312908   1.040   1.665  16.370 -0.3092 -2.4964  0.7773
  876MPD2     N12909   1.404   1.386  16.327 -0.0123  0.4560  0.1019
  876MPD2    H512910   1.493   1.385  16.278  0.7393 -1.6744  1.5048
  876MPD2    N112911   1.365   1.834  16.129 -0.6168  0.7281  0.2102
  876MPD2    H712912   1.298   1.905  16.103  1.3474  3.2262  1.9503
  877MPD2     C12913   1.312   1.875  15.403  0.0366 -0.2235  0.1056
  877MPD2    C112914   1.414   1.971  15.427  0.6302 -0.1192 -0.1780
  877MPD2    C212915   1.494   2.005  15.322  0.1905  0.1336  0.5312
  877MPD2    C312916   1.463   1.963  15.190 -0.5868  0.0262  0.1725
  877MPD2    C412917   1.354   1.887  15.170  0.4912  0.9522 -0.1574
  877MPD2    C512918   1.287   1.831  15.274  0.0079  0.5039  0.0134
  877MPD2     H12919   1.581   2.068  15.339  0.9580 -0.4650 -1.2333
  877MPD2    H112920   1.324   1.855  15.071  1.1136  2.5245 -0.8377
  877MPD2    H212921   1.248   1.829  15.478 -1.2320  0.4052 -0.5806
  877MPD2    H312922   1.203   1.766  15.253  0.7552 -1.1458  2.1097
  877MPD2     N12923   1.544   1.990  15.076  0.5549 -0.1443  0.3547
  877MPD2    H512924   1.498   1.952  14.994  0.2544  0.6312  0.1631
  877MPD2    N112925   1.436   2.022  15.556 -0.2271 -0.2761  0.7277
  877MPD2    H712926   1.507   2.095  15.558 -0.4151 -0.1055  1.0520
  878MPD2     C12927   1.335   1.805  14.035 -0.6365 -0.2142 -0.5041
  878MPD2    C112928   1.272   1.699  13.970 -0.2488  0.6013  0.4228
  878MPD2    C212929   1.214   1.605  14.046  0.3612 -0.3118  0.4335
  878MPD2    C312930   1.191   1.616  14.178 -0.1286  0.1434 -0.4272
  878MPD2    C412931   1.247   1.722  14.238  0.5128 -0.2678  0.2941
  878MPD2    C512932   1.318   1.814  14.175 -0.5213  0.0130  0.7711
  878MPD2     H12933   1.163   1.523  13.997 -0.1274  0.3289 -0.1424
  878MPD2    H112934   1.246   1.738  14.345 -0.1944  1.2975  0.0514
  878MPD2    H212935   1.399   1.874  13.981 -0.8553  1.0983  0.8997
  878MPD2    H312936   1.366   1.887  14.239 -1.4162  2.1979 -1.0747
  878MPD2     N12937   1.110   1.529  14.260  0.4982 -0.5823 -0.0631
  878MPD2    H512938   1.067   1.570  14.343 -0.5893 -0.2713 -0.7881
  878MPD2    N112939   1.288   1.686  13.827  0.4234  0.0337 -0.3400
  878MPD2    H712940   1.323   1.761  13.768 -0.0308 -0.0048 -0.6601
  879MPD2     C12941   1.377   2.864  17.070  0.0909  0.0002 -0.2804
  879MPD2    C112942   1.399   2.738  17.109 -0.1827 -0.1027 -0.6223
  879MPD2    C212943   1.314   2.637  17.071 -0.5564  0.1480  0.5483
  879MPD2    C312944   1.219   2.663  16.976 -0.0941  0.2504  0.7217
  879MPD2    C412945   1.185   2.789  16.943 -0.1154 -0.4071 -0.3584
  879MPD2    C512946   1.265   2.894  16.992  0.9566 -0.0554 -0.1001
  879MPD2     H12947   1.332   2.535  17.103  1.7856 -0.0764 -1.4694
  879MPD2    H112948   1.122   2.818  16.859  0.8085  0.3685 -0.7931
  879MPD2    H212949   1.434   2.952  17.096  0.6317 -0.6437  0.6902
  879MPD2    H312950   1.235   2.991  16.954 -0.6210 -0.9311 -1.0924
  879MPD2     N12951   1.147   2.552  16.921  0.1618 -0.0004 -0.4162
  879MPD2    H512952   1.081   2.575  16.847  1.9006 -1.0098 -2.2769
  879MPD2    N112953   1.497   2.726  17.202  0.5662 -0.4305 -0.4890
  879MPD2    H712954   1.548   2.811  17.222 -0.1715 -0.2716  0.7322
  880MPD2     C12955   2.584   4.169   0.285 -0.3952  0.3088  0.2227
  880MPD2    C112956   2.673   4.241   0.362 -0.0142  0.0952 -0.4665
  880MPD2    C212957   2.773   4.178   0.433  0.0043 -0.1083  0.4682
  880MPD2    C312958   2.784   4.044   0.438  0.1203  0.1426 -0.8944
  880MPD2    C412959   2.697   3.970   0.356  0.2770 -0.2482 -0.3672
  880MPD2    C512960   2.597   4.032   0.288  0.3941 -0.0109 -1.0133
  880MPD2     H12961   2.848   4.234   0.487  0.4692  0.7245 -1.0309
  880MPD2    H112962   2.700   3.862   0.350 -0.6699 -0.2472 -0.9286
  880MPD2    H212963   2.500   4.212   0.233 -0.4851  1.9428  1.7200
  880MPD2    H312964   2.526   3.970   0.235  2.1284 -1.6596 -1.4162
  880MPD2     N12965   2.876   3.990   0.529  0.0736 -0.5250 -0.0393
  880MPD2    H512966   2.928   4.055   0.587 -2.0502  1.4839 -0.3887
  880MPD2    N112967   2.659   4.380   0.376 -0.0447 -0.0948 -0.1430
  880MPD2    H712968   2.738   4.440   0.398  0.5364 -1.8500  2.5443
  881MPD2     C12969   3.049   0.477   0.008  0.4422 -1.2281 -0.5777
  881MPD2    C112970   3.050   0.342  17.733 -0.4784  0.1570 -0.2702
  881MPD2    C212971   2.979   0.252   0.058 -0.5595  0.7660 -0.2633
  881MPD2    C312972   2.930   0.303   0.182  0.9474  0.3612  0.1732
  881MPD2    C412973   2.951   0.438   0.216  0.4026 -0.1851 -0.4050
  881MPD2    C512974   2.995   0.520   0.122 -0.3949 -0.9792 -0.0477
  881MPD2     H12975   2.973   0.151   0.017  0.7547  0.5104  0.1835
  881MPD2    H112976   2.885   0.479   0.291  2.9367  2.1992  0.5019
  881MPD2    H212977   3.097   0.552  17.700  0.8280 -1.4228 -0.5166
  881MPD2    H312978   2.996   0.626   0.144 -1.4095 -0.8487 -0.6539
  881MPD2     N12979   2.852   0.221   0.267  0.1176  0.0731  0.4047
  881MPD2    H512980   2.806   0.263   0.347 -2.2157 -0.0062 -0.8925
  881MPD2    N112981   3.096   0.312  17.603  0.2827 -0.0686 -0.3254
  881MPD2    H712982   3.118   0.382  17.533  0.2688  0.3799  0.1183
  882MPD2     C12983   1.394   1.600  14.572  0.1958 -0.4836  0.1067
  882MPD2    C112984   1.375   1.715  14.657 -0.0437 -0.0556 -0.0304
  882MPD2    C212985   1.259   1.724  14.727  0.7454  0.2776 -0.3796
  882MPD2    C312986   1.158   1.635  14.702  0.6717  0.0046 -0.2496
  882MPD2    C412987   1.177   1.528  14.622 -0.2320  0.0527 -0.2152
  882MPD2    C512988   1.298   1.511  14.560 -0.9288 -0.6702 -0.7723
  882MPD2     H12989   1.244   1.808  14.794  0.1947 -2.2165  2.6381
  882MPD2    H112990   1.104   1.452  14.597  0.8823 -0.5387 -1.7530
  882MPD2    H212991   1.484   1.598  14.512  1.8127  0.2453  2.4889
  882MPD2    H312992   1.318   1.423  14.500 -1.4920 -1.0313 -0.4324
  882MPD2     N12993   1.026   1.652  14.763  0.1108 -0.4749  0.3252
  882MPD2    H512994   0.967   1.572  14.744 -0.0300  0.0029 -1.2167
  882MPD2    N112995   1.482   1.812  14.654  0.1141  0.3892 -0.2149
  882MPD2    H712996   1.559   1.779  14.596  0.3692 -0.5416  0.6537
  883MPD2     C12997   3.254   1.952  16.621 -0.3346 -0.5145 -0.1463
  883MPD2    C112998   3.299   1.991  16.500 -0.0555  0.0369 -0.4238
  883MPD2    C212999   3.432   2.001  16.473 -0.3190  0.0016  0.2717
  883MPD2    C313000   3.527   1.978  16.576 -0.3753 -0.6343 -0.0883
  883MPD2    C413001   3.482   1.935  16.693  0.2547 -0.2057 -0.0584
  883MPD2    C513002   3.348   1.927  16.720 -0.4635  0.7809  0.2400
  883MPD2     H13003   3.476   2.041  16.383  2.6708 -1.6494  0.9767
  883MPD2    H113004   3.546   1.906  16.776  0.8014 -2.0140 -1.0954
  883MPD2    H213005   3.151   1.925  16.638 -0.9386  0.1662 -2.8559
  883MPD2    H313006   3.320   1.881  16.814  0.3279  0.6718  0.4253
  883MPD2     N13007   3.664   1.991  16.542 -0.6509  0.1786 -0.4464
  883MPD2    H513008   3.686   2.036  16.454  1.2382 -1.4320 -0.7877
  883MPD2    N113009   3.204   1.998  16.398  0.6667 -0.3862 -0.4052
  883MPD2    H713010   3.247   2.007  16.307 -1.2458  0.4024 -1.2240
  884MPD2     C13011   0.270   2.667  15.320  0.4231  0.0186 -0.0029
  884MPD2    C113012   0.229   2.770  15.237  0.6484 -0.8298 -0.1287
  884MPD2    C213013   0.095   2.810  15.254  0.4161  0.7469  0.2303
  884MPD2    C313014   0.007   2.750  15.346  0.2820 -0.0534  0.4700
  884MPD2    C413015   0.053   2.638  15.415  0.2675 -0.0157  0.5286
  884MPD2    C513016   0.185   2.597  15.406 -0.2466  0.2832  1.0805
  884MPD2     H13017   0.056   2.893  15.196  0.0465 -0.4170 -1.1764
  884MPD2    H113018   4.729   2.583  15.484  0.5893 -0.5015  0.4403
  884MPD2    H213019   0.373   2.635  15.320 -0.0227 -1.4425  0.2101
  884MPD2    H313020   0.226   2.512  15.458  0.7042  0.8457  1.2539
  884MPD2     N13021   4.618   2.791  15.375  0.7144  0.5458 -0.6279
  884MPD2    H513022   4.563   2.731  15.435 -0.2311  3.4497  1.3760
  884MPD2    N113023   0.304   2.816  15.131 -0.2685 -0.0376 -0.1514
  884MPD2    H713024   0.254   2.883  15.074  1.0109  0.3003 -0.8579
  885MPD2     C13025   3.180   3.221   0.433 -0.2435  0.4960  0.4765
  885MPD2    C113026   3.279   3.136   0.397 -0.4084  0.6723  0.0511
  885MPD2    C213027   3.313   3.118   0.268  0.2475  0.7907 -0.4505
  885MPD2    C313028   3.247   3.195   0.169 -0.0022  0.1016  1.0237
  885MPD2    C413029   3.146   3.286   0.210 -0.1772  0.2443 -0.3051
  885MPD2    C513030   3.111   3.294   0.343 -0.0610  1.3067 -0.6289
  885MPD2     H13031   3.399   3.065   0.229  0.6224  0.0605  1.3745
  885MPD2    H113032   3.105   3.351   0.134 -0.3420  0.3174 -0.1541
  885MPD2    H213033   3.149   3.214   0.536 -0.5263  0.7554  0.4084
  885MPD2    H313034   3.029   3.356   0.376 -0.2023  1.5188 -1.3705
  885MPD2     N13035   3.298   3.192   0.041 -0.0805  0.0653  0.3405
  885MPD2    H513036   3.366   3.121   0.014 -0.8391 -1.2127  1.7678
  885MPD2    N113037   3.332   3.072   0.510 -0.1979 -1.1008  0.1491
  885MPD2    H713038   3.296   3.104   0.599 -2.4044 -2.9584 -0.0601
  886MPD2     C13039   0.280   1.077  15.404 -0.0392 -0.2862 -0.2817
  886MPD2    C113040   0.280   1.136  15.524  0.8030  0.4731  0.5526
  886MPD2    C213041   0.228   1.268  15.542  0.2606  0.8983  0.6109
  886MPD2    C313042   0.177   1.338  15.434  0.6582 -0.7013  0.8978
  886MPD2    C413043   0.170   1.274  15.315 -0.3819  1.3495 -0.2354
  886MPD2    C513044   0.214   1.142  15.307  0.1385  0.3708 -0.2650
  886MPD2     H13045   0.246   1.314  15.639 -0.5556 -0.8714  1.6153
  886MPD2    H113046   0.133   1.324  15.226 -0.7206  2.0518  0.3011
  886MPD2    H213047   0.311   0.976  15.377 -0.1522 -0.0934 -1.1412
  886MPD2    H313048   0.227   1.108  15.205 -0.0265  0.8754 -0.4587
  886MPD2     N13049   0.152   1.476  15.436  0.3539  0.2445 -0.0626
  886MPD2    H513050   0.119   1.526  15.354  0.6194  0.7954  0.1738
  886MPD2    N113051   0.341   1.072  15.631  0.8272  0.3254  0.1254
  886MPD2    H713052   0.356   1.131  15.712  0.8360  1.0130 -0.3753
  887MPD2     C13053   0.779   1.249  16.184 -0.3854 -0.4316  0.4030
  887MPD2    C113054   0.739   1.267  16.051  0.1323 -0.3666 -0.7971
  887MPD2    C213055   0.753   1.388  15.994  0.2160 -0.7367  0.4633
  887MPD2    C313056   0.799   1.495  16.069  0.4420  0.3632 -0.0502
  887MPD2    C413057   0.840   1.481  16.197 -0.8770  0.7677  0.0971
  887MPD2    C513058   0.836   1.356  16.253  0.2775  0.1431 -0.3888
  887MPD2     H13059   0.728   1.401  15.890  2.2841  2.3019  0.3330
  887MPD2    H113060   0.880   1.562  16.256 -0.2986  0.4184  0.1910
  887MPD2    H213061   0.784   1.159  16.245 -0.8887 -0.3886  0.5119
  887MPD2    H313062   0.877   1.332  16.350  0.8883  0.0953 -0.6566
  887MPD2     N13063   0.808   1.618  15.995  0.1777 -0.3527  0.0579
  887MPD2    H513064   0.788   1.617  15.896 -1.5811  1.4642  0.3849
  887MPD2    N113065   0.670   1.159  15.984  0.0285  0.1635  0.4152
  887MPD2    H713066   0.647   1.163  15.885  3.2746 -0.3961 -0.3527
  888MPD2     C13067   2.527   1.770  15.526 -0.1841 -1.1249  0.7613
  888MPD2    C113068   2.650   1.807  15.472 -0.5501 -0.3043 -0.1520
  888MPD2    C213069   2.681   1.939  15.448 -0.0279  0.6284 -0.4451
  888MPD2    C313070   2.589   2.039  15.468 -0.2527 -1.0851 -0.2648
  888MPD2    C413071   2.471   2.002  15.520  0.2055  0.0395 -0.1838
  888MPD2    C513072   2.432   1.870  15.551  0.0143  0.0892  1.1135
  888MPD2     H13073   2.778   1.965  15.406  0.4729  0.1692  0.4330
  888MPD2    H113074   2.396   2.080  15.530  0.0373 -0.2366  0.7305
  888MPD2    H213075   2.488   1.676  15.564  1.5628 -2.4186 -0.6334
  888MPD2    H313076   2.332   1.846  15.587 -0.8456  0.7396 -0.8132
  888MPD2     N13077   2.626   2.170  15.433  0.3096 -0.3516  0.2544
  888MPD2    H513078   2.706   2.178  15.372  0.0942  1.8034  0.2355
  888MPD2    N113079   2.744   1.710  15.440  0.2811  0.1906  0.2864
  888MPD2    H713080   2.834   1.736  15.401  0.1445 -0.9954 -0.8094
  889MPD2     C13081   1.283   0.913  12.897  0.0140  0.2249 -0.9234
  889MPD2    C113082   1.394   0.923  12.981 -0.0765  0.4810  0.5170
  889MPD2    C213083   1.429   1.050  13.019  0.4506 -0.2890  0.4863
  889MPD2    C313084   1.364   1.166  12.980  0.2181 -0.2105  0.0221
  889MPD2    C413085   1.262   1.153  12.889 -0.1735 -0.0892 -0.3732
  889MPD2    C513086   1.218   1.026  12.848  0.0159 -0.2776 -0.3629
  889MPD2     H13087   1.491   1.062  13.107  0.3978 -1.3676  0.6732
  889MPD2    H113088   1.217   1.241  12.843  0.1937  0.2694 -0.0491
  889MPD2    H213089   1.241   0.820  12.860  2.4601 -0.6096 -1.5846
  889MPD2    H313090   1.134   1.006  12.783 -0.0838 -0.7651 -0.0867
  889MPD2     N13091   1.396   1.290  13.040 -0.0278  0.0980 -0.1870
  889MPD2    H513092   1.473   1.285  13.105 -0.5801 -0.6052  0.4152
  889MPD2    N113093   1.437   0.807  13.046 -0.5570  0.3354  0.2988
  889MPD2    H713094   1.388   0.723  13.017 -0.5184  0.3032  0.3267
  890MPD2     C13095   1.244   2.726  14.563  0.1129 -0.4139  0.3748
  890MPD2    C113096   1.371   2.764  14.605 -0.3981  0.0680  0.8669
  890MPD2    C213097   1.432   2.712  14.721 -0.3895 -0.6028  0.2214
  890MPD2    C313098   1.364   2.614  14.788 -0.3995 -0.1402 -0.7903
  890MPD2    C413099   1.235   2.582  14.751 -0.0683 -0.5684  0.6099
  890MPD2    C513100   1.174   2.634  14.638 -0.1720  0.3635  0.7169
  890MPD2     H13101   1.525   2.745  14.768  0.5876 -2.9083 -0.1082
  890MPD2    H113102   1.180   2.501  14.798  0.5154 -1.6695 -0.5988
  890MPD2    H213103   1.193   2.779  14.483  1.1013 -0.3034 -0.1779
  890MPD2    H313104   1.077   2.601  14.604 -0.5537  2.6651 -0.4172
  890MPD2     N13105   1.439   2.553  14.890  0.1527  0.2808  0.1502
  890MPD2    H513106   1.531   2.594  14.898  0.0497  0.5824 -0.2235
  890MPD2    N113107   1.424   2.876  14.537  0.1106  0.0171  0.5726
  890MPD2    H713108   1.369   2.911  14.458 -0.7050  1.0895  1.6123
  891MPD2     C13109   4.006   1.227  16.442  0.3177 -0.3772  0.3786
  891MPD2    C113110   3.992   1.347  16.506  0.4673  0.3128  0.1739
  891MPD2    C213111   4.086   1.374  16.599  0.1583  0.2462 -0.4721
  891MPD2    C313112   4.186   1.287  16.632  0.3533 -0.4553  0.4564
  891MPD2    C413113   4.205   1.171  16.558 -0.0667  0.5340 -0.0995
  891MPD2    C513114   4.117   1.145  16.462  0.5029 -0.0666 -0.1576
  891MPD2     H13115   4.076   1.452  16.673  2.0962  0.5185 -0.4814
  891MPD2    H113116   4.294   1.110  16.572  0.8357  1.1317 -3.2654
  891MPD2    H213117   3.947   1.203  16.354  0.4793  0.2561  0.1022
  891MPD2    H313118   4.149   1.063  16.399 -3.1216 -2.2624  0.8497
  891MPD2     N13119   4.278   1.314  16.739 -0.1124  0.1859 -0.3314
  891MPD2    H513120   4.260   1.403  16.785  1.5223  0.6216 -0.5446
  891MPD2    N113121   3.878   1.425  16.478  0.5224  0.5095 -0.0479
  891MPD2    H713122   3.795   1.382  16.439  1.0240  0.8176 -1.4546
  892MPD2     C13123   0.499   2.401  15.059 -0.2331  0.0320  0.0751
  892MPD2    C113124   0.416   2.297  15.108  0.0476  0.7182  0.1866
  892MPD2    C213125   0.474   2.173  15.124 -0.5158 -0.5475  0.5453
  892MPD2    C313126   0.612   2.152  15.094  0.5850  0.5465  0.2778
  892MPD2    C413127   0.682   2.258  15.050 -0.2740  0.3555 -0.4457
  892MPD2    C513128   0.632   2.383  15.031  0.1941  0.5856 -0.0035
  892MPD2     H13129   0.409   2.092  15.155 -0.7860 -0.2258  0.8193
  892MPD2    H113130   0.788   2.244  15.029 -0.2760 -0.9701  0.3769
  892MPD2    H213131   0.458   2.498  15.030  0.9639  0.2188 -0.9683
  892MPD2    H313132   0.696   2.465  14.999  3.1940 -1.3041  1.0844
  892MPD2     N13133   0.680   2.024  15.091  0.1299 -0.0524  0.3861
  892MPD2    H513134   0.774   2.021  15.054  0.9140 -3.2801  2.6540
  892MPD2    N113135   0.283   2.330  15.136 -0.3068  0.0169  0.1980
  892MPD2    H713136   0.254   2.419  15.096 -2.2827 -0.4369  0.6163
  893MPD2     C13137   1.880   1.364   1.913 -0.4773 -1.0110  0.1048
  893MPD2    C113138   1.836   1.275   1.812 -0.6267  0.2652 -0.5936
  893MPD2    C213139   1.703   1.232   1.809 -0.5517  0.0755  0.4006
  893MPD2    C313140   1.612   1.265   1.904  0.1769 -0.1081  0.4692
  893MPD2    C413141   1.660   1.352   1.999  0.0452 -0.2565 -0.7489
  893MPD2    C513142   1.785   1.409   2.002 -0.1229  0.4261  0.5679
  893MPD2     H13143   1.670   1.158   1.737  1.9137  0.6455 -1.3260
  893MPD2    H113144   1.590   1.390   2.072 -0.4602  0.2453 -1.4900
  893MPD2    H213145   1.985   1.389   1.925  0.0978 -2.8960 -1.0131
  893MPD2    H313146   1.799   1.457   2.098 -3.4688  2.4882  0.0228
  893MPD2     N13147   1.482   1.208   1.912 -0.6374  0.0456  0.4780
  893MPD2    H513148   1.456   1.143   1.839  0.2004 -0.3413  0.5276
  893MPD2    N113149   1.936   1.218   1.731 -0.0389 -0.1180 -0.1270
  893MPD2    H713150   2.024   1.269   1.729 -0.0286 -0.1574 -0.6520
  894MPD2     C13151   0.204   2.820   0.742  0.2814  0.6343  0.1114
  894MPD2    C113152   0.216   2.909   0.844  0.9379 -0.0614 -0.4401
  894MPD2    C213153   0.212   3.043   0.813  0.4298  0.1931  0.0002
  894MPD2    C313154   0.214   3.088   0.683 -0.3039  0.7454  0.2389
  894MPD2    C413155   0.218   2.996   0.584  0.3100  0.0797 -0.4970
  894MPD2    C513156   0.206   2.862   0.614  0.8812  0.6483 -0.3345
  894MPD2     H13157   0.202   3.119   0.889  3.0651  0.3179  0.2330
  894MPD2    H113158   0.218   3.016   0.478  1.0226  3.3067  0.1116
  894MPD2    H213159   0.198   2.712   0.753 -0.5954  0.5032 -1.6612
  894MPD2    H313160   0.201   2.799   0.527 -0.5971  0.0306  0.1927
  894MPD2     N13161   0.215   3.226   0.667  0.1230 -0.1083 -0.5662
  894MPD2    H513162   0.235   3.274   0.754 -0.8435  0.2022 -0.5215
  894MPD2    N113163   0.234   2.869   0.978  0.5321  0.8901  0.5312
  894MPD2    H713164   0.257   2.941   1.045 -1.2606  2.0273 -0.0646
  895MPD2     C13165   4.337   1.428  13.886  0.3071  0.6868 -0.3025
  895MPD2    C113166   4.283   1.311  13.928  0.0626 -0.3146  0.1251
  895MPD2    C213167   4.350   1.237  14.024 -0.0813 -0.2328 -0.0965
  895MPD2    C313168   4.486   1.270  14.058  0.7384 -0.0942 -0.2137
  895MPD2    C413169   4.531   1.387  14.010  0.4522 -0.3771  0.6317
  895MPD2    C513170   4.461   1.466  13.935 -0.1683  0.1020  0.0978
  895MPD2     H13171   4.305   1.142  14.048  1.2378 -0.9573 -0.4626
  895MPD2    H113172   4.625   1.428  14.045  0.5929 -0.3923  0.2673
  895MPD2    H213173   4.288   1.506  13.830 -1.9159 -0.0485  0.6246
  895MPD2    H313174   4.508   1.561  13.910  0.1949 -0.4697 -1.4151
  895MPD2     N13175   4.570   1.200  14.146  0.4079 -0.3061 -0.3511
  895MPD2    H513176   4.654   1.251  14.172  0.6597 -0.9246  0.0555
  895MPD2    N113177   4.163   1.277  13.873  0.8129  0.5822  0.1872
  895MPD2    H713178   4.125   1.185  13.893  0.5924  0.1542 -2.2210
  896MPD2     C13179   1.618   4.308   1.564 -0.2398  1.1483 -0.2888
  896MPD2    C113180   1.629   4.250   1.439 -0.4541  0.1494 -0.5207
  896MPD2    C213181   1.515   4.199   1.376  0.3551  0.3898  0.5789
  896MPD2    C313182   1.397   4.199   1.447  0.8641  0.2937  0.0898
  896MPD2    C413183   1.392   4.251   1.575 -0.2963 -0.8256 -0.0678
  896MPD2    C513184   1.502   4.310   1.631  0.4183  0.6742 -0.3072
  896MPD2     H13185   1.517   4.156   1.276  0.4895  0.9535  0.3402
  896MPD2    H113186   1.304   4.244   1.638 -1.3052  0.3546 -1.3527
  896MPD2    H213187   1.711   4.331   1.614  0.2568 -1.9907  0.2155
  896MPD2    H313188   1.499   4.344   1.734 -3.2361 -0.1926 -0.1100
  896MPD2     N13189   1.281   4.146   1.389  0.4049  0.5958  0.2491
  896MPD2    H513190   1.289   4.105   1.297 -2.0933 -2.0632  1.2152
  896MPD2    N113191   1.761   4.257   1.388 -0.0697 -0.1620 -0.4410
  896MPD2    H713192   1.825   4.309   1.448  1.0301 -2.3580  0.2664
  897MPD2     C13193   2.881   0.208  10.463 -0.0304  0.4829 -0.1651
  897MPD2    C113194   2.953   0.311  10.526 -0.2530 -1.1544 -0.1193
  897MPD2    C213195   2.888   0.404  10.603 -0.2154 -0.5759  0.2074
  897MPD2    C313196   2.755   0.413  10.605  1.0750 -0.4892  0.5629
  897MPD2    C413197   2.682   0.311  10.550  0.8347 -0.8410 -0.3088
  897MPD2    C513198   2.742   0.209  10.485 -0.7540  0.1307  0.6889
  897MPD2     H13199   2.937   0.497  10.627 -0.6595  0.4538 -2.7957
  897MPD2    H113200   2.574   0.304  10.548  0.8170 -0.2307 -1.5363
  897MPD2    H213201   2.927   0.130  10.404 -0.0928  0.9462 -0.8307
  897MPD2    H313202   2.685   0.132  10.435 -1.5486  1.3127 -0.2092
  897MPD2     N13203   2.699   0.521  10.682  0.2709 -0.6474  0.3492
  897MPD2    H513204   2.763   0.581  10.733  0.9800 -2.8308  2.0213
  897MPD2    N113205   3.098   0.307  10.517  0.5920 -0.5603  0.3690
  897MPD2    H713206   3.144   0.264  10.438 -0.0961 -3.5844  1.6422
  898MPD2     C13207   4.084   1.694  17.747 -0.3063 -0.0646  0.3025
  898MPD2    C113208   4.185   1.685  17.652 -0.7397  0.4804 -0.0507
  898MPD2    C213209   4.235   1.805  17.598  0.1479 -0.6192 -0.2433
  898MPD2    C313210   4.185   1.930  17.638 -0.5437  0.2708 -0.1494
  898MPD2    C413211   4.096   1.931  17.751  0.4535 -0.1615 -0.5677
  898MPD2    C513212   4.041   1.814   0.044  0.5050  0.3829  0.2651
  898MPD2     H13213   4.315   1.799  17.525 -1.2186  0.4137 -1.8561
  898MPD2    H113214   4.062   2.021   0.047  0.6754 -0.4019  0.0166
  898MPD2    H213215   4.034   1.612   0.044  0.9448  1.2515  3.6023
  898MPD2    H313216   3.964   1.816   0.120  2.0152  0.6657  1.7687
  898MPD2     N13217   4.215   2.039  17.570 -0.2004  0.0077 -0.1718
  898MPD2    H513218   4.265   2.012  17.485 -0.6390  0.2559 -0.5021
  898MPD2    N113219   4.245   1.567  17.604 -0.3797  0.2364 -0.0647
  898MPD2    H713220   4.328   1.581  17.548 -1.0177 -2.0625 -1.5952
  899MPD2     C13221   1.341   2.291   0.067 -0.5695 -0.2411 -0.0354
  899MPD2    C113222   1.231   2.316  17.743  0.3896 -0.1025  0.1957
  899MPD2    C213223   1.114   2.250   0.020  0.5037 -0.0875 -0.6494
  899MPD2    C313224   1.104   2.167   0.131  0.3308  0.7744  0.4938
  899MPD2    C413225   1.219   2.156   0.205 -0.0536  0.0809  0.6853
  899MPD2    C513226   1.340   2.210   0.175 -0.6271  0.0413  0.1445
  899MPD2     H13227   1.024   2.268  17.718  0.7691 -0.1240 -1.0842
  899MPD2    H113228   1.214   2.088   0.290  0.1037  0.3047  0.8745
  899MPD2    H213229   1.434   2.343   0.044 -0.1829 -1.0504 -0.2967
  899MPD2    H313230   1.426   2.195   0.239  1.0110 -0.0558 -2.0730
  899MPD2     N13231   0.980   2.110   0.176 -0.2816  0.8677  0.5342
  899MPD2    H513232   0.984   2.067   0.269  1.2926  1.4019  0.7245
  899MPD2    N113233   1.240   2.407  17.633 -0.0275  0.3076 -0.4756
  899MPD2    H713234   1.319   2.470  17.631 -0.4816  0.7845 -2.9183
  900MPD2     C13235   0.220   3.990  12.877 -0.1785 -0.5410  0.9475
  900MPD2    C113236   0.119   3.900  12.847 -0.1274 -0.3207 -0.3835
  900MPD2    C213237   0.006   3.951  12.786 -0.7438 -0.1884  0.6121
  900MPD2    C313238   4.725   4.088  12.761  0.6094 -0.2534 -0.0420
  900MPD2    C413239   0.095   4.177  12.787  0.6349 -0.2226 -0.2343
  900MPD2    C513240   0.199   4.118  12.848 -0.4185  0.1926  0.3148
  900MPD2     H13241   4.661   3.886  12.764 -0.4562 -0.4690  0.3457
  900MPD2    H113242   0.095   4.283  12.765  0.1925 -0.0734  0.4790
  900MPD2    H213243   0.311   3.951  12.923  1.0493  1.9254  0.6297
  900MPD2    H313244   0.284   4.178  12.878 -0.9966  0.1870  1.9816
  900MPD2     N13245   4.607   4.128  12.693  0.1352  0.2105  0.2581
  900MPD2    H513246   4.541   4.056  12.665  1.1220 -0.2775 -0.8254
  900MPD2    N113247   0.142   3.764  12.882  0.8353 -0.1815 -0.3258
  900MPD2    H713248   0.226   3.744  12.937  0.5449  0.9656  0.5397
  901MPD2     C13249   4.683   2.704  13.068  0.5458  0.0390 -0.5514
  901MPD2    C113250   0.065   2.741  13.125 -0.9201 -0.3206 -0.0782
  901MPD2    C213251   0.103   2.870  13.113 -0.2710  0.1645 -0.4718
  901MPD2    C313252   0.030   2.959  13.036 -0.0525  0.7559  0.2510
  901MPD2    C413253   4.654   2.920  12.977 -0.2486 -0.1948 -0.5960
  901MPD2    C513254   4.613   2.795  12.992 -0.2416  0.5024 -0.3459
  901MPD2     H13255   0.194   2.917  13.149  1.3388 -3.3392  0.0286
  901MPD2    H113256   4.596   2.992  12.921  1.0157  0.0888 -1.5564
  901MPD2    H213257   4.643   2.603  13.070  2.1878 -0.6057 -0.0218
  901MPD2    H313258   4.529   2.767  12.931 -1.0922  1.5676  0.3330
  901MPD2     N13259   0.079   3.090  13.033  0.5779 -0.2245 -0.7130
  901MPD2    H513260   0.177   3.103  13.052  0.0778 -0.9353  2.3379
  901MPD2    N113261   0.140   2.644  13.200  0.0499  0.6187 -0.0120
  901MPD2    H713262   0.103   2.550  13.211  1.0110  0.3122  0.5874
  902MPD2     C13263   3.896   1.300  13.029  0.0686  0.0448  0.5302
  902MPD2    C113264   4.024   1.342  12.983 -0.9936 -0.6276 -0.1409
  902MPD2    C213265   4.133   1.279  13.036  0.1572 -0.4048  0.3943
  902MPD2    C313266   4.119   1.189  13.138  0.1392 -1.2576  0.0291
  902MPD2    C413267   4.000   1.144  13.179  0.6619  0.6236  0.4524
  902MPD2    C513268   3.884   1.200  13.127  0.1210  0.5529  0.0238
  902MPD2     H13269   4.234   1.308  13.012 -0.9930  2.9966 -0.2402
  902MPD2    H113270   3.984   1.068  13.254  0.7249 -0.0699 -0.2357
  902MPD2    H213271   3.805   1.346  12.992  0.9658  1.7835  0.5115
  902MPD2    H313272   3.785   1.179  13.167  0.1481 -1.4002 -0.9235
  902MPD2     N13273   4.233   1.127  13.196  0.5851 -0.6426 -0.1063
  902MPD2    H513274   4.215   1.048  13.257  0.1280 -0.1713  0.3706
  902MPD2    N113275   4.027   1.440  12.878 -0.2810  0.5548  0.1993
  902MPD2    H713276   3.940   1.487  12.856 -0.6000  0.2385  0.7889
  903MPD2     C13277   0.078   1.150  12.854  0.1787  0.2788 -0.3145
  903MPD2    C113278   4.723   1.219  12.923 -0.4459  0.4990  0.6207
  903MPD2    C213279   4.616   1.270  12.861  0.4606 -0.5608 -0.4553
  903MPD2    C313280   4.594   1.239  12.727 -0.1135 -0.0814 -0.1903
  903MPD2    C413281   4.697   1.181  12.657 -0.3654  0.3397  0.3553
  903MPD2    C513282   0.065   1.122  12.724 -0.2738 -0.3323 -0.2737
  903MPD2     H13283   4.538   1.317  12.921  0.2910 -0.4321 -0.7762
  903MPD2    H113284   4.685   1.159  12.551  1.8713  1.0723 -0.0586
  903MPD2    H213285   0.169   1.116  12.903  0.4310  2.1575  0.5185
  903MPD2    H313286   0.145   1.076  12.667 -0.8261 -1.9948  0.2951
  903MPD2     N13287   4.456   1.261  12.679  0.3557 -0.1088 -0.0827
  903MPD2    H513288   4.378   1.296  12.734  1.3958 -0.6539  1.7387
  903MPD2    N113289   4.710   1.209  13.066 -0.8572  0.2640 -0.6928
  903MPD2    H713290   4.637   1.270  13.101  0.5011  1.4100  0.0886
  904MPD2     C13291   3.927   1.021  14.225 -0.0656 -1.0781  0.2888
  904MPD2    C113292   3.895   0.963  14.352 -0.3601  0.3362 -0.4307
  904MPD2    C213293   3.987   0.969  14.447 -0.0983  0.4757  0.3466
  904MPD2    C313294   4.113   1.025  14.432  0.8784  0.4459 -0.1834
  904MPD2    C413295   4.144   1.069  14.303 -0.2100 -0.1107  0.3731
  904MPD2    C513296   4.047   1.074  14.207  0.2696  0.0235 -0.2018
  904MPD2     H13297   3.966   0.925  14.544 -2.7182 -0.9870 -0.8901
  904MPD2    H113298   4.235   1.124  14.281 -0.5940  1.1431  1.8579
  904MPD2    H213299   3.863   1.019  14.138  0.7073 -1.7616 -0.2671
  904MPD2    H313300   4.054   1.146  14.126 -1.9250  0.2476 -0.1925
  904MPD2     N13301   4.201   1.022  14.544 -0.4110  0.3421  0.0123
  904MPD2    H513302   4.168   0.993  14.636 -1.0151  1.5064  0.1654
  904MPD2    N113303   3.775   0.899  14.380 -0.5538  0.4109  0.4328
  904MPD2    H713304   3.771   0.846  14.467  0.6400  0.7742  0.7029
  905MPD2     C13305   3.797   0.708  13.723 -0.0769  0.0123 -0.6851
  905MPD2    C113306   3.824   0.822  13.794 -0.5718  0.2011  0.2997
  905MPD2    C213307   3.958   0.838  13.832 -0.3862 -0.0575 -0.0222
  905MPD2    C313308   4.054   0.735  13.814  0.7358  0.0531 -0.9655
  905MPD2    C413309   4.030   0.626  13.741  0.9061  0.1371 -0.5527
  905MPD2    C513310   3.899   0.615  13.700 -1.0287  0.4356  0.1712
  905MPD2     H13311   3.986   0.924  13.890  2.3785 -0.7952 -0.2492
  905MPD2    H113312   4.102   0.553  13.706  1.2047 -0.0530  0.4512
  905MPD2    H213313   3.697   0.692  13.684  0.7606 -1.1670 -2.3261
  905MPD2    H313314   3.886   0.533  13.630  3.5559 -0.0164 -0.1304
  905MPD2     N13315   4.188   0.746  13.858  0.5755 -0.1278  0.3594
  905MPD2    H513316   4.247   0.664  13.849  0.1953 -0.2873 -0.6490
  905MPD2    N113317   3.715   0.896  13.846  0.5252  0.6219 -0.0556
  905MPD2    H713318   3.623   0.855  13.835  1.4336 -1.6038  0.7892
  906MPD2     C13319   1.478   1.023  11.597 -0.9093 -0.4555 -0.4058
  906MPD2    C113320   1.517   0.904  11.548  0.1604  0.3532 -0.0312
  906MPD2    C213321   1.492   0.787  11.629  0.6152  0.0804  0.5121
  906MPD2    C313322   1.440   0.799  11.757 -0.3986  0.3440  1.1755
  906MPD2    C413323   1.410   0.920  11.805 -0.3379  0.6813 -0.2051
  906MPD2    C513324   1.425   1.029  11.723  0.3749 -0.5474  1.0878
  906MPD2     H13325   1.504   0.690  11.582 -0.3588  0.4327 -0.4470
  906MPD2    H113326   1.368   0.929  11.905 -3.0849  1.8833 -1.4465
  906MPD2    H213327   1.493   1.111  11.536  1.2846 -0.9292 -0.5479
  906MPD2    H313328   1.404   1.124  11.770  2.2428  0.8059 -0.7922
  906MPD2     N13329   1.408   0.683  11.829  0.0710  0.1274 -0.2033
  906MPD2    H513330   1.336   0.690  11.900 -0.8541  0.0722 -1.1280
  906MPD2    N113331   1.568   0.885  11.416  0.5396  0.4752  0.0021
  906MPD2    H713332   1.577   0.791  11.378 -2.2298  0.7529 -1.3118
  907MPD2     C13333   0.619   0.040  15.938 -0.2642 -0.3192 -0.0843
  907MPD2    C113334   0.548   4.663  15.892 -0.2757  0.3265  0.8127
  907MPD2    C213335   0.607   4.542  15.931 -0.7802  0.4403  0.3432
  907MPD2    C313336   0.723   4.527  16.003  0.5440 -0.6763  0.2646
  907MPD2    C413337   0.794   4.641  16.049 -0.0124  0.4745  1.2891
  907MPD2    C513338   0.737   0.023  16.010 -0.2985 -0.3404 -0.7123
  907MPD2     H13339   0.555   4.451  15.901 -1.0761  0.8100 -0.2695
  907MPD2    H113340   0.893   4.645  16.094  0.7490  1.4084 -0.4823
  907MPD2    H213341   0.578   0.140  15.925  2.8086  0.6945 -2.0111
  907MPD2    H313342   0.787   0.109  16.053 -0.8835 -0.0394 -0.6204
  907MPD2     N13343   0.768   4.399  16.019  0.0423 -0.1660 -0.3393
  907MPD2    H513344   0.741   4.334  15.946 -2.2262 -0.7249  0.9953
  907MPD2    N113345   0.430   4.668  15.815  0.0527  0.1327  0.2257
  907MPD2    H713346   0.382   4.580  15.800  2.3520 -1.0827 -0.0220
  908MPD2     C13347   3.283   0.490   9.772  0.6623  0.3024 -0.1248
  908MPD2    C113348   3.264   0.370   9.835  0.2096  0.1807 -0.3973
  908MPD2    C213349   3.307   0.351   9.963  0.2866  0.8299 -0.5855
  908MPD2    C313350   3.376   0.453  10.034  0.2215 -0.3263 -0.6490
  908MPD2    C413351   3.408   0.569   9.969  0.6561 -0.4082 -0.5059
  908MPD2    C513352   3.353   0.593   9.842  0.1492  0.2894  0.2825
  908MPD2     H13353   3.272   0.261  10.011  0.7971  1.1892  0.4679
  908MPD2    H113354   3.457   0.654  10.016 -3.1422  1.7847 -0.5089
  908MPD2    H213355   3.249   0.510   9.671 -0.3914 -0.5089  0.0682
  908MPD2    H313356   3.359   0.692   9.796  0.8253  0.1840  0.1395
  908MPD2     N13357   3.405   0.418  10.172 -0.2318  0.3924  0.1445
  908MPD2    H513358   3.370   0.329  10.204  0.0787 -0.1972 -1.1453
  908MPD2    N113359   3.197   0.277   9.753  0.0254  0.5836 -0.3237
  908MPD2    H713360   3.163   0.311   9.663 -2.1126 -0.8460 -0.0589
  909MPD2     C13361   2.794   3.266  11.709  0.2497 -0.7077 -0.6382
  909MPD2    C113362   2.816   3.399  11.708  0.0655  0.5835  0.3645
  909MPD2    C213363   2.767   3.471  11.818 -0.7476 -0.5807  0.0690
  909MPD2    C313364   2.685   3.416  11.916  0.6298  0.0514  0.4921
  909MPD2    C413365   2.682   3.280  11.925 -0.4262  0.5504  0.3466
  909MPD2    C513366   2.724   3.204  11.812 -0.4351 -0.1126 -0.1999
  909MPD2     H13367   2.801   3.572  11.835  3.1035 -1.4884 -2.1567
  909MPD2    H113368   2.642   3.226  12.010  2.7255 -3.2852 -0.5643
  909MPD2    H213369   2.833   3.210  11.625 -0.0303 -1.3380 -0.3449
  909MPD2    H313370   2.714   3.096  11.809  0.6573 -0.1865 -0.9598
  909MPD2     N13371   2.623   3.502  12.013 -0.4847  0.1166 -0.2758
  909MPD2    H513372   2.620   3.602  11.996  0.7393  0.0135 -1.0856
  909MPD2    N113373   2.889   3.467  11.615  0.0817 -0.7152  0.5341
  909MPD2    H713374   2.894   3.567  11.627  1.1413 -0.5987 -0.9006
  910MPD2     C13375   4.549   0.635  16.114 -0.1664 -0.6337 -0.5657
  910MPD2    C113376   4.426   0.574  16.115  0.1373  0.2480 -0.0162
  910MPD2    C213377   4.334   0.630  16.034  0.5872  0.4228  0.5975
  910MPD2    C313378   4.371   0.734  15.948  0.3740  0.3379 -0.5581
  910MPD2    C413379   4.496   0.793  15.948  0.6525 -0.2024  0.0632
  910MPD2    C513380   4.586   0.746  16.042  0.4189 -0.4983  0.3592
  910MPD2     H13381   4.238   0.580  16.030  0.5293  0.8318 -2.8418
  910MPD2    H113382   4.527   0.872  15.880  0.2870  0.2151  0.3836
  910MPD2    H213383   4.626   0.595  16.179  1.4192  2.4557 -0.5095
  910MPD2    H313384   4.686   0.788  16.042  0.4054 -0.4812  1.0659
  910MPD2     N13385   4.275   0.788  15.855 -0.6196 -0.0992  0.2161
  910MPD2    H513386   4.313   0.861  15.795 -1.7977 -0.3047 -0.7806
  910MPD2    N113387   4.391   0.463  16.200  0.2013  0.2074 -0.2754
  910MPD2    H713388   4.297   0.428  16.189 -0.2479  1.5961 -0.7615
  911MPD2     C13389   2.379   1.238  16.101 -0.0511  0.0577  0.1235
  911MPD2    C113390   2.401   1.238  16.237 -0.2741 -0.2240 -0.0666
  911MPD2    C213391   2.309   1.316  16.315 -0.0069 -1.0321 -0.2344
  911MPD2    C313392   2.234   1.410  16.253 -0.1149  0.0489  0.7349
  911MPD2    C413393   2.218   1.406  16.117  0.1248  0.5951 -0.3350
  911MPD2    C513394   2.293   1.322  16.042 -0.2224 -0.2914 -0.3871
  911MPD2     H13395   2.316   1.308  16.423  1.8395  1.3033 -0.1635
  911MPD2    H113396   2.145   1.467  16.064 -0.5657 -0.4326 -0.5761
  911MPD2    H213397   2.435   1.176  16.032 -0.4191 -0.4007  0.2402
  911MPD2    H313398   2.270   1.315  15.936 -0.8430  2.5025 -0.4313
  911MPD2     N13399   2.160   1.506  16.329  0.2476 -0.2601 -0.7490
  911MPD2    H513400   2.112   1.580  16.278 -0.0821 -0.5495 -0.8620
  911MPD2    N113401   2.511   1.172  16.291 -0.0932 -0.1988  0.0551
  911MPD2    H713402   2.557   1.107  16.228 -0.9668  0.8473 -1.6575
  912MPD2     C13403   1.751   1.471  16.033  0.4841  0.1320 -0.0486
  912MPD2    C113404   1.770   1.435  16.163 -0.0688  1.0548 -0.1044
  912MPD2    C213405   1.838   1.318  16.191 -0.5658 -0.0092  0.0611
  912MPD2    C313406   1.889   1.239  16.091  0.8302 -0.8757 -0.8174
  912MPD2    C413407   1.878   1.283  15.964  0.0261 -0.0384 -0.0583
  912MPD2    C513408   1.806   1.399  15.932  0.4267 -0.2429  0.5340
  912MPD2     H13409   1.862   1.283  16.291 -2.8167  1.2315  1.0345
  912MPD2    H113410   1.929   1.224  15.888 -1.2597 -0.5864 -0.4880
  912MPD2    H213411   1.684   1.554  16.015  0.6444  0.3458  0.3495
  912MPD2    H313412   1.780   1.434  15.833 -1.9998 -0.4425  1.0997
  912MPD2     N13413   1.974   1.128  16.135  0.2695 -0.6658  0.0507
  912MPD2    H513414   1.968   1.114  16.235 -1.0507  0.1574  0.0932
  912MPD2    N113415   1.721   1.515  16.265 -0.0658  0.2504 -0.5524
  912MPD2    H713416   1.703   1.613  16.246 -2.9172 -0.1397  0.1631
  913MPD2     C13417   2.611   1.696  11.200 -0.5438  0.2200  0.8738
  913MPD2    C113418   2.543   1.784  11.116  0.6403  1.1534  0.0738
  913MPD2    C213419   2.582   1.784  10.983  0.1206  0.3260  0.6481
  913MPD2    C313420   2.684   1.701  10.933  0.7138  0.1620  0.1193
  913MPD2    C413421   2.745   1.610  11.017  0.7714 -0.3120 -0.4523
  913MPD2    C513422   2.707   1.613  11.147 -0.7616 -0.0057 -0.9808
  913MPD2     H13423   2.528   1.861  10.930 -0.0083  0.2748  0.7064
  913MPD2    H113424   2.819   1.541  10.979  0.9121  0.5080 -1.6739
  913MPD2    H213425   2.596   1.689  11.307  1.7500  0.3728  1.2119
  913MPD2    H313426   2.760   1.546  11.214  0.7825  1.8385 -0.3678
  913MPD2     N13427   2.721   1.691  10.797 -0.1339  0.4526 -0.3783
  913MPD2    H513428   2.797   1.630  10.770 -1.4676 -1.5054  0.3209
  913MPD2    N113429   2.439   1.874  11.153  0.6284  0.2116  0.5216
  913MPD2    H713430   2.384   1.915  11.079  0.5122  0.3324  0.6744
  914MPD2     C13431   4.620   2.322  12.834 -0.5537 -0.3305 -0.9347
  914MPD2    C113432   4.712   2.428  12.829 -0.9541 -0.6308 -0.1745
  914MPD2    C213433   0.083   2.430  12.917  0.0415  0.7468 -0.4153
  914MPD2    C313434   0.101   2.323  13.000 -0.0317  0.4478 -0.2135
  914MPD2    C413435   0.019   2.210  12.999 -0.3206  0.3341 -0.1610
  914MPD2    C513436   4.646   2.214  12.918 -0.1171  0.5923 -0.0683
  914MPD2     H13437   0.139   2.522  12.930 -1.8211  2.0945 -1.8326
  914MPD2    H113438   0.033   2.119  13.056  0.6155  1.3823  1.2908
  914MPD2    H213439   4.536   2.321  12.766  0.3335  0.4802 -2.0536
  914MPD2    H313440   4.587   2.124  12.907 -0.9014  1.5338 -3.2719
  914MPD2     N13441   0.211   2.327  13.086  0.2016 -0.1255  0.0831
  914MPD2    H513442   0.257   2.417  13.084  0.5648 -0.3524 -1.7699
  914MPD2    N113443   4.680   2.542  12.747 -0.7596  0.0222  0.5060
  914MPD2    H713444   4.584   2.547  12.716 -1.0248 -0.4910  1.2252
  915MPD2     C13445   3.496   2.424  15.910 -0.6600  0.7032  0.4466
  915MPD2    C113446   3.379   2.476  15.860 -0.0276  0.6089  0.0750
  915MPD2    C213447   3.305   2.556  15.939 -0.2239  0.1674  0.3582
  915MPD2    C313448   3.338   2.585  16.068  0.4114  0.4718 -0.3151
  915MPD2    C413449   3.459   2.539  16.113  0.2000  0.3829  0.3068
  915MPD2    C513450   3.541   2.469  16.031 -0.2159  0.0135  0.3158
  915MPD2     H13451   3.204   2.575  15.908  0.2810  0.9233 -0.8178
  915MPD2    H113452   3.491   2.571  16.212 -0.2799  1.8040  0.0015
  915MPD2    H213453   3.554   2.346  15.863  1.4987  0.6263  3.2305
  915MPD2    H313454   3.632   2.433  16.078 -0.0267  0.6246  0.4145
  915MPD2     N13455   3.240   2.652  16.133  0.3318  0.0257  0.3690
  915MPD2    H513456   3.163   2.696  16.084 -1.4116 -1.6635  1.6385
  915MPD2    N113457   3.341   2.418  15.738 -0.2034  0.0365  0.0055
  915MPD2    H713458   3.376   2.324  15.720 -0.5257 -0.2225  0.7309
  916MPD2     C13459   1.541   0.933  15.873  0.4819 -0.0615 -0.1960
  916MPD2    C113460   1.619   0.898  15.981  0.4284  0.1634  0.8370
  916MPD2    C213461   1.704   0.785  15.965  0.0961  0.4339 -0.9380
  916MPD2    C313462   1.697   0.711  15.850 -0.0621 -0.9103 -0.1470
  916MPD2    C413463   1.600   0.736  15.750  0.3286  0.5144 -0.2629
  916MPD2    C513464   1.530   0.855  15.765  0.1197 -0.1261 -0.0175
  916MPD2     H13465   1.777   0.759  16.041  0.8935  5.2849 -0.0570
  916MPD2    H113466   1.593   0.666  15.668 -0.1302 -2.3051  2.2075
  916MPD2    H213467   1.474   1.018  15.876  0.1924 -0.3273  0.8906
  916MPD2    H313468   1.459   0.888  15.690  0.5348  0.2643 -0.2362
  916MPD2     N13469   1.802   0.620  15.831  0.0379 -0.0573 -0.0887
  916MPD2    H513470   1.870   0.597  15.903 -0.9669 -0.6867  0.6690
  916MPD2    N113471   1.599   0.976  16.097  0.2017  0.2988 -0.4839
  916MPD2    H713472   1.537   1.056  16.092 -1.3159 -0.8616 -0.0436
  917MPD2     C13473   1.436   2.716  11.437  0.6904  0.1524 -0.6293
  917MPD2    C113474   1.464   2.816  11.525 -0.0939  0.5201 -0.0587
  917MPD2    C213475   1.569   2.903  11.497 -0.1475 -0.6673 -0.0217
  917MPD2    C313476   1.647   2.891  11.384  0.1569 -0.3220 -0.2143
  917MPD2    C413477   1.622   2.780  11.299  0.6454 -0.4789  0.4982
  917MPD2    C513478   1.515   2.693  11.326 -0.2075 -0.5067  0.2651
  917MPD2     H13479   1.592   2.983  11.567  1.3274 -1.0785 -0.0196
  917MPD2    H113480   1.675   2.777  11.205  1.4995  1.5657  0.9326
  917MPD2    H213481   1.352   2.649  11.455  0.5174  0.0592 -1.7949
  917MPD2    H313482   1.498   2.609  11.260  0.8843 -2.0080  1.8657
  917MPD2     N13483   1.756   2.973  11.351  0.4219 -0.0140 -0.1235
  917MPD2    H513484   1.816   2.950  11.273 -1.2842  0.7217 -1.6453
  917MPD2    N113485   1.387   2.819  11.646  0.3301  1.2742  0.1766
  917MPD2    H713486   1.312   2.753  11.663  0.7081  0.4199 -1.5286
  918MPD2     C13487   1.404   3.527  12.313 -0.0474 -0.4614  0.6078
  918MPD2    C113488   1.487   3.434  12.368 -0.5868 -0.0768  0.2726
  918MPD2    C213489   1.462   3.297  12.334  0.7039  0.6683  0.7345
  918MPD2    C313490   1.351   3.268  12.255 -1.0660  0.1724 -0.5658
  918MPD2    C413491   1.263   3.363  12.212 -0.1402  0.4554  0.5417
  918MPD2    C513492   1.301   3.489  12.235  0.2551 -0.7852 -0.1075
  918MPD2     H13493   1.523   3.215  12.370 -1.3594 -1.8318 -1.4887
  918MPD2    H113494   1.171   3.349  12.158  1.1524 -0.3993 -1.4219
  918MPD2    H213495   1.413   3.635  12.324  2.0270 -0.6793  1.0899
  918MPD2    H313496   1.241   3.569  12.193  1.8946 -0.3983 -1.7344
  918MPD2     N13497   1.326   3.135  12.213 -0.8187  0.7420 -0.5053
  918MPD2    H513498   1.407   3.074  12.215 -0.9581  0.6191  1.7480
  918MPD2    N113499   1.593   3.469  12.457 -0.2454 -0.1736 -0.4557
  918MPD2    H713500   1.635   3.400  12.519 -0.6940  0.7917  0.9040
  919MPD2     C13501   2.300   1.435  11.548  0.0663  0.8033  0.0907
  919MPD2    C113502   2.391   1.333  11.565 -0.0434 -0.1468  0.1372
  919MPD2    C213503   2.472   1.291  11.463 -0.5832  0.1311  0.0956
  919MPD2    C313504   2.454   1.345  11.334  0.5692 -0.3909  0.0001
  919MPD2    C413505   2.352   1.435  11.313  0.0038  1.0634  0.2791
  919MPD2    C513506   2.283   1.483  11.423  0.6809  0.8625 -0.5794
  919MPD2     H13507   2.537   1.206  11.480 -0.5323  0.4100  1.3463
  919MPD2    H113508   2.324   1.478  11.217  2.5738 -1.4058 -1.5468
  919MPD2    H213509   2.234   1.483  11.619  1.5966  0.5559  1.6825
  919MPD2    H313510   2.196   1.544  11.398 -0.5736 -0.0137  1.6721
  919MPD2     N13511   2.531   1.301  11.223  0.6961 -0.3667 -0.4723
  919MPD2    H513512   2.496   1.337  11.135 -1.6230  0.8368  0.9315
  919MPD2    N113513   2.407   1.272  11.694 -0.1771  0.2007 -0.0672
  919MPD2    H713514   2.498   1.239  11.723 -0.6166  0.9560  2.1853
  920MPD2     C13515   2.468   1.527  10.411 -0.4402 -0.1829  0.4084
  920MPD2    C113516   2.436   1.572  10.531  0.1004  0.0127  0.3562
  920MPD2    C213517   2.478   1.503  10.636 -0.3010 -0.4987 -0.3283
  920MPD2    C313518   2.551   1.387  10.619 -0.4022  0.1766  0.2050
  920MPD2    C413519   2.590   1.345  10.493  0.0713 -0.0370 -0.4629
  920MPD2    C513520   2.555   1.426  10.393  0.0064  0.1967  0.0510
  920MPD2     H13521   2.457   1.544  10.734  0.5667 -0.3642 -0.1979
  920MPD2    H113522   2.656   1.262  10.475  0.4401 -0.5444  3.2276
  920MPD2    H213523   2.432   1.576  10.321  0.7305  0.2409  0.1721
  920MPD2    H313524   2.585   1.397  10.293  1.2769  2.8437 -0.3385
  920MPD2     N13525   2.584   1.310  10.743 -0.1855  0.3632  0.4396
  920MPD2    H513526   2.557   1.352  10.832 -0.4661 -0.4069  0.7151
  920MPD2    N113527   2.350   1.685  10.567 -0.5538  0.4581  0.4983
  920MPD2    H713528   2.348   1.705  10.666  2.5277  1.1204  0.4464
  921MPD2     C13529   3.452   1.102  16.760 -0.4334 -0.1613 -0.7528
  921MPD2    C113530   3.379   1.204  16.713  0.9059  1.0729  0.4102
  921MPD2    C213531   3.240   1.199  16.718  0.2387 -0.6734 -0.1617
  921MPD2    C313532   3.180   1.085  16.771 -0.3607 -0.3338 -0.6945
  921MPD2    C413533   3.260   0.988  16.830  0.5259  0.3314 -0.1329
  921MPD2    C513534   3.397   0.995  16.827 -0.7773 -0.2616 -0.1998
  921MPD2     H13535   3.171   1.274  16.682  3.4321  1.7336 -1.2446
  921MPD2    H113536   3.211   0.903  16.876  1.5299 -1.4575 -2.3959
  921MPD2    H213537   3.560   1.093  16.752 -0.3819  2.2184 -2.7494
  921MPD2    H313538   3.462   0.918  16.866 -0.4259 -0.1546 -0.5759
  921MPD2     N13539   3.051   1.046  16.737 -0.0818  0.1025  0.3864
  921MPD2    H513540   3.023   0.950  16.755  0.5120  0.2751  2.3246
  921MPD2    N113541   3.464   1.317  16.669 -0.1163 -0.0671 -0.4738
  921MPD2    H713542   3.563   1.299  16.654  0.4604  0.9260  2.2061
  922MPD2     C13543   4.109   4.183  17.069 -0.0152 -0.8364  0.0259
  922MPD2    C113544   4.063   4.242  17.186 -0.1579 -0.2232 -0.5260
  922MPD2    C213545   3.962   4.184  17.266 -0.3830 -0.1092 -0.6181
  922MPD2    C313546   3.913   4.052  17.235  0.5910 -0.5848  0.3236
  922MPD2    C413547   3.977   3.984  17.130 -0.5253  0.3260  0.8535
  922MPD2    C513548   4.066   4.054  17.051 -0.6850  0.3924 -0.1253
  922MPD2     H13549   3.917   4.234  17.351 -0.2109 -1.6650  0.3899
  922MPD2    H113550   3.953   3.880  17.110 -2.2754  0.3126  3.0053
  922MPD2    H213551   4.177   4.231  16.999  3.0478 -2.0290  2.2212
  922MPD2    H313552   4.111   3.986  16.979  1.4573  3.2803 -1.5237
  922MPD2     N13553   3.816   3.997  17.319  0.1391 -0.2311 -0.4684
  922MPD2    H513554   3.784   4.044  17.404  1.1250 -1.6130  0.6757
  922MPD2    N113555   4.105   4.367  17.233  0.3381  0.2278 -0.8044
  922MPD2    H713556   4.064   4.401  17.319  1.5302  0.8916 -0.4977
  923MPD2     C13557   0.669   0.859   8.919  0.3275  0.7317  0.0389
  923MPD2    C113558   0.617   0.929   9.027 -0.9408 -1.0631  0.2536
  923MPD2    C213559   0.658   0.898   9.156  0.1462  0.3843 -0.5107
  923MPD2    C313560   0.751   0.801   9.179 -0.0596  0.4010  0.1510
  923MPD2    C413561   0.792   0.721   9.077  0.1929 -0.0306  0.1283
  923MPD2    C513562   0.751   0.755   8.949  0.6187  0.0583 -0.5546
  923MPD2     H13563   0.622   0.954   9.241  0.3734  0.5337 -0.5121
  923MPD2    H113564   0.865   0.641   9.084  0.0428 -0.4625 -3.1305
  923MPD2    H213565   0.651   0.885   8.815 -1.1673  1.9045  0.5916
  923MPD2    H313566   0.785   0.690   8.870 -1.4206  0.7833 -2.0247
  923MPD2     N13567   0.811   0.773   9.304  0.1382  0.4809 -0.5491
  923MPD2    H513568   0.879   0.698   9.304  0.7241  1.0098 -1.0706
  923MPD2    N113569   0.524   1.035   9.000  0.1197  0.1480 -0.8852
  923MPD2    H713570   0.482   1.039   8.908 -2.6585  0.0732  0.3864
  924MPD2     C13571   0.386   3.809  15.590  0.4451  0.6458  0.1902
  924MPD2    C113572   0.354   3.853  15.714  0.7118 -0.3182  0.3885
  924MPD2    C213573   0.452   3.865  15.809  0.2810  0.0436 -0.0519
  924MPD2    C313574   0.583   3.876  15.770 -0.3656  0.4894 -1.0347
  924MPD2    C413575   0.623   3.857  15.644 -0.4348  0.3393  0.1625
  924MPD2    C513576   0.521   3.818  15.557 -0.0128 -0.5028 -0.4576
  924MPD2     H13577   0.428   3.879  15.914  0.7725 -1.2554  0.2423
  924MPD2    H113578   0.727   3.857  15.614  0.3735 -0.4632  2.9367
  924MPD2    H213579   0.317   3.772  15.515  0.0144  2.5865 -0.3834
  924MPD2    H313580   0.545   3.787  15.456  1.7367  0.1548 -0.2438
  924MPD2     N13581   0.673   3.918  15.874 -0.1935 -0.2226  0.1948
  924MPD2    H513582   0.642   3.944  15.967 -1.4610  0.9574 -0.5717
  924MPD2    N113583   0.220   3.851  15.763 -0.0905 -0.5094  0.0207
  924MPD2    H713584   0.210   3.860  15.864 -1.7145 -0.6658 -0.1367
  925MPD2     C13585   4.186   1.744  15.025 -0.0729  0.1414  0.7158
  925MPD2    C113586   4.099   1.840  14.970 -0.0602 -0.9368 -0.2058
  925MPD2    C213587   4.008   1.915  15.048 -0.2376 -0.2687 -0.4458
  925MPD2    C313588   4.010   1.888  15.185 -0.7149 -0.2704 -0.1590
  925MPD2    C413589   4.094   1.786  15.234  0.2116  0.3178  0.2500
  925MPD2    C513590   4.174   1.712  15.159  0.5028  0.6551  0.1015
  925MPD2     H13591   3.930   1.981  15.013 -1.2937 -0.8055  0.8737
  925MPD2    H113592   4.095   1.767  15.340  0.8172  1.0099  0.3713
  925MPD2    H213593   4.252   1.677  14.970 -0.4094  1.0977 -0.8329
  925MPD2    H313594   4.230   1.636  15.212 -3.3633 -1.2480  1.4091
  925MPD2     N13595   3.938   1.962  15.283 -0.8216 -0.3129  0.4075
  925MPD2    H513596   3.970   1.956  15.379  2.1582  2.5053 -0.4225
  925MPD2    N113597   4.104   1.853  14.831 -0.2226 -0.0573 -0.1327
  925MPD2    H713598   4.030   1.901  14.782  0.7980  0.0901 -1.5343
  926MPD2     C13599   2.880   0.267  13.782 -0.1650 -0.2169 -0.1741
  926MPD2    C113600   2.781   0.309  13.702  0.3383 -0.4513  0.3133
  926MPD2    C213601   2.814   0.397  13.597 -0.3659  0.4993  0.5305
  926MPD2    C313602   2.942   0.447  13.575 -0.6268 -0.0101 -0.1101
  926MPD2    C413603   3.036   0.409  13.665 -0.3541 -0.8312 -0.3639
  926MPD2    C513604   3.007   0.312  13.758  0.0051 -0.4154 -0.2493
  926MPD2     H13605   2.736   0.409  13.523 -0.0800  0.1288  0.1658
  926MPD2    H113606   3.140   0.437  13.650 -0.1772 -0.5446  1.3437
  926MPD2    H213607   2.875   0.204  13.870 -1.5170  1.4723  0.9460
  926MPD2    H313608   3.090   0.276  13.817  0.7814  1.9705  0.1103
  926MPD2     N13609   2.980   0.522  13.465  0.1912  0.2615  0.5277
  926MPD2    H513610   3.068   0.571  13.468 -0.1109  0.8930 -0.5927
  926MPD2    N113611   2.647   0.273  13.720  0.7077  0.1555  0.3146
  926MPD2    H713612   2.583   0.317  13.653 -0.2753 -0.3223  0.9336
  927MPD2     C13613   2.230   3.076  17.437 -0.3674 -0.6008 -0.8397
  927MPD2    C113614   2.306   2.977  17.473  0.0119 -0.6638  0.4638
  927MPD2    C213615   2.415   2.948  17.392 -0.2926  0.1661 -0.1532
  927MPD2    C313616   2.435   3.010  17.266  0.5568 -0.1694 -0.4129
  927MPD2    C413617   2.346   3.111  17.232 -0.3194  0.0387  0.0859
  927MPD2    C513618   2.240   3.141  17.317 -0.2626  0.4636  0.1776
  927MPD2     H13619   2.485   2.870  17.419 -0.2906 -0.4861 -2.0378
  927MPD2    H113620   2.360   3.162  17.137  1.3525 -1.5103 -0.5064
  927MPD2    H213621   2.151   3.111  17.503  1.1492 -3.3374  2.4288
  927MPD2    H313622   2.163   3.209  17.283 -1.8086 -1.4083 -0.0673
  927MPD2     N13623   2.532   2.974  17.169 -0.6502 -0.0019  0.2505
  927MPD2    H513624   2.528   3.026  17.082 -0.8757 -0.6982 -0.1503
  927MPD2    N113625   2.284   2.913  17.596  0.2092 -0.4840  0.0714
  927MPD2    H713626   2.204   2.950  17.645 -0.2549  0.2556 -1.2299
  928MPD2     C13627   0.071   1.428   1.224  0.2460  0.4041 -0.2776
  928MPD2    C113628   0.205   1.466   1.266  1.2671 -0.3148  0.8425
  928MPD2    C213629   0.312   1.423   1.184  0.1988 -0.3457  0.6997
  928MPD2    C313630   0.290   1.377   1.054 -0.3286 -0.1394  0.2233
  928MPD2    C413631   0.158   1.355   1.011  0.8075 -0.3883 -0.6408
  928MPD2    C513632   0.054   1.377   1.102 -0.0395  0.2635 -0.4829
  928MPD2     H13633   0.412   1.459   1.204 -0.3309  0.9290  1.0799
  928MPD2    H113634   0.129   1.317   0.914  1.5482 -0.6199 -0.7742
  928MPD2    H213635   4.724   1.451   1.284  1.7607  0.4431  1.8952
  928MPD2    H313636   4.696   1.349   1.066  0.7437 -1.9230 -0.9001
  928MPD2     N13637   0.411   1.351   0.976  0.5113  0.1588 -0.5843
  928MPD2    H513638   0.505   1.367   1.011  0.0801  1.6426 -0.0799
  928MPD2    N113639   0.221   1.551   1.378 -0.1362 -0.7534 -0.2014
  928MPD2    H713640   0.135   1.581   1.424 -0.0845 -0.6635 -0.1627
  929MPD2     C13641   0.812   0.650  10.577  0.0213 -0.6623  0.1906
  929MPD2    C113642   0.703   0.577  10.586  0.1062  0.0304  0.0034
  929MPD2    C213643   0.605   0.587  10.490  0.4227  0.3523 -0.0729
  929MPD2    C313644   0.606   0.690  10.399  0.0742  0.7317 -0.4294
  929MPD2    C413645   0.719   0.770  10.397 -0.4718  0.4079 -0.2758
  929MPD2    C513646   0.826   0.742  10.477  0.4451 -0.3960 -0.3140
  929MPD2     H13647   0.511   0.538  10.509  0.2461  0.6532 -0.1786
  929MPD2    H113648   0.730   0.858  10.335 -1.1168  0.9076  0.3237
  929MPD2    H213649   0.894   0.646  10.648 -0.4279 -0.4009  0.7322
  929MPD2    H313650   0.921   0.794  10.482 -0.0613  0.6212 -1.2371
  929MPD2     N13651   0.504   0.702  10.301  0.1277 -0.0811 -0.4611
  929MPD2    H513652   0.504   0.786  10.242  0.6064 -0.4446 -0.9803
  929MPD2    N113653   0.695   0.484  10.696  0.4145 -0.5873 -0.4668
  929MPD2    H713654   0.777   0.484  10.756 -1.8282  0.4827  2.6257
  930MPD2     C13655   2.570   2.658  13.922  0.3644 -0.7866  0.0359
  930MPD2    C113656   2.570   2.783  13.861  0.5909 -0.1153 -0.1015
  930MPD2    C213657   2.568   2.793  13.722 -0.0183  0.3508  0.2259
  930MPD2    C313658   2.574   2.677  13.646  0.2212  0.3838  0.1610
  930MPD2    C413659   2.579   2.560  13.713  0.1254  0.1489  0.0346
  930MPD2    C513660   2.576   2.544  13.847  0.8205 -0.3804  0.4050
  930MPD2     H13661   2.577   2.889  13.672  1.2121 -0.5832 -1.3367
  930MPD2    H113662   2.594   2.464  13.663 -0.6158 -0.3764  0.8277
  930MPD2    H213663   2.577   2.642  14.029  2.6422 -0.3018 -0.0267
  930MPD2    H313664   2.579   2.453  13.905  0.2223 -0.1189  0.8553
  930MPD2     N13665   2.576   2.690  13.509 -0.2441  0.6499  0.7386
  930MPD2    H513666   2.567   2.784  13.474 -1.2281  0.3870  0.2870
  930MPD2    N113667   2.578   2.900  13.934  0.8495 -0.6269  0.1024
  930MPD2    H713668   2.609   2.976  13.874 -1.7175  0.4170  0.1067
  931MPD2     C13669   2.765   2.650   0.361  0.2438 -0.1247 -0.4862
  931MPD2    C113670   2.650   2.592   0.400  0.0315  0.3570 -0.2533
  931MPD2    C213671   2.642   2.503   0.506  0.4253 -0.2529 -0.5352
  931MPD2    C313672   2.762   2.470   0.569  0.2845  0.8873  0.4290
  931MPD2    C413673   2.875   2.528   0.532 -0.3912 -0.0732 -0.5966
  931MPD2    C513674   2.880   2.612   0.428  0.2203  0.3149 -0.1010
  931MPD2     H13675   2.549   2.451   0.526 -0.1318  0.9385 -0.0805
  931MPD2    H113676   2.967   2.504   0.584 -0.6916 -0.9251 -0.4578
  931MPD2    H213677   2.765   2.722   0.280  0.0094  0.3851 -0.0340
  931MPD2    H313678   2.976   2.651   0.394  0.0424 -0.1285 -1.1272
  931MPD2     N13679   2.764   2.375   0.673  0.0729 -0.2889  0.5598
  931MPD2    H513680   2.853   2.362   0.720 -0.1540  0.2508  1.1358
  931MPD2    N113681   2.541   2.623   0.311  0.0763 -0.5152 -0.2710
  931MPD2    H713682   2.565   2.696   0.245 -0.4315  0.3971  0.5508
  932MPD2     C13683   4.447   0.839  11.814 -0.0076  0.0946 -0.2091
  932MPD2    C113684   4.510   0.935  11.876  0.4942 -0.2938  0.2258
  932MPD2    C213685   4.620   0.904  11.952  0.6305 -0.4339 -0.3862
  932MPD2    C313686   4.663   0.776  11.973 -0.3645  0.3351 -0.0915
  932MPD2    C413687   4.579   0.681  11.927 -0.8841  0.6080  0.1122
  932MPD2    C513688   4.470   0.710  11.843  0.3783 -0.0366 -0.6954
  932MPD2     H13689   4.684   0.980  11.995 -1.7492  0.0243  2.4139
  932MPD2    H113690   4.599   0.578  11.954 -1.7532 -0.3737 -2.8951
  932MPD2    H213691   4.363   0.864  11.751  1.0531 -0.1173 -1.6877
  932MPD2    H313692   4.409   0.635  11.794 -0.3658  0.8375 -1.1093
  932MPD2     N13693   0.044   0.747  12.040 -0.0055 -0.4757  0.3254
  932MPD2    H513694   0.057   0.648  12.059  0.0154 -0.6139 -0.4040
  932MPD2    N113695   4.486   1.072  11.864 -0.0816 -0.2310  0.3547
  932MPD2    H713696   4.546   1.131  11.922  0.7304 -1.2916  0.5994
  933MPD2     C13697   4.706   2.176   1.917 -0.0106  0.3802  0.2090
  933MPD2    C113698   4.681   2.068   1.839 -0.3043  0.7318 -0.1328
  933MPD2    C213699   4.546   2.035   1.806  0.2548 -0.3540 -0.0273
  933MPD2    C313700   4.447   2.131   1.821  0.1846 -0.4005  0.0258
  933MPD2    C413701   4.474   2.238   1.901  0.5969  0.1326  0.4274
  933MPD2    C513702   4.608   2.258   1.947  0.2210 -0.5660 -0.4286
  933MPD2     H13703   4.523   1.954   1.737 -0.2311 -0.1048 -0.1564
  933MPD2    H113704   4.405   2.317   1.928  0.5183 -0.0561  0.7878
  933MPD2    H213705   0.066   2.209   1.946 -0.1536 -0.4482  1.6371
  933MPD2    H313706   4.637   2.345   2.005  1.0776 -0.3077 -1.2471
  933MPD2     N13707   4.330   2.107   1.748  0.0147  0.0302 -0.0789
  933MPD2    H513708   4.332   2.025   1.688  0.2301  1.2470 -1.7248
  933MPD2    N113709   0.054   1.990   1.800 -0.6274  0.3074  0.5665
  933MPD2    H713710   0.146   2.017   1.836  1.0873 -0.1637 -3.4797
  934MPD2     C13711   1.094   3.961   1.691  1.0771 -0.3859 -0.2808
  934MPD2    C113712   1.185   3.876   1.640 -0.3344 -0.0216 -0.5671
  934MPD2    C213713   1.145   3.758   1.582  0.2327  0.1104  0.3490
  934MPD2    C313714   1.013   3.734   1.563  0.6913  0.5636 -0.2627
  934MPD2    C413715   0.922   3.823   1.618 -0.9148 -0.1868  0.5041
  934MPD2    C513716   0.963   3.929   1.696 -0.1467  0.4056 -0.1466
  934MPD2     H13717   1.227   3.691   1.561  0.0692  0.0390 -0.0621
  934MPD2    H113718   0.817   3.796   1.606 -0.7491 -0.6713  0.1486
  934MPD2    H213719   1.113   4.057   1.738 -0.9837  0.0224 -0.2891
  934MPD2    H313720   0.900   3.996   1.752 -0.4295  1.1038 -1.2875
  934MPD2     N13721   0.965   3.619   1.498 -0.1700 -0.3469  0.2637
  934MPD2    H513722   0.866   3.597   1.495 -0.2768  0.1262  0.3988
  934MPD2    N113723   1.326   3.888   1.664  0.7006  0.0273  0.5386
  934MPD2    H713724   1.381   3.821   1.611 -0.3674  1.4480 -2.3789
  935MPD2     C13725   1.035   2.685   1.664 -0.7038 -0.0972 -0.4894
  935MPD2    C113726   1.051   2.694   1.526 -0.0344 -0.0454 -0.2651
  935MPD2    C213727   1.016   2.805   1.460 -0.0539  0.2056  0.6751
  935MPD2    C313728   0.984   2.916   1.534  0.2687 -0.3534  0.8313
  935MPD2    C413729   0.980   2.918   1.671 -0.5063 -0.6455  0.3350
  935MPD2    C513730   1.003   2.794   1.733  0.1739  0.0568 -0.2385
  935MPD2     H13731   1.015   2.807   1.351  4.1196 -0.9884  0.6149
  935MPD2    H113732   0.952   3.004   1.731  1.1975 -0.8077  1.3862
  935MPD2    H213733   1.053   2.596   1.722 -0.0811  0.6268  0.4226
  935MPD2    H313734   0.978   2.782   1.838  0.9929 -1.4629 -0.2246
  935MPD2     N13735   0.957   3.042   1.468 -0.0716  0.3993  0.0873
  935MPD2    H513736   0.966   3.124   1.527  0.3588  0.4138  0.0022
  935MPD2    N113737   1.093   2.584   1.449  0.1715  0.1762  0.0047
  935MPD2    H713738   1.081   2.600   1.350  1.1985  0.6657 -0.0450
  936MPD2     C13739   4.394   0.032  12.547  0.4440  0.0772 -0.4877
  936MPD2    C113740   4.441   4.701  12.659  0.2512 -0.1271  0.0600
  936MPD2    C213741   4.563   0.005  12.723 -0.0082 -0.0929 -0.2243
  936MPD2    C313742   4.643   0.098  12.664 -0.5275 -0.1980  0.0883
  936MPD2    C413743   4.603   0.148  12.546 -0.2796 -0.2396 -0.3789
  936MPD2    C513744   4.477   0.117  12.490  0.1951  0.2412  0.2698
  936MPD2     H13745   4.579   4.689  12.815 -1.1872 -0.0025  0.0408
  936MPD2    H113746   4.651   0.234  12.501  0.6974  0.2262  1.5613
  936MPD2    H213747   4.298   0.015  12.500 -0.4101  1.1792  0.8471
  936MPD2    H313748   4.453   0.162  12.395  0.3096 -1.7930 -0.7246
  936MPD2     N13749   0.014   0.146  12.727 -0.4046  0.1233 -0.0819
  936MPD2    H513750   0.068   0.225  12.694 -0.4413 -0.1058 -0.6942
  936MPD2    N113751   4.356   4.615  12.740 -0.2220  0.2688 -0.8678
  936MPD2    H713752   4.396   4.581  12.827  0.5036  0.3863 -1.1558
  937MPD2     C13753   2.899   1.007  12.096  0.4491 -0.1483  0.0633
  937MPD2    C113754   2.838   1.055  11.984 -0.2802  0.0684  0.4834
  937MPD2    C213755   2.904   1.073  11.870 -0.2012  0.6857  0.2209
  937MPD2    C313756   3.040   1.069  11.866 -1.2965  0.4631 -0.0679
  937MPD2    C413757   3.105   1.012  11.973  0.2684  0.0115 -0.8327
  937MPD2    C513758   3.034   0.983  12.091 -0.1143 -0.7739 -0.3731
  937MPD2     H13759   2.844   1.084  11.781  0.1062 -0.2187 -0.1003
  937MPD2    H113760   3.211   0.991  11.972  0.0062 -1.3574 -0.7266
  937MPD2    H213761   2.853   0.985  12.192 -1.3953  0.5014 -0.6717
  937MPD2    H313762   3.091   0.933  12.169 -0.5568 -0.1172  0.3675
  937MPD2     N13763   3.120   1.097  11.753 -0.0296 -0.3167  0.0340
  937MPD2    H513764   3.217   1.069  11.745  0.2940  1.0034 -0.7441
  937MPD2    N113765   2.696   1.064  11.972  0.0663  0.4974 -0.4900
  937MPD2    H713766   2.656   1.098  11.886 -0.4383  0.9655 -0.0741
  938MPD2     C13767   0.447   2.980   0.300  0.2947 -0.5150 -0.1672
  938MPD2    C113768   0.528   3.026   0.403  0.3955  0.0648  0.2756
  938MPD2    C213769   0.566   2.934   0.504  0.0608  0.5228 -0.4990
  938MPD2    C313770   0.523   2.804   0.504 -0.3742  0.0414  0.9121
  938MPD2    C413771   0.444   2.755   0.398 -0.4106  0.2297  0.3066
  938MPD2    C513772   0.411   2.845   0.299 -0.3285 -0.1760  1.0442
  938MPD2     H13773   0.624   2.976   0.585  0.5442 -1.3313  0.1185
  938MPD2    H113774   0.410   2.653   0.387 -1.5381  0.8793 -2.1537
  938MPD2    H213775   0.401   3.042   0.224  0.9470  2.3238  1.7595
  938MPD2    H313776   0.341   2.811   0.224  2.1815  1.1926 -1.9134
  938MPD2     N13777   0.549   2.711   0.604 -0.4685  0.3141  0.5020
  938MPD2    H513778   0.500   2.622   0.603 -2.0515  1.1988 -1.7631
  938MPD2    N113779   0.552   3.163   0.417  0.5294  0.5539 -0.3759
  938MPD2    H713780   0.620   3.188   0.487  0.4095 -4.0710  1.4082
  939MPD2     C13781   1.709   3.898   0.940 -0.1248  0.3514  0.4236
  939MPD2    C113782   1.686   4.010   0.863 -0.0218 -0.0479  0.5153
  939MPD2    C213783   1.689   4.008   0.723  0.7175 -0.1968 -0.3632
  939MPD2    C313784   1.728   3.889   0.667 -0.1619 -0.9780  0.0676
  939MPD2    C413785   1.747   3.770   0.739  0.0223 -1.0213  0.1209
  939MPD2    C513786   1.742   3.777   0.879 -0.3430  0.5916 -0.0362
  939MPD2     H13787   1.683   4.096   0.660  0.0430  0.3513  0.4724
  939MPD2    H113788   1.765   3.672   0.697  0.7357 -0.6328 -0.4886
  939MPD2    H213789   1.724   3.916   1.046 -1.4671  2.3963  0.2806
  939MPD2    H313790   1.769   3.689   0.936 -4.4521  0.4671  1.7814
  939MPD2     N13791   1.744   3.879   0.530  0.2388 -0.8189  0.3664
  939MPD2    H513792   1.737   3.968   0.482  1.3916 -1.4023 -0.8747
  939MPD2    N113793   1.671   4.131   0.936  0.3576  0.5093 -0.1701
  939MPD2    H713794   1.646   4.123   1.034 -0.2836 -2.2206 -0.5831
  940MPD2     C13795   0.459   0.296  13.313  0.0938  0.3336 -0.2347
  940MPD2    C113796   0.441   0.156  13.312  0.6003  0.1616 -0.7417
  940MPD2    C213797   0.510   0.076  13.222  0.2185 -0.6610 -0.6941
  940MPD2    C313798   0.587   0.128  13.125 -0.8862 -1.3865  0.6763
  940MPD2    C413799   0.612   0.266  13.128  0.9852  0.1160  0.2364
  940MPD2    C513800   0.541   0.345  13.218 -0.1270  0.2930 -0.2228
  940MPD2     H13801   0.491   4.709  13.227  1.4832 -0.7890  1.0387
  940MPD2    H113802   0.676   0.310  13.052  0.5724  1.2372  0.5352
  940MPD2    H213803   0.410   0.365  13.381 -0.0583 -0.6239  0.6294
  940MPD2    H313804   0.568   0.449  13.210  1.0050  0.0564  0.5520
  940MPD2     N13805   0.653   0.053  13.019 -0.5887  0.3388  0.3570
  940MPD2    H513806   0.695   0.109  12.945  0.8725 -0.8695  0.2742
  940MPD2    N113807   0.348   0.101  13.405 -0.0270 -0.3855  0.1466
  940MPD2    H713808   0.329   0.002  13.392 -0.4491 -0.4090  0.9996
  941MPD2     C13809   4.609   3.855   9.909 -0.2479  0.1524 -0.0795
  941MPD2    C113810   4.643   3.862  10.044 -0.5860 -0.0904 -0.5218
  941MPD2    C213811   4.589   3.769  10.126 -0.6367  0.2865  0.2736
  941MPD2    C313812   4.505   3.664  10.083  0.1232  0.5930 -0.1825
  941MPD2    C413813   4.467   3.674   9.952 -0.9998 -0.2561  0.1479
  941MPD2    C513814   4.531   3.759   9.867  0.3507 -0.3353  0.5757
  941MPD2     H13815   4.615   3.780  10.231 -1.5242 -1.1325  0.6519
  941MPD2    H113816   4.391   3.610   9.908 -1.0808 -0.7611  1.0222
  941MPD2    H213817   4.635   3.931   9.835 -1.3427  0.6254  0.0222
  941MPD2    H313818   4.512   3.742   9.761  1.2253  2.0577  0.0457
  941MPD2     N13819   4.444   3.568  10.164  0.0678  0.5648  1.1311
  941MPD2    H513820   4.370   3.507  10.130 -2.0110  4.3638 -1.2249
  941MPD2    N113821   4.728   3.965  10.100 -0.0730  0.2094  0.2006
  941MPD2    H713822   4.736   3.965  10.201  1.0594  4.8240  0.0772
  942MPD2     C13823   4.115   0.348  10.005 -0.1179 -0.0234  0.2155
  942MPD2    C113824   4.109   0.346   9.863 -0.2701  0.1733 -0.1266
  942MPD2    C213825   4.157   0.453   9.793  0.1890 -0.4529  0.0668
  942MPD2    C313826   4.216   0.561   9.857  0.5782 -0.1028 -0.1925
  942MPD2    C413827   4.208   0.572   9.995 -0.3293  0.0351  0.1076
  942MPD2    C513828   4.157   0.466  10.066 -0.0624  0.0456  0.1514
  942MPD2     H13829   4.137   0.446   9.687  1.3461  0.4254 -0.2158
  942MPD2    H113830   4.244   0.656  10.052 -0.1306 -0.6437  0.9799
  942MPD2    H213831   4.087   0.272  10.077  1.2082  1.1951  2.0290
  942MPD2    H313832   4.141   0.461  10.173 -2.4278 -1.7110 -0.2860
  942MPD2     N13833   4.274   0.670   9.787 -0.2498 -0.6438 -0.8660
  942MPD2    H513834   4.317   0.745   9.841  0.7856 -1.4572 -0.5553
  942MPD2    N113835   4.048   0.246   9.787 -0.5458 -0.0290  0.3819
  942MPD2    H713836   4.021   0.260   9.690 -1.9274  0.5027  0.8488
  943MPD2     C13837   3.866   2.906  10.004  1.1123 -0.1435  0.2082
  943MPD2    C113838   3.750   2.890  10.081  0.0903 -0.3221  0.5247
  943MPD2    C213839   3.685   3.001  10.136  0.1638 -0.7043  0.1061
  943MPD2    C313840   3.742   3.130  10.117  0.5064 -0.1679 -0.1022
  943MPD2    C413841   3.856   3.143  10.046 -1.3477  0.6728  0.6260
  943MPD2    C513842   3.918   3.033   9.986  0.1504 -0.3842  0.6225
  943MPD2     H13843   3.585   2.987  10.176 -0.1275  1.6454  0.2366
  943MPD2    H113844   3.887   3.245  10.026  0.5306 -0.0850 -0.3379
  943MPD2    H213845   3.905   2.825   9.945 -0.0872 -0.6941  0.1706
  943MPD2    H313846   4.006   3.035   9.923 -0.8973  1.3435 -0.7844
  943MPD2     N13847   3.685   3.248  10.178  0.5412 -0.4817  0.2287
  943MPD2    H513848   3.742   3.331  10.169  1.2482 -0.8714  1.0550
  943MPD2    N113849   3.698   2.759  10.090 -0.4979  0.1149 -0.3676
  943MPD2    H713850   3.740   2.692  10.026  0.4336 -1.4928  1.9569
  944MPD2     C13851   2.828   3.475  11.109 -0.3359  0.5010  0.6833
  944MPD2    C113852   2.770   3.412  11.209 -0.2977  0.0846  0.0760
  944MPD2    C213853   2.705   3.482  11.313  0.1899 -0.5051  0.0380
  944MPD2    C313854   2.701   3.618  11.314  0.1389  0.8238  0.2105
  944MPD2    C413855   2.759   3.681  11.201  0.1852  0.0565 -0.0721
  944MPD2    C513856   2.821   3.609  11.103 -0.1748 -0.1774 -0.0139
  944MPD2     H13857   2.666   3.432  11.400 -1.6097 -0.8546 -0.9804
  944MPD2    H113858   2.743   3.786  11.183 -0.9850  0.0245  0.7978
  944MPD2    H213859   2.889   3.431  11.031  0.2819 -0.3112  1.6386
  944MPD2    H313860   2.852   3.663  11.015 -2.3399 -0.3404 -0.8717
  944MPD2     N13861   2.617   3.682  11.408 -0.3929  0.6228  1.1683
  944MPD2    H513862   2.567   3.629  11.479 -1.7112  0.6092  0.2421
  944MPD2    N113863   2.796   3.271  11.200 -0.3678  0.2858  0.3410
  944MPD2    H713864   2.829   3.238  11.110 -0.1775  1.5501 -0.0583
    1TMC1    C113865   1.339   0.079  16.038  0.1962 -0.0960 -1.1649
    1TMC1    C213866   1.355   0.033  15.909  0.1955 -0.4395 -0.3593
    1TMC1    C313867   1.456   4.676  15.897 -0.2631 -0.0176  0.1777
    1TMC1    C413868   1.413   0.040  16.147  0.7325  0.6688  0.4737
    1TMC1    C513869   1.511   4.686  16.127  0.2778 -0.1438 -0.2652
    1TMC1    C613870   1.538   4.641  16.002 -0.2180 -0.2041  0.5221
    1TMC1     C13871   1.235   0.175  16.058 -0.7606  0.8867  0.0287
    1TMC1     O13872   1.228   0.251  16.153  0.4166  0.2357 -0.0006
    1TMC1     H13873   1.303   0.071  15.822 -3.9968 -0.4575  2.1523
    1TMC1    H113874   1.390   0.076  16.247  0.2471  0.4749  0.4348
    1TMC1    H213875   1.619   4.570  15.988  0.1406  0.5013 -0.9873
    1TMC1    C713876   1.560   4.619  16.245 -0.2409 -0.3834 -0.6791
    1TMC1    C813877   1.480   4.624  15.762 -0.0064  0.6487  0.1852
    1TMC1    O113878   1.666   4.567  16.241  0.6913 -0.0406 -0.0872
    1TMC1    O213879   1.585   4.570  15.733  0.1837 -0.0919  0.0911
    1TMC1    O313880   1.445   4.553  16.275  0.2024 -0.2222 -0.0966
    1TMC1    H313881   1.362   4.605  16.269  1.9528  2.1325 -3.5939
    1TMC1    O513882   1.368   4.594  15.695 -0.2078 -0.6156 -0.3627
    1TMC1    H513883   1.284   4.613  15.742  0.7982  0.5554  0.9436
    2MPD2     C13884   0.831   0.431  15.874  0.2788 -0.1592  1.0623
    2MPD2    C113885   0.853   0.315  15.802 -0.3049 -0.4502 -0.1705
    2MPD2    C213886   0.963   0.234  15.823 -0.2904 -0.0200  0.0292
    2MPD2    C313887   1.034   0.259  15.938 -0.2493 -0.5487  0.5719
    2MPD2    C413888   1.002   0.366  16.026  0.0326 -0.3328 -0.0424
    2MPD2    C513889   0.896   0.449  15.996 -0.0041 -0.2308 -0.2852
    2MPD2     H13890   1.005   0.154  15.763 -1.6324  0.1368 -1.1168
    2MPD2    H113891   1.047   0.380  16.124 -0.7264 -0.2801  0.2950
    2MPD2    H213892   0.758   0.508  15.851 -0.1018 -0.0761  2.5150
    2MPD2    H313893   0.874   0.539  16.052 -2.6632 -1.9338  1.4048
    2MPD2     N13894   1.140   0.164  15.956  0.2762  0.4696  0.5286
    2MPD2    H513895   1.156   0.088  15.891 -1.4014  0.3082  0.3200
    2MPD2    N113896   0.761   0.287  15.703  0.3505  0.2674 -0.3423
    2MPD2    H713897   0.688   0.358  15.703  0.0051 -0.0896 -0.1539
    3TMC2    C113898   0.663   0.200  15.510 -0.5212 -0.8024  0.9068
    3TMC2    C213899   0.555   0.285  15.518  0.1708 -0.9515 -0.0189
    3TMC2    C313900   0.482   0.309  15.401  0.0757 -0.8599  0.0814
    3TMC2    C413901   0.695   0.131  15.387  0.4859 -0.9722  0.2593
    3TMC2    C513902   0.611   0.154  15.283 -0.4592 -0.2699  1.2737
    3TMC2    C613903   0.501   0.232  15.291 -0.6196  0.2925  0.6382
    3TMC2     C13904   0.771   0.194  15.611 -0.0974 -1.0100 -1.2539
    3TMC2     O13905   0.858   0.110  15.591  0.7351 -0.3981 -0.1722
    3TMC2     H13906   0.513   0.314  15.614  2.0854 -0.6180  0.7185
    3TMC2    H113907   0.782   0.067  15.377 -0.3810 -1.9529 -0.9152
    3TMC2    H213908   0.438   0.256  15.206  1.4138 -0.4396 -1.0463
    3TMC2    C713909   0.643   0.115  15.146  0.5702  0.2748 -0.7824
    3TMC2    C813910   0.391   0.417  15.394 -0.1787 -0.5267 -0.8557
    3TMC2    O113911   0.610   0.184  15.055 -0.1900 -0.4734  0.1011
    3TMC2    O213912   0.291   0.412  15.321  0.3788  0.1525 -0.4077
    3TMC2    O513913   0.406   0.506  15.493  0.0376  0.0130 -0.1867
    3TMC2    H513914   0.500   0.515  15.520 -0.1917 -1.4976  1.0764
    4TMC2    C113915   0.756   0.299  14.329 -0.0224  0.2122 -0.1279
    4TMC2    C213916   0.738   0.200  14.235 -0.1635  0.3376 -0.5784
    4TMC2    C313917   0.760   0.076  14.269  0.1230  0.2050 -0.1411
    4TMC2    C413918   0.770   0.273  14.459 -0.4428  0.4238 -0.0204
    4TMC2    C513919   0.794   0.148  14.496 -0.1581  0.0994 -0.0546
    4TMC2    C613920   0.793   0.041  14.404 -0.3549 -0.2713 -0.1288
    4TMC2     C13921   0.757   0.441  14.293 -1.2209  0.4475  0.0814
    4TMC2     O13922   0.817   0.519  14.370  0.6614  0.2066  0.0662
    4TMC2     H13923   0.731   0.224  14.129 -0.6360 -0.6353 -0.7742
    4TMC2    H113924   0.771   0.351  14.535  2.0297 -0.0353  0.4250
    4TMC2    H213925   0.817   4.677  14.424 -2.0414 -0.5321  0.5519
    4TMC2    C713926   0.792   0.120  14.638 -0.1852  0.0445 -0.3765
    4TMC2    C813927   0.728   4.705  14.186  0.6545  0.1560  0.1175
    4TMC2    O113928   0.767   0.215  14.712 -0.2294 -0.3753 -0.8302
    4TMC2    O213929   0.695   4.600  14.238  0.3465  0.0655 -0.4067
    4TMC2    O513930   0.825   4.704  14.094 -0.2060  0.1675 -0.0606
    4TMC2    H513931   0.851   0.050  14.053 -1.4962  0.5717 -0.0370
    5MPD2     C13932   0.572   0.854  14.048  0.2256 -0.1601 -0.0772
    5MPD2    C113933   0.554   0.748  13.964 -0.5083 -0.3244 -0.1057
    5MPD2    C213934   0.592   0.620  14.009 -0.0935  0.1539 -0.7086
    5MPD2    C313935   0.643   0.597  14.137 -0.4548 -0.4824  0.1997
    5MPD2    C413936   0.662   0.707  14.216  0.0483 -0.2069  0.2213
    5MPD2    C513937   0.629   0.831  14.166  0.2241  0.3878  0.1468
    5MPD2     H13938   0.568   0.527  13.960  0.4605 -0.5437  0.3494
    5MPD2    H113939   0.695   0.691  14.318 -0.6689  0.3045  0.5335
    5MPD2    H213940   0.548   0.953  14.011  0.5179  0.3203  1.0081
    5MPD2    H313941   0.648   0.916  14.230 -0.1331  0.9466 -0.4930
    5MPD2     N13942   0.675   0.467  14.184 -0.0292  0.1008 -0.0267
    5MPD2    H513943   0.647   0.389  14.126  0.6853  1.1480 -1.7716
    5MPD2    N113944   0.504   0.779  13.834  0.3751  0.1394 -0.3130
    5MPD2    H713945   0.491   0.879  13.819 -0.6021  0.0027 -0.3871
    6MPD1     C13946   3.876   1.929  13.159  0.4213 -0.2210  0.5048
    6MPD1    C113947   3.823   1.854  13.263 -0.4241  0.3415  0.0055
    6MPD1    C213948   3.904   1.755  13.322 -0.1016 -0.1352 -0.1314
    6MPD1    C313949   4.028   1.732  13.265  0.0411 -0.8123 -0.2299
    6MPD1    C413950   4.065   1.797  13.148  0.5952  0.1360 -0.2400
    6MPD1    C513951   3.990   1.893  13.091 -0.1482  0.5292  0.1648
    6MPD1     H13952   3.864   1.718  13.415 -0.0143 -0.3011 -0.1606
    6MPD1    H113953   4.156   1.758  13.102  0.9266 -0.6339  1.0586
    6MPD1    H213954   3.828   2.022  13.129 -2.2379 -1.3620  1.1550
    6MPD1    H313955   4.019   1.937  12.997 -1.2594  1.6642  0.3558
    6MPD1     N13956   4.130   1.646  13.312  0.2061  0.1888 -0.2416
    6MPD1    H513957   4.212   1.651  13.253 -0.5616  0.5809 -1.2738
    6MPD1    N113958   3.720   1.918  13.332 -0.2923 -0.3367  0.0793
    6MPD1    H613959   3.680   1.861  13.406 -0.6541  0.0881  0.2134
    6MPD1    H713960   3.645   1.950  13.272 -0.3186 -0.4721  0.0395
    7MPD2     C13961   4.373   0.870  13.589  0.2385 -1.0336  0.2650
    7MPD2    C113962   4.470   0.973  13.595  0.0340  0.9930  0.3620
    7MPD2    C213963   4.607   0.947  13.580 -0.8912 -0.6152 -0.3375
    7MPD2    C313964   4.645   0.820  13.544 -0.3319 -0.5541 -0.1476
    7MPD2    C413965   4.546   0.725  13.519 -0.2548 -0.1712  0.0362
    7MPD2    C513966   4.417   0.750  13.544 -0.1241 -0.2456  0.2117
    7MPD2     H13967   4.678   1.029  13.586  2.1458 -3.2984  0.2940
    7MPD2    H113968   4.566   0.629  13.473  0.8089 -0.8531  1.9068
    7MPD2    H213969   4.271   0.889  13.619 -0.4231 -2.5126 -1.0375
    7MPD2    H313970   4.345   0.674  13.514  1.5508 -0.9570 -2.0324
    7MPD2     N13971   0.045   0.808  13.512 -0.6961  0.0988 -0.1956
    7MPD2    H513972   0.103   0.889  13.528 -2.1680  0.8626  1.3310
    7MPD2    N113973   4.430   1.104  13.598 -0.0321 -0.4642 -0.2104
    7MPD2    H713974   4.492   1.184  13.609 -1.6933  0.9372 -1.0810
    8TMC3    C113975   0.244   0.713  13.463 -0.5883  0.9105  0.7947
    8TMC3    C213976   0.316   0.655  13.560 -0.1512  1.1178  0.2180
    8TMC3    C313977   0.419   0.733  13.613  0.0022  0.6404  0.1909
    8TMC3    C413978   0.268   0.841  13.414 -0.2954  0.5496 -0.4354
    8TMC3    C513979   0.362   0.914  13.477 -0.1371  0.0206 -0.1190
    8TMC3    C613980   0.441   0.864  13.573 -0.3847 -0.1063  0.5407
    8TMC3     C13981   0.102   0.689  13.482 -0.0484 -0.3583 -0.1002
    8TMC3     O13982   0.068   0.573  13.505 -0.6097 -0.2926 -0.3168
    8TMC3     H13983   0.294   0.559  13.605 -0.3042  1.7725  1.5408
    8TMC3    H113984   0.210   0.883  13.332  0.3712 -0.7243 -1.5555
    8TMC3    H213985   0.509   0.935  13.618  0.7573 -1.7853  1.4212
    8TMC3    C713986   0.301   1.034  13.513  0.4626 -0.2083  0.2738
    8TMC3    C813987   0.469   0.684  13.737 -0.9029  0.2414 -0.2025
    8TMC3    O113988   0.201   1.025  13.584  0.0641  0.5254 -0.2168
    8TMC3    O213989   0.454   0.564  13.759 -0.4399 -0.4507 -0.6117
    9TMC3    C113990   4.228   1.471  13.433 -0.4256 -0.1920 -0.4113
    9TMC3    C213991   4.351   1.529  13.427 -0.3437 -0.5606 -0.4839
    9TMC3    C313992   4.456   1.468  13.491 -0.4212  0.4864 -0.1907
    9TMC3    C413993   4.210   1.347  13.481 -0.3633 -0.3652 -0.1349
    9TMC3    C513994   4.313   1.292  13.555 -0.6041  0.2672 -0.8555
    9TMC3    C613995   4.435   1.352  13.567 -0.3863  0.1988  0.2374
    9TMC3     C13996   4.113   1.553  13.414  0.1300 -0.2976  0.6051
    9TMC3     O13997   4.020   1.522  13.488 -0.1412  0.0829 -0.4061
    9TMC3     H13998   4.367   1.632  13.399 -0.6075 -0.6092 -0.8227
    9TMC3    H113999   4.116   1.295  13.462 -1.1161  0.8411  0.2788
    9TMC3    H214000   4.505   1.315  13.642 -0.2393  2.2394  1.1180
    9TMC3    C714001   4.305   1.150  13.560 -1.1111 -0.1822 -0.6591
    9TMC3    C814002   4.586   1.497  13.433 -0.0600  0.1191 -0.1162
    9TMC3    O114003   4.219   1.091  13.497 -0.0091  0.0013 -0.4880
    9TMC3    O214004   4.593   1.578  13.341 -0.4682  0.1058 -0.1860
   10MPD2     C14005   0.329   1.341  13.330  0.2119  0.7246 -0.0955
   10MPD2    C114006   0.277   1.254  13.414  0.2817  0.1223 -0.6044
   10MPD2    C214007   0.152   1.282  13.477 -0.7339  0.7309 -0.5332
   10MPD2    C314008   0.079   1.395  13.437 -0.1308 -0.5042 -0.0161
   10MPD2    C414009   0.134   1.476  13.343  0.4561 -0.0059 -0.1255
   10MPD2    C514010   0.262   1.456  13.293 -0.5706  0.4914 -0.1180
   10MPD2     H14011   0.102   1.222  13.552  0.0848 -1.7016 -1.9275
   10MPD2    H114012   0.078   1.565  13.316  0.1302 -1.0202 -2.7949
   10MPD2    H214013   0.417   1.324  13.269  0.0265 -3.0996  0.7401
   10MPD2    H314014   0.301   1.532  13.227  1.6832 -0.3873  0.1853
   10MPD2     N14015   4.681   1.408  13.481  0.3112 -0.5728  0.7781
   10MPD2    H514016   4.649   1.340  13.549  0.2375  0.0450  1.3655
   10MPD2    N114017   0.348   1.135  13.432 -0.2435  0.0999 -0.4728
   10MPD2    H714018   0.424   1.125  13.366  1.5064  0.0997  1.5482
   11MPD2     C14019   0.836   4.553  15.041 -0.6224  0.6586 -0.1859
   11MPD2    C114020   0.783   4.682  15.029 -0.4392  0.4097 -0.7897
   11MPD2    C214021   0.778   0.007  14.909 -0.8615 -0.9260  0.4502
   11MPD2    C314022   0.820   4.673  14.794 -0.3932 -0.3241 -0.8052
   11MPD2    C414023   0.872   4.546  14.808  0.2781  0.1335  0.8556
   11MPD2    C514024   0.885   4.494  14.929  0.3184  0.4578 -0.1874
   11MPD2     H14025   0.756   0.113  14.901 -0.2881 -0.6920  2.0773
   11MPD2    H114026   0.900   4.481  14.726 -2.0714  1.6195 -1.1469
   11MPD2    H214027   0.844   4.499  15.135 -0.2094 -1.1696 -1.2767
   11MPD2    H314028   0.927   4.394  14.936  1.0678  0.5979 -2.5780
   11MPD2     N14029   0.835   4.731  14.668 -0.1313 -0.2987  0.6007
   11MPD2    H514030   0.873   4.670  14.596 -0.7538  1.2307 -1.0315
   11MPD2    N114031   0.714   4.736  15.142 -0.1446  0.1825 -0.5707
   11MPD2    H714032   0.731   4.688  15.230 -2.1354 -1.9965 -1.3693
    1MPD1     C14033   3.676   1.392  16.982  0.7868 -0.3288  0.4619
    1MPD1    C114034   3.802   1.341  16.955 -0.9737  0.2624  0.3905
    1MPD1    C214035   3.894   1.437  16.921 -0.4467  0.0098  0.4132
    1MPD1    C314036   3.869   1.571  16.928  0.3784  0.3692  0.6236
    1MPD1    C414037   3.743   1.616  16.955  0.5011 -0.2750  0.8920
    1MPD1    C514038   3.643   1.530  16.983 -0.2816  0.0736 -0.2924
    1MPD1     H14039   3.990   1.396  16.891  0.4899  1.1383  1.8806
    1MPD1    H114040   3.733   1.723  16.950  0.8597 -0.2864 -0.1168
    1MPD1    H214041   3.584   1.335  16.992 -1.4198  2.7367 -2.5531
    1MPD1    H314042   3.547   1.559  17.023 -0.5463 -1.7705  0.4373
    1MPD1     N14043   3.971   1.668  16.916 -0.8251  0.7578  0.0560
    1MPD1    H514044   3.933   1.761  16.923 -2.5209  0.1639 -1.3813
    1MPD1    N114045   3.820   1.206  16.965 -0.0342 -0.1134  0.0275
    1MPD1    H614046   3.759   1.160  17.033 -0.4260  0.9843  0.4220
    1MPD1    H714047   3.915   1.182  16.994 -1.1286  0.2519  3.9652
    2MPD1     C14048   4.038   2.543  16.585  0.1442  0.4717 -0.1538
    2MPD1    C114049   4.170   2.531  16.589  0.3350  0.0933  0.0739
    2MPD1    C214050   4.221   2.424  16.658 -0.5748  0.7366  0.2444
    2MPD1    C314051   4.135   2.323  16.700 -0.5228  0.3301  0.6272
    2MPD1    C414052   4.000   2.328  16.672 -0.4610 -0.2232  1.0396
    2MPD1    C514053   3.945   2.440  16.620  0.0465  0.6604 -0.9140
    2MPD1     H14054   4.326   2.427  16.685 -0.8846  1.1378  1.3970
    2MPD1    H114055   3.923   2.259  16.704 -0.2746 -0.8000  0.2355
    2MPD1    H214056   3.986   2.629  16.545 -1.4626  0.4008  1.7706
    2MPD1    H314057   3.838   2.457  16.608  0.1228  1.0935 -0.9544
    2MPD1     N14058   4.190   2.214  16.776  0.7511  0.8211 -0.3145
    2MPD1    H514059   4.291   2.203  16.782  0.6981  0.9707  0.9724
    2MPD1    N114060   4.258   2.646  16.570  0.5901  0.1850  0.1278
    2MPD1    H614061   4.352   2.621  16.542  0.8613  1.7956 -0.4170
    2MPD1    H714062   4.208   2.696  16.496 -1.0156 -0.6627  0.6366
    3TMC3    C114063   4.191   2.003  16.881 -0.0571 -0.4273  0.2864
    3TMC3    C214064   4.328   1.997  16.883  0.0952  1.0839 -0.2264
    3TMC3    C314065   4.395   1.879  16.880  0.1611  0.3061 -0.0354
    3TMC3    C414066   4.121   1.885  16.888  0.3054 -0.6477  0.0029
    3TMC3    C514067   4.189   1.768  16.900  0.5723 -0.0878  0.0712
    3TMC3    C614068   4.329   1.762  16.893  1.2651  0.0011 -0.3435
    3TMC3     C14069   4.113   2.113  16.832 -0.4330 -0.3607  0.8165
    3TMC3     O14070   3.991   2.102  16.836  0.2171 -0.5798 -0.8355
    3TMC3     H14071   4.386   2.085  16.908 -0.5196  1.4650 -0.1641
    3TMC3    H114072   4.013   1.884  16.897  0.2335  0.6279 -0.7183
    3TMC3    H214073   4.384   1.673  16.919 -2.3384 -2.2409 -0.4213
    3TMC3    C714074   4.110   1.641  16.907 -0.0892  0.2975 -0.1127
    3TMC3    C814075   4.539   1.876  16.868 -0.4945 -0.7449 -0.3377
    3TMC3    O114076   4.177   1.538  16.886 -0.2730 -0.1832 -0.2289
    3TMC3    O214077   4.592   1.971  16.917 -0.0151  0.2617 -0.1493
    4MPD1     C14078   0.246   1.691  16.705  0.0236 -0.1114  0.2115
    4MPD1    C114079   0.143   1.615  16.656 -0.4003  0.2117  0.3754
    4MPD1    C214080   0.014   1.638  16.699  0.4123 -0.2377  0.4894
    4MPD1    C314081   4.729   1.748  16.777  0.1543 -0.5570 -0.2490
    4MPD1    C414082   0.087   1.829  16.826 -0.0390 -0.5516 -0.8626
    4MPD1    C514083   0.213   1.796  16.786  0.1099  0.5237  0.1797
    4MPD1     H14084   4.682   1.576  16.647 -2.0998  2.7881  0.3458
    4MPD1    H114085   0.072   1.908  16.898 -3.1003 -0.5913 -1.4473
    4MPD1    H214086   0.348   1.690  16.670  0.8878  0.1168  2.7289
    4MPD1    H314087   0.295   1.861  16.814  1.3747 -1.8423  1.9717
    4MPD1     N14088   4.588   1.763  16.810  0.1639  0.0196  0.0511
    4MPD1    H514089   4.524   1.692  16.777  2.3560 -1.5458 -0.8123
    4MPD1    N114090   0.160   1.540  16.539  0.7240 -0.0659  0.0785
    4MPD1    H614091   0.107   1.454  16.522  1.8783 -0.7727  0.0228
    4MPD1    H714092   0.255   1.505  16.534  0.8609  0.3708 -0.2997
    1TCq1    O114093   0.481   4.684  12.414 -0.5385  0.3345 -0.6434
    1TCq1    C114094   0.457   4.736  12.532 -0.0366  0.8209 -0.2641
    1TCq1    O214095   0.451   4.673  12.637 -0.1523 -0.1393 -0.2070
    1TCq1    C214096   0.486   0.140  12.536  0.6296 -0.3821 -0.2246
    1TCq1    C314097   0.558   0.174  12.644 -0.9405  0.2748 -0.0694
    1TCq1    C414098   0.605   0.303  12.655  0.4969  0.1685  0.2121
    1TCq1    C514099   0.602   0.379  12.545 -0.1622 -0.5724  0.2926
    1TCq1    C614100   0.524   0.338  12.433 -0.4718  0.1393 -0.7837
    1TCq1    C714101   0.460   0.218  12.429  0.1484  0.9184  0.0062
    1TCq1    C814102   0.514   0.431  12.326 -0.3303 -0.5983 -0.1746
    1TCq1    O414103   0.540   0.548  12.352 -0.2874  0.3977  0.2619
    1TCq1    C914104   0.712   0.331  12.746  0.3638  0.1239  0.5134
    1TCq1    O514105   0.738   0.243  12.829 -0.6319 -0.4408 -0.1705
    1TCq1    O614106   0.798   0.420  12.707 -0.1691  0.3144  0.1838
    1TCq1    H114107   0.478   0.005  12.337  0.2857 -1.5829 -2.1894
    1TCq1    H214108   0.568   0.115  12.735 -2.9086 -1.2431 -0.8315
    1TCq1    H314109   0.666   0.466  12.533 -1.5132  0.3722  0.0216
    1TCq1    H414110   0.391   0.192  12.350 -0.4132 -0.1965  0.8572
    2MPD1     C14111   0.406   0.545  11.846  0.6168 -0.4181  0.0563
    2MPD1    C114112   0.396   0.410  11.850  0.0766  0.1017  0.1556
    2MPD1    C214113   0.414   0.350  11.977 -0.1441 -0.4948  0.2270
    2MPD1    C314114   0.444   0.424  12.085 -0.2085  0.1822  0.1112
    2MPD1    C414115   0.460   0.561  12.074 -0.2188  0.3226  0.8134
    2MPD1    C514116   0.440   0.621  11.951  0.1051  0.6003  0.9281
    2MPD1     H14117   0.431   0.243  11.974  1.3300 -0.2846  1.2476
    2MPD1    H114118   0.513   0.627  12.142 -1.0197 -0.9967  2.7287
    2MPD1    H214119   0.393   0.589  11.748 -0.8801 -0.2748  0.3124
    2MPD1    H314120   0.457   0.728  11.939 -0.6842  0.6872  0.6150
    2MPD1     N14121   0.487   0.362  12.205  0.9247  1.5044 -0.3278
    2MPD1    H514122   0.488   0.261  12.205  1.6203  1.5020  1.6723
    2MPD1    N114123   0.356   0.329  11.742 -0.0093  0.0239  0.8386
    2MPD1    H614124   0.381   0.364  11.650 -1.3715 -2.7560 -0.6044
    2MPD1    H714125   0.396   0.236  11.755  1.0371  0.4962  1.0197
    1TMC1    C114126   1.890   1.182   1.059  0.1892 -0.4891 -0.2578
    1TMC1    C214127   1.792   1.164   0.963  0.0928  0.1360 -0.6858
    1TMC1    C314128   1.831   1.144   0.833  0.4332 -0.0724 -1.2325
    1TMC1    C414129   2.023   1.183   1.022 -0.5838 -0.4946 -0.1481
    1TMC1    C514130   2.058   1.145   0.897  0.2292 -1.0757 -0.5642
    1TMC1    C614131   1.962   1.130   0.792 -0.6029  0.7596 -0.2386
    1TMC1     C14132   1.847   1.237   1.184 -0.4881 -0.4648 -0.0300
    1TMC1     O14133   1.736   1.203   1.223  0.0033 -0.2841 -0.1680
    1TMC1     H14134   1.689   1.184   0.988  0.0353 -1.3635  0.2869
    1TMC1    H114135   2.101   1.199   1.095 -1.9789 -0.9268  1.4407
    1TMC1    H214136   1.991   1.092   0.694 -0.7179 -1.3896  0.5615
    1TMC1    C714137   2.198   1.105   0.883  0.3427  0.4710  0.2118
    1TMC1    C814138   1.744   1.214   0.738 -0.1026  0.3411 -0.3763
    1TMC1    O114139   2.259   1.065   0.983  0.1394 -0.2939  0.5923
    1TMC1    O214140   1.673   1.316   0.756  0.1109  0.2933  0.3943
    1TMC1    O314141   2.235   1.066   0.759  0.6888 -0.5655  0.1457
    1TMC1    H314142   2.172   1.089   0.688 -0.0393 -1.6019  0.4433
    1TMC1    O514143   1.790   1.175   0.620  0.0481 -0.1450 -0.4247
    1TMC1    H514144   1.832   1.087   0.612  0.3703 -0.1351  1.3092
    2MPD1     C14145   1.960   1.550   1.575  0.1211  0.1343  0.4379
    2MPD1    C114146   2.065   1.543   1.482 -0.4528 -0.6643  0.3099
    2MPD1    C214147   2.048   1.467   1.369  0.6910 -0.7609  0.3875
    2MPD1    C314148   1.936   1.402   1.339  0.1695  0.4382  0.6117
    2MPD1    C414149   1.829   1.424   1.418  0.2642 -0.4442  0.3922
    2MPD1    C514150   1.847   1.494   1.532 -0.1709 -0.5104  0.7666
    2MPD1     H14151   2.132   1.456   1.302  1.1977  1.0868  0.7065
    2MPD1    H114152   1.734   1.374   1.399 -0.9627  1.9836  0.0402
    2MPD1    H214153   1.967   1.600   1.671 -0.4534 -1.0578  1.1049
    2MPD1    H314154   1.767   1.490   1.604 -0.5704 -2.8571  0.1697
    2MPD1     N14155   1.941   1.324   1.229 -0.1692 -0.4737  0.6682
    2MPD1    H514156   2.014   1.335   1.160  0.2269  0.1434  1.1788
    2MPD1    N114157   2.180   1.610   1.513  0.0474 -0.2475 -0.1111
    2MPD1    H614158   2.261   1.575   1.462 -1.0728  0.4101 -2.3574
    2MPD1    H714159   2.200   1.606   1.613 -0.4857  0.1806  0.0097
    1MPD1     C14160   1.821   4.587  12.511 -0.4488  0.1852  0.3697
    1MPD1    C114161   1.743   4.702  12.488  0.1366  0.3103  0.4320
    1MPD1    C214162   1.796   0.056  12.395 -0.2206  0.0142  0.4634
    1MPD1    C314163   1.911   0.034  12.322 -0.2040 -0.1324  0.3688
    1MPD1    C414164   1.961   4.644  12.330  0.6038  0.0090 -0.3053
    1MPD1    C514165   1.928   4.559  12.431 -0.4993  0.8806 -0.1586
    1MPD1     H14166   1.756   0.157  12.390 -1.2368 -0.3468  1.2390
    1MPD1    H114167   2.052   4.614  12.279 -0.2854 -1.5163 -0.9893
    1MPD1    H214168   1.790   4.520  12.590  0.9045  0.1494  0.8637
    1MPD1    H314169   1.988   4.470  12.447 -1.4785 -0.1948 -2.5336
    1MPD1     N14170   1.972   0.139  12.253 -0.0748 -0.8382 -0.0285
    1MPD1    H514171   1.938   0.235  12.248 -0.5519 -1.0095 -0.0615
    1MPD1    N114172   1.638   0.011  12.575  0.4157 -0.0686  0.2186
    1MPD1    H614173   1.577   0.078  12.528 -0.0419  1.0748  2.4468
    1MPD1    H714174   1.586   4.668  12.605 -0.8127  1.0754  1.2824
    2MPD1     C14175   1.103   1.255  11.646 -0.4083 -0.4357  0.1801
    2MPD1    C114176   1.066   1.167  11.549 -1.0963 -0.5856  0.3624
    2MPD1    C214177   1.121   1.187  11.422 -0.1375  0.0078  0.0086
    2MPD1    C314178   1.226   1.278  11.400 -0.1757  0.0437  0.1292
    2MPD1    C414179   1.272   1.351  11.506  0.1075  0.1012  0.3895
    2MPD1    C514180   1.203   1.347  11.626 -0.7890  0.5897  0.0283
    2MPD1     H14181   1.078   1.133  11.338  2.9853  1.6427 -2.6621
    2MPD1    H114182   1.355   1.419  11.495 -2.0489  2.5707 -0.8554
    2MPD1    H214183   1.055   1.263  11.743  4.6438  0.5634  2.5916
    2MPD1    H314184   1.228   1.415  11.706  5.3667  0.8783 -2.1298
    2MPD1     N14185   1.291   1.302  11.280  0.5123  0.4496  0.1876
    2MPD1    H514186   1.340   1.390  11.280 -0.7423  1.1540  0.4539
    2MPD1    N114187   0.958   1.080  11.556 -0.5595  0.0213  0.1252
    2MPD1    H614188   0.968   1.026  11.642  0.4092 -0.0972 -0.0596
    2MPD1    H714189   0.962   1.011  11.482  2.4289  1.6091 -1.1888
    3MPD1     C14190   1.443   0.727  10.458  0.5925 -0.2244 -0.1294
    3MPD1    C114191   1.318   0.782  10.467 -0.1390  0.4077  0.0534
    3MPD1    C214192   1.296   0.893  10.546 -0.0300 -0.8331 -0.1447
    3MPD1    C314193   1.402   0.957  10.608  0.4770  0.0362 -0.0344
    3MPD1    C414194   1.529   0.909  10.590  0.4328 -0.6904  0.6443
    3MPD1    C514195   1.541   0.792  10.517  0.0797 -0.4631 -0.0649
    3MPD1     H14196   1.198   0.933  10.571  0.2947 -0.3101  0.2876
    3MPD1    H114197   1.621   0.935  10.641  1.2311 -1.0993 -0.5966
    3MPD1    H214198   1.463   0.637  10.401 -0.3871  1.0140 -2.4235
    3MPD1    H314199   1.636   0.742  10.521  1.9620  3.2825  2.8471
    3MPD1     N14200   1.385   1.078  10.686 -0.1188 -0.6896  0.7372
    3MPD1    H514201   1.287   1.099  10.702  0.3256  1.8313  0.1239
    3MPD1    N114202   1.204   0.717  10.422 -0.2725  0.2770 -0.8535
    3MPD1    H614203   1.231   0.650  10.350  0.1789 -2.1136  1.5331
    3MPD1    H714204   1.145   0.785  10.376 -1.8435  1.5014  2.9460
    4MPD2     C14205   2.073   0.860  12.091  0.1843 -0.2383 -0.2763
    4MPD2    C114206   2.159   0.776  12.024  0.1721  0.0402 -0.1189
    4MPD2    C214207   2.185   0.807  11.891  0.2760  0.8341 -0.5002
    4MPD2    C314208   2.136   0.919  11.824  0.0200 -0.4082  0.8536
    4MPD2    C414209   2.046   0.996  11.897  0.0354  0.4395 -0.0745
    4MPD2    C514210   2.023   0.970  12.028 -0.0278 -0.0721 -0.5167
    4MPD2     H14211   2.243   0.742  11.826 -3.7666 -3.1474 -0.1277
    4MPD2    H114212   2.010   1.087  11.851  0.6567  0.7528  0.0561
    4MPD2    H214213   2.037   0.844  12.192 -1.9399 -0.2347 -1.0282
    4MPD2    H314214   1.961   1.045  12.076  0.7989  0.7511 -0.7300
    4MPD2     N14215   2.175   0.970  11.696  0.4781 -0.0575  0.2707
    4MPD2    H514216   2.122   1.047  11.658 -1.2378 -0.5255  1.7172
    4MPD2    N114217   2.197   0.646  12.058 -0.5582 -0.0685 -0.2788
    4MPD2    H714218   2.255   0.610  11.983  0.0986  2.3664 -0.9567
    5TMC3    C114219   2.222   0.443  12.156  0.2024  0.3297  0.0884
    5TMC3    C214220   2.138   0.341  12.187 -0.2081  0.2064 -0.5201
    5TMC3    C314221   2.132   0.235  12.103 -0.5210 -0.0557  0.5896
    5TMC3    C414222   2.306   0.441  12.049 -0.5363  0.1539  0.2473
    5TMC3    C514223   2.276   0.343  11.955 -0.2814 -0.2355 -0.0272
    5TMC3    C614224   2.190   0.244  11.979  0.1010 -0.1023  0.3402
    5TMC3     C14225   2.163   0.572  12.168  0.0394 -0.5198  0.3577
    5TMC3     O14226   2.075   0.599  12.248 -0.1821  0.0227  0.5092
    5TMC3     H14227   2.090   0.350  12.284  0.1243 -1.7996 -0.1614
    5TMC3    H114228   2.395   0.502  12.042  0.9671 -1.6999  3.4224
    5TMC3    H214229   2.163   0.173  11.901 -0.4617 -0.0117  0.4545
    5TMC3    C714230   2.302   0.397  11.816  0.0582  0.6545 -0.7444
    5TMC3    C814231   2.067   0.113  12.153 -0.6582 -0.2171  0.8462
    5TMC3    O114232   2.343   0.510  11.803  0.0999  0.4110 -0.6533
    5TMC3    O214233   2.113   0.006  12.110  0.5444 -0.7270 -0.5011
    6TMC3    C114234   1.363   1.277  11.057  0.2039 -0.2482  0.5982
    6TMC3    C214235   1.353   1.218  10.936 -0.3455  0.3244 -0.3063
    6TMC3    C314236   1.445   1.255  10.841 -0.4493  1.5189  0.8490
    6TMC3    C414237   1.460   1.371  11.088  0.1575  0.0920  0.2280
    6TMC3    C514238   1.554   1.402  10.991  0.2159 -0.7162 -0.6341
    6TMC3    C614239   1.541   1.355  10.865  0.0173 -0.1538 -0.1264
    6TMC3     C14240   1.299   1.217  11.169 -0.0064 -0.2174  0.0522
    6TMC3     O14241   1.238   1.116  11.150  0.6115 -0.1465  0.4865
    6TMC3     H14242   1.289   1.131  10.930  1.7433 -1.0580 -2.2427
    6TMC3    H114243   1.479   1.395  11.192 -1.9602  0.3053  0.5609
    6TMC3    H214244   1.617   1.375  10.790 -0.4650 -1.2768 -0.9152
    6TMC3    C714245   1.695   1.396  11.040  0.3341 -0.0822  0.5262
    6TMC3    C814246   1.490   1.156  10.744 -0.0598 -0.0995  0.0379
    6TMC3    O114247   1.698   1.344  11.152 -0.5296 -0.1387 -0.0688
    6TMC3    O214248   1.607   1.150  10.714 -0.4715  0.0563  0.7080
    7MPD2     C14249   2.165   0.467  11.330  0.7518 -0.0596 -0.3290
    7MPD2    C114250   2.263   0.531  11.405 -0.1640  0.3102 -0.4793
    7MPD2    C214251   2.289   0.484  11.535 -0.0441  0.2995 -0.4310
    7MPD2    C314252   2.229   0.366  11.580 -0.2036 -0.3360  0.0686
    7MPD2    C414253   2.136   0.300  11.498 -0.6694 -0.2992  0.8471
    7MPD2    C514254   2.101   0.357  11.379 -0.7948  0.3185  0.0062
    7MPD2     H14255   2.358   0.544  11.594  1.5800  0.1655 -2.2225
    7MPD2    H114256   2.074   0.226  11.546  0.9970 -1.2865  1.4625
    7MPD2    H214257   2.140   0.499  11.230  0.2576 -1.6636 -0.7197
    7MPD2    H314258   2.022   0.318  11.316  1.3408 -1.6338 -1.4899
    7MPD2     N14259   2.249   0.318  11.711 -0.7798  0.1278  0.2575
    7MPD2    H514260   2.191   0.238  11.733  0.1807 -0.6081  0.0974
    7MPD2    N114261   2.332   0.644  11.366  0.1293  0.2825  0.1382
    7MPD2    H714262   2.406   0.677  11.427  1.1249 -1.8291  0.0530
    8TMC3    C114263   2.350   0.860  11.283  0.8443 -0.3907  0.6664
    8TMC3    C214264   2.249   0.938  11.224 -0.2748  0.1365  0.5941
    8TMC3    C314265   2.168   1.016  11.305 -0.1333  0.1071  0.0227
    8TMC3    C414266   2.369   0.883  11.414 -0.0960 -0.1357 -0.1175
    8TMC3    C514267   2.285   0.953  11.490  0.1555 -0.4116  0.4211
    8TMC3    C614268   2.176   1.025  11.440  0.0556  0.0458 -1.0266
    8TMC3     C14269   2.302   0.727  11.257 -0.7876  0.1985  0.7821
    8TMC3     O14270   2.222   0.715  11.167 -1.2759  0.0824  0.4516
    8TMC3     H14271   2.218   0.916  11.122 -0.3616  1.9650  0.2230
    8TMC3    H114272   2.455   0.849  11.470 -0.3024  0.6623  0.6907
    8TMC3    H214273   2.123   1.104  11.492 -0.3366 -1.1746  0.4257
    8TMC3    C714274   2.281   0.907  11.627 -0.4533  0.5593 -0.2038
    8TMC3    C814275   2.118   1.134  11.242  1.1702 -0.1678  0.4354
    8TMC3    O114276   2.371   0.842  11.675  0.4833 -0.0605 -0.0365
    8TMC3    O214277   2.045   1.211  11.311 -0.0186 -0.0164 -0.2374
    9MPD2     C14278   2.169   1.273  10.912  0.2627 -0.5875  0.0446
    9MPD2    C114279   2.098   1.245  11.029 -0.2839  0.1352 -0.5844
    9MPD2    C214280   1.974   1.293  11.041  0.3393  0.6473 -0.5454
    9MPD2    C314281   1.921   1.379  10.953  0.0468 -0.7008 -0.1664
    9MPD2    C414282   1.997   1.420  10.852 -0.4890 -0.0009 -0.3442
    9MPD2    C514283   2.116   1.367  10.822 -0.4185  0.1028 -0.3847
    9MPD2     H14284   1.915   1.249  11.121 -0.6549 -1.2445 -2.3445
    9MPD2    H114285   1.942   1.465  10.770 -0.7113 -0.7969 -0.6270
    9MPD2    H214286   2.269   1.236  10.892 -0.2868 -1.5952 -0.8113
    9MPD2    H314287   2.157   1.369  10.721 -1.8226 -1.2571 -0.9881
    9MPD2     N14288   1.794   1.422  10.954 -0.5423 -0.0656  0.1015
    9MPD2    H514289   1.767   1.476  10.872 -1.8805 -1.0125 -0.0657
    9MPD2    N114290   2.158   1.158  11.114  0.0015  0.1868  0.3455
    9MPD2    H714291   2.240   1.111  11.078 -0.1005 -0.2582  0.7014
    1MPD1     C14292   1.631   1.339  16.762 -1.0864 -0.6476  0.3110
    1MPD1    C114293   1.702   1.229  16.788  0.6731 -0.2673 -0.5666
    1MPD1    C214294   1.652   1.137  16.873 -0.5371 -0.5275 -0.2600
    1MPD1    C314295   1.519   1.144  16.918 -0.1068  0.0334  0.7707
    1MPD1    C414296   1.443   1.253  16.883  0.1235 -0.2396  0.5879
    1MPD1    C514297   1.499   1.353  16.807  0.4564  0.8920 -0.0036
    1MPD1     H14298   1.712   1.049  16.892  0.0644 -0.2262 -0.8086
    1MPD1    H114299   1.340   1.255  16.919 -0.7031 -0.9101 -1.7330
    1MPD1    H214300   1.666   1.412  16.689 -2.8648  1.5962  1.7206
    1MPD1    H314301   1.439   1.440  16.781 -1.0065  0.0054  0.4169
    1MPD1     N14302   1.461   1.039  16.995  0.2029 -0.2241 -0.1993
    1MPD1    H514303   1.361   1.056  17.005 -0.1787 -0.4652 -3.6879
    1MPD1    N114304   1.831   1.219  16.742  0.1170  0.2332 -0.3282
    1MPD1    H614305   1.843   1.277  16.658 -1.4150  0.6564 -0.2462
    1MPD1    H714306   1.844   1.120  16.721 -2.5554 -0.3857  0.9544
    2TMC2    C114307   1.402   0.580  17.086 -0.7217  0.2525 -0.1033
    2TMC2    C214308   1.266   0.595  17.085 -0.3405 -0.5887 -0.2624
    2TMC2    C314309   1.219   0.724  17.087 -0.0631  0.6986  0.6686
    2TMC2    C414310   1.489   0.689  17.082  0.0126  0.0272 -0.4230
    2TMC2    C514311   1.431   0.812  17.074  0.0742 -0.3140  0.4612
    2TMC2    C614312   1.295   0.834  17.076  0.0911  0.1107 -0.3490
    2TMC2     C14313   1.452   0.445  17.067 -0.4276 -0.6170  0.4399
    2TMC2     O14314   1.368   0.356  17.085 -0.2806 -0.0408  0.3783
    2TMC2     H14315   1.196   0.513  17.094 -2.1527  0.8066 -1.6719
    2TMC2    H114316   1.596   0.674  17.086  0.2080  1.6799  0.1054
    2TMC2    H214317   1.252   0.933  17.071 -1.9273 -0.8616 -2.5371
    2TMC2    C714318   1.527   0.919  17.034  0.2168  0.3741  0.6066
    2TMC2    C814319   1.083   0.751  17.134  0.6181  0.1186  0.4583
    2TMC2    O114320   1.643   0.883  17.017  0.3035 -0.2556  0.1120
    2TMC2    O214321   1.060   0.857  17.187  0.1679 -0.7055 -0.2001
    2TMC2    O514322   0.992   0.664  17.084  0.0753 -0.0063  0.3288
    2TMC2    H514323   1.027   0.578  17.052  0.5653 -0.4721  2.1035
    3MPD1     C14324   1.654   0.100  16.769  0.0695  0.2612 -0.0596
    3MPD1    C114325   1.695   0.226  16.728  0.1398 -0.2075 -0.3399
    3MPD1    C214326   1.669   0.339  16.807  0.7074  0.6508  0.1887
    3MPD1    C314327   1.596   0.322  16.923  0.0277 -0.4638 -0.9319
    3MPD1    C414328   1.548   0.196  16.967  0.1976 -0.2117 -0.6888
    3MPD1    C514329   1.583   0.088  16.885 -0.2189  0.5967 -0.5052
    3MPD1     H14330   1.701   0.440  16.782  1.6425  0.1501 -0.6301
    3MPD1    H114331   1.500   0.166  17.060  2.0685 -1.4302 -0.1202
    3MPD1    H214332   1.662   0.022  16.694 -0.3179 -0.2655  0.4451
    3MPD1    H314333   1.548   4.732  16.923 -1.2762  0.8917 -0.7467
    3MPD1     N14334   1.559   0.441  16.992 -0.0107  0.3606  0.4164
    3MPD1    H514335   1.587   0.532  16.956  0.3277  0.3390  0.6171
    3MPD1    N114336   1.788   0.245  16.620  0.2183 -0.3085 -0.1571
    3MPD1    H614337   1.779   0.340  16.585 -0.5249 -0.2000  0.3327
    3MPD1    H714338   1.793   0.168  16.555  1.0770  0.1776 -0.6609
    1TMC1    C114339   4.319   3.792  13.423 -0.4067  0.3222 -0.2882
    1TMC1    C214340   4.379   3.715  13.327  0.0708 -0.4492  0.2707
    1TMC1    C314341   4.300   3.625  13.261 -0.4606 -0.2312  0.0649
    1TMC1    C414342   4.190   3.779  13.456 -0.6096  0.6533  0.1942
    1TMC1    C514343   4.118   3.695  13.384 -0.3366  0.1934  0.7390
    1TMC1    C614344   4.172   3.619  13.289 -1.2646 -0.5125 -0.1531
    1TMC1     C14345   4.397   3.896  13.489 -0.8756  0.0647 -0.3041
    1TMC1     O14346   4.333   3.982  13.552  0.7498 -0.0437  0.1958
    1TMC1     H14347   4.471   3.752  13.284  0.5095  0.8971  2.3525
    1TMC1    H114348   4.135   3.843  13.524 -1.0328  1.4669 -0.8928
    1TMC1    H214349   4.107   3.562  13.224  1.1533 -1.0797 -2.0834
    1TMC1    C714350   3.972   3.717  13.403  0.1349  0.5108 -0.5305
    1TMC1    C814351   4.350   3.547  13.152 -0.0742 -0.3725 -0.3788
    1TMC1    O114352   3.911   3.790  13.329 -0.8761  0.5843 -0.1568
    1TMC1    O214353   4.277   3.471  13.092  0.3582 -0.4192  0.4455
    1TMC1    O314354   3.920   3.604  13.442  0.1514 -0.0561  0.4359
    1TMC1    H314355   3.989   3.555  13.492 -1.4362 -0.5578  2.1283
    1TMC1    O514356   4.483   3.529  13.170  0.0823  0.4978 -0.0885
    1TMC1    H514357   4.513   3.572  13.253 -1.2936 -0.4061  0.8835
    2MPD2     C14358   4.588   4.091  13.594  0.7636  0.6766 -0.4698
    2MPD2    C114359   4.626   3.969  13.523 -0.8263  0.1831 -0.7061
    2MPD2    C214360   0.019   3.932  13.533  0.5135  0.4241 -0.6488
    2MPD2    C314361   0.118   4.015  13.574 -0.2454 -0.5705  0.1958
    2MPD2    C414362   0.080   4.140  13.626  0.4094  1.0258 -0.5534
    2MPD2    C514363   4.689   4.173  13.636 -0.2014  0.0333  0.0084
    2MPD2     H14364   0.038   3.830  13.501  1.9058  0.5205 -0.1229
    2MPD2    H114365   0.155   4.208  13.665  0.3203  0.3296  0.8033
    2MPD2    H214366   4.490   4.139  13.596  0.8218  0.8362 -1.3559
    2MPD2    H314367   4.663   4.270  13.676 -0.3455  0.0869 -0.2178
    2MPD2     N14368   0.245   3.964  13.569  0.4819 -0.0767  0.1923
    2MPD2    H514369   0.248   3.867  13.538  1.2299 -0.7432  2.4015
    2MPD2    N114370   4.529   3.880  13.464 -0.2825  0.5968 -0.4210
    2MPD2    H714371   4.561   3.791  13.427  0.8879  0.7011  0.3406
    3TCq1    O114372   0.929   3.920  13.508 -0.3322  0.1209  0.0870
    3TCq1    C114373   0.817   3.995  13.498 -0.2128  0.2070  0.0039
    3TCq1    O214374   0.810   4.115  13.473 -0.1049 -0.4027  0.1026
    3TCq1    C214375   0.700   3.920  13.532 -0.2577  0.0259  0.1932
    3TCq1    C314376   0.688   3.790  13.501  0.1415 -0.2073  0.7778
    3TCq1    C414377   0.566   3.738  13.503  0.3056  0.2274 -0.2044
    3TCq1    C514378   0.460   3.814  13.542  0.4446 -0.3460  0.1730
    3TCq1    C614379   0.472   3.944  13.571  0.1210  0.7378  0.6012
    3TCq1    C714380   0.595   4.003  13.561  0.2968  0.1096  0.1235
    3TCq1    C814381   0.364   4.030  13.594  0.2856  0.3514  0.0427
    3TCq1    O414382   0.389   4.149  13.611 -0.1828 -0.0322 -0.3051
    3TCq1    C914383   0.546   3.600  13.459 -0.4671  0.0019 -1.2738
    3TCq1    O514384   0.430   3.558  13.480  0.3681  0.5563  0.5484
    3TCq1    O614385   0.643   3.533  13.407  0.1450 -0.0304  0.2590
    3TCq1    H114386   0.914   3.833  13.552 -1.3057  0.0967 -0.2778
    3TCq1    H214387   0.777   3.744  13.462  0.0282 -1.5693  2.1430
    3TCq1    H314388   0.361   3.768  13.549  0.4072 -0.1692  0.8113
    3TCq1    H414389   0.605   4.105  13.594  0.7440  0.4508 -1.0910
    1MPD2     C14390   3.811   0.425  15.170 -0.2897  0.4441  0.9167
    1MPD2    C114391   3.704   0.361  15.114  0.3825 -0.1502 -0.4783
    1MPD2    C214392   3.702   0.222  15.109  0.0728  0.0225  0.3005
    1MPD2    C314393   3.806   0.145  15.149  0.7121  0.5291  0.1566
    1MPD2    C414394   3.916   0.206  15.198 -0.6040  0.2176 -0.2865
    1MPD2    C514395   3.914   0.341  15.211  0.2374  0.0311  0.0549
    1MPD2     H14396   3.621   0.167  15.061  1.2121 -3.1914  2.0560
    1MPD2    H114397   4.005   0.154  15.233  0.5903  1.5728 -1.3385
    1MPD2    H214398   3.807   0.533  15.170 -1.7827  0.3928 -1.7809
    1MPD2    H314399   3.998   0.386  15.262  1.7283 -2.0186 -0.5751
    1MPD2     N14400   3.801   0.005  15.130  0.3386  0.3529 -0.3067
    1MPD2    H514401   3.888   4.694  15.149  0.7704  1.2278  0.0422
    1MPD2    N114402   3.588   0.428  15.061  0.5350 -0.1809  0.2622
    1MPD2    H714403   3.603   0.526  15.041  1.6619 -0.1904  1.0318
    2TMC3    C114404   3.345   0.462  15.018 -0.6849  0.2422 -0.2510
    2TMC3    C214405   3.229   0.406  15.060 -0.1649 -0.7620 -0.4729
    2TMC3    C314406   3.127   0.405  14.977 -0.1677 -0.0153 -0.1151
    2TMC3    C414407   3.347   0.547  14.914  0.5685 -0.5085  0.5685
    2TMC3    C514408   3.234   0.562  14.845 -0.4015 -0.6302 -0.3055
    2TMC3    C614409   3.127   0.484  14.867  0.5985 -0.0751 -0.1161
    2TMC3     C14410   3.460   0.372  15.045 -0.9313 -0.4354 -0.4616
    2TMC3     O14411   3.417   0.262  15.073  0.1209 -0.2095  0.2644
    2TMC3     H14412   3.228   0.352  15.154  1.1024 -0.1161 -0.0905
    2TMC3    H114413   3.445   0.573  14.878  0.1554  2.3777  1.5592
    2TMC3    H214414   3.056   0.469  14.787  0.9583  1.4942 -0.7320
    2TMC3    C714415   3.230   0.645  14.728 -0.3449 -0.6672 -0.6015
    2TMC3    C814416   3.067   0.275  14.961 -0.2871  0.3863 -0.1550
    2TMC3    O114417   3.139   0.623  14.647  0.3593  0.1302  0.8887
    2TMC3    O214418   2.963   0.270  14.898  0.2409 -0.4893 -0.0492
    3TCq1    O114419   3.797   1.762  14.726  0.8303  0.2002 -0.2512
    3TCq1    C114420   3.824   1.675  14.626  0.0267 -0.2041 -0.6185
    3TCq1    O214421   3.813   1.694  14.504 -0.0899 -0.4180 -0.1134
    3TCq1    C214422   3.799   1.540  14.680  0.3273 -0.4850 -0.2726
    3TCq1    C314423   3.855   1.498  14.800  0.0742 -0.1489 -0.0566
    3TCq1    C414424   3.825   1.374  14.838  0.1969 -0.3314  0.1120
    3TCq1    C514425   3.751   1.288  14.767  0.0748 -0.5758 -0.2945
    3TCq1    C614426   3.687   1.340  14.654  0.1474 -0.4873  0.0547
    3TCq1    C714427   3.711   1.468  14.605  0.1995  0.3546 -0.0171
    3TCq1    C814428   3.586   1.271  14.592  0.0273  0.1308  0.9277
    3TCq1    O414429   3.541   1.329  14.490 -0.1130  0.3161 -0.2126
    3TCq1    C914430   3.888   1.328  14.967  0.4712  0.7631 -0.2516
    3TCq1    O514431   3.897   1.202  14.982 -0.2719  0.0894 -0.0371
    3TCq1    O614432   3.931   1.415  15.045  0.1060 -0.1999 -0.7239
    3TCq1    H114433   3.771   1.730  14.815 -1.4564  0.5956 -0.7580
    3TCq1    H214434   3.927   1.556  14.857  1.9605 -1.2406 -1.3200
    3TCq1    H314435   3.755   1.182  14.789  0.2556 -0.6728 -0.7841
    3TCq1    H414436   3.675   1.507  14.511  0.8985 -0.7149 -0.7319
    4MPD2     C14437   3.367   1.080  14.493  0.2887  0.1763  0.2695
    4MPD2    C114438   3.442   1.068  14.611  0.4533 -0.5356 -0.1723
    4MPD2    C214439   3.416   0.961  14.694 -0.3295 -0.4464 -0.6166
    4MPD2    C314440   3.325   0.864  14.660 -0.5287 -0.6191  0.3914
    4MPD2    C414441   3.254   0.878  14.542  0.1599 -0.7248 -0.0749
    4MPD2    C514442   3.272   0.984  14.458 -0.5745 -0.4279 -0.2407
    4MPD2     H14443   3.475   0.945  14.784 -3.0353  1.6430  1.5398
    4MPD2    H114444   3.192   0.796  14.508  0.5000 -1.2941  0.6651
    4MPD2    H214445   3.382   1.164  14.427  0.7723 -0.4679 -0.4484
    4MPD2    H314446   3.216   0.973  14.366 -1.8090 -1.4199  0.6343
    4MPD2     N14447   3.309   0.753  14.744 -0.1706 -0.2500 -0.2770
    4MPD2    H514448   3.359   0.746  14.832  2.5160  1.5543 -1.6521
    4MPD2    N114449   3.553   1.153  14.650 -0.6250  0.3573 -0.4453
    4MPD2    H714450   3.602   1.130  14.737  1.5982 -0.2791 -1.8648
    5TMC2    C114451   3.584   4.389  14.937  0.0182 -0.3935  0.4138
    5TMC2    C214452   3.600   4.306  15.049  0.3552 -0.1995  0.4093
    5TMC2    C314453   3.698   4.330  15.142  0.7969  0.1940  0.5316
    5TMC2    C414454   3.668   4.496  14.927 -0.4838  0.3169 -0.1749
    5TMC2    C514455   3.742   4.530  15.033  0.2342 -0.2568 -0.5945
    5TMC2    C614456   3.770   4.451  15.137 -0.1137  0.0836  0.8048
    5TMC2     C14457   3.444   4.402  14.901 -0.1753 -0.5063  0.2436
    5TMC2     O14458   3.381   4.304  14.875 -0.1092  0.5101  0.0499
    5TMC2     H14459   3.534   4.224  15.072  0.7816 -1.0583 -1.3727
    5TMC2    H114460   3.640   4.570  14.853  1.2852  1.0500 -0.1053
    5TMC2    H214461   3.843   4.490  15.207  1.5761 -0.6229 -0.5777
    5TMC2    C714462   3.698   4.661  15.081  0.4232 -0.5958  1.1130
    5TMC2    C814463   3.699   4.243  15.258 -1.2704 -0.2189 -0.3602
    5TMC2    O114464   3.580   4.691  15.052  0.7380  0.1349 -0.6774
    5TMC2    O214465   3.594   4.186  15.292 -0.1489  1.2380 -0.1991
    5TMC2    O514466   3.820   4.241  15.322  0.3230  0.0584 -0.6635
    5TMC2    H514467   3.885   4.306  15.287  1.0936  0.8713  2.2683
    6MPD2     C14468   3.033   4.717  14.899 -0.0693  0.3224 -0.5707
    6MPD2    C114469   3.146   0.048  14.959  0.1650 -0.9195 -0.1787
    6MPD2    C214470   3.261   4.724  14.971  0.1154  0.2390  0.1337
    6MPD2    C314471   3.278   4.594  14.920  0.4973 -0.4858  0.8642
    6MPD2    C414472   3.166   4.530  14.864  0.1649 -0.7906  0.8428
    6MPD2    C514473   3.053   4.595  14.851  0.0867  0.5134 -0.3475
    6MPD2     H14474   3.342   0.030  15.028  0.0197  1.2738 -0.5400
    6MPD2    H114475   3.165   4.426  14.834  1.1914 -0.1014 -1.6444
    6MPD2    H214476   2.937   0.028  14.899 -0.0994  0.2858  1.3141
    6MPD2    H314477   2.961   4.549  14.817  0.9007 -1.2475 -0.1294
    6MPD2     N14478   3.408   4.533  14.927 -0.3911  0.1691 -0.2379
    6MPD2    H514479   3.484   4.590  14.962 -0.5841 -0.8411  1.8137
    6MPD2    N114480   3.151   0.180  14.990  0.3591  0.2064 -0.1283
    6MPD2    H714481   3.238   0.217  15.027  0.0918 -0.3063  1.0261
  945NH4     N114482   1.473   0.279   8.402 -0.2566 -0.1884 -0.1116
  945NH4     H214483   1.381   0.327   8.401  0.5176  1.3042  0.3764
  945NH4     H314484   1.517   0.278   8.497  0.6074  1.7545 -0.4911
  945NH4     H414485   1.530   0.324   8.328  0.5850  1.3683  1.4832
  945NH4     H514486   1.448   0.186   8.364  0.7535  0.0758 -1.4320
  946SOD     NA14487   3.583   3.245   6.480 -0.5908  0.0264 -0.3473
  947SOD     NA14488   3.990   1.180  15.183 -0.1523  0.1314  0.6096
  948SOD     NA14489   0.709   3.114  13.610 -0.0993 -0.2932 -0.1305
  949SOD     NA14490   4.595   2.832  17.458  0.1291 -0.0836 -0.1877
  950SOD     NA14491   3.458   3.343  15.589 -0.5351 -0.5971 -0.2445
  951SOD     NA14492   3.419   2.064   9.727 -0.2277 -0.1407 -0.0336
  952SOD     NA14493   0.826   0.392  13.607 -0.1598  0.0721 -0.1850
  953SOL     OW14494   3.790   0.401  11.268  0.3565 -0.3984 -0.4824
  953SOL    HW114495   3.766   0.311  11.247  1.0530 -0.9157  0.9794
  953SOL    HW214496   3.852   0.383  11.339 -0.1018 -0.0037  0.0160
  954SOL     OW14497   0.024   3.184   3.728  0.3395  0.0824  0.2320
  954SOL    HW114498   0.019   3.274   3.695  2.1139 -0.6264 -2.0313
  954SOL    HW214499   0.012   3.195   3.822  0.8209 -1.1568  0.4380
  955SOL     OW14500   4.254   1.864   9.880 -0.3150 -0.9956 -0.1146
  955SOL    HW114501   4.272   1.802   9.810  0.1335  0.9446 -1.7219
  955SOL    HW214502   4.333   1.919   9.888 -1.5891  0.8606 -0.1725
  956SOL     OW14503   2.671   1.391   7.398  0.2319 -0.1513 -0.0690
  956SOL    HW114504   2.667   1.314   7.342 -1.9771 -0.2555  0.2680
  956SOL    HW214505   2.760   1.423   7.381  1.2590 -2.1624  1.4057
  957SOL     OW14506   3.051   3.279  10.137 -0.3477 -0.5772  0.3516
  957SOL    HW114507   3.044   3.374  10.124  2.8856 -0.4679 -0.5693
  957SOL    HW214508   3.125   3.249  10.083 -0.5456 -1.5689  0.6451
  958SOL     OW14509   1.138   2.915  14.814 -0.2322  0.2189 -0.1799
  958SOL    HW114510   1.076   2.849  14.845  1.7881 -2.3687 -1.6786
  958SOL    HW214511   1.211   2.868  14.775 -0.2250  1.4935 -1.6864
  959SOL     OW14512   4.699   4.214   7.390 -0.1765 -0.7920  0.1219
  959SOL    HW114513   4.684   4.289   7.448  1.1404  1.7016 -2.7208
  959SOL    HW214514   0.045   4.238   7.353  0.1536  2.1870  2.7726
  960SOL     OW14515   3.840   3.595   3.050  0.0043  0.3014 -0.7833
  960SOL    HW114516   3.829   3.687   3.073  2.0446 -0.1477  2.0164
  960SOL    HW214517   3.749   3.575   3.029 -0.5894  1.8445  0.3862
  961SOL     OW14518   1.798   2.757   2.213  0.5527 -0.0728 -0.4800
  961SOL    HW114519   1.816   2.847   2.240 -0.4907 -0.1806  0.5862
  961SOL    HW214520   1.795   2.717   2.300 -0.5016  0.9714 -0.0226
  962SOL     OW14521   2.663   2.037   2.210 -0.2024 -0.0280  0.3589
  962SOL    HW114522   2.752   2.019   2.241  0.0263  1.2425  0.4333
  962SOL    HW214523   2.665   1.976   2.136  1.0968 -2.8302  2.6692
  963SOL     OW14524   2.193   0.075   3.894  1.0044  0.5167 -0.2431
  963SOL    HW114525   2.284   0.050   3.875  0.4964 -1.3400 -0.1712
  963SOL    HW214526   2.205   0.138   3.965 -0.0201  0.7725 -0.2979
  964SOL     OW14527   1.577   4.366   5.355  0.1130  0.2090  0.2514
  964SOL    HW114528   1.485   4.340   5.351  0.4314 -0.5507 -2.2181
  964SOL    HW214529   1.619   4.306   5.293 -2.3880  0.2882 -1.5177
  965SOL     OW14530   1.706   4.536   2.478 -0.0529  0.2457 -0.9803
  965SOL    HW114531   1.728   4.453   2.436  2.3510  0.6026 -0.4230
  965SOL    HW214532   1.613   4.528   2.457 -0.6676  2.8901  0.7115
  966SOL     OW14533   0.187   1.901   7.268  0.2161 -0.4085  0.8210
  966SOL    HW114534   0.101   1.937   7.247 -0.0871 -0.4616  1.9931
  966SOL    HW214535   0.235   1.982   7.283  0.8999 -1.0101  1.9319
  967SOL     OW14536   2.102   1.593  11.127  0.0565  0.1965 -0.4190
  967SOL    HW114537   2.077   1.519  11.071 -1.1625  1.3896 -1.4577
  967SOL    HW214538   2.039   1.590  11.199  0.7251 -0.5278  0.1419
  968SOL     OW14539   3.271   0.759   8.801 -0.5121 -0.4453  0.3750
  968SOL    HW114540   3.309   0.671   8.792  0.8204  0.3599 -2.2032
  968SOL    HW214541   3.181   0.735   8.780 -2.1287  4.2581  2.1808
  969SOL     OW14542   3.100   0.119   0.834 -0.9683  0.0526  0.2104
  969SOL    HW114543   3.119   0.155   0.747 -2.0433 -1.9534 -0.8699
  969SOL    HW214544   3.009   0.096   0.818 -0.1801 -1.4505 -2.1941
  970SOL     OW14545   3.075   4.177   0.606 -0.0598  0.7010  0.3393
  970SOL    HW114546   3.102   4.169   0.514 -2.9265 -0.7372 -0.3552
  970SOL    HW214547   3.158   4.160   0.652  0.5566 -1.0106 -1.4066
  971SOL     OW14548   4.243   4.134   5.505 -0.9556  0.9817 -0.2302
  971SOL    HW114549   4.217   4.079   5.578  0.4539  1.0882  0.3640
  971SOL    HW214550   4.227   4.078   5.429 -2.0549  0.5568  0.3163
  972SOL     OW14551   0.847   0.727  11.206  0.5345 -0.2385 -0.0300
  972SOL    HW114552   0.879   0.641  11.179  0.2984 -0.1184 -0.6868
  972SOL    HW214553   0.926   0.769  11.239  0.3239 -0.1836  0.4016
  973SOL     OW14554   0.309   3.479   6.847 -0.5190 -0.4361  0.0637
  973SOL    HW114555   0.385   3.494   6.902 -1.1850  0.7015  0.6821
  973SOL    HW214556   0.319   3.392   6.810 -1.8328 -0.6616  0.2271
  974SOL     OW14557   2.479   3.552   1.758 -0.2384  0.0533 -0.1833
  974SOL    HW114558   2.476   3.647   1.747 -0.3597  0.2013  1.1093
  974SOL    HW214559   2.415   3.539   1.828 -0.0453  1.3352  0.2357
  975SOL     OW14560   3.033   3.527   4.280  0.3763  0.5548 -0.6027
  975SOL    HW114561   3.127   3.530   4.263  0.6820 -0.9727  0.8619
  975SOL    HW214562   3.014   3.598   4.219 -1.6960  0.6170  0.1036
  976SOL     OW14563   3.311   4.418   5.231 -0.1013  0.5239 -0.0691
  976SOL    HW114564   3.241   4.414   5.295 -1.5559  0.0783 -1.6963
  976SOL    HW214565   3.388   4.434   5.286  0.1284  1.3233 -0.6154
  977SOL     OW14566   4.684   0.632   4.159 -0.6503  0.3888  0.1053
  977SOL    HW114567   4.615   0.598   4.217 -2.0352  0.7482 -1.3292
  977SOL    HW214568   0.021   0.603   4.209 -0.3173  0.3848 -0.4128
  978SOL     OW14569   0.998   1.084   3.238 -0.1420 -0.2017 -0.0382
  978SOL    HW114570   1.001   0.992   3.263 -1.4161  0.4944  2.7595
  978SOL    HW214571   1.075   1.122   3.280 -0.3026 -0.4916  0.5246
  979SOL     OW14572   0.965   3.457   1.922 -0.4539 -0.0279  0.0782
  979SOL    HW114573   0.975   3.538   1.972 -1.3186  0.0342  0.1536
  979SOL    HW214574   1.037   3.464   1.859 -0.4412 -0.4919  0.0399
  980SOL     OW14575   3.687   3.563  11.362 -0.4843  0.0839  0.0438
  980SOL    HW114576   3.739   3.556  11.441 -0.3979  2.1806  0.1889
  980SOL    HW214577   3.725   3.633  11.308 -2.4967  0.3350 -1.0708
  981SOL     OW14578   3.979   2.748   2.475  0.6588  0.3745 -0.0423
  981SOL    HW114579   3.923   2.772   2.401  0.3685 -1.3973 -0.4116
  981SOL    HW214580   3.971   2.653   2.461 -1.6132  0.4700  0.6131
  982SOL     OW14581   1.221   0.540   9.041  0.2992 -0.6433  0.2984
  982SOL    HW114582   1.209   0.620   8.989 -1.9398 -1.8605 -1.0464
  982SOL    HW214583   1.129   0.512   9.043  0.7173 -1.7811  4.6781
  983SOL     OW14584   4.398   1.365  16.341  0.5421  0.1332  0.2087
  983SOL    HW114585   4.453   1.298  16.381 -0.1841 -0.4644  0.2172
  983SOL    HW214586   4.454   1.443  16.336  0.6279  0.1355  1.1516
  984SOL     OW14587   4.176   1.692   7.793  0.3458 -0.3342 -0.4851
  984SOL    HW114588   4.232   1.626   7.835 -1.4117  0.3852  2.9559
  984SOL    HW214589   4.230   1.692   7.714 -0.5223  0.7413 -1.0786
  985SOL     OW14590   0.787   2.974   9.188 -0.3476  0.1674  0.0790
  985SOL    HW114591   0.724   3.010   9.252 -0.9649  1.3674 -1.1915
  985SOL    HW214592   0.872   2.989   9.228 -0.8725 -0.4434  1.4194
  986SOL     OW14593   3.493   2.560   9.487  0.0853  0.0318  0.0982
  986SOL    HW114594   3.579   2.574   9.527  1.3162 -0.3236 -2.4417
  986SOL    HW214595   3.452   2.642   9.515 -1.3026 -0.3095 -0.9577
  987SOL     OW14596   0.514   0.510   8.868  0.2318  0.2686 -0.5544
  987SOL    HW114597   0.494   0.503   8.961  0.7263  0.9197 -0.4002
  987SOL    HW214598   0.530   0.605   8.862 -0.6630  0.3664 -1.4543
  988SOL     OW14599   0.633   0.689   8.554 -0.0625  0.5728 -0.2434
  988SOL    HW114600   0.569   0.710   8.621  2.3187 -0.8542  2.4933
  988SOL    HW214601   0.647   0.775   8.513  2.0892  0.5198  0.3395
  989SOL     OW14602   0.049   2.512   2.624  0.4510 -0.2815 -0.0077
  989SOL    HW114603   0.019   2.422   2.612 -0.7987 -0.2159  2.6580
  989SOL    HW214604   4.703   2.552   2.641  2.2296  3.7357 -0.3987
  990SOL     OW14605   4.440   1.621   1.334 -0.5808  0.3919  0.1188
  990SOL    HW114606   4.427   1.668   1.252 -0.3264  0.4171  0.0923
  990SOL    HW214607   4.525   1.656   1.359 -1.1526  1.7598  0.1295
  991SOL     OW14608   1.263   1.892  11.899 -0.2212 -0.3320 -0.1972
  991SOL    HW114609   1.286   1.866  11.988 -2.0589  2.3127  1.0425
  991SOL    HW214610   1.203   1.966  11.910 -1.6128 -1.6509  1.0257
  992SOL     OW14611   1.662   2.561   2.912 -0.0863  0.1935 -0.6943
  992SOL    HW114612   1.609   2.510   2.973 -0.1671 -1.5965 -2.2778
  992SOL    HW214613   1.595   2.596   2.854 -1.2916  0.2600  0.7426
  993SOL     OW14614   3.471   0.917   8.385 -0.2327 -0.4314 -0.3268
  993SOL    HW114615   3.435   1.000   8.354 -0.1361 -1.1519 -2.4179
  993SOL    HW214616   3.395   0.887   8.434  1.0520 -0.7614  1.4508
  994SOL     OW14617   3.313   2.465   0.788  0.7591 -0.2809  0.0440
  994SOL    HW114618   3.330   2.531   0.721  3.8507 -1.2039 -0.0817
  994SOL    HW214619   3.398   2.454   0.831  0.3793 -0.7174  0.6741
  995SOL     OW14620   3.938   2.434  15.855  0.2311 -0.5840  0.1313
  995SOL    HW114621   3.891   2.366  15.904  2.4213 -1.1878  1.3985
  995SOL    HW214622   4.017   2.386  15.834 -1.1198 -3.1098  0.8555
  996SOL     OW14623   0.116   0.533   3.306 -0.3726  0.3008 -0.2922
  996SOL    HW114624   0.154   0.471   3.368  0.0032  0.4862 -0.3411
  996SOL    HW214625   0.187   0.592   3.281  1.0391 -0.5937  1.6537
  997SOL     OW14626   1.736   1.290   3.009 -0.4072 -0.8286  0.2245
  997SOL    HW114627   1.700   1.268   2.923  0.9126  1.2122 -0.8522
  997SOL    HW214628   1.711   1.381   3.019 -1.3608 -1.0192 -0.4210
  998SOL     OW14629   3.425   3.408   1.071 -0.2495 -0.0600  0.5264
  998SOL    HW114630   3.426   3.326   1.021  1.2564 -0.8415  1.8463
  998SOL    HW214631   3.333   3.433   1.073  0.4333  2.4858 -0.3969
  999SOL     OW14632   1.362   2.497   4.996  0.0559 -0.3554  0.0745
  999SOL    HW114633   1.315   2.573   5.032 -1.2986 -0.7004 -0.9488
  999SOL    HW214634   1.378   2.448   5.076  0.1926 -0.4193  0.0069
 1000SOL     OW14635   2.899   2.867   6.704 -0.2467  0.5701 -0.6433
 1000SOL    HW114636   2.897   2.938   6.768 -3.2812 -2.4234  2.5551
 1000SOL    HW214637   2.814   2.828   6.723 -0.8333  0.8152 -2.6592
 1001SOL     OW14638   1.212   0.905   6.229  0.0749  0.7014 -0.9273
 1001SOL    HW114639   1.195   0.845   6.156 -1.4340 -1.7101  1.4103
 1001SOL    HW214640   1.278   0.965   6.194 -0.5658  1.5401 -0.7058
 1002SOL     OW14641   4.395   4.564   5.459  0.0434 -0.0107  0.0642
 1002SOL    HW114642   4.368   4.653   5.478  2.2434  1.1622 -2.3845
 1002SOL    HW214643   4.342   4.516   5.524  0.1137  0.5472  0.5313
 1003SOL     OW14644   2.034   3.068   7.316  0.2271 -0.1279  0.0099
 1003SOL    HW114645   2.047   3.117   7.398  1.4230  0.0900 -0.3050
 1003SOL    HW214646   1.962   3.120   7.279 -0.4692  0.0419  1.5861
 1004SOL     OW14647   4.282   1.198   2.740 -0.2833 -0.4421  0.0014
 1004SOL    HW114648   4.286   1.104   2.723  0.5120 -0.6548  1.4025
 1004SOL    HW214649   4.250   1.241   2.660 -0.8363 -2.7742 -1.0236
 1005SOL     OW14650   1.726   4.719   3.399  0.1609  0.4233 -0.4341
 1005SOL    HW114651   1.630   4.725   3.400  0.1576  0.1244  1.4092
 1005SOL    HW214652   1.756   0.030   3.474  1.2400 -0.6288 -0.1579
 1006SOL     OW14653   0.882   4.132  15.580 -0.3424  0.1690 -0.8314
 1006SOL    HW114654   0.960   4.146  15.527  0.5942 -0.2455  0.4404
 1006SOL    HW214655   0.891   4.044  15.618 -1.5223  0.8208  0.9620
 1007SOL     OW14656   3.536   1.246   5.844 -0.0615 -0.0998 -0.7871
 1007SOL    HW114657   3.567   1.285   5.762  0.4304  0.9062 -0.1321
 1007SOL    HW214658   3.464   1.211   5.792  0.1135  1.5242 -2.1082
 1008SOL     OW14659   2.707   0.410  14.021  0.0099  0.0471  0.7157
 1008SOL    HW114660   2.787   0.388  14.069  0.2870 -1.0014 -0.2321
 1008SOL    HW214661   2.712   0.334  13.964 -0.1523  0.1062  0.6220
 1009SOL     OW14662   0.121   1.516  12.965  0.4586  0.1992  0.4938
 1009SOL    HW114663   0.122   1.554  12.878 -0.9281 -0.2794  0.2628
 1009SOL    HW214664   0.215   1.498  12.967  0.1005 -1.5275  2.2348
 1010SOL     OW14665   3.850   1.021   2.397  0.0025  0.4855 -0.4493
 1010SOL    HW114666   3.840   1.088   2.330 -0.2086  1.1715  0.2821
 1010SOL    HW214667   3.945   1.013   2.403 -0.0292  0.8645  0.5227
 1011SOL     OW14668   1.327   4.375   4.876  0.0590  0.3481  0.1066
 1011SOL    HW114669   1.387   4.404   4.944  1.7332 -0.6817 -0.9143
 1011SOL    HW214670   1.250   4.337   4.918  0.3799  0.1045  0.4729
 1012SOL     OW14671   3.256   2.853   5.881 -0.4270 -0.0597 -0.0832
 1012SOL    HW114672   3.243   2.896   5.965  0.7319  1.0186 -0.4545
 1012SOL    HW214673   3.223   2.764   5.887 -1.2029  0.0545 -2.5257
 1013SOL     OW14674   4.464   2.918  17.295 -0.0916  0.0886 -0.9016
 1013SOL    HW114675   4.426   2.992  17.343 -0.3348 -0.8308  0.3144
 1013SOL    HW214676   4.383   2.872  17.275 -0.9670  1.2298  0.0055
 1014SOL     OW14677   4.125   3.278   3.601 -0.5663  0.3966 -0.1991
 1014SOL    HW114678   4.052   3.218   3.583 -0.6397  0.9780 -1.7896
 1014SOL    HW214679   4.190   3.222   3.644 -1.9361  0.2912  1.7508
 1015SOL     OW14680   4.602   1.159   6.378 -0.3317 -0.1993  0.1075
 1015SOL    HW114681   4.634   1.147   6.467  1.3679  0.3078 -0.4368
 1015SOL    HW214682   4.591   1.253   6.363 -0.1731 -0.4086 -1.2931
 1016SOL     OW14683   2.594   4.662   8.674  0.2342  0.2915 -0.4216
 1016SOL    HW114684   2.660   4.719   8.713  0.1924 -0.4546  0.7483
 1016SOL    HW214685   2.526   4.655   8.742  0.1794 -1.6627 -0.6801
 1017SOL     OW14686   0.235   3.708   2.338  0.0923 -0.2767  0.6326
 1017SOL    HW114687   0.158   3.764   2.342  1.2554  1.3651 -0.1797
 1017SOL    HW214688   0.286   3.783   2.369  0.4397 -1.0155  1.8573
 1018SOL     OW14689   0.729   4.390   0.478 -0.3735  0.2319 -0.2618
 1018SOL    HW114690   0.787   4.318   0.454 -0.0485 -0.3847  2.3863
 1018SOL    HW214691   0.794   4.451   0.512 -0.1829  0.3020 -0.7485
 1019SOL     OW14692   2.069   3.555   8.330 -0.5412 -0.2595 -0.0426
 1019SOL    HW114693   2.061   3.465   8.362 -1.6396  0.2356  1.0651
 1019SOL    HW214694   2.147   3.532   8.280 -2.0465 -1.5992 -1.7976
 1020SOL     OW14695   1.434   1.676   8.253  0.5393 -0.2356 -0.0152
 1020SOL    HW114696   1.445   1.593   8.206 -2.7018 -0.2983 -0.6381
 1020SOL    HW214697   1.508   1.680   8.314 -0.5354  0.9119  1.1950
 1021SOL     OW14698   2.032   2.772   1.127 -0.7539 -0.2115  0.1485
 1021SOL    HW114699   2.057   2.820   1.048  1.3977 -1.6162 -0.0368
 1021SOL    HW214700   2.108   2.783   1.185 -0.1068  0.4947 -0.8347
 1022SOL     OW14701   2.891   3.562   7.885  0.4143 -0.0767 -0.3991
 1022SOL    HW114702   2.891   3.468   7.901 -0.0373 -0.3025 -1.7342
 1022SOL    HW214703   2.983   3.574   7.860  0.9850  0.3089  1.9402
 1023SOL     OW14704   0.992   0.509  14.575 -0.1511 -0.2838 -0.2839
 1023SOL    HW114705   1.046   0.448  14.525  0.5107 -1.2790  1.6444
 1023SOL    HW214706   0.934   0.544  14.508 -1.3656  0.8620  1.3619
 1024SOL     OW14707   0.567   4.307  16.496 -0.0436 -0.1855 -0.1109
 1024SOL    HW114708   0.629   4.369  16.458  0.4897  0.6221  2.1069
 1024SOL    HW214709   0.533   4.355  16.571 -1.4014 -1.8294  0.3334
 1025SOL     OW14710   4.489   2.766   6.420  0.0078  0.0251  0.0781
 1025SOL    HW114711   4.427   2.727   6.358  0.0578 -0.0558  0.0789
 1025SOL    HW214712   4.570   2.763   6.369  0.8467  0.4286  1.3952
 1026SOL     OW14713   1.208   0.968   0.200 -0.3953 -0.3239 -0.2000
 1026SOL    HW114714   1.123   0.968   0.157  0.2680 -1.7582 -1.5135
 1026SOL    HW214715   1.192   1.042   0.258 -1.6175 -0.6351 -0.1393
 1027SOL     OW14716   0.507   1.934   0.423 -0.2779  0.1083  0.1916
 1027SOL    HW114717   0.444   1.862   0.421  0.6005 -0.6887  1.0333
 1027SOL    HW214718   0.453   2.006   0.390  1.1341  0.9146 -0.3568
 1028SOL     OW14719   4.624   2.180   7.483  1.0616 -1.2011  0.2100
 1028SOL    HW114720   4.596   2.272   7.488  0.4795 -1.5772  3.2163
 1028SOL    HW214721   4.679   2.171   7.560 -2.2286  3.1401  3.0828
 1029SOL     OW14722   2.967   2.057  11.427  0.1028 -0.2730  0.4757
 1029SOL    HW114723   2.881   2.099  11.428  0.1120 -0.2585  0.6769
 1029SOL    HW214724   2.951   1.985  11.367 -0.6986  0.8250 -0.6318
 1030SOL     OW14725   1.196   0.583  13.718 -0.4519 -0.0696  0.5538
 1030SOL    HW114726   1.279   0.605  13.762 -0.1317  0.6833 -0.4099
 1030SOL    HW214727   1.239   0.573  13.633 -1.0735  0.3134  0.1937
 1031SOL     OW14728   0.075   2.066   6.969 -0.3591 -0.1662 -0.8163
 1031SOL    HW114729   4.736   2.036   7.015  0.3074  1.2109  1.2582
 1031SOL    HW214730   0.146   2.071   7.034 -1.7292 -0.4424  0.7109
 1032SOL     OW14731   3.748   0.509   3.054  0.3910  0.0946 -0.3672
 1032SOL    HW114732   3.769   0.415   3.051  3.2283  0.7229 -0.0068
 1032SOL    HW214733   3.690   0.507   2.978 -1.1105  1.0757  0.7378
 1033SOL     OW14734   3.404   3.269   7.757 -0.0030  0.1875  0.1334
 1033SOL    HW114735   3.430   3.208   7.688  0.7083  1.7503 -0.9867
 1033SOL    HW214736   3.471   3.337   7.749  0.5915 -0.4367 -0.1151
 1034SOL     OW14737   0.862   2.746   8.231  0.0109  0.0040 -0.0613
 1034SOL    HW114738   0.799   2.811   8.263  2.0796  0.9004  2.1870
 1034SOL    HW214739   0.932   2.747   8.297 -0.4944  0.1795  0.4756
 1035SOL     OW14740   3.232   4.119  15.259  1.0039  0.1097  0.1076
 1035SOL    HW114741   3.192   4.161  15.184 -1.1011  0.7696  1.5942
 1035SOL    HW214742   3.190   4.154  15.338  0.0657 -1.3102  0.2435
 1036SOL     OW14743   0.733   2.807   8.873  0.2235  0.4063  0.3077
 1036SOL    HW114744   0.788   2.754   8.932  0.6822  2.3986  1.6760
 1036SOL    HW214745   0.798   2.822   8.805 -1.2198  0.4568 -1.0380
 1037SOL     OW14746   2.356   0.412  12.957  0.1659 -0.1761  0.3077
 1037SOL    HW114747   2.335   0.324  12.986 -1.5747  0.3956  0.8245
 1037SOL    HW214748   2.269   0.435  12.922  0.5928  1.1943  0.1497
 1038SOL     OW14749   3.021   0.262   2.234  0.4046  0.0326 -0.4145
 1038SOL    HW114750   3.095   0.237   2.178  0.9918  1.0251 -0.0736
 1038SOL    HW214751   3.028   0.357   2.241  0.3565  0.1880 -2.2413
 1039SOL     OW14752   0.982   0.383  13.234  0.0383 -0.1017 -0.4907
 1039SOL    HW114753   0.966   0.348  13.147  0.2803  0.4892 -0.7750
 1039SOL    HW214754   1.077   0.391  13.221 -0.2592  0.4042 -2.2810
 1040SOL     OW14755   2.846   4.017   9.051 -0.1661  0.0341  0.2026
 1040SOL    HW114756   2.831   4.057   9.136 -1.3012  1.1706 -0.5383
 1040SOL    HW214757   2.767   4.037   9.001  0.4040 -0.1135 -0.7633
 1041SOL     OW14758   1.363   1.508   3.779 -0.2639 -0.0390 -0.6405
 1041SOL    HW114759   1.353   1.564   3.702 -3.0027  3.0424  2.0094
 1041SOL    HW214760   1.400   1.565   3.846 -2.8174 -0.1962  0.8961
 1042SOL     OW14761   0.897   0.678  16.315 -0.4196 -0.8588 -0.5492
 1042SOL    HW114762   0.993   0.686  16.322 -0.7508  1.2358  1.8945
 1042SOL    HW214763   0.877   0.589  16.342  0.5707 -0.9502 -0.0948
 1043SOL     OW14764   4.662   3.442   8.250 -0.0428  0.0217 -0.1509
 1043SOL    HW114765   4.632   3.528   8.281  1.5260  0.4231  0.2641
 1043SOL    HW214766   4.711   3.469   8.173 -0.5782 -0.2891 -0.5964
 1044SOL     OW14767   0.793   3.549   6.843 -0.3724 -0.0552 -0.2269
 1044SOL    HW114768   0.765   3.486   6.776  0.0696 -0.8751  0.3601
 1044SOL    HW214769   0.713   3.600   6.839 -0.3324  0.0710  0.5502
 1045SOL     OW14770   3.598   2.601  16.737 -0.5736  0.0795  0.1077
 1045SOL    HW114771   3.615   2.509  16.753 -1.2175 -0.4782 -2.3656
 1045SOL    HW214772   3.503   2.604  16.751 -0.3061  2.0714  1.4969
 1046SOL     OW14773   4.013   4.383   1.708 -0.1579  0.0840 -0.1993
 1046SOL    HW114774   3.975   4.470   1.720 -2.3619 -1.1435  1.6363
 1046SOL    HW214775   4.106   4.400   1.692 -0.0265 -0.2794  0.1883
 1047SOL     OW14776   2.779   4.693   1.232 -0.1194 -0.1226 -0.1321
 1047SOL    HW114777   2.851   4.675   1.293 -1.2311 -0.7589  1.0072
 1047SOL    HW214778   2.726   4.616   1.252  0.7150 -1.8497 -4.5397
 1048SOL     OW14779   4.257   0.938   3.501 -0.2013  0.3033 -0.1704
 1048SOL    HW114780   4.227   1.028   3.512  0.4251  0.4579  0.2953
 1048SOL    HW214781   4.333   0.946   3.443  0.7009 -1.4558  0.7655
 1049SOL     OW14782   2.797   3.042   0.745 -0.2088  0.2219 -0.5538
 1049SOL    HW114783   2.776   2.992   0.823 -1.1213 -1.0416 -1.6148
 1049SOL    HW214784   2.736   3.003   0.683 -1.5631  0.9985  0.2885
 1050SOL     OW14785   3.505   3.471   5.217  0.7570  0.3435  0.3525
 1050SOL    HW114786   3.523   3.381   5.189  0.4461  1.6729 -4.0820
 1050SOL    HW214787   3.428   3.456   5.272 -0.1161 -0.4711 -1.1153
 1051SOL     OW14788   4.279   0.875   8.288  0.4093 -0.3022 -0.5842
 1051SOL    HW114789   4.313   0.848   8.203 -0.5113 -1.7244 -0.5048
 1051SOL    HW214790   4.261   0.788   8.326 -1.9666  0.5145  0.2224
 1052SOL     OW14791   1.914   1.105  17.402  0.1823 -0.7869 -0.2670
 1052SOL    HW114792   1.837   1.161  17.397 -0.4362 -1.4983  1.1951
 1052SOL    HW214793   1.953   1.146  17.479 -0.3486  0.5028 -0.6852
 1053SOL     OW14794   4.347   1.170   1.554 -0.0752  0.4313 -0.7281
 1053SOL    HW114795   4.296   1.244   1.521 -0.5957  0.2783 -0.2760
 1053SOL    HW214796   4.395   1.159   1.472 -0.6623  2.4641 -1.3342
 1054SOL     OW14797   4.529   4.699   8.338 -0.4770 -0.7551 -0.1150
 1054SOL    HW114798   4.472   4.643   8.392 -0.3828  1.1398  1.9740
 1054SOL    HW214799   4.615   4.687   8.378  0.0453  0.9593 -0.7345
 1055SOL     OW14800   1.217   4.033  13.573 -0.2415 -0.0527  0.1563
 1055SOL    HW114801   1.124   4.012  13.580 -0.1989 -0.1057  0.5518
 1055SOL    HW214802   1.242   4.010  13.662  0.7860 -3.5704 -1.0529
 1056SOL     OW14803   2.343   1.881   1.078 -0.0784 -0.3792  0.0322
 1056SOL    HW114804   2.336   1.972   1.107  0.4438  0.4524 -2.4425
 1056SOL    HW214805   2.321   1.897   0.986 -0.4023 -0.0672  0.1669
 1057SOL     OW14806   4.556   2.262   9.602  0.3710 -0.0047 -0.4781
 1057SOL    HW114807   4.632   2.224   9.558  0.7307 -0.7746  0.8154
 1057SOL    HW214808   4.577   2.356   9.601 -1.9981  0.5810  2.9723
 1058SOL     OW14809   4.574   4.462   8.552 -0.2114 -0.3052  0.1714
 1058SOL    HW114810   4.572   4.497   8.641 -2.6482  1.4211 -0.5531
 1058SOL    HW214811   4.578   4.369   8.573  0.1543 -0.3678 -0.1763
 1059SOL     OW14812   0.461   2.533   5.328 -0.0638 -0.0132 -0.2138
 1059SOL    HW114813   0.545   2.488   5.336 -0.6568 -0.8227  1.4723
 1059SOL    HW214814   0.413   2.477   5.266  0.3254  1.1103 -1.5435
 1060SOL     OW14815   4.111   0.254   3.864 -0.7092  0.2004  0.0212
 1060SOL    HW114816   4.030   0.258   3.813 -1.5940  0.6483  1.4643
 1060SOL    HW214817   4.142   0.342   3.845 -0.1588  0.0190  0.0725
 1061SOL     OW14818   4.200   4.449  14.569  0.5356 -0.0134  0.4024
 1061SOL    HW114819   4.181   4.420  14.480  0.5184 -2.6125  1.2509
 1061SOL    HW214820   4.166   4.538  14.562 -1.7299 -0.7915  1.6754
 1062SOL     OW14821   0.878   0.788  13.779  0.1137  0.0647  0.0362
 1062SOL    HW114822   0.895   0.795  13.873 -1.8490  0.3470  0.3662
 1062SOL    HW214823   0.824   0.710  13.792 -0.0377  0.1771  0.0812
 1063SOL     OW14824   0.576   1.890   6.123 -0.0334  0.5826 -0.2957
 1063SOL    HW114825   0.554   1.821   6.061  2.8393 -0.7761  0.2084
 1063SOL    HW214826   0.671   1.882   6.123  0.0309  1.3962 -1.4155
 1064SOL     OW14827   0.439   0.603   5.520  0.3671 -0.4438 -0.5989
 1064SOL    HW114828   0.509   0.654   5.561 -1.0804  2.7674 -2.1007
 1064SOL    HW214829   0.407   0.552   5.594  1.6622  0.3694  0.5288
 1065SOL     OW14830   2.558   2.870   9.919  0.2858  0.1748 -0.6627
 1065SOL    HW114831   2.502   2.817   9.974  2.5605 -1.9886 -0.4371
 1065SOL    HW214832   2.514   2.849   9.837 -2.5139  0.0440  0.8956
 1066SOL     OW14833   3.868   3.059   3.202 -0.0801 -0.4661 -0.2057
 1066SOL    HW114834   3.850   3.102   3.118  0.6710 -0.9693 -0.6314
 1066SOL    HW214835   3.962   3.069   3.217  0.0698 -2.8023  0.4161
 1067SOL     OW14836   1.627   4.313   5.631 -0.1711  0.2057 -0.2668
 1067SOL    HW114837   1.564   4.242   5.641  0.1221 -0.0036  0.0555
 1067SOL    HW214838   1.611   4.357   5.547 -2.0905  0.1807  0.0933
 1068SOL     OW14839   1.967   0.578   2.153 -0.2920  0.0007  0.3449
 1068SOL    HW114840   2.023   0.558   2.228 -0.1616 -0.5727  0.0906
 1068SOL    HW214841   1.991   0.498   2.107  1.3574 -0.5650  2.1586
 1069SOL     OW14842   0.937   4.407   4.179 -0.2958  0.0601 -0.0011
 1069SOL    HW114843   0.962   4.400   4.271  0.1414  1.1699 -0.0387
 1069SOL    HW214844   0.971   4.323   4.146 -2.1137 -0.5251 -0.3765
 1070SOL     OW14845   0.703   1.085   7.553 -0.2459  0.2227 -0.3475
 1070SOL    HW114846   0.746   1.155   7.503  0.0280 -0.7125 -1.4109
 1070SOL    HW214847   0.753   1.088   7.635  2.0377  2.2551 -1.8005
 1071SOL     OW14848   4.680   0.583   2.839 -0.3338  0.3490  0.6022
 1071SOL    HW114849   4.639   0.532   2.909 -1.2672  0.7833  0.3784
 1071SOL    HW214850   4.664   0.532   2.760 -0.1338 -0.8045  1.3065
 1072SOL     OW14851   0.006   1.374   1.592 -0.0614 -0.3680  0.0775
 1072SOL    HW114852   4.732   1.296   1.538  0.0481 -2.0249  2.4462
 1072SOL    HW214853   0.085   1.358   1.643 -0.7984 -1.3150  0.9077
 1073SOL     OW14854   1.870   2.628   4.494  0.4018 -0.6469  0.3288
 1073SOL    HW114855   1.889   2.722   4.490 -1.5689 -0.2451  0.3513
 1073SOL    HW214856   1.937   2.595   4.434 -0.1519 -0.3097 -0.4615
 1074SOL     OW14857   2.203   1.229   2.184 -0.0428 -0.1944 -0.5815
 1074SOL    HW114858   2.198   1.176   2.263  1.0653 -2.0892 -1.7838
 1074SOL    HW214859   2.218   1.170   2.110  1.2881  2.8675 -2.7578
 1075SOL     OW14860   3.736   3.179   1.460  0.0393  0.2629 -0.1079
 1075SOL    HW114861   3.793   3.134   1.523  0.4732  0.3721 -0.4246
 1075SOL    HW214862   3.656   3.150   1.505 -0.2821  1.5740  0.1746
 1076SOL     OW14863   4.334   1.570  13.094 -0.5634 -0.8310 -0.0564
 1076SOL    HW114864   4.300   1.488  13.059  0.2854 -1.1541 -0.1234
 1076SOL    HW214865   4.427   1.550  13.102 -0.4905 -1.6724 -2.9315
 1077SOL     OW14866   2.319   4.663   7.575  0.2404 -0.1153  0.0552
 1077SOL    HW114867   2.360   0.006   7.548 -2.0326  0.7292 -0.7936
 1077SOL    HW214868   2.373   4.642   7.651  0.4938 -1.2645 -0.4457
 1078SOL     OW14869   1.484   4.167   2.464  0.3945 -0.3593  0.6141
 1078SOL    HW114870   1.484   4.222   2.543 -1.1733 -0.2320  0.5249
 1078SOL    HW214871   1.560   4.189   2.411 -0.5025  0.2659 -0.4287
 1079SOL     OW14872   3.999   0.519   6.623  0.5165 -0.1110 -0.6629
 1079SOL    HW114873   4.012   0.595   6.680 -0.1496 -0.3438 -0.1969
 1079SOL    HW214874   4.091   0.510   6.598  0.0904  2.1264 -3.0733
 1080SOL     OW14875   1.964   0.394   8.450  0.2684 -0.4708 -0.1220
 1080SOL    HW114876   1.950   0.478   8.405 -0.4970 -0.1394  0.7441
 1080SOL    HW214877   1.991   0.338   8.377 -0.7982 -2.8384  1.3069
 1081SOL     OW14878   1.495   2.582   6.295  0.1202  0.0143 -0.2478
 1081SOL    HW114879   1.471   2.631   6.374  1.2925  2.3827 -1.3757
 1081SOL    HW214880   1.420   2.524   6.280 -1.4357  1.6275  1.3763
 1082SOL     OW14881   2.781   4.320   4.454  0.3596  0.0636 -0.5089
 1082SOL    HW114882   2.869   4.321   4.416  0.4054 -1.9736 -0.4399
 1082SOL    HW214883   2.804   4.299   4.544  0.0575  2.6204  0.1757
 1083SOL     OW14884   0.916   4.109   7.286 -0.2141  0.2527  0.5504
 1083SOL    HW114885   0.913   4.198   7.321 -1.5866 -0.2014  1.6070
 1083SOL    HW214886   0.833   4.098   7.239  1.1974 -1.5328 -1.5356
 1084SOL     OW14887   1.772   2.657   1.763 -0.5046  0.4664 -0.1004
 1084SOL    HW114888   1.732   2.571   1.776  2.6997 -1.3778 -2.1444
 1084SOL    HW214889   1.721   2.708   1.826  0.6324  1.4518  0.0206
 1085SOL     OW14890   2.387   3.913  11.096 -0.2063  0.0408 -0.0786
 1085SOL    HW114891   2.314   3.905  11.158 -0.7199  2.8215 -0.3597
 1085SOL    HW214892   2.331   3.935  11.021 -0.8868 -0.4772  0.2691
 1086SOL     OW14893   3.028   3.415   6.353 -0.0472 -0.7635 -0.3236
 1086SOL    HW114894   2.941   3.412   6.394  0.0646 -1.2924 -0.1362
 1086SOL    HW214895   3.048   3.322   6.354  1.7203 -0.3918 -2.7375
 1087SOL     OW14896   3.824   1.220   4.433 -0.3210  0.0310 -0.1998
 1087SOL    HW114897   3.893   1.217   4.499  1.2177  1.4558 -1.7156
 1087SOL    HW214898   3.763   1.156   4.469  0.3923  0.3463  1.5702
 1088SOL     OW14899   2.018   4.389   7.055  0.3203  0.3433 -0.3116
 1088SOL    HW114900   2.010   4.379   7.150 -1.0999  5.5860  0.1319
 1088SOL    HW214901   2.086   4.325   7.033  0.5350  0.9600 -1.4150
 1089SOL     OW14902   2.068   0.776   1.997 -0.1629 -0.1833 -0.0341
 1089SOL    HW114903   1.987   0.821   1.975  0.4225  1.4689  1.1585
 1089SOL    HW214904   2.042   0.717   2.068 -0.9093  2.1705  1.6284
 1090SOL     OW14905   0.989   2.173   3.363  0.4224  0.2310 -0.5282
 1090SOL    HW114906   0.897   2.160   3.340  0.3945  0.2479 -0.4255
 1090SOL    HW214907   1.038   2.144   3.286 -1.1101  0.8142 -1.7350
 1091SOL     OW14908   1.524   0.652   5.521 -0.1155 -0.1329 -0.3236
 1091SOL    HW114909   1.504   0.722   5.584  0.5987 -0.3931  0.2025
 1091SOL    HW214910   1.551   0.707   5.447 -2.6470  1.9984  0.3274
 1092SOL     OW14911   2.127   0.889   4.693 -0.2489 -0.1853  0.4912
 1092SOL    HW114912   2.121   0.795   4.674  0.1148 -0.2797  0.8636
 1092SOL    HW214913   2.215   0.890   4.728 -0.2556 -0.6539  0.5193
 1093SOL     OW14914   3.873   3.882   6.660  0.3344 -0.1872 -0.1230
 1093SOL    HW114915   3.893   3.804   6.712  1.9398 -0.6692 -1.5008
 1093SOL    HW214916   3.894   3.846   6.574 -3.1406  0.7770 -1.3923
 1094SOL     OW14917   4.631   3.353   5.352  0.0652 -0.1391 -0.4297
 1094SOL    HW114918   4.587   3.370   5.435  1.9026  1.7577  0.1500
 1094SOL    HW214919   4.631   3.257   5.358  3.1708  0.0093  1.4284
 1095SOL     OW14920   3.612   2.562   4.938 -0.0579  0.0853  0.3291
 1095SOL    HW114921   3.626   2.479   4.892  1.0012  0.5966 -0.2866
 1095SOL    HW214922   3.527   2.548   4.978  0.0818 -1.2659  0.1733
 1096SOL     OW14923   4.209   3.534   4.204 -0.2796  0.0920  0.3023
 1096SOL    HW114924   4.128   3.584   4.213 -0.3364 -0.6885  4.2801
 1096SOL    HW214925   4.175   3.450   4.234 -1.5407  1.4303  2.5803
 1097SOL     OW14926   1.682   0.705   7.062 -0.0299  0.0663  0.2832
 1097SOL    HW114927   1.595   0.703   7.022  0.1455  3.1244 -0.2919
 1097SOL    HW214928   1.731   0.691   6.980  0.9036 -0.4808  0.9426
 1098SOL     OW14929   3.546   0.992   9.452 -0.1585  0.2602  0.2978
 1098SOL    HW114930   3.512   1.072   9.491 -0.8906  0.7705 -1.3708
 1098SOL    HW214931   3.557   0.939   9.531  0.5300 -2.4046 -1.5701
 1099SOL     OW14932   0.464   3.532   3.133  0.3476  0.2643  0.0485
 1099SOL    HW114933   0.462   3.489   3.218 -2.0605  1.0938  0.4196
 1099SOL    HW214934   0.418   3.461   3.088  2.4492 -1.4215  0.5656
 1100SOL     OW14935   4.173   3.881  14.307 -0.5063  0.7915  0.2441
 1100SOL    HW114936   4.253   3.930  14.289 -0.0611  0.0698  0.2650
 1100SOL    HW214937   4.219   3.797  14.305 -1.8532  0.0260  1.4020
 1101SOL     OW14938   4.360   0.294  17.519 -0.1381 -0.2298 -0.0194
 1101SOL    HW114939   4.431   0.280  17.581  0.4833  2.7332 -0.0698
 1101SOL    HW214940   4.305   0.341  17.582 -1.8040 -3.0352  0.6317
 1102SOL     OW14941   2.022   4.218  12.990  0.2076  0.1287 -0.1919
 1102SOL    HW114942   1.975   4.242  12.910 -0.9471  1.8950  1.0488
 1102SOL    HW214943   1.972   4.264  13.057  0.1416  0.4718 -0.4754
 1103SOL     OW14944   1.012   3.255   7.137 -0.0925  0.2232 -0.2491
 1103SOL    HW114945   0.920   3.279   7.146 -0.6790 -1.5237 -1.3773
 1103SOL    HW214946   0.996   3.160   7.138 -3.7571  0.8381 -0.3014
 1104SOL     OW14947   2.851   4.144  14.545 -0.0687 -0.1057  0.2396
 1104SOL    HW114948   2.836   4.076  14.480  4.3181 -0.7936 -0.0229
 1104SOL    HW214949   2.790   4.211  14.512 -0.0549 -1.0906 -1.7701
 1105SOL     OW14950   1.533   4.074  16.982  0.3496  0.2286 -0.2222
 1105SOL    HW114951   1.490   3.990  16.999 -1.6448  0.8457 -2.0956
 1105SOL    HW214952   1.462   4.131  16.951 -0.9612 -1.3540 -0.1236
 1106SOL     OW14953   0.919   3.471  14.278 -0.3837 -0.4960 -0.1448
 1106SOL    HW114954   0.871   3.505  14.353  1.0688  1.3159 -0.0491
 1106SOL    HW214955   0.986   3.422  14.325 -0.0303  1.6329  1.5189
 1107SOL     OW14956   1.353   3.194  17.172  0.6903  0.3784 -0.0208
 1107SOL    HW114957   1.310   3.119  17.213  0.6324  0.0183 -0.7447
 1107SOL    HW214958   1.366   3.253  17.246 -0.9406 -0.8839  1.2801
 1108SOL     OW14959   3.100   3.155   6.340  0.0914  0.3214  0.3867
 1108SOL    HW114960   3.008   3.135   6.320 -0.1671  1.1860  0.6955
 1108SOL    HW214961   3.094   3.127   6.432  1.4176 -0.6524  0.1705
 1109SOL     OW14962   0.840   3.049  15.141  0.1042 -0.4953  0.0135
 1109SOL    HW114963   0.927   3.011  15.138  0.1727 -0.4317  1.6871
 1109SOL    HW214964   0.840   3.089  15.053  0.0885 -2.5902 -0.9365
 1110SOL     OW14965   0.166   1.278   8.589  0.1150  0.5311  0.2976
 1110SOL    HW114966   0.181   1.227   8.509 -2.1018  0.8245 -0.3113
 1110SOL    HW214967   0.075   1.299   8.568 -0.4585 -1.5960  0.6163
 1111SOL     OW14968   3.466   3.241  11.235  0.4031 -0.5823 -0.2118
 1111SOL    HW114969   3.461   3.273  11.145 -0.3939 -1.6142 -0.5461
 1111SOL    HW214970   3.380   3.198  11.241  0.2029  0.0109  1.1615
 1112SOL     OW14971   2.064   2.073   4.206 -0.0987  0.0380  0.2670
 1112SOL    HW114972   1.971   2.093   4.214 -0.2249 -0.5408  0.2469
 1112SOL    HW214973   2.073   1.997   4.148 -1.7524  0.3281 -0.3838
 1113SOL     OW14974   2.942   4.706  13.690 -0.1765  0.2107 -0.2792
 1113SOL    HW114975   2.975   0.040  13.638 -2.4634  0.5595 -1.2371
 1113SOL    HW214976   3.021   4.652  13.693 -0.4753 -0.1865  0.4597
 1114SOL     OW14977   1.828   2.555   1.108 -0.3435 -0.1237  0.0232
 1114SOL    HW114978   1.778   2.578   1.030 -0.4673 -1.9977 -0.4601
 1114SOL    HW214979   1.916   2.569   1.074 -0.2219  1.1867  0.8770
 1115SOL     OW14980   0.104   1.219   3.534 -0.0301 -0.1034  0.2570
 1115SOL    HW114981   0.147   1.148   3.580 -0.7814 -1.5335 -1.2184
 1115SOL    HW214982   0.067   1.170   3.460  0.5200 -1.2875  0.7606
 1116SOL     OW14983   3.135   3.810   3.758  0.0961 -0.6074 -0.0424
 1116SOL    HW114984   3.153   3.899   3.788 -1.2821 -1.3803  3.0634
 1116SOL    HW214985   3.213   3.775   3.716 -0.3402 -2.1602  0.4257
 1117SOL     OW14986   2.195   2.909   2.103  0.4132 -0.1265 -0.3610
 1117SOL    HW114987   2.243   2.901   2.021  2.4659 -0.4793  0.8883
 1117SOL    HW214988   2.127   2.844   2.083  0.6841 -0.6508  0.4438
 1118SOL     OW14989   3.712   4.319  12.778 -0.3492  0.4415  0.0527
 1118SOL    HW114990   3.759   4.350  12.701 -0.1600  0.5142  0.1951
 1118SOL    HW214991   3.775   4.256  12.814  1.9851  1.5672 -2.0911
 1119SOL     OW14992   1.592   3.324   9.403  0.0168 -0.1373  0.3535
 1119SOL    HW114993   1.515   3.335   9.347  0.2096  0.5173  0.2154
 1119SOL    HW214994   1.634   3.410   9.395  0.6776 -0.3955  1.1516
 1120SOL     OW14995   0.402   3.881   4.288 -0.6505  0.3496 -0.4825
 1120SOL    HW114996   0.312   3.854   4.271 -0.3391  0.2733 -1.9713
 1120SOL    HW214997   0.384   3.975   4.292  1.7672  0.7200  2.2687
 1121SOL     OW14998   2.654   1.089   6.089  0.0279  0.0204  0.5933
 1121SOL    HW114999   2.640   1.076   6.183  1.8814  1.4559  1.0715
 1121SOL    HW215000   2.652   1.184   6.080 -1.3934  0.1141  1.8907
 1122SOL     OW15001   1.951   3.408   7.986  0.6191 -0.2653 -0.0254
 1122SOL    HW115002   1.900   3.487   8.002  0.4324 -0.6126  1.0885
 1122SOL    HW215003   1.990   3.418   7.899 -0.2549  2.2097 -0.1336
 1123SOL     OW15004   2.097   4.049   8.020  0.1177 -0.5070 -0.0645
 1123SOL    HW115005   2.016   4.035   7.970  0.5705 -1.6816 -0.4654
 1123SOL    HW215006   2.144   3.969   7.998  0.6403 -0.6598  1.5963
 1124SOL     OW15007   2.950   0.277   4.863 -1.0634 -0.6704 -0.3998
 1124SOL    HW115008   2.880   0.232   4.818 -1.1357 -0.2266 -0.7362
 1124SOL    HW215009   2.985   0.200   4.908 -0.5341 -0.9450 -1.2929
 1125SOL     OW15010   1.409   1.511   8.600  0.0767 -0.0725  0.0483
 1125SOL    HW115011   1.401   1.541   8.691  0.5564 -2.0076  0.7343
 1125SOL    HW215012   1.489   1.552   8.568 -0.5561  0.2035 -1.1777
 1126SOL     OW15013   3.209   2.557   3.870  0.5878 -0.2574  0.4807
 1126SOL    HW115014   3.197   2.615   3.946 -0.8952  1.0794 -0.7765
 1126SOL    HW215015   3.129   2.504   3.870 -0.1937  0.9292  0.1436
 1127SOL     OW15016   4.385   3.401   2.466 -0.5118 -0.0089  0.7893
 1127SOL    HW115017   4.380   3.392   2.371  1.1281  0.7013  0.6310
 1127SOL    HW215018   4.451   3.336   2.489  0.8037  1.5991  1.5417
 1128SOL     OW15019   2.581   0.033   2.929  0.2678  0.6140 -0.2050
 1128SOL    HW115020   2.535   0.088   2.993 -0.1730 -0.2567  0.2268
 1128SOL    HW215021   2.628   0.101   2.881  0.0447  1.4101  0.6872
 1129SOL     OW15022   0.211   2.741   7.347 -0.4432 -0.4047 -0.4455
 1129SOL    HW115023   0.277   2.672   7.352 -1.0695 -1.0204 -0.8205
 1129SOL    HW215024   0.211   2.790   7.429  3.5293  0.4561 -0.9032
 1130SOL     OW15025   4.550   0.753   2.487  0.3257 -0.1295 -0.4175
 1130SOL    HW115026   4.610   0.778   2.557  0.3089  0.8951 -0.7819
 1130SOL    HW215027   4.602   0.701   2.426 -0.6498 -1.3431 -0.2270
 1131SOL     OW15028   4.151   0.620   0.761 -0.0869 -0.2117 -0.5560
 1131SOL    HW115029   4.116   0.688   0.819  2.3888  1.3229 -0.8377
 1131SOL    HW215030   4.204   0.572   0.825  1.1159  0.7109 -0.8714
 1132SOL     OW15031   1.736   4.729   0.241  1.0946  0.3097  0.2996
 1132SOL    HW115032   1.814   4.711   0.293 -0.6640  0.8704  3.1005
 1132SOL    HW215033   1.708   4.637   0.231  0.9461 -0.1399  5.0896
 1133SOL     OW15034   4.265   2.854   2.944  0.0532 -0.0624 -0.6247
 1133SOL    HW115035   4.339   2.882   2.889  0.9385 -1.8880 -0.3417
 1133SOL    HW215036   4.315   2.855   3.025  0.4320  1.3205 -0.8654
 1134SOL     OW15037   0.428   4.045  17.063  0.2167 -0.3894 -0.4255
 1134SOL    HW115038   0.480   4.023  16.986  2.5183 -0.9167  1.2589
 1134SOL    HW215039   0.368   4.112  17.032  2.7101 -0.3502 -5.2097
 1135SOL     OW15040   0.810   0.332  17.168  0.3052  0.4490 -0.4909
 1135SOL    HW115041   0.715   0.328  17.157  0.0166 -0.8778  2.5394
 1135SOL    HW215042   0.823   0.250  17.217 -0.9818 -0.3743 -1.5476
 1136SOL     OW15043   3.256   3.350   1.632 -0.0641 -0.2576 -0.5070
 1136SOL    HW115044   3.202   3.423   1.662 -0.4577 -0.3141 -1.0837
 1136SOL    HW215045   3.261   3.361   1.537  2.6010  1.2297 -0.1998
 1137SOL     OW15046   3.352   1.924  11.586  0.2082  0.4492 -0.6877
 1137SOL    HW115047   3.354   1.951  11.678 -1.3160  1.2375 -0.8877
 1137SOL    HW215048   3.383   2.004  11.542  1.1960  1.1387  1.2634
 1138SOL     OW15049   2.437   4.703   3.869 -0.4049  0.2922 -0.0045
 1138SOL    HW115050   2.491   4.630   3.839  0.4689  0.4556  1.1630
 1138SOL    HW215051   2.412   4.659   3.950  0.5212 -0.5899 -0.1997
 1139SOL     OW15052   1.286   0.468  12.654  0.0213 -0.2529  0.0950
 1139SOL    HW115053   1.197   0.443  12.628  0.3248 -1.6088  0.3467
 1139SOL    HW215054   1.296   0.554  12.612  3.8284 -0.9747 -0.5372
 1140SOL     OW15055   4.383   2.171   9.201  0.8143 -0.1939 -0.2618
 1140SOL    HW115056   4.351   2.219   9.277  0.5256  0.3159 -0.7089
 1140SOL    HW215057   4.367   2.082   9.233  1.6605  0.3063  1.5269
 1141SOL     OW15058   1.313   3.170   4.581  0.3885  0.2606  0.6093
 1141SOL    HW115059   1.224   3.207   4.582  0.9441  1.5904  0.5157
 1141SOL    HW215060   1.314   3.120   4.500  0.6610  0.7314  0.3267
 1142SOL     OW15061   2.040   0.707   4.304 -0.1066 -0.0977 -0.9544
 1142SOL    HW115062   1.964   0.695   4.361 -0.2623  0.5138 -1.0368
 1142SOL    HW215063   2.108   0.687   4.368 -1.6468 -0.4218  0.5853
 1143SOL     OW15064   2.808   1.989   1.953 -0.4130  0.4248 -0.2370
 1143SOL    HW115065   2.856   2.064   1.988 -1.9810  0.5427  1.6511
 1143SOL    HW215066   2.887   1.953   1.913 -0.3733  0.4353 -0.1689
 1144SOL     OW15067   0.679   1.384   1.398  0.5328  0.5927 -0.2977
 1144SOL    HW115068   0.758   1.435   1.415  0.4842  0.3632  0.6318
 1144SOL    HW215069   0.607   1.437   1.433 -0.7888 -0.9061 -0.7514
 1145SOL     OW15070   1.097   4.304   5.026  0.7862  0.3614  0.0634
 1145SOL    HW115071   1.098   4.350   5.109 -1.7981 -0.8495  0.7964
 1145SOL    HW215072   1.096   4.212   5.052 -2.3989 -0.0876 -1.5644
 1146SOL     OW15073   3.310   2.614  11.423  0.6509 -0.1647  0.2348
 1146SOL    HW115074   3.226   2.605  11.468  0.7358  2.0762  0.8688
 1146SOL    HW215075   3.299   2.704  11.392  1.2192 -0.9067 -2.0772
 1147SOL     OW15076   0.716   4.380   3.683 -0.0804 -0.3410  0.1959
 1147SOL    HW115077   0.810   4.367   3.698  0.3447  1.0985 -1.1158
 1147SOL    HW215078   0.684   4.378   3.773  0.1258  2.4325  0.3569
 1148SOL     OW15079   2.426   3.551  10.359  0.4452 -0.4480 -0.2228
 1148SOL    HW115080   2.383   3.631  10.389  1.4545 -1.1434  2.9890
 1148SOL    HW215081   2.394   3.482  10.416 -0.2571  0.3903  0.4049
 1149SOL     OW15082   3.279   2.625   5.535 -0.1942  0.4531  0.1090
 1149SOL    HW115083   3.366   2.616   5.497  0.1278  0.5922  0.8305
 1149SOL    HW215084   3.249   2.700   5.484  2.2600 -0.4146 -2.5883
 1150SOL     OW15085   2.021   4.303   2.537  0.1169  0.0646  0.8528
 1150SOL    HW115086   2.063   4.240   2.595  0.5360 -0.7404 -0.3254
 1150SOL    HW215087   1.935   4.313   2.578 -1.1010  1.6294 -2.0573
 1151SOL     OW15088   0.770   3.240   8.650  0.4651 -0.1872 -0.6969
 1151SOL    HW115089   0.686   3.284   8.661  0.6754 -0.6512  2.9196
 1151SOL    HW215090   0.741   3.150   8.670  0.5585 -0.2438 -0.8186
 1152SOL     OW15091   0.327   1.634  17.396 -0.3702  0.4936 -0.2602
 1152SOL    HW115092   0.292   1.555  17.438  2.0171 -0.2984  0.2685
 1152SOL    HW215093   0.293   1.699  17.458  0.0736 -0.8959  1.4632
 1153SOL     OW15094   1.599   3.833   8.030 -0.0234  0.2791  0.1266
 1153SOL    HW115095   1.530   3.769   8.048 -0.8540  1.7453  2.1758
 1153SOL    HW215096   1.610   3.826   7.936  0.6144  0.8917  0.1495
 1154SOL     OW15097   0.932   1.327   9.032  0.0694  0.0587 -0.3715
 1154SOL    HW115098   1.028   1.332   9.025  0.0671 -0.5531 -0.8502
 1154SOL    HW215099   0.923   1.282   9.115  0.3816  2.1765  0.8047
 1155SOL     OW15100   3.030   2.751  15.665  0.5368 -0.0354  0.4580
 1155SOL    HW115101   3.112   2.707  15.648 -0.1151 -0.3542 -1.8673
 1155SOL    HW215102   3.035   2.837  15.623  0.8435 -0.7304 -0.9310
 1156SOL     OW15103   3.839   0.509   8.128  0.1101 -0.5657  0.3999
 1156SOL    HW115104   3.755   0.540   8.095  0.0865 -0.9997  0.0557
 1156SOL    HW215105   3.835   0.513   8.224 -0.1836  1.1764  0.3178
 1157SOL     OW15106   4.312   3.119   2.738  0.5893  0.1557  0.5703
 1157SOL    HW115107   4.399   3.114   2.697 -0.6780 -1.0761 -1.9492
 1157SOL    HW215108   4.284   3.032   2.711  0.6353  1.1635 -2.7193
 1158SOL     OW15109   1.531   0.903   6.369  0.1261  0.2555 -0.1471
 1158SOL    HW115110   1.601   0.891   6.305  1.1580 -0.7789  1.1739
 1158SOL    HW215111   1.464   0.950   6.319  0.3064  1.3447  0.6454
 1159SOL     OW15112   2.527   3.983  10.648 -0.3146  0.2187  0.5051
 1159SOL    HW115113   2.545   3.971  10.555 -0.3264  3.1307  0.1344
 1159SOL    HW215114   2.602   3.935  10.682 -1.8762 -2.7618 -0.2165
 1160SOL     OW15115   3.693   3.829   7.622 -0.6355 -0.3368  0.6727
 1160SOL    HW115116   3.638   3.811   7.698 -0.4952  2.0582  1.3524
 1160SOL    HW215117   3.786   3.823   7.646 -0.7337  0.3444  1.2263
 1161SOL     OW15118   4.716   0.005   8.654 -0.3492  0.4436 -0.1963
 1161SOL    HW115119   0.034   4.670   8.674  1.4157  1.3382 -1.8604
 1161SOL    HW215120   0.002   0.076   8.713  1.0419  0.7422 -1.1404
 1162SOL     OW15121   0.128   2.378   6.555 -0.1344 -0.4552 -0.3105
 1162SOL    HW115122   0.088   2.345   6.635 -0.3015  1.7845  0.5274
 1162SOL    HW215123   0.101   2.314   6.490 -0.8345 -0.1177 -0.3502
 1163SOL     OW15124   0.439   4.117   4.877  0.2549  0.1870 -0.0824
 1163SOL    HW115125   0.446   4.073   4.793 -1.1351  0.5991 -0.4156
 1163SOL    HW215126   0.353   4.161   4.877 -0.8651 -2.0268 -0.2008
 1164SOL     OW15127   0.449   4.197   1.642 -0.5402 -0.2854  0.3459
 1164SOL    HW115128   0.425   4.105   1.652 -1.3222 -0.1783 -0.6057
 1164SOL    HW215129   0.512   4.189   1.571  0.5047  0.8070  1.1430
 1165SOL     OW15130   3.790   2.247   4.604 -0.2351  0.1263 -0.0527
 1165SOL    HW115131   3.799   2.152   4.608 -2.8017 -0.1945 -1.8750
 1165SOL    HW215132   3.862   2.280   4.550  0.5519  1.2900  1.6936
 1166SOL     OW15133   4.696   2.683  17.324  0.0509  0.2213 -0.2011
 1166SOL    HW115134   4.700   2.662  17.230 -1.6917 -0.9593 -0.0048
 1166SOL    HW215135   4.731   2.601  17.357 -1.5541  0.1492  1.2603
 1167SOL     OW15136   3.317   2.252   3.886 -0.0471 -0.2673 -0.3618
 1167SOL    HW115137   3.372   2.308   3.830  1.8338 -3.4143 -1.6252
 1167SOL    HW215138   3.290   2.194   3.815 -0.3863  0.9735 -1.2577
 1168SOL     OW15139   3.563   2.325   7.884  0.0298 -0.1699 -0.3394
 1168SOL    HW115140   3.629   2.394   7.878 -0.1907  0.2130  1.5247
 1168SOL    HW215141   3.594   2.273   7.810  0.8937 -1.4153  0.8899
 1169SOL     OW15142   1.603   0.429   8.618  0.4484  0.7138  0.4665
 1169SOL    HW115143   1.558   0.430   8.703  1.0825  1.2902  0.8001
 1169SOL    HW215144   1.693   0.414   8.647  0.8655  2.4500  0.1021
 1170SOL     OW15145   3.921   0.935  12.071 -0.1295  0.0553 -0.8369
 1170SOL    HW115146   3.939   0.913  12.163  0.7542 -1.1838 -1.2985
 1170SOL    HW215147   3.917   1.030  12.071  0.4369  0.0833 -0.2040
 1171SOL     OW15148   4.031   0.322   2.807  0.2554 -0.1983 -0.3404
 1171SOL    HW115149   4.001   0.231   2.803  0.7734 -0.3621 -0.4325
 1171SOL    HW215150   3.964   0.364   2.754 -1.2579 -1.9696  0.1757
 1172SOL     OW15151   0.502   1.549  13.683 -0.6769  0.2194 -0.2478
 1172SOL    HW115152   0.472   1.615  13.745  1.9558  1.3122 -0.1467
 1172SOL    HW215153   0.548   1.602  13.618 -0.0198  0.7280  0.6283
 1173SOL     OW15154   2.879   4.635  17.423  0.5668 -0.0118 -0.3100
 1173SOL    HW115155   2.793   4.675  17.411 -0.5123 -2.5497 -1.1553
 1173SOL    HW215156   2.920   4.643  17.337 -2.3667  1.5724 -1.5427
 1174SOL     OW15157   0.724   3.056   4.536 -0.4603 -0.7236 -0.4879
 1174SOL    HW115158   0.712   3.110   4.457 -1.4016  0.1458  0.2443
 1174SOL    HW215159   0.665   3.104   4.594 -0.8211 -0.6649 -0.8985
 1175SOL     OW15160   0.164   0.217   8.602  0.4038 -0.3753 -0.1082
 1175SOL    HW115161   0.154   0.249   8.692 -0.6438 -1.1318  0.0441
 1175SOL    HW215162   0.102   0.275   8.558  0.0902  0.4319  1.4104
 1176SOL     OW15163   3.078   4.318   3.875  0.7923 -0.1602  0.0716
 1176SOL    HW115164   3.120   4.360   3.799 -1.7987  1.9685 -0.1929
 1176SOL    HW215165   2.984   4.323   3.859  1.0473  4.6540 -0.1283
 1177SOL     OW15166   1.565   3.513   7.262 -0.3140  0.1133 -0.0029
 1177SOL    HW115167   1.590   3.547   7.347  0.3479  0.2891 -0.2650
 1177SOL    HW215168   1.520   3.591   7.228  1.3626  0.0926 -2.2927
 1178SOL     OW15169   4.316   2.710   1.619 -0.1821 -0.3962  0.1564
 1178SOL    HW115170   4.382   2.652   1.581  0.2723 -0.0024  0.3548
 1178SOL    HW215171   4.280   2.760   1.546  1.0542 -0.0331 -0.1978
 1179SOL     OW15172   0.230   4.280  17.057  0.3488 -0.0200  0.5138
 1179SOL    HW115173   0.145   4.293  17.014  1.0932 -0.6636 -1.1621
 1179SOL    HW215174   0.228   4.357  17.114 -1.5942  0.5244 -0.2758
 1180SOL     OW15175   1.783   0.728   4.407 -0.0002  0.5060  0.2877
 1180SOL    HW115176   1.740   0.659   4.458  0.5983  0.1479  0.3175
 1180SOL    HW215177   1.731   0.756   4.332 -1.1318 -1.1914  0.4452
 1181SOL     OW15178   0.846   1.249   9.642  0.4472  0.2691 -0.1060
 1181SOL    HW115179   0.752   1.232   9.632  0.2644  1.6777 -0.7568
 1181SOL    HW215180   0.836   1.344   9.650  0.1943  0.1579  1.0253
 1182SOL     OW15181   1.495   4.374   2.132  0.2101 -0.9783 -0.4198
 1182SOL    HW115182   1.486   4.281   2.114  0.8834 -1.7607  3.3306
 1182SOL    HW215183   1.502   4.409   2.043  1.9067  0.2151  0.1894
 1183SOL     OW15184   0.993   3.895  10.258 -0.4198 -0.6900 -0.3518
 1183SOL    HW115185   1.068   3.926  10.207 -0.2841 -1.6514 -0.7348
 1183SOL    HW215186   0.924   3.895  10.192  0.3363  1.0590 -1.1347
 1184SOL     OW15187   2.942   2.764  13.501 -0.4246 -0.2218 -0.2582
 1184SOL    HW115188   2.951   2.859  13.509 -0.9739 -0.2859  1.0241
 1184SOL    HW215189   2.982   2.733  13.582 -2.3039 -0.0648  0.7306
 1185SOL     OW15190   0.818   0.274  13.406  0.7128  0.3441 -0.0956
 1185SOL    HW115191   0.882   0.324  13.355 -0.6630 -0.2628 -2.4030
 1185SOL    HW215192   0.811   0.191  13.359  2.3644 -0.6684  1.4481
 1186SOL     OW15193   3.564   3.439  15.001 -0.0091 -0.2933  0.0552
 1186SOL    HW115194   3.482   3.454  15.050 -0.3249 -1.5100 -0.0946
 1186SOL    HW215195   3.620   3.471  15.072 -0.9766  0.5119  0.4703
 1187SOL     OW15196   2.872   1.583   3.430  0.3106  0.1804  0.4056
 1187SOL    HW115197   2.918   1.531   3.364  1.7334  0.3978  1.2178
 1187SOL    HW215198   2.834   1.655   3.379 -0.1648 -0.3414  0.0159
 1188SOL     OW15199   1.060   0.404   4.767  0.9854  0.1426 -0.1699
 1188SOL    HW115200   0.987   0.342   4.765 -0.0230  1.3647 -1.3715
 1188SOL    HW215201   1.103   0.386   4.683 -1.0156 -1.5782 -0.8404
 1189SOL     OW15202   3.972   0.623   2.206 -0.3222  0.6255  0.1701
 1189SOL    HW115203   4.013   0.577   2.280 -1.0864 -0.5285 -0.1152
 1189SOL    HW215204   3.915   0.688   2.247  0.1499  0.8292  0.5051
 1190SOL     OW15205   0.080   1.896   4.797  0.1789 -0.3243  0.0059
 1190SOL    HW115206   0.093   1.867   4.707  1.2060  0.0013  0.0511
 1190SOL    HW215207   0.096   1.989   4.784 -0.1401 -0.4480 -1.2738
 1191SOL     OW15208   1.930   2.791  11.182  0.2779  0.8487 -0.6651
 1191SOL    HW115209   1.988   2.799  11.106 -0.5274  1.3486 -1.2235
 1191SOL    HW215210   1.905   2.700  11.167 -2.0509  1.2003  1.1687
 1192SOL     OW15211   1.218   1.490   7.632  0.4394  0.3810  0.2311
 1192SOL    HW115212   1.132   1.530   7.636  0.5898  0.8080 -0.6050
 1192SOL    HW215213   1.251   1.537   7.555  1.9979 -1.9059 -0.5166
 1193SOL     OW15214   1.528   3.303   8.932 -0.0621  0.3768 -0.5465
 1193SOL    HW115215   1.499   3.392   8.911 -0.6773  0.4800  0.6908
 1193SOL    HW215216   1.569   3.270   8.853  2.8128  1.6702  0.4185
 1194SOL     OW15217   1.483   1.004   2.275  0.9052  0.7325  0.2826
 1194SOL    HW115218   1.420   1.065   2.314  0.3554  0.8091 -0.7345
 1194SOL    HW215219   1.433   0.937   2.227 -1.5274  1.1811  2.1566
 1195SOL     OW15220   3.730   0.286   5.323  0.3502 -0.1754 -0.0362
 1195SOL    HW115221   3.798   0.308   5.387  0.5271  2.0567 -0.9882
 1195SOL    HW215222   3.652   0.331   5.355 -0.4574 -1.8238  0.3197
 1196SOL     OW15223   3.860   4.275   0.688 -0.7677  0.0019  0.8435
 1196SOL    HW115224   3.798   4.268   0.761 -2.1167 -1.0657 -0.4189
 1196SOL    HW215225   3.820   4.342   0.633 -2.0365 -1.5533 -0.1064
 1197SOL     OW15226   1.232   0.183   6.400  0.3237 -0.1590  0.6546
 1197SOL    HW115227   1.325   0.187   6.421  0.0772 -0.8023  1.8243
 1197SOL    HW215228   1.230   0.222   6.312  0.3752 -0.5575  0.4793
 1198SOL     OW15229   1.202   2.593  13.191 -0.1081  0.4634 -0.8060
 1198SOL    HW115230   1.164   2.630  13.111 -2.3223  1.9356  0.9147
 1198SOL    HW215231   1.129   2.612  13.250  0.8332 -3.3825  1.5690
 1199SOL     OW15232   4.300   0.757   2.982 -0.6957  0.0702  0.4519
 1199SOL    HW115233   4.283   0.675   2.937 -0.7618  0.7616 -0.7846
 1199SOL    HW215234   4.234   0.811   2.938 -0.8611 -0.3626  0.1713
 1200SOL     OW15235   0.007   1.581   3.656 -0.3289  0.3044  0.1504
 1200SOL    HW115236   4.654   1.557   3.669 -0.1816  0.4832  1.5002
 1200SOL    HW215237   4.737   1.675   3.669  1.0595  0.5460 -0.6338
 1201SOL     OW15238   1.757   0.267   6.678  0.0375  0.4283 -0.1887
 1201SOL    HW115239   1.793   0.330   6.616  0.0791 -0.1808 -0.7745
 1201SOL    HW215240   1.836   0.219   6.701  1.0086  0.7876 -2.8222
 1202SOL     OW15241   2.772   2.741   2.316  1.1674  0.0771 -0.4376
 1202SOL    HW115242   2.763   2.831   2.346  1.6182  0.2480 -0.8358
 1202SOL    HW215243   2.853   2.715   2.360 -0.0786 -1.8345  0.7497
 1203SOL     OW15244   4.364   2.294   4.003 -0.6047 -0.3123 -0.0107
 1203SOL    HW115245   4.326   2.368   4.050 -0.7464  0.2277 -0.9749
 1203SOL    HW215246   4.349   2.324   3.913 -0.6568  3.0840  1.1391
 1204SOL     OW15247   3.583   1.786  11.497  0.1995 -0.1652  0.7099
 1204SOL    HW115248   3.624   1.870  11.514  0.7486 -0.7963  2.5263
 1204SOL    HW215249   3.495   1.802  11.532  0.0117  1.4397 -0.5184
 1205SOL     OW15250   2.411   0.407   9.086 -0.1908 -0.3365  0.4999
 1205SOL    HW115251   2.408   0.382   8.994 -1.7540 -1.8331  0.9472
 1205SOL    HW215252   2.320   0.435   9.097 -0.1457 -0.0360  0.0827
 1206SOL     OW15253   2.716   1.284  11.672 -0.3966 -0.1206 -0.5234
 1206SOL    HW115254   2.809   1.272  11.653 -0.6336  0.1181 -1.8218
 1206SOL    HW215255   2.698   1.376  11.652  1.8297 -0.1439 -2.5262
 1207SOL     OW15256   4.079   3.911   8.358  0.3353 -0.1574  0.1331
 1207SOL    HW115257   4.014   3.922   8.427 -1.6762  2.5696 -2.2312
 1207SOL    HW215258   4.027   3.862   8.295  0.9582 -0.5879 -0.0511
 1208SOL     OW15259   4.102   3.966   5.671  0.2320 -0.2897  0.5401
 1208SOL    HW115260   4.158   3.898   5.710 -0.9629 -0.6676  1.6219
 1208SOL    HW215261   4.015   3.926   5.675 -0.3038  0.6999 -1.1228
 1209SOL     OW15262   1.118   4.715  14.974 -0.5588 -0.1288  0.0661
 1209SOL    HW115263   1.152   4.655  14.908 -0.8116 -2.2275  1.8200
 1209SOL    HW215264   1.083   4.651  15.037  0.3397 -0.6369  0.0527
 1210SOL     OW15265   1.229   2.462   2.317  0.2465  0.3307  0.1967
 1210SOL    HW115266   1.246   2.368   2.324 -2.4790 -0.3285 -2.0957
 1210SOL    HW215267   1.134   2.471   2.328  0.0942 -2.0484  0.6896
 1211SOL     OW15268   2.302   2.703   5.021 -1.2151 -0.6375  0.2938
 1211SOL    HW115269   2.351   2.621   5.015 -1.8182 -0.8974 -1.0374
 1211SOL    HW215270   2.350   2.754   4.956 -0.3732  1.1078  2.2817
 1212SOL     OW15271   3.567   2.125  11.235  0.1177  0.8213 -1.0172
 1212SOL    HW115272   3.660   2.101  11.241 -0.7258 -2.7713 -2.6330
 1212SOL    HW215273   3.568   2.214  11.200  0.8809  0.9473 -0.6850
 1213SOL     OW15274   4.427   4.240   5.682  0.0604 -0.2857  0.5020
 1213SOL    HW115275   4.462   4.164   5.727 -2.6923 -0.6195  2.0535
 1213SOL    HW215276   4.384   4.204   5.604  1.1624 -1.7194  0.5672
 1214SOL     OW15277   0.940   4.707   7.918  0.4537  0.4286  0.3490
 1214SOL    HW115278   0.881   4.717   7.844 -0.6243  1.3709  1.3366
 1214SOL    HW215279   1.028   4.728   7.887  0.0788 -2.7786 -2.8838
 1215SOL     OW15280   0.967   1.224  15.608 -0.3765 -0.2280 -0.3936
 1215SOL    HW115281   1.004   1.295  15.556  1.4161  0.6214  2.0205
 1215SOL    HW215282   1.025   1.153  15.582  0.2575 -0.2122  0.9699
 1216SOL     OW15283   0.656   0.411   7.556  0.0412 -0.4618  0.0682
 1216SOL    HW115284   0.657   0.359   7.475 -1.7700  2.3902 -1.8029
 1216SOL    HW215285   0.599   0.354   7.607 -1.1569  1.0510  0.3923
 1217SOL     OW15286   0.122   4.000   2.369  0.3670  0.3189  0.1468
 1217SOL    HW115287   0.211   3.996   2.405  0.9717 -0.7659 -1.4662
 1217SOL    HW215288   0.127   4.094   2.348  3.9281  0.6845  2.5785
 1218SOL     OW15289   4.360   0.849   6.390  0.3318 -0.0661  0.2040
 1218SOL    HW115290   4.310   0.771   6.365  0.4090 -0.4305  1.2059
 1218SOL    HW215291   4.317   0.884   6.469 -1.5828 -0.8636 -0.4722
 1219SOL     OW15292   3.315   1.363   5.240  0.1424 -0.0354 -0.0341
 1219SOL    HW115293   3.221   1.378   5.254  0.2054 -1.5750  2.1006
 1219SOL    HW215294   3.360   1.412   5.308 -2.1894  2.1364 -0.0434
 1220SOL     OW15295   1.265   0.122  10.301  0.3925  0.2197  0.0062
 1220SOL    HW115296   1.270   0.099  10.209  0.0009 -0.3410  0.1235
 1220SOL    HW215297   1.195   0.187  10.305  0.3816  0.1661  0.7615
 1221SOL     OW15298   1.828   4.567   5.391  0.2682 -0.2762  0.2178
 1221SOL    HW115299   1.832   4.644   5.448  0.8981  0.5800 -0.9837
 1221SOL    HW215300   1.826   4.501   5.460  0.0165  0.1895  0.6536
 1222SOL     OW15301   3.056   3.931   6.308  0.3596  0.3895  0.6521
 1222SOL    HW115302   3.027   3.843   6.331  1.3274 -0.2382 -0.5489
 1222SOL    HW215303   2.982   3.979   6.346 -0.9137  1.0162 -2.5865
 1223SOL     OW15304   1.395   4.521   9.523  0.3181  0.0544 -0.7096
 1223SOL    HW115305   1.308   4.539   9.557  1.2511  0.0308  1.7071
 1223SOL    HW215306   1.384   4.521   9.428  1.3732  1.7748 -0.8264
 1224SOL     OW15307   4.177   4.285  17.659 -0.0953  0.5158 -0.1344
 1224SOL    HW115308   4.165   4.370  17.701 -0.4932  0.8840 -0.9847
 1224SOL    HW215309   4.135   4.226  17.721 -1.4528 -0.1764 -1.7051
 1225SOL     OW15310   3.937   4.506   6.560 -0.2510  0.1778  0.3183
 1225SOL    HW115311   3.860   4.476   6.608 -0.2810  3.3060  2.2762
 1225SOL    HW215312   4.015   4.460   6.589  0.0459 -0.5009 -1.5695
 1226SOL     OW15313   0.879   0.655   2.789 -0.6474  0.2047  0.1400
 1226SOL    HW115314   0.878   0.714   2.864 -0.6277 -1.0542  1.1322
 1226SOL    HW215315   0.961   0.607   2.783 -0.3601  1.0919 -3.0160
 1227SOL     OW15316   3.696   3.893  11.251 -0.9592 -0.3008 -0.0926
 1227SOL    HW115317   3.763   3.875  11.317  0.5877 -0.4342 -1.6891
 1227SOL    HW215318   3.722   3.835  11.179 -0.3676  0.9716 -0.9018
 1228SOL     OW15319   0.493   0.646   7.841 -0.0976  0.3044 -0.3506
 1228SOL    HW115320   0.508   0.652   7.936  0.7652 -1.6564 -0.3748
 1228SOL    HW215321   0.430   0.717   7.830 -1.1787 -1.2289 -3.9964
 1229SOL     OW15322   1.597   0.546   4.553  0.1360 -1.0688 -0.4428
 1229SOL    HW115323   1.641   0.491   4.618  0.9181 -2.1443 -1.8745
 1229SOL    HW215324   1.534   0.479   4.530 -0.4304 -1.1372  1.3047
 1230SOL     OW15325   3.313   1.538   9.425  0.7042 -0.1411 -0.3732
 1230SOL    HW115326   3.361   1.566   9.503  2.7617 -3.6811 -0.3891
 1230SOL    HW215327   3.225   1.573   9.443  2.0542  1.3853  3.2363
 1231SOL     OW15328   2.254   1.684   0.385 -0.0757  0.0966  0.8219
 1231SOL    HW115329   2.180   1.691   0.325  0.0551  0.1293  0.6662
 1231SOL    HW215330   2.335   1.715   0.346 -0.0654 -0.1206  0.6729
 1232SOL     OW15331   2.830   3.714  14.152  0.4901  0.1684 -0.7531
 1232SOL    HW115332   2.886   3.734  14.077 -0.2258 -0.3746 -1.4291
 1232SOL    HW215333   2.812   3.621  14.145 -0.8173  0.3446  0.3212
 1233SOL     OW15334   1.885   1.078  11.563 -0.1261  0.2117  0.4456
 1233SOL    HW115335   1.866   1.112  11.475  2.1762 -1.4107 -0.6886
 1233SOL    HW215336   1.869   0.985  11.549 -0.1383  0.4173 -0.8946
 1234SOL     OW15337   1.038   0.871   6.661  0.9587 -0.8058 -0.5150
 1234SOL    HW115338   1.015   0.780   6.681  0.0539 -0.4684  0.0034
 1234SOL    HW215339   0.953   0.915   6.669  2.1866  1.2889  0.9931
 1235SOL     OW15340   2.511   4.552  16.252 -0.0554 -0.5935  0.0197
 1235SOL    HW115341   2.449   4.500  16.201  0.8432 -0.3029 -1.4080
 1235SOL    HW215342   2.527   4.506  16.334  0.2177 -0.7627 -0.1267
 1236SOL     OW15343   4.283   2.470   7.867 -1.0274  0.2248 -0.1155
 1236SOL    HW115344   4.241   2.436   7.788  0.9565  0.7247 -1.4036
 1236SOL    HW215345   4.288   2.396   7.928  1.2117 -1.1877 -1.9754
 1237SOL     OW15346   1.580   1.240   9.875  0.4665  0.3946  0.2349
 1237SOL    HW115347   1.517   1.311   9.866  0.6962  0.3061 -2.1678
 1237SOL    HW215348   1.570   1.195   9.791  2.8096 -1.9697  1.2214
 1238SOL     OW15349   4.637   3.134   0.546 -0.0634 -0.0349 -0.1953
 1238SOL    HW115350   4.582   3.191   0.492  0.2764  0.0504 -0.4484
 1238SOL    HW215351   4.726   3.148   0.516  1.4015 -0.6852  3.8668
 1239SOL     OW15352   0.980   2.570   5.371 -0.7128  0.4698 -0.1399
 1239SOL    HW115353   1.027   2.653   5.377  0.6310 -0.3144  0.0476
 1239SOL    HW215354   1.010   2.537   5.456  0.7114 -1.6929 -1.4793
 1240SOL     OW15355   0.938   3.892   5.590  0.5183  0.3257  0.0146
 1240SOL    HW115356   0.920   3.839   5.512 -0.1398  2.9112 -1.6157
 1240SOL    HW215357   1.014   3.846   5.624  1.4795  1.5742 -0.4151
 1241SOL     OW15358   2.727   1.186   4.430  0.3085 -0.1051  0.1450
 1241SOL    HW115359   2.752   1.277   4.447 -0.0278 -0.0431  0.2932
 1241SOL    HW215360   2.779   1.139   4.495 -0.2197 -0.8255  0.0348
 1242SOL     OW15361   2.082   4.476   3.160 -0.3283  0.0760  0.0519
 1242SOL    HW115362   2.099   4.413   3.230 -0.5769 -0.2399 -0.1703
 1242SOL    HW215363   2.084   4.555   3.213  2.4480 -0.4424  0.7010
 1243SOL     OW15364   0.580   4.330   9.145  0.2771  0.2389 -0.3692
 1243SOL    HW115365   0.568   4.253   9.200  0.0085  0.4944 -0.0672
 1243SOL    HW215366   0.592   4.401   9.208  0.1583  0.2031 -0.3052
 1244SOL     OW15367   0.567   0.233   8.841 -0.4135 -0.2191  0.1285
 1244SOL    HW115368   0.641   0.239   8.902 -0.0978 -0.7249 -0.2104
 1244SOL    HW215369   0.536   0.324   8.843  0.2783  0.0498 -1.1270
 1245SOL     OW15370   2.812   2.768  16.122 -0.2222 -0.0502  0.1589
 1245SOL    HW115371   2.754   2.753  16.047 -0.4706 -2.6284  0.8815
 1245SOL    HW215372   2.891   2.781  16.068 -0.7024  0.7652 -0.3510
 1246SOL     OW15373   0.398   3.044  13.089  0.0909 -0.3660 -0.2908
 1246SOL    HW115374   0.349   3.083  13.162 -0.2400  0.9819 -1.2401
 1246SOL    HW215375   0.472   3.007  13.137 -0.4947  0.4678  1.2568
 1247SOL     OW15376   2.670   3.854   6.612  0.4187  0.3176  0.1220
 1247SOL    HW115377   2.634   3.774   6.572  0.5870 -1.1696  3.0042
 1247SOL    HW215378   2.694   3.822   6.698 -0.8910 -2.5392 -0.5699
 1248SOL     OW15379   3.312   3.798   3.341  0.5370  0.3793  0.5207
 1248SOL    HW115380   3.350   3.773   3.425 -2.1742  0.1668  1.6656
 1248SOL    HW215381   3.359   3.877   3.312 -0.3990  1.0428  0.8064
 1249SOL     OW15382   0.881   2.439  10.475 -0.0693 -0.0353  0.8643
 1249SOL    HW115383   0.830   2.365  10.444 -0.8812  0.5193  0.8786
 1249SOL    HW215384   0.941   2.445  10.401 -1.1729 -1.0474 -0.1114
 1250SOL     OW15385   4.075   0.998   7.699 -0.0296 -0.4504 -0.1838
 1250SOL    HW115386   4.054   1.059   7.770 -2.5368 -2.0378  0.4471
 1250SOL    HW215387   4.097   0.918   7.747  1.2597 -1.5854 -2.6934
 1251SOL     OW15388   2.242   4.255   9.248 -0.0118  0.3418 -0.5493
 1251SOL    HW115389   2.296   4.293   9.318 -0.1446  0.2181 -0.3817
 1251SOL    HW215390   2.273   4.164   9.246  1.7679  0.9331 -0.1393
 1252SOL     OW15391   1.898   2.909   8.220  0.2788 -0.1055 -0.0344
 1252SOL    HW115392   1.819   2.866   8.188  0.9912 -2.4273  1.3316
 1252SOL    HW215393   1.890   2.982   8.158 -2.0513 -0.8099 -0.5751
 1253SOL     OW15394   4.094   1.690   6.931 -0.1414  0.3000  0.1449
 1253SOL    HW115395   4.170   1.693   6.873 -0.8192  1.2072 -0.6942
 1253SOL    HW215396   4.053   1.774   6.911  2.0997  1.1553 -0.7613
 1254SOL     OW15397   3.718   4.286   0.945  0.3397  0.1596  0.0880
 1254SOL    HW115398   3.676   4.367   0.975  0.2486 -0.2397  1.0499
 1254SOL    HW215399   3.637   4.244   0.919  1.0521 -0.7871 -0.6080
 1255SOL     OW15400   1.899   2.150   3.174 -0.2685  0.5260  0.8258
 1255SOL    HW115401   1.980   2.176   3.218  1.6009 -2.3027 -0.9617
 1255SOL    HW215402   1.900   2.193   3.089 -0.6915 -0.1673  0.4707
 1256SOL     OW15403   1.561   0.726   8.890  0.8277 -0.2271 -0.0588
 1256SOL    HW115404   1.553   0.817   8.919  0.5835 -0.6065  1.0597
 1256SOL    HW215405   1.589   0.752   8.802 -0.6045  0.5096 -0.2918
 1257SOL     OW15406   4.208   4.012   3.078 -0.0240  0.3154 -0.5222
 1257SOL    HW115407   4.137   4.061   3.037 -1.0796  0.3260  1.3439
 1257SOL    HW215408   4.234   3.954   3.005  0.4929  2.3526 -1.9453
 1258SOL     OW15409   2.073   1.251  17.243  0.2035  0.3366 -0.2622
 1258SOL    HW115410   2.072   1.262  17.147 -0.6638  0.5354 -0.2290
 1258SOL    HW215411   1.992   1.208  17.268 -1.3303  2.6006 -1.2800
 1259SOL     OW15412   1.654   3.590   9.339 -0.3856 -0.0014  0.0747
 1259SOL    HW115413   1.684   3.679   9.357 -0.2751 -0.4347  2.0674
 1259SOL    HW215414   1.672   3.589   9.245  0.1512 -1.3145  0.1897
 1260SOL     OW15415   2.724   1.827  10.001  0.3424  0.1607  0.1456
 1260SOL    HW115416   2.779   1.836   9.923 -0.3610  0.9008 -0.2590
 1260SOL    HW215417   2.689   1.915  10.011 -2.5078 -0.7205 -2.2052
 1261SOL     OW15418   0.725   4.647   9.201  0.4134  0.1213  0.4994
 1261SOL    HW115419   0.749   4.584   9.268 -1.5158 -1.3049 -0.1534
 1261SOL    HW215420   0.807   4.650   9.152  0.1648  2.8427  0.2115
 1262SOL     OW15421   0.189   1.781   2.395 -0.1744 -0.6427 -0.3922
 1262SOL    HW115422   0.206   1.846   2.464 -0.2693  0.0886 -1.0634
 1262SOL    HW215423   0.096   1.797   2.376 -0.1132  0.2620  0.0579
 1263SOL     OW15424   1.559   3.323   5.116 -0.0073 -0.2822  0.2356
 1263SOL    HW115425   1.577   3.411   5.082 -1.0478  0.2658  1.1275
 1263SOL    HW215426   1.464   3.334   5.117 -0.0876 -0.7927 -1.1540
 1264SOL     OW15427   2.551   1.891   6.615  0.3136  0.1590  0.0018
 1264SOL    HW115428   2.509   1.961   6.665  1.1374  1.3029 -0.9356
 1264SOL    HW215429   2.524   1.908   6.525  0.1471 -2.4726 -0.4593
 1265SOL     OW15430   2.389   4.664  12.224  0.1348  0.0654  0.2467
 1265SOL    HW115431   2.363   4.585  12.272  0.4695 -1.0998 -1.5259
 1265SOL    HW215432   2.307   4.697  12.187 -0.7709 -1.1409  1.1516
 1266SOL     OW15433   2.412   0.721   8.937 -0.3238  0.9548 -0.0875
 1266SOL    HW115434   2.405   0.816   8.941  0.3540  1.0170 -0.3728
 1266SOL    HW215435   2.321   0.701   8.918 -0.5001  0.4116  1.3481
 1267SOL     OW15436   4.419   4.397   2.710  0.3993  0.7079  0.4546
 1267SOL    HW115437   4.460   4.459   2.650 -2.1945  0.5157 -1.5556
 1267SOL    HW215438   4.396   4.456   2.781 -3.5006  0.3218 -0.4787
 1268SOL     OW15439   4.558   4.705   1.020 -0.0638  0.5032  0.1603
 1268SOL    HW115440   4.617   0.014   0.962 -2.1120  2.1323 -0.5406
 1268SOL    HW215441   4.545   4.620   0.978 -0.7138  0.7694 -0.1699
 1269SOL     OW15442   4.457   4.377  14.288 -0.0273  0.1833  0.1961
 1269SOL    HW115443   4.529   4.321  14.260 -0.0833  0.4037 -0.3816
 1269SOL    HW215444   4.458   4.368  14.384  2.6104  1.8597  0.3516
 1270SOL     OW15445   4.660   3.481  12.585 -1.1788 -0.3581 -0.2019
 1270SOL    HW115446   4.617   3.516  12.663 -1.1495  1.4299 -1.0031
 1270SOL    HW215447   4.656   3.386  12.599  0.6553 -0.5969 -1.4085
 1271SOL     OW15448   4.534   1.102   5.933  0.1732  0.1543  0.5264
 1271SOL    HW115449   4.501   1.174   5.879 -0.5316 -0.5350  0.0332
 1271SOL    HW215450   4.467   1.080   5.998  0.1000 -0.6516  0.1774
 1272SOL     OW15451   0.249   2.389  12.631 -0.4872 -0.1784 -0.4867
 1272SOL    HW115452   0.171   2.394  12.577 -0.5150 -2.5294 -0.6768
 1272SOL    HW215453   0.227   2.447  12.704 -3.1335 -2.2285  0.3532
 1273SOL     OW15454   0.186   1.767   5.486  0.0151  0.2573  0.4298
 1273SOL    HW115455   0.100   1.735   5.458  0.8582 -2.4080  0.8925
 1273SOL    HW215456   0.176   1.855   5.448  1.4722 -0.2123 -1.0512
 1274SOL     OW15457   0.014   1.676  16.348  0.1793 -0.0060  0.0297
 1274SOL    HW115458   0.047   1.762  16.322  1.3778 -0.5347 -0.2022
 1274SOL    HW215459   0.064   1.662  16.428  1.5979  0.8491 -0.7102
 1275SOL     OW15460   3.764   2.609   1.816 -0.4750  0.1702  0.3083
 1275SOL    HW115461   3.830   2.561   1.867  0.2279  1.0238  0.1991
 1275SOL    HW215462   3.816   2.658   1.752 -1.0293  0.7703  0.3211
 1276SOL     OW15463   2.352   0.014   2.649  0.5043  0.2842 -0.6272
 1276SOL    HW115464   2.343   0.049   2.560  2.1801  1.0818 -0.4839
 1276SOL    HW215465   2.344   4.658   2.643 -0.0219  0.3163 -0.4547
 1277SOL     OW15466   0.396   0.825   0.122  0.2725  0.3149  0.5870
 1277SOL    HW115467   0.432   0.825   0.033 -1.3278 -1.2322 -0.0578
 1277SOL    HW215468   0.306   0.801   0.101  0.9743 -1.7225 -0.1057
 1278SOL     OW15469   1.731   4.627  11.152 -0.2299 -0.0963 -0.3280
 1278SOL    HW115470   1.799   4.561  11.139  0.7878  0.8107  0.4040
 1278SOL    HW215471   1.757   4.705  11.103 -0.9718  0.8866  0.8517
 1279SOL     OW15472   0.293   3.117   7.404  0.1554 -0.3049  0.1360
 1279SOL    HW115473   0.366   3.164   7.444  0.5681 -0.1850 -0.7528
 1279SOL    HW215474   0.307   3.134   7.311 -0.0081  0.3564  0.2351
 1280SOL     OW15475   2.299   1.913   0.099  0.0669 -0.0219  0.0484
 1280SOL    HW115476   2.352   1.861   0.159 -3.2592 -1.9288  1.3376
 1280SOL    HW215477   2.332   2.001   0.120  0.5361 -0.5084  1.3519
 1281SOL     OW15478   2.785   0.176   5.778  0.0048  0.4117  0.5771
 1281SOL    HW115479   2.728   0.135   5.843  3.0729  0.4498  3.2917
 1281SOL    HW215480   2.810   0.253   5.829 -0.4793 -0.0206  1.4713
 1282SOL     OW15481   3.709   4.372   2.755  0.0062  0.7673  0.3549
 1282SOL    HW115482   3.631   4.365   2.810  0.2170 -0.2610  0.5303
 1282SOL    HW215483   3.688   4.314   2.681  0.7915 -0.6926  1.2773
 1283SOL     OW15484   1.398   1.000  14.745  0.5870 -0.1710  0.0664
 1283SOL    HW115485   1.428   0.926  14.692 -0.7591  0.6288 -1.8113
 1283SOL    HW215486   1.364   0.953  14.822 -0.8322  1.0817  0.2090
 1284SOL     OW15487   3.601   0.099   4.188 -0.3365  0.1827  0.1538
 1284SOL    HW115488   3.552   0.148   4.255  0.5490  0.1485  0.8250
 1284SOL    HW215489   3.684   0.088   4.234  0.0580 -1.6047 -0.9945
 1285SOL     OW15490   2.678   2.400   3.593 -0.1403 -0.1273 -0.1696
 1285SOL    HW115491   2.749   2.369   3.537 -0.6020  0.5201 -1.1171
 1285SOL    HW215492   2.711   2.483   3.629  1.3485 -0.5497 -0.5571
 1286SOL     OW15493   4.049   2.286   9.871  0.0405  0.0895 -0.4701
 1286SOL    HW115494   4.065   2.192   9.874  1.3285  0.3656  2.3695
 1286SOL    HW215495   3.996   2.280   9.951 -0.4953  1.4209 -0.7242
 1287SOL     OW15496   1.787   0.194   8.526 -0.2178 -0.0441 -0.0553
 1287SOL    HW115497   1.819   0.230   8.608 -0.6496 -0.7100  0.4071
 1287SOL    HW215498   1.804   0.267   8.467 -1.4094 -0.2625 -0.6703
 1288SOL     OW15499   2.555   3.819   2.147 -0.2321 -0.0792  0.0990
 1288SOL    HW115500   2.612   3.838   2.221  0.5241 -0.2584 -0.4304
 1288SOL    HW215501   2.518   3.733   2.167 -1.5345  0.1477 -1.3240
 1289SOL     OW15502   0.755   1.486  13.968  0.1238 -0.3362 -0.3348
 1289SOL    HW115503   0.748   1.500  13.874 -2.0021 -0.7371 -0.2456
 1289SOL    HW215504   0.789   1.397  13.974 -0.6066 -0.6417 -0.7533
 1290SOL     OW15505   1.511   0.835   7.491 -0.0336  0.0245 -0.3621
 1290SOL    HW115506   1.439   0.816   7.552 -0.1175  2.3684  0.2589
 1290SOL    HW215507   1.472   0.787   7.418 -0.4165 -1.7640  1.0265
 1291SOL     OW15508   3.203   1.998   7.893 -0.0241  0.0374  0.0033
 1291SOL    HW115509   3.177   2.002   7.985 -0.3504 -0.1070 -0.0809
 1291SOL    HW215510   3.246   2.080   7.871  0.9887  0.0656  2.1473
 1292SOL     OW15511   2.464   1.748   2.686 -0.0914 -0.9561 -0.6627
 1292SOL    HW115512   2.458   1.782   2.775 -1.2562  0.4442 -1.2867
 1292SOL    HW215513   2.373   1.725   2.668 -0.4452  0.5880 -0.8490
 1293SOL     OW15514   0.655   0.931  10.736  0.3660  0.3282 -0.1434
 1293SOL    HW115515   0.592   0.970  10.796 -1.0421 -1.2308 -0.6188
 1293SOL    HW215516   0.737   0.937  10.787  1.4697 -0.6341 -1.8106
 1294SOL     OW15517   0.025   0.094   2.816  0.9298 -0.1708  0.6860
 1294SOL    HW115518   0.112   0.062   2.790  0.8967  0.5595 -0.3201
 1294SOL    HW215519   0.039   0.173   2.763 -0.9310 -1.2987 -1.4348
 1295SOL     OW15520   3.267   0.234   2.580 -0.4114 -0.0031  0.5578
 1295SOL    HW115521   3.210   0.293   2.630  1.1341  1.8858  0.1169
 1295SOL    HW215522   3.332   0.301   2.560 -2.8580  2.3054  0.2034
 1296SOL     OW15523   1.619   0.216   7.711 -0.0102  0.0049  0.3115
 1296SOL    HW115524   1.671   0.170   7.776 -1.0966  1.2858  2.1084
 1296SOL    HW215525   1.671   0.296   7.714  0.7785 -0.4504 -1.2657
 1297SOL     OW15526   0.042   4.378   6.443  0.1825  0.5277  0.1031
 1297SOL    HW115527   0.112   4.379   6.508 -1.0408 -1.3949  1.4553
 1297SOL    HW215528   0.085   4.322   6.379 -1.3370 -1.2566  0.6299
 1298SOL     OW15529   0.106   4.462   2.672  0.1670  0.5008  0.4827
 1298SOL    HW115530   0.170   4.391   2.669 -0.3705  0.0246  0.1098
 1298SOL    HW215531   0.024   4.412   2.668 -0.7343  2.2377 -2.6895
 1299SOL     OW15532   2.162   1.324  15.368 -0.5357  0.4336  0.1361
 1299SOL    HW115533   2.250   1.360  15.352 -0.5340  0.4742  0.2370
 1299SOL    HW215534   2.115   1.350  15.289 -0.2985  0.3739 -0.0263
 1300SOL     OW15535   2.419   0.375  11.002 -0.2910  0.1032  0.4982
 1300SOL    HW115536   2.481   0.335  10.941 -1.4551  2.4559 -2.2471
 1300SOL    HW215537   2.443   0.338  11.086 -0.1443 -0.0265  0.3997
 1301SOL     OW15538   3.826   0.614   5.532 -0.1734  0.5552 -0.2157
 1301SOL    HW115539   3.914   0.650   5.540  0.6264 -0.9177 -2.3388
 1301SOL    HW215540   3.803   0.661   5.451 -1.4174 -1.4649 -1.0240
 1302SOL     OW15541   0.230   2.191   2.540  0.3906  0.3703  0.1330
 1302SOL    HW115542   0.285   2.140   2.481  1.2629  0.3640  0.9473
 1302SOL    HW215543   0.268   2.279   2.529 -1.1412  1.0327  0.1324
 1303SOL     OW15544   4.153   1.896   9.070 -0.5649  0.2433  0.0596
 1303SOL    HW115545   4.157   1.922   8.977 -2.2577  2.0481  0.4922
 1303SOL    HW215546   4.242   1.863   9.080 -0.1129  0.3566 -3.6410
 1304SOL     OW15547   4.479   1.564   8.659  0.2844  0.1231 -0.4344
 1304SOL    HW115548   4.416   1.607   8.602  1.5188  0.0734 -1.8300
 1304SOL    HW215549   4.515   1.497   8.601  0.1388 -0.4418  0.1349
 1305SOL     OW15550   3.523   4.585   5.366  0.2675  0.3368  0.7473
 1305SOL    HW115551   3.495   4.654   5.426  2.1711  1.9010 -0.1652
 1305SOL    HW215552   3.551   4.517   5.427  0.5991  0.7646  1.0729
 1306SOL     OW15553   4.535   4.286   0.082 -0.2202  0.2521 -0.1628
 1306SOL    HW115554   4.618   4.239   0.089 -0.5226 -0.3253 -0.4820
 1306SOL    HW215555   4.548   4.334  17.754 -1.3690 -0.3122 -0.6689
 1307SOL     OW15556   3.959   3.395   9.021 -0.1322  0.3858  0.3348
 1307SOL    HW115557   3.926   3.458   8.957  1.5583  2.5291  1.5623
 1307SOL    HW215558   3.987   3.329   8.957 -0.1282  1.5038 -0.8241
 1308SOL     OW15559   3.597   3.278   2.423  0.0082 -0.0421 -0.2676
 1308SOL    HW115560   3.672   3.317   2.378 -0.7357  0.9786 -0.6398
 1308SOL    HW215561   3.563   3.236   2.344  1.5595  1.9396 -1.9900
 1309SOL     OW15562   3.265   4.307  14.553  0.0600 -0.2515 -0.5392
 1309SOL    HW115563   3.207   4.316  14.477  0.3586 -0.0714 -0.7466
 1309SOL    HW215564   3.302   4.394  14.567  0.0795 -0.4117  0.4084
 1310SOL     OW15565   2.253   4.319   0.478  0.0215 -1.0952  0.1180
 1310SOL    HW115566   2.317   4.331   0.547 -2.4158  1.7246  1.8931
 1310SOL    HW215567   2.305   4.341   0.400  1.4484 -3.3876  0.4316
 1311SOL     OW15568   2.122   0.064   1.971  0.2988 -0.0508  0.0662
 1311SOL    HW115569   2.217   0.070   1.969  0.2784 -0.0948 -1.9924
 1311SOL    HW215570   2.105   0.039   1.880  1.3144  1.4356 -0.5390
 1312SOL     OW15571   3.564   0.648   3.696  0.0055  0.2857  0.5561
 1312SOL    HW115572   3.475   0.644   3.731 -0.4655  0.8352 -0.5725
 1312SOL    HW215573   3.572   0.742   3.676  2.6761 -0.1053 -0.2695
 1313SOL     OW15574   1.143   4.498   0.394  0.4793 -0.4486 -0.0058
 1313SOL    HW115575   1.216   4.527   0.339  0.7145  1.4554  1.3053
 1313SOL    HW215576   1.100   4.576   0.429  0.6332 -0.0258 -0.7548
 1314SOL     OW15577   3.137   2.207   6.794 -0.0654  0.3407 -0.6075
 1314SOL    HW115578   3.223   2.223   6.833  0.1141  0.3351 -1.0071
 1314SOL    HW215579   3.141   2.243   6.706  2.4470  1.3407 -0.0644
 1315SOL     OW15580   0.713   1.648  11.964  0.0307  0.7962  0.0447
 1315SOL    HW115581   0.747   1.632  11.875 -0.9179  1.1675 -0.3777
 1315SOL    HW215582   0.719   1.558  11.996  0.0266  0.4318 -0.9575
 1316SOL     OW15583   2.091   3.033   3.343 -0.0264  0.6850  0.5239
 1316SOL    HW115584   2.112   3.079   3.261 -1.5454 -0.6541 -0.6165
 1316SOL    HW215585   1.997   3.045   3.329  0.0373 -2.0427 -2.3397
 1317SOL     OW15586   4.315   0.399   5.441  0.5306 -0.4020  0.0102
 1317SOL    HW115587   4.321   0.478   5.388  1.4990  0.2107  1.0441
 1317SOL    HW215588   4.240   0.423   5.496  2.2884  0.3497  2.0449
 1318SOL     OW15589   4.192   1.816   5.322  0.2152 -0.2182 -0.1191
 1318SOL    HW115590   4.269   1.794   5.269  0.1797  0.0128 -0.2674
 1318SOL    HW215591   4.145   1.867   5.256  3.5822  3.3384  0.2232
 1319SOL     OW15592   1.529   0.507   2.974 -0.1940  0.1030  0.1510
 1319SOL    HW115593   1.622   0.516   2.996 -0.3642  0.0985  0.8942
 1319SOL    HW215594   1.528   0.511   2.879  1.6001  0.5653  0.1417
 1320SOL     OW15595   0.979   0.975   4.675 -0.4147 -0.1676  0.1513
 1320SOL    HW115596   0.942   0.887   4.678 -2.1406  0.6382  2.4173
 1320SOL    HW215597   1.043   0.953   4.608 -1.1622  0.9304 -0.9145
 1321SOL     OW15598   3.388   0.295  12.665  0.8405  0.3600  0.1831
 1321SOL    HW115599   3.438   0.262  12.740  0.9830  0.4023  0.1083
 1321SOL    HW215600   3.455   0.336  12.610  0.3453  0.9510  0.0270
 1322SOL     OW15601   3.450   1.355  12.394 -0.2391 -0.2264 -0.4138
 1322SOL    HW115602   3.390   1.294  12.437  0.6033 -0.5594  0.2937
 1322SOL    HW215603   3.485   1.398  12.473  0.9416  0.6439 -1.4120
 1323SOL     OW15604   3.013   2.135   2.580 -0.5547  0.5426  0.4924
 1323SOL    HW115605   2.985   2.143   2.672 -0.4729  1.3920  0.4388
 1323SOL    HW215606   2.961   2.204   2.538  0.6170  0.0037 -1.8000
 1324SOL     OW15607   2.655   4.605   4.493  0.1633  0.0788 -0.2184
 1324SOL    HW115608   2.599   4.532   4.521 -2.9006  1.5267 -2.5538
 1324SOL    HW215609   2.743   4.567   4.485  0.0532 -0.2840  0.2511
 1325SOL     OW15610   1.166   2.076  14.821 -0.4656  0.0941 -0.5657
 1325SOL    HW115611   1.141   1.991  14.857 -0.7164  0.7477  0.7908
 1325SOL    HW215612   1.260   2.062  14.831 -0.9377 -1.9600  1.1049
 1326SOL     OW15613   2.932   2.541   2.846 -0.8495  0.1182 -0.7103
 1326SOL    HW115614   2.967   2.630   2.855  0.1629 -0.5624  1.9613
 1326SOL    HW215615   2.862   2.533   2.910  0.7669 -1.8017  0.8094
 1327SOL     OW15616   1.669   1.040   8.982  0.4192  0.6239 -0.1159
 1327SOL    HW115617   1.738   0.979   9.008  0.6443  1.4047  1.1327
 1327SOL    HW215618   1.601   1.025   9.047  1.7054 -1.2077  0.8143
 1328SOL     OW15619   1.815   1.711   7.353  0.8040 -0.1000 -0.5719
 1328SOL    HW115620   1.765   1.786   7.388  1.6645  0.1001  0.2257
 1328SOL    HW215621   1.901   1.731   7.389  0.1752  0.5214  0.6209
 1329SOL     OW15622   4.047   3.099   8.305 -0.3333 -0.0026 -0.0781
 1329SOL    HW115623   4.134   3.105   8.345  0.7658  2.7450 -2.8800
 1329SOL    HW215624   4.058   3.172   8.244 -1.1737 -0.4427 -0.7398
 1330SOL     OW15625   1.711   0.005   6.925  0.5645  0.3255 -0.1187
 1330SOL    HW115626   1.660   4.702   6.856 -0.5644 -1.7933  2.0078
 1330SOL    HW215627   1.660   0.078   6.960  0.1943 -0.1965  0.4326
 1331SOL     OW15628   2.480   4.379   5.364 -0.2101  0.2176  0.2532
 1331SOL    HW115629   2.542   4.320   5.321  0.7673  0.6178  1.1026
 1331SOL    HW215630   2.496   4.377   5.458 -0.5029  3.6384  0.3700
 1332SOL     OW15631   0.763   4.111   3.256 -0.3428  0.4921  0.7457
 1332SOL    HW115632   0.778   4.036   3.313  0.9531  0.0817 -0.1226
 1332SOL    HW215633   0.714   4.159   3.322  0.4568  1.4167  0.6644
 1333SOL     OW15634   1.496   2.407   3.075  0.1341 -0.5916 -0.1448
 1333SOL    HW115635   1.552   2.346   3.121  1.8765  1.2881  0.2356
 1333SOL    HW215636   1.476   2.353   2.999  0.2248  0.4879 -0.9409
 1334SOL     OW15637   0.794   3.879  10.077  0.2484 -0.3530 -0.3705
 1334SOL    HW115638   0.754   3.960  10.108 -2.7784 -2.4116  1.1578
 1334SOL    HW215639   0.784   3.888   9.982  0.9738 -1.4153 -0.5426
 1335SOL     OW15640   2.569   2.287  10.690  0.4470  0.1694  0.4647
 1335SOL    HW115641   2.588   2.229  10.763  0.4818 -0.9255 -0.4206
 1335SOL    HW215642   2.610   2.367  10.724  2.1975 -1.3178  1.8628
 1336SOL     OW15643   4.139   0.639   6.325 -0.5033 -0.0831  0.1451
 1336SOL    HW115644   4.134   0.566   6.265  1.0531 -0.3943  0.3931
 1336SOL    HW215645   4.181   0.594   6.399  0.9831 -1.5434 -1.6090
 1337SOL     OW15646   0.480   1.794  13.796 -0.4251  0.3621 -0.7093
 1337SOL    HW115647   0.525   1.816  13.715 -1.2100 -0.0072 -1.2491
 1337SOL    HW215648   0.507   1.863  13.856 -0.9330 -0.7949  0.8336
 1338SOL     OW15649   4.318   4.677   8.831  0.1979 -0.2363 -0.3786
 1338SOL    HW115650   4.341   0.011   8.889  2.4512 -1.4747  0.3010
 1338SOL    HW215651   4.400   4.630   8.815 -0.1470 -0.8482 -0.3110
 1339SOL     OW15652   2.083   0.490   4.970  0.1578 -0.3601 -0.3511
 1339SOL    HW115653   2.102   0.531   5.054  1.0058 -0.8479 -0.2984
 1339SOL    HW215654   2.002   0.442   4.984 -0.2683  1.0080  1.7848
 1340SOL     OW15655   4.738   3.286   2.887  0.0607 -0.0598 -0.2972
 1340SOL    HW115656   0.042   3.288   2.802  0.4603  0.5221 -0.0852
 1340SOL    HW215657   4.715   3.196   2.906  3.1812 -1.0576 -1.2355
 1341SOL     OW15658   1.140   1.594   5.018  0.3546 -0.1122 -0.0073
 1341SOL    HW115659   1.132   1.539   4.941  0.1133 -0.9909  0.6451
 1341SOL    HW215660   1.180   1.664   4.967  0.1854  0.0496  0.0760
 1342SOL     OW15661   2.808   1.098   9.680  0.4491  0.2634  0.0497
 1342SOL    HW115662   2.719   1.133   9.675  0.2115 -0.3209  0.2437
 1342SOL    HW215663   2.811   1.039   9.605  0.1613 -0.8771  0.9478
 1343SOL     OW15664   0.550   3.249   3.288 -0.4040 -0.0807 -0.0411
 1343SOL    HW115665   0.568   3.157   3.265  0.4348  0.4907 -1.6191
 1343SOL    HW215666   0.506   3.222   3.369 -1.7433  0.7838 -0.4840
 1344SOL     OW15667   3.420   4.639   4.840 -0.2464 -0.0303  0.0856
 1344SOL    HW115668   3.429   4.731   4.813  0.9865 -0.2354 -0.1944
 1344SOL    HW215669   3.364   4.644   4.917 -1.4918 -1.7244 -0.7239
 1345SOL     OW15670   2.151   2.019   8.549  0.0166  0.0017 -0.0787
 1345SOL    HW115671   2.208   1.985   8.618  1.2917 -1.0149 -1.6239
 1345SOL    HW215672   2.168   2.108   8.579  0.7394 -0.4436  0.8276
 1346SOL     OW15673   0.116   0.566   1.324 -0.1659 -0.5322  0.1717
 1346SOL    HW115674   0.062   0.493   1.294  0.1425 -0.4561 -0.5577
 1346SOL    HW215675   0.184   0.559   1.258 -0.6504 -1.1672 -0.2606
 1347SOL     OW15676   0.042   2.430  12.482 -0.2990  0.7028  0.4762
 1347SOL    HW115677   0.037   2.341  12.447 -1.0031  0.1736  1.9304
 1347SOL    HW215678   0.004   2.477  12.407 -0.2717 -1.1341 -0.7152
 1348SOL     OW15679   2.171   0.865   3.501 -0.1340 -0.3467  0.5572
 1348SOL    HW115680   2.128   0.823   3.576  3.0311 -0.3720  2.3716
 1348SOL    HW215681   2.177   0.954   3.537 -1.3223  0.2112 -0.6324
 1349SOL     OW15682   2.596   0.788   5.005 -0.3226 -0.5883  0.4422
 1349SOL    HW115683   2.653   0.841   4.949 -1.2766  0.2147  0.2354
 1349SOL    HW215684   2.642   0.704   5.006  2.2759  0.7975 -0.9621
 1350SOL     OW15685   3.038   4.674   3.650  0.0012  0.0611  0.0362
 1350SOL    HW115686   3.003   4.658   3.738  0.4338  0.4272  0.2754
 1350SOL    HW215687   2.976   4.619   3.603 -1.4542  2.1833 -0.4903
 1351SOL     OW15688   3.245   2.017  13.235 -0.1118 -0.4080  0.4849
 1351SOL    HW115689   3.213   2.101  13.202 -1.7348 -0.1166  2.7093
 1351SOL    HW215690   3.329   2.025  13.190 -0.0082  0.6134  0.8476
 1352SOL     OW15691   4.311   2.210   5.999 -0.5689  0.4053  0.1613
 1352SOL    HW115692   4.288   2.253   6.081  0.7029  2.6142 -0.6277
 1352SOL    HW215693   4.328   2.120   6.027  2.1087  0.4197 -1.4182
 1353SOL     OW15694   0.454   0.285  17.377 -0.3338 -1.2998 -0.4636
 1353SOL    HW115695   0.419   0.299  17.289  0.8713 -3.3290 -1.2584
 1353SOL    HW215696   0.434   0.192  17.387 -0.0938 -1.1852  1.0672
 1354SOL     OW15697   1.973   4.627   6.941  0.4417  0.1118 -0.1330
 1354SOL    HW115698   1.879   4.639   6.951  0.4765 -0.6625  1.1592
 1354SOL    HW215699   1.984   4.539   6.978  0.3005  0.4925  0.8082
 1355SOL     OW15700   2.560   3.425   7.512  0.5820 -0.1235  0.7440
 1355SOL    HW115701   2.494   3.366   7.474  2.5141  0.0517 -2.8472
 1355SOL    HW215702   2.578   3.378   7.593  1.0340 -1.8921 -0.3779
 1356SOL     OW15703   1.220   1.405   0.127  0.5678 -0.0449 -0.2077
 1356SOL    HW115704   1.274   1.383   0.051  1.6259  1.6892  0.0566
 1356SOL    HW215705   1.255   1.354   0.200  0.8275 -0.1951 -0.4357
 1357SOL     OW15706   3.303   0.266   6.583  0.1059  0.6723 -0.6762
 1357SOL    HW115707   3.328   0.183   6.544  1.2771  1.2004 -1.0390
 1357SOL    HW215708   3.349   0.330   6.528  0.0356  1.1593 -0.1715
 1358SOL     OW15709   0.894   3.970  10.501 -0.3319 -0.4229  0.0025
 1358SOL    HW115710   0.860   4.057  10.481  0.9052 -0.2277 -1.2477
 1358SOL    HW215711   0.935   3.940  10.420  1.3723 -1.9457  1.4175
 1359SOL     OW15712   3.925   3.516   6.547 -0.4975 -0.3159  0.3715
 1359SOL    HW115713   3.916   3.609   6.526  1.8585 -0.1674 -0.0572
 1359SOL    HW215714   3.919   3.516   6.643  0.5581  0.3612  0.4370
 1360SOL     OW15715   3.245   4.369   0.904  0.5316 -0.5247 -0.3198
 1360SOL    HW115716   3.172   4.309   0.917 -1.3885  1.4276 -2.1046
 1360SOL    HW215717   3.217   4.451   0.945  0.9842  0.7357 -2.5225
 1361SOL     OW15718   3.465   1.183   6.287 -0.2652  0.6710  0.0155
 1361SOL    HW115719   3.539   1.140   6.330 -1.1212  0.1247  0.9166
 1361SOL    HW215720   3.488   1.275   6.302  0.5567  0.6588 -1.1818
 1362SOL     OW15721   0.210   0.150  15.041  0.3394 -0.2434 -0.1318
 1362SOL    HW115722   0.212   0.229  15.096 -0.5253 -0.8628  0.7888
 1362SOL    HW215723   0.236   0.073  15.091  1.4935  1.3458  1.7001
 1363SOL     OW15724   1.470   4.725  15.234  0.2403  0.4946 -0.5766
 1363SOL    HW115725   1.388   4.695  15.274  0.3977  0.8802  0.0502
 1363SOL    HW215726   1.491   4.646  15.184 -1.3787  0.5386 -1.3146
 1364SOL     OW15727   4.649   3.340  14.473 -0.5755 -0.0026 -0.1039
 1364SOL    HW115728   4.724   3.389  14.440 -2.1004  1.7704 -0.9459
 1364SOL    HW215729   4.593   3.413  14.496  0.7908  1.3465 -1.0670
 1365SOL     OW15730   4.516   3.234  11.515 -0.3738 -0.0530 -0.2621
 1365SOL    HW115731   4.479   3.264  11.432  2.8067  1.0523 -1.2446
 1365SOL    HW215732   4.445   3.176  11.543 -0.3687  0.3723  0.6513
 1366SOL     OW15733   0.918   3.690   8.211  0.6266  0.5815  0.2202
 1366SOL    HW115734   0.956   3.692   8.123 -1.4358  0.7445 -0.6550
 1366SOL    HW215735   0.829   3.723   8.198  0.0416 -1.8040 -1.9246
 1367SOL     OW15736   2.720   0.223   2.797 -0.1651  0.4168  0.4545
 1367SOL    HW115737   2.795   0.183   2.753 -0.4618 -1.0348  1.2863
 1367SOL    HW215738   2.769   0.289   2.847  1.0410  1.2092 -1.7977
 1368SOL     OW15739   0.363   4.434  16.678 -0.0225 -0.8826 -0.3231
 1368SOL    HW115740   0.311   4.459  16.601  0.8081  0.2219 -0.5252
 1368SOL    HW215741   0.308   4.458  16.752 -1.2510 -2.7506 -0.6221
 1369SOL     OW15742   3.385   1.733  10.236 -0.3143  0.0589  0.2772
 1369SOL    HW115743   3.331   1.812  10.234  0.0333  0.2934  0.0503
 1369SOL    HW215744   3.330   1.677  10.290 -2.2461  0.9040 -0.8022
 1370SOL     OW15745   3.188   1.794  11.305 -0.3768  0.5738  0.6515
 1370SOL    HW115746   3.172   1.768  11.396 -2.2192  1.0485  0.4725
 1370SOL    HW215747   3.117   1.854  11.282  0.3442  1.0958 -0.2229
 1371SOL     OW15748   1.696   0.622   2.761 -0.1219 -0.8472  0.0448
 1371SOL    HW115749   1.750   0.675   2.820  2.0250  0.9252 -3.4389
 1371SOL    HW215750   1.767   0.598   2.701 -1.1569 -1.3382 -0.9825
 1372SOL     OW15751   3.124   2.830   9.002  0.0797  0.1338  0.0892
 1372SOL    HW115752   3.153   2.749   9.042  2.2221  0.2551 -1.2276
 1372SOL    HW215753   3.095   2.880   9.078  1.5665  0.2296  0.5899
 1373SOL     OW15754   1.777   0.098   7.886  0.7137 -0.1670  0.2291
 1373SOL    HW115755   1.781   0.055   7.972 -0.1099  0.8339  0.7599
 1373SOL    HW215756   1.870   0.122   7.884  1.0986 -1.7832 -1.2678
 1374SOL     OW15757   2.843   0.363   6.893  0.1745  0.3959 -0.2507
 1374SOL    HW115758   2.909   0.432   6.891  1.4301 -0.7998 -0.6654
 1374SOL    HW215759   2.877   0.320   6.972  1.8002  3.4194  0.6800
 1375SOL     OW15760   1.314   3.131   4.852  0.5569  0.3198  0.9019
 1375SOL    HW115761   1.391   3.079   4.873  0.3062 -0.2720  0.3472
 1375SOL    HW215762   1.323   3.149   4.759 -0.0164  0.7270  0.9264
 1376SOL     OW15763   0.927   2.486   9.422  0.6467  0.1121  0.1723
 1376SOL    HW115764   0.966   2.572   9.405 -0.2593  0.4269 -0.3072
 1376SOL    HW215765   1.000   2.439   9.462 -0.4055 -2.5011 -0.9311
 1377SOL     OW15766   1.917   1.428   7.458 -0.1266  0.2286  0.0049
 1377SOL    HW115767   1.895   1.502   7.402 -0.0643 -0.7377 -1.2907
 1377SOL    HW215768   1.878   1.354   7.410 -0.5601 -0.5807  1.5870
 1378SOL     OW15769   1.263   0.498   5.236 -0.2628  0.7428 -0.4405
 1378SOL    HW115770   1.266   0.579   5.185 -0.2261  2.0608  1.6691
 1378SOL    HW215771   1.298   0.445   5.164  2.5524  0.0373  1.4461
 1379SOL     OW15772   1.621   3.227  10.032 -0.6091  0.0732  0.3689
 1379SOL    HW115773   1.678   3.175  10.088  1.0675  0.7971 -0.6694
 1379SOL    HW215774   1.625   3.175   9.952  0.3389  1.0607 -0.2185
 1380SOL     OW15775   3.548   3.938   4.361 -0.8206 -0.6583 -0.3991
 1380SOL    HW115776   3.499   3.861   4.334 -0.1015 -1.7115  1.2747
 1380SOL    HW215777   3.568   3.904   4.449  3.6533  0.2630 -1.0517
 1381SOL     OW15778   1.518   4.032   9.370 -0.4281  0.6183 -0.2104
 1381SOL    HW115779   1.497   4.115   9.412  0.4714 -0.5770  2.6608
 1381SOL    HW215780   1.600   4.041   9.323  0.9143 -1.4383  1.7132
 1382SOL     OW15781   1.322   4.267   5.312  0.3652  0.0362 -0.1888
 1382SOL    HW115782   1.267   4.341   5.286 -0.2046 -0.9032 -1.6673
 1382SOL    HW215783   1.276   4.241   5.392  0.3963  1.4577  0.2778
 1383SOL     OW15784   4.200   2.890   6.149 -0.9177 -0.1180  0.3580
 1383SOL    HW115785   4.133   2.862   6.087  1.2790 -1.5934 -1.3017
 1383SOL    HW215786   4.156   2.889   6.234  1.8072 -0.9878  1.7662
 1384SOL     OW15787   1.995   3.209   4.322  0.5008 -0.3576 -0.3725
 1384SOL    HW115788   1.978   3.285   4.378  3.5583  0.5333 -0.6481
 1384SOL    HW215789   2.070   3.170   4.367 -1.3562  0.4491  3.4695
 1385SOL     OW15790   4.065   2.314   5.633 -0.2546  0.2855 -0.3121
 1385SOL    HW115791   4.051   2.289   5.725  1.0134 -0.7509 -0.4090
 1385SOL    HW215792   3.991   2.268   5.593 -0.3596  1.8318 -1.8578
 1386SOL     OW15793   0.676   1.446   9.285  0.0896 -0.6269  0.0028
 1386SOL    HW115794   0.672   1.428   9.191  0.1494 -0.7238  0.0188
 1386SOL    HW215795   0.622   1.372   9.313 -0.3409 -0.7048 -1.0294
 1387SOL     OW15796   4.629   0.533   1.046  0.0691 -0.3864  0.4382
 1387SOL    HW115797   4.686   0.608   1.031  0.1348 -0.2964  1.1055
 1387SOL    HW215798   4.645   0.481   0.968  0.0512  3.3402 -2.0509
 1388SOL     OW15799   3.598   1.798   5.714  0.3401 -0.2107 -0.5064
 1388SOL    HW115800   3.631   1.751   5.637  1.2329  0.1544 -0.3429
 1388SOL    HW215801   3.653   1.760   5.782  0.1568 -2.9297 -1.8680
 1389SOL     OW15802   3.352   1.804   9.161  0.8133  0.9352 -0.0054
 1389SOL    HW115803   3.301   1.820   9.241  1.2413 -1.1295  0.6949
 1389SOL    HW215804   3.311   1.721   9.135  2.2257  0.5363 -0.9291
 1390SOL     OW15805   0.729   1.753   0.368 -0.0492 -0.2669  0.0324
 1390SOL    HW115806   0.660   1.816   0.392  2.3931  2.1230  0.7419
 1390SOL    HW215807   0.702   1.752   0.276  1.1457  2.0015 -0.3475
 1391SOL     OW15808   1.865   0.433  12.339  0.2800 -0.0375  0.4587
 1391SOL    HW115809   1.913   0.515  12.327 -1.6319  1.4287  3.0034
 1391SOL    HW215810   1.887   0.412  12.430  3.1560 -2.6950 -0.8120
 1392SOL     OW15811   4.678   3.876   0.492 -0.0729 -0.0478 -0.8731
 1392SOL    HW115812   4.616   3.803   0.486  0.1899 -0.1363 -2.3579
 1392SOL    HW215813   4.616   3.948   0.485 -0.1691  0.0586  1.0081
 1393SOL     OW15814   3.596   4.685   6.347  0.1282 -0.0537 -0.0195
 1393SOL    HW115815   3.624   0.033   6.376  0.2675 -0.9820  2.6794
 1393SOL    HW215816   3.682   4.643   6.344  0.1696  0.2324 -2.3622
 1394SOL     OW15817   3.470   2.526   7.232  0.0509  0.2822 -0.5237
 1394SOL    HW115818   3.423   2.574   7.300  0.7987 -0.0862  0.2472
 1394SOL    HW215819   3.412   2.539   7.157 -1.1121 -1.6909  0.0139
 1395SOL     OW15820   0.570   0.263   8.146  0.0801 -0.1332  0.3857
 1395SOL    HW115821   0.640   0.200   8.130  0.2846  0.2895 -0.4098
 1395SOL    HW215822   0.520   0.221   8.216  1.1292 -0.6563  0.8090
 1396SOL     OW15823   0.015   4.151   6.909  0.4301 -0.2707 -0.1768
 1396SOL    HW115824   4.726   4.201   6.986  1.7532  0.6274 -0.2882
 1396SOL    HW215825   0.023   4.067   6.956  0.6386 -0.5797 -0.7675
 1397SOL     OW15826   3.640   0.364  12.645 -0.4245  0.4535  0.0548
 1397SOL    HW115827   3.718   0.336  12.598 -0.2562 -0.8194  1.0886
 1397SOL    HW215828   3.656   0.310  12.722 -0.8141  0.3076  0.0335
 1398SOL     OW15829   0.110   4.730   5.591 -0.7604 -0.6518  0.2609
 1398SOL    HW115830   0.107   0.004   5.496  1.2057  0.4456  0.3372
 1398SOL    HW215831   0.104   4.635   5.592  0.1521 -0.7091  0.5372
 1399SOL     OW15832   3.780   2.804  14.201  0.6378 -0.2546  0.2461
 1399SOL    HW115833   3.720   2.780  14.272  0.1653  0.3668  0.0501
 1399SOL    HW215834   3.731   2.807  14.119  0.6617 -0.3064  0.2299
 1400SOL     OW15835   0.982   0.877   1.344  0.3784 -0.7111  0.0614
 1400SOL    HW115836   0.894   0.845   1.327  0.4372 -0.1023 -1.3537
 1400SOL    HW215837   0.982   0.969   1.316 -0.5648 -1.4724 -2.3603
 1401SOL     OW15838   3.380   1.166   3.653  0.1680  0.3370 -0.3066
 1401SOL    HW115839   3.287   1.183   3.641 -0.0944  0.2130  1.5677
 1401SOL    HW215840   3.429   1.187   3.573 -0.3435 -1.2766 -1.0324
 1402SOL     OW15841   4.088   4.564  10.977 -0.0673  0.5894 -0.2548
 1402SOL    HW115842   4.028   4.638  10.975 -2.5669 -1.4928 -2.4292
 1402SOL    HW215843   4.043   4.497  11.029 -0.5934  0.5710 -0.7373
 1403SOL     OW15844   2.160   4.060   3.041 -0.5775  0.2032  0.1499
 1403SOL    HW115845   2.211   4.089   3.116 -0.8285  0.7773  0.0969
 1403SOL    HW215846   2.216   4.009   2.983 -0.8750 -1.0396  0.9684
 1404SOL     OW15847   4.509   4.609   9.505  0.1625  0.4182 -0.0229
 1404SOL    HW115848   4.549   4.525   9.530 -1.3150 -0.9775 -2.2632
 1404SOL    HW215849   4.467   4.583   9.422  1.1846 -0.1553 -0.3589
 1405SOL     OW15850   3.538   2.973   6.875  0.5940  0.0393  0.4315
 1405SOL    HW115851   3.473   2.920   6.827  1.5057 -0.5241 -0.1744
 1405SOL    HW215852   3.517   2.949   6.965  0.2688 -0.5791  0.1980
 1406SOL     OW15853   1.547   1.043   1.382 -0.5399  0.1196 -0.6945
 1406SOL    HW115854   1.591   1.106   1.324 -1.3976 -1.0091 -2.5541
 1406SOL    HW215855   1.616   0.978   1.397 -1.5920 -1.1163 -1.2491
 1407SOL     OW15856   1.444   2.595   4.748  0.1779 -0.4440 -0.6617
 1407SOL    HW115857   1.390   2.672   4.731 -0.1902 -1.1875 -2.8961
 1407SOL    HW215858   1.428   2.577   4.840 -0.7532  0.7656 -0.5864
 1408SOL     OW15859   0.796   1.593  13.676  0.7078  0.4647 -0.4481
 1408SOL    HW115860   0.726   1.631  13.622 -0.0794  0.3780  0.5268
 1408SOL    HW215861   0.831   1.671  13.720  0.3067  0.2991  0.1542
 1409SOL     OW15862   2.969   3.669   8.685 -1.0804 -0.5365 -0.2853
 1409SOL    HW115863   2.918   3.750   8.689 -0.7661 -0.3611  0.2054
 1409SOL    HW215864   3.049   3.712   8.716 -2.2327  0.6243  1.1035
 1410SOL     OW15865   4.626   2.058   3.927  0.1223  0.0752 -0.1359
 1410SOL    HW115866   4.698   2.120   3.924 -0.3622  0.6142 -0.7322
 1410SOL    HW215867   4.615   2.037   4.020  0.7713  3.0228  0.6013
 1411SOL     OW15868   1.331   2.727   7.101  0.2326  0.5572  0.1532
 1411SOL    HW115869   1.339   2.675   7.021 -0.4236  0.1437  0.3557
 1411SOL    HW215870   1.236   2.726   7.115  0.2859 -1.7202  0.3305
 1412SOL     OW15871   2.890   2.108   5.698  0.1969  0.5445 -0.2720
 1412SOL    HW115872   2.829   2.086   5.768  0.1603 -0.4915 -0.6426
 1412SOL    HW215873   2.833   2.156   5.637  1.1810 -1.7651 -2.9899
 1413SOL     OW15874   3.638   0.877  11.673  0.0649  0.3055 -0.3920
 1413SOL    HW115875   3.668   0.859  11.763 -0.6012  0.0418 -0.2240
 1413SOL    HW215876   3.577   0.804  11.658  0.4483 -0.3075  0.9530
 1414SOL     OW15877   0.261   1.150   8.368  0.0673  0.1931 -0.7196
 1414SOL    HW115878   0.322   1.105   8.426  1.4379  0.7978 -1.6681
 1414SOL    HW215879   0.193   1.088   8.341 -0.2855  0.3754 -0.2465
 1415SOL     OW15880   3.809   3.208  11.925  0.4090 -0.5996 -0.4471
 1415SOL    HW115881   3.783   3.166  11.843 -0.7669  1.2443 -1.0219
 1415SOL    HW215882   3.904   3.198  11.930  0.3117 -0.7224  1.1156
 1416SOL     OW15883   1.184   0.116  14.481  0.3531  0.2536 -0.1738
 1416SOL    HW115884   1.158   0.200  14.444  1.7345 -0.5253 -2.9376
 1416SOL    HW215885   1.167   0.128  14.574 -1.0804  2.0387 -0.6761
 1417SOL     OW15886   4.292   2.454   8.608  1.1553  0.6610 -0.2687
 1417SOL    HW115887   4.199   2.472   8.626  0.6301  0.7227 -2.9703
 1417SOL    HW215888   4.302   2.458   8.513 -1.0946 -1.4280 -0.6186
 1418SOL     OW15889   3.166   3.963   9.979 -0.1659 -0.5724  0.2434
 1418SOL    HW115890   3.082   4.010   9.981 -0.1864 -0.5229 -2.1742
 1418SOL    HW215891   3.200   3.979  10.068  0.6297 -0.3994 -0.0949
 1419SOL     OW15892   3.980   1.694  13.681 -0.4652 -0.2950  0.0857
 1419SOL    HW115893   3.995   1.610  13.725  0.4114  0.7264  1.7596
 1419SOL    HW215894   3.996   1.666  13.591 -0.7549  0.5974 -0.2414
 1420SOL     OW15895   4.348   2.804   4.193 -0.0555 -0.3857 -0.2530
 1420SOL    HW115896   4.383   2.729   4.241  1.0477  1.0039  1.1007
 1420SOL    HW215897   4.282   2.839   4.253  0.2787 -0.4011  0.1196
 1421SOL     OW15898   0.474   0.523   1.453 -0.0273 -0.4768  0.2109
 1421SOL    HW115899   0.457   0.437   1.414  1.3800  0.9783 -3.6604
 1421SOL    HW215900   0.386   0.528   1.490  0.0278  1.7873  0.0227
 1422SOL     OW15901   3.640   1.593   8.076 -0.1320  0.7205 -0.1448
 1422SOL    HW115902   3.668   1.507   8.043 -2.5015 -0.5286  1.0994
 1422SOL    HW215903   3.571   1.612   8.012 -0.4064  1.3926  0.3621
 1423SOL     OW15904   0.573   3.547  13.067 -0.5414 -0.1506 -0.8664
 1423SOL    HW115905   0.622   3.542  12.985 -0.5717  1.6179 -0.9835
 1423SOL    HW215906   0.627   3.496  13.127  0.1539  2.0569  0.3974
 1424SOL     OW15907   0.861   2.950   6.240  0.2154 -0.7050  0.2704
 1424SOL    HW115908   0.842   2.871   6.290 -2.6687 -0.8507 -1.0301
 1424SOL    HW215909   0.778   2.998   6.244  0.7510  0.2889 -0.3214
 1425SOL     OW15910   1.016   0.406  17.009 -0.6043 -0.0025 -0.1341
 1425SOL    HW115911   1.059   0.323  16.992 -1.5414 -0.6589  0.6643
 1425SOL    HW215912   0.934   0.388  17.056 -0.2307 -2.6782 -0.5468
 1426SOL     OW15913   0.872   0.038   2.760 -0.5564  0.5788  0.0409
 1426SOL    HW115914   0.788   0.082   2.748 -1.4958 -0.9033  1.2341
 1426SOL    HW215915   0.855   4.730   2.841 -1.9749  0.1850 -0.4704
 1427SOL     OW15916   0.896   3.324   8.971  0.4533  0.0477  0.6377
 1427SOL    HW115917   0.858   3.310   9.058 -1.3420  1.8194  0.1230
 1427SOL    HW215918   0.842   3.392   8.930  2.5434 -0.9409 -3.6803
 1428SOL     OW15919   1.789   4.120   3.346  0.3902  0.9950  0.3133
 1428SOL    HW115920   1.828   4.198   3.307  2.4246  0.1632  0.6888
 1428SOL    HW215921   1.787   4.147   3.438 -1.9825  0.3579  0.4453
 1429SOL     OW15922   2.704   0.363   7.215  0.6510  0.1289  0.2500
 1429SOL    HW115923   2.618   0.326   7.193  1.3106 -1.1286 -0.2591
 1429SOL    HW215924   2.700   0.436   7.154  0.9023  1.2009  1.5247
 1430SOL     OW15925   4.257   0.195   4.400  0.0039 -0.1149  0.4149
 1430SOL    HW115926   4.215   0.151   4.474  1.1777 -1.3797  0.3175
 1430SOL    HW215927   4.318   0.126   4.375  0.6979  0.9243 -0.7560
 1431SOL     OW15928   0.565   0.512   9.382  0.0991 -0.0669 -0.2189
 1431SOL    HW115929   0.555   0.587   9.439 -1.7733 -2.1561  2.1910
 1431SOL    HW215930   0.523   0.444   9.435 -2.6274  0.4534 -1.7062
 1432SOL     OW15931   3.853   3.331   9.459 -0.1884  0.3608 -0.0992
 1432SOL    HW115932   3.856   3.250   9.509  2.5702 -0.2763 -1.3239
 1432SOL    HW215933   3.769   3.324   9.413 -0.2023  0.3505 -0.0722
 1433SOL     OW15934   2.965   1.781   5.271  0.1493 -0.4046 -0.6360
 1433SOL    HW115935   2.939   1.784   5.363  2.0685  0.2351 -0.1130
 1433SOL    HW215936   2.897   1.722   5.238 -0.6660  0.1943 -0.0375
 1434SOL     OW15937   1.917   0.920  15.174  0.3451 -0.0919 -0.1412
 1434SOL    HW115938   2.003   0.877  15.172  0.2916 -0.1826 -0.5550
 1434SOL    HW215939   1.936   1.000  15.222 -2.3025  0.5885 -0.2404
 1435SOL     OW15940   1.645   2.397  13.833 -0.1544 -0.0804  0.1785
 1435SOL    HW115941   1.707   2.456  13.877 -1.3283  0.8946  0.5214
 1435SOL    HW215942   1.643   2.448  13.752 -1.6570  0.0669  0.3087
 1436SOL     OW15943   3.223   3.351  15.616 -0.3628 -0.3746 -0.0351
 1436SOL    HW115944   3.170   3.409  15.561 -1.4001 -0.6444  0.6844
 1436SOL    HW215945   3.178   3.346  15.700 -0.9567  2.1534 -0.1862
 1437SOL     OW15946   3.271   1.663   3.446  0.2882 -0.2898  0.0793
 1437SOL    HW115947   3.351   1.631   3.487 -0.3098 -1.4086  0.3702
 1437SOL    HW215948   3.253   1.742   3.497  0.6508  0.4588 -0.9664
 1438SOL     OW15949   1.261   1.168   2.360  0.0742  0.2895  0.7167
 1438SOL    HW115950   1.246   1.175   2.454  1.8258  1.8200  0.8807
 1438SOL    HW215951   1.265   1.260   2.336  1.6354  0.2761  0.9429
 1439SOL     OW15952   4.397   2.019   4.859  0.0659  0.0829 -0.6571
 1439SOL    HW115953   4.364   2.083   4.923  1.8188  0.1886  0.1261
 1439SOL    HW215954   4.489   2.015   4.884 -0.2315 -2.9105 -0.0548
 1440SOL     OW15955   3.172   1.296   5.522 -0.0769  0.0190 -0.1334
 1440SOL    HW115956   3.099   1.297   5.583  1.2518 -1.7568  1.4748
 1440SOL    HW215957   3.137   1.248   5.447  1.2672 -3.2012  1.3102
 1441SOL     OW15958   4.727   0.314   3.585 -0.8452  0.4621 -0.3921
 1441SOL    HW115959   4.736   0.402   3.623  0.0838 -1.0709  2.9434
 1441SOL    HW215960   0.059   0.318   3.521  0.3144 -0.0531  0.8630
 1442SOL     OW15961   4.480   1.233   1.775 -0.3248 -0.4100  0.1621
 1442SOL    HW115962   4.429   1.210   1.697  0.7889 -2.2809 -0.0059
 1442SOL    HW215963   4.562   1.273   1.747  1.7214 -3.6803  1.4308
 1443SOL     OW15964   2.038   3.187   6.940  0.0401  0.1600  0.0251
 1443SOL    HW115965   2.101   3.243   6.895 -0.8019 -0.2595 -1.6880
 1443SOL    HW215966   1.979   3.252   6.980 -1.3224 -1.3645  0.4939
 1444SOL     OW15967   3.939   3.258   1.910 -0.4398  0.5390  0.7443
 1444SOL    HW115968   3.845   3.264   1.927 -0.7358 -2.6836  0.3725
 1444SOL    HW215969   3.960   3.332   1.853  0.9580  0.4315  1.1137
 1445SOL     OW15970   0.945   3.518  16.375  0.1469  0.2725 -0.5342
 1445SOL    HW115971   1.037   3.492  16.371 -0.1555 -0.6477 -1.3263
 1445SOL    HW215972   0.894   3.438  16.379 -1.3593  1.2446 -0.1687
 1446SOL     OW15973   0.515   3.414   5.642 -0.6300  0.7107 -0.1198
 1446SOL    HW115974   0.558   3.354   5.702 -0.0406 -1.0260 -2.2849
 1446SOL    HW215975   0.587   3.477   5.637  1.7988 -2.1804 -1.2701
 1447SOL     OW15976   0.366   0.023  11.512  0.5234 -0.5303 -0.0252
 1447SOL    HW115977   0.273   0.037  11.494  0.5974 -2.5391 -2.0106
 1447SOL    HW215978   0.386   4.677  11.471  1.8709 -0.0933 -0.2842
 1448SOL     OW15979   1.996   1.304   5.585 -0.0648 -0.0741  0.1874
 1448SOL    HW115980   1.925   1.354   5.626 -1.0286  0.7347 -2.4721
 1448SOL    HW215981   1.950   1.243   5.527  0.2693 -0.0976 -0.0525
 1449SOL     OW15982   2.465   3.594  16.872 -0.3926  0.3162  0.0350
 1449SOL    HW115983   2.517   3.515  16.860 -1.7582 -0.3291 -1.6160
 1449SOL    HW215984   2.382   3.552  16.890  0.3849 -0.8359  0.8956
 1450SOL     OW15985   0.875   1.617   1.923  0.2883  0.0164  0.0682
 1450SOL    HW115986   0.794   1.650   1.963  0.2369 -2.2712  1.8326
 1450SOL    HW215987   0.877   1.528   1.956 -2.1023  0.5928  1.7854
 1451SOL     OW15988   3.946   2.001   8.076  0.8308  0.1757 -0.0056
 1451SOL    HW115989   3.923   2.094   8.079 -0.7858 -0.2188 -0.3549
 1451SOL    HW215990   4.028   2.002   8.026  0.6578  0.5970 -0.2825
 1452SOL     OW15991   0.307   2.193   3.983  0.0548  0.4836  0.4582
 1452SOL    HW115992   0.321   2.252   4.057  2.6663 -0.5216  0.7556
 1452SOL    HW215993   0.346   2.251   3.917  0.0461  2.3114  2.0725
 1453SOL     OW15994   3.019   4.250   0.973 -0.4066  0.0301 -0.1537
 1453SOL    HW115995   3.010   4.223   1.064  1.4103 -0.5350 -0.1350
 1453SOL    HW215996   2.948   4.202   0.930 -0.6021  1.0888 -1.0315
 1454SOL     OW15997   4.189   0.213   8.556  0.3589 -0.2955 -0.5873
 1454SOL    HW115998   4.129   0.254   8.495 -1.0904 -0.2941  0.8388
 1454SOL    HW215999   4.273   0.201   8.511  0.6696  0.3780 -0.1768
 1455SOL     OW16000   2.786   3.133  16.726  0.3497 -0.5968  0.4923
 1455SOL    HW116001   2.794   3.202  16.791 -0.3390  0.5252 -0.6232
 1455SOL    HW216002   2.698   3.139  16.689  0.8940  0.4479 -0.6067
 1456SOL     OW16003   2.399   4.648   0.743 -0.1340  0.1589 -0.1374
 1456SOL    HW116004   2.416   0.000   0.764 -0.0495  0.5069 -1.7239
 1456SOL    HW216005   2.310   4.651   0.707  0.7268  0.4796 -2.2271
 1457SOL     OW16006   0.957   4.727   6.179 -0.1816 -0.6686  0.0513
 1457SOL    HW116007   1.024   4.727   6.111 -0.0469 -1.5044  0.1779
 1457SOL    HW216008   1.019   4.728   6.252 -2.7458 -0.1000  2.2461
 1458SOL     OW16009   0.478   3.444   5.969 -0.3377  0.4191 -0.0374
 1458SOL    HW116010   0.532   3.518   5.996 -1.1768  1.3887 -0.9636
 1458SOL    HW216011   0.434   3.410   6.047 -0.2954 -2.5914 -1.3293
 1459SOL     OW16012   1.664   0.042   2.799 -0.2700  0.2229  0.0646
 1459SOL    HW116013   1.758   0.061   2.797 -0.0705 -0.8151 -0.6946
 1459SOL    HW216014   1.643   0.116   2.856  0.0348  0.4658 -0.1436
 1460SOL     OW16015   2.700   0.904   7.753  0.5611 -0.6313  0.0639
 1460SOL    HW116016   2.720   0.839   7.821  1.7445  1.2061  1.4807
 1460SOL    HW216017   2.753   0.981   7.774 -2.0810  1.3924 -0.7772
 1461SOL     OW16018   2.462   0.591   1.190 -0.1549  0.3215 -0.5707
 1461SOL    HW116019   2.537   0.530   1.191  0.9840  1.7336  0.8850
 1461SOL    HW216020   2.431   0.584   1.281 -1.0064  0.0069 -0.8865
 1462SOL     OW16021   1.776   1.957   5.020 -0.0227  0.8480 -0.8673
 1462SOL    HW116022   1.853   1.948   5.076 -0.6793 -0.0588 -0.1099
 1462SOL    HW216023   1.754   1.865   5.005 -1.4187  0.8224  1.1870
 1463SOL     OW16024   2.001   4.683   3.336  0.5468  0.0620 -0.4551
 1463SOL    HW116025   1.908   4.705   3.346  0.5026  0.3629 -1.5477
 1463SOL    HW216026   2.035   0.005   3.271  0.5134 -0.6288 -1.1116
 1464SOL     OW16027   1.214   1.666   4.113 -0.1685  0.0087  0.5756
 1464SOL    HW116028   1.181   1.750   4.146  0.0412 -0.3211  1.6434
 1464SOL    HW216029   1.243   1.622   4.193  2.5269 -1.3786 -1.1931
 1465SOL     OW16030   1.496   3.413   9.766 -0.0577  0.1787 -0.5023
 1465SOL    HW116031   1.451   3.385   9.846  0.4710  0.1557 -0.2147
 1465SOL    HW216032   1.581   3.370   9.767  1.7883  3.8868  1.4158
 1466SOL     OW16033   2.843   2.257  14.181 -0.3953 -0.7318  0.3818
 1466SOL    HW116034   2.759   2.301  14.186  0.1648  0.1657  1.9313
 1466SOL    HW216035   2.835   2.213  14.097  1.2343  0.0042 -0.1637
 1467SOL     OW16036   3.190   1.682  11.561 -0.2171  0.6428 -0.3706
 1467SOL    HW116037   3.242   1.761  11.574  2.6283 -0.9739 -1.8875
 1467SOL    HW216038   3.215   1.623  11.632 -1.3278  0.7002  0.0715
 1468SOL     OW16039   1.612   1.393   7.933  0.2061 -0.0477  0.2333
 1468SOL    HW116040   1.518   1.401   7.950 -0.2346 -0.7345 -1.8913
 1468SOL    HW216041   1.618   1.457   7.863 -1.0418 -0.1448  0.0440
 1469SOL     OW16042   1.132   0.298  16.439 -0.3242  0.2094  0.1553
 1469SOL    HW116043   1.179   0.284  16.356  2.7372  2.0402  1.5711
 1469SOL    HW216044   1.200   0.278  16.503  0.2460  3.9687  0.7159
 1470SOL     OW16045   3.761   2.770   8.990 -0.0081 -0.6824  0.6517
 1470SOL    HW116046   3.713   2.767   9.073 -2.2455 -1.1454 -0.6483
 1470SOL    HW216047   3.847   2.751   9.028  0.2549 -1.9129 -0.5808
 1471SOL     OW16048   3.739   3.964  16.711 -0.7421 -0.2437 -0.6210
 1471SOL    HW116049   3.775   4.044  16.749 -1.6510 -0.4324  0.6272
 1471SOL    HW216050   3.708   3.911  16.785  0.2499  0.2298  0.1317
 1472SOL     OW16051   0.445   1.789   2.278 -0.3271 -0.9047  0.1178
 1472SOL    HW116052   0.364   1.785   2.329 -0.6142 -1.1238 -0.3577
 1472SOL    HW216053   0.485   1.703   2.281  2.8513  0.6660  2.5469
 1473SOL     OW16054   0.415   1.415   7.174 -0.4411  0.3396  0.6024
 1473SOL    HW116055   0.340   1.448   7.224 -1.7772 -2.3865  0.3889
 1473SOL    HW216056   0.422   1.331   7.219  2.7286 -0.5211 -1.5592
 1474SOL     OW16057   4.492   0.679   0.741 -0.2174  0.0317 -0.4315
 1474SOL    HW116058   4.427   0.724   0.794  0.1836 -1.5671  1.4027
 1474SOL    HW216059   4.456   0.590   0.747 -0.6631  0.3073  0.8422
 1475SOL     OW16060   2.404   4.221   7.823 -0.0800  0.5262  0.0306
 1475SOL    HW116061   2.362   4.136   7.811  2.5842 -0.6081 -1.3550
 1475SOL    HW216062   2.340   4.271   7.873 -0.0033  1.1709 -0.5079
 1476SOL     OW16063   1.533   1.593   7.271  0.5366 -0.0007  0.2331
 1476SOL    HW116064   1.541   1.500   7.251 -1.8804 -0.1535  0.0104
 1476SOL    HW216065   1.621   1.620   7.244 -0.0748  1.2625 -0.5167
 1477SOL     OW16066   3.249   3.895   2.563 -0.0570 -0.2143 -0.2437
 1477SOL    HW116067   3.261   3.831   2.633  0.4067 -0.3470 -0.4442
 1477SOL    HW216068   3.339   3.924   2.547  0.5107  0.2689  3.7593
 1478SOL     OW16069   1.863   0.224   2.697  0.6478  0.1149 -0.6425
 1478SOL    HW116070   1.841   0.306   2.653  2.2445  1.3125  0.7894
 1478SOL    HW216071   1.956   0.242   2.704  0.3324  1.4868 -0.1004
 1479SOL     OW16072   4.027   0.185  10.910 -0.2541  0.0949  0.4992
 1479SOL    HW116073   4.103   0.221  10.864  1.4603 -1.3403  2.2139
 1479SOL    HW216074   3.979   0.168  10.829  0.2074 -0.6827  0.3909
 1480SOL     OW16075   2.646   4.348  11.175  0.5878 -0.1933 -0.0082
 1480SOL    HW116076   2.633   4.254  11.177 -0.8111 -0.0344 -1.9697
 1480SOL    HW216077   2.601   4.372  11.094  1.1241  0.3094 -0.1617
 1481SOL     OW16078   3.949   4.489   5.873  0.1250  0.1636 -0.6170
 1481SOL    HW116079   4.006   4.412   5.877 -2.5390 -1.8655 -1.8551
 1481SOL    HW216080   4.015   4.553   5.848 -0.9259  1.4626 -0.0762
 1482SOL     OW16081   1.383   3.716   1.986 -0.1363 -0.0055 -0.0125
 1482SOL    HW116082   1.445   3.769   2.035 -0.2270 -1.1577  1.3703
 1482SOL    HW216083   1.445   3.651   1.953  2.4046  1.9437  0.9297
 1483SOL     OW16084   2.224   1.366   0.314  0.0445  0.6496 -0.3695
 1483SOL    HW116085   2.138   1.324   0.318 -0.2748  0.9734 -3.7874
 1483SOL    HW216086   2.231   1.394   0.405 -1.6663  0.4214 -0.1642
 1484SOL     OW16087   4.019   1.455  15.292  0.1297 -0.7802 -0.0782
 1484SOL    HW116088   3.935   1.499  15.302  1.1842  0.7223  1.9623
 1484SOL    HW216089   4.027   1.445  15.197 -0.7733 -1.5204 -0.0748
 1485SOL     OW16090   4.214   3.234   4.040 -0.2700 -0.2324 -0.5551
 1485SOL    HW116091   4.263   3.289   3.978 -1.1376  1.6958  0.4744
 1485SOL    HW216092   4.127   3.264   4.015  0.2868  1.1230 -0.8569
 1486SOL     OW16093   1.409   1.269   7.530 -0.0799  0.1669  0.0488
 1486SOL    HW116094   1.441   1.193   7.578  0.0506  0.1634 -0.0423
 1486SOL    HW216095   1.445   1.342   7.579  0.5487  1.1134 -1.8017
 1487SOL     OW16096   2.673   3.865   2.391  0.5356 -0.4772 -0.0253
 1487SOL    HW116097   2.719   3.794   2.435  1.5263  1.5643  2.2449
 1487SOL    HW216098   2.655   3.925   2.463 -1.2254 -1.3054  0.1992
 1488SOL     OW16099   3.679   3.501   9.066 -0.6293 -0.5489 -0.3746
 1488SOL    HW116100   3.592   3.478   9.033 -1.1541 -0.3512  0.8903
 1488SOL    HW216101   3.695   3.420   9.113 -0.5986 -0.4851 -0.2761
 1489SOL     OW16102   0.200   1.627   2.037  0.5530  0.5197  0.2329
 1489SOL    HW116103   0.230   1.715   2.058  0.8797  0.5955 -0.5356
 1489SOL    HW216104   0.109   1.619   2.066  0.7196  1.1273  0.9206
 1490SOL     OW16105   1.514   0.600   2.388  0.2789  0.0365  0.0269
 1490SOL    HW116106   1.599   0.634   2.360  1.3942 -0.2592  3.0478
 1490SOL    HW216107   1.535   0.532   2.453  0.1326  0.6082  0.6718
 1491SOL     OW16108   2.982   3.788  13.938 -0.5987 -0.2180 -0.1535
 1491SOL    HW116109   3.051   3.845  13.903 -2.2806  1.6895 -0.3484
 1491SOL    HW216110   2.933   3.761  13.860  0.2377 -0.1535 -0.7090
 1492SOL     OW16111   4.000   0.089   8.203 -0.5014  0.5120  0.1301
 1492SOL    HW116112   4.077   0.033   8.189 -1.1171 -0.4369  0.5941
 1492SOL    HW216113   4.034   0.169   8.163  0.0526  0.1937 -0.0474
 1493SOL     OW16114   3.674   4.354   3.610 -0.0220 -0.2164  0.3997
 1493SOL    HW116115   3.703   4.388   3.526  0.9916  2.7351  1.9419
 1493SOL    HW216116   3.736   4.284   3.629  2.2382  0.8627 -3.0938
 1494SOL     OW16117   3.352   4.147   2.251  0.1649  0.6257 -0.0445
 1494SOL    HW116118   3.370   4.239   2.232  1.3392  0.1717 -1.1400
 1494SOL    HW216119   3.274   4.155   2.305  0.1103  0.9184 -0.1631
 1495SOL     OW16120   2.988   1.980  12.083  0.0030  1.1312  0.6592
 1495SOL    HW116121   3.021   2.019  12.002 -3.2427  1.0289 -0.6911
 1495SOL    HW216122   2.954   1.897  12.050 -0.3179  0.1585  3.4147
 1496SOL     OW16123   2.817   2.421   6.897  0.3778 -0.1593  0.2041
 1496SOL    HW116124   2.856   2.452   6.815  1.2270 -0.8784  0.3399
 1496SOL    HW216125   2.874   2.474   6.953  1.9400  1.8574 -3.2636
 1497SOL     OW16126   1.392   3.423   1.315  0.3261  0.4487 -0.3557
 1497SOL    HW116127   1.309   3.418   1.362  1.3239  1.4978  1.5415
 1497SOL    HW216128   1.426   3.337   1.339  0.4968  0.1746 -1.5600
 1498SOL     OW16129   0.772   3.656  14.482  0.5034  0.5208  0.1657
 1498SOL    HW116130   0.681   3.641  14.507  0.2283  1.1576 -0.4257
 1498SOL    HW216131   0.766   3.740  14.436  0.7683 -0.3616 -1.4798
 1499SOL     OW16132   4.577   4.034   6.480  0.0379  0.0994 -0.3521
 1499SOL    HW116133   4.655   4.051   6.533  0.5749  2.4714 -1.8868
 1499SOL    HW216134   4.508   4.052   6.545 -1.0017  1.3333 -1.7777
 1500SOL     OW16135   1.701   1.959   3.139 -0.2637 -0.1537 -0.1312
 1500SOL    HW116136   1.768   2.027   3.149 -2.6170  2.0266  0.7648
 1500SOL    HW216137   1.721   1.920   3.224 -0.8650  2.0293  0.9916
 1501SOL     OW16138   3.342   2.612  11.741 -0.2180  0.2502  0.1543
 1501SOL    HW116139   3.257   2.624  11.700 -0.6501 -3.1960  0.0573
 1501SOL    HW216140   3.386   2.688  11.702 -0.6097  0.6306  0.4531
 1502SOL     OW16141   2.655   0.980  16.959 -0.1572 -0.2484  0.6660
 1502SOL    HW116142   2.619   1.058  17.002  0.8667  0.2892  0.5325
 1502SOL    HW216143   2.737   0.958  17.003  1.7935 -0.2655 -2.9858
 1503SOL     OW16144   1.720   2.976   3.992 -0.6607 -0.3200 -0.1245
 1503SOL    HW116145   1.794   2.916   3.994 -0.3261  0.1864  2.7480
 1503SOL    HW216146   1.683   2.959   4.079  0.7047  0.0823  0.5251
 1504SOL     OW16147   4.277   1.234   6.122  0.3447 -0.6366 -0.3846
 1504SOL    HW116148   4.190   1.198   6.138  1.0733 -1.7294  1.0944
 1504SOL    HW216149   4.334   1.167   6.161  2.4587  0.6005 -1.3108
 1505SOL     OW16150   0.787   1.036   8.026 -0.0171 -0.1501  0.4405
 1505SOL    HW116151   0.856   1.092   7.989 -0.1338 -1.9936 -2.5765
 1505SOL    HW216152   0.708   1.065   7.981  0.1806 -0.7782 -0.3140
 1506SOL     OW16153   2.074   3.960   5.299  0.0568  0.1042  0.7347
 1506SOL    HW116154   2.029   3.945   5.382 -1.9869 -3.8304 -1.0827
 1506SOL    HW216155   2.080   3.872   5.261  0.1674 -0.2489  1.5628
 1507SOL     OW16156   0.981   1.908   1.235 -0.1422 -0.6270  0.5219
 1507SOL    HW116157   0.907   1.916   1.296 -0.3303  1.9839 -0.0244
 1507SOL    HW216158   0.938   1.895   1.150  0.0045  5.0880 -0.4699
 1508SOL     OW16159   2.626   1.287   8.009  0.3036 -0.4784  0.0392
 1508SOL    HW116160   2.571   1.225   7.960  3.3671 -2.6869 -0.6105
 1508SOL    HW216161   2.714   1.250   8.005  0.4670 -0.1283  0.3438
 1509SOL     OW16162   2.628   2.629   0.823 -0.2158 -0.1770 -0.0381
 1509SOL    HW116163   2.657   2.587   0.904 -0.1163 -0.0507 -0.0095
 1509SOL    HW216164   2.567   2.574   0.773 -0.3796 -0.7486  0.7934
 1510SOL     OW16165   0.469   0.522   0.595 -0.0174 -0.4818  0.2025
 1510SOL    HW116166   0.482   0.494   0.505  1.6449 -0.9007  0.5663
 1510SOL    HW216167   0.529   0.466   0.645  0.6268  0.4484  0.4746
 1511SOL     OW16168   2.179   1.099  13.070 -0.3460 -0.2209 -0.1567
 1511SOL    HW116169   2.183   1.086  13.164  0.8636 -1.2564 -0.3403
 1511SOL    HW216170   2.159   1.008  13.047 -0.9995 -0.2506  0.5288
 1512SOL     OW16171   0.263   1.491   2.719 -0.0838  0.4216 -0.6372
 1512SOL    HW116172   0.240   1.411   2.767 -1.7271  1.5646  0.4761
 1512SOL    HW216173   0.195   1.492   2.651 -1.5521 -1.0469  0.7969
 1513SOL     OW16174   2.458   0.112   7.867  0.4541  0.2341  0.0895
 1513SOL    HW116175   2.481   0.126   7.775  0.9484  0.2784  0.2211
 1513SOL    HW216176   2.536   0.062   7.891  0.4861  0.2846  0.0908
 1514SOL     OW16177   3.745   2.133   4.036 -0.3082  0.2380  0.4726
 1514SOL    HW116178   3.790   2.087   4.107 -0.7107 -0.2766  0.3942
 1514SOL    HW216179   3.655   2.108   4.057  0.7857 -2.9964  1.2135
 1515SOL     OW16180   4.520   1.050   5.169  0.3596  0.9148 -0.0488
 1515SOL    HW116181   4.601   1.000   5.159 -0.9122 -0.1636 -4.9964
 1515SOL    HW216182   4.504   1.040   5.263 -0.9503  0.4629 -0.3189
 1516SOL     OW16183   3.462   3.148   6.657 -0.2101  0.5294  0.0447
 1516SOL    HW116184   3.387   3.197   6.689  0.1772  0.8157  0.5337
 1516SOL    HW216185   3.472   3.070   6.712 -1.6255  1.2918  1.3889
 1517SOL     OW16186   3.780   4.420  11.302 -0.6931  0.1436  0.0612
 1517SOL    HW116187   3.695   4.464  11.295  0.1241  1.8576  0.8624
 1517SOL    HW216188   3.752   4.344  11.354 -0.8647  0.4370  0.4010
 1518SOL     OW16189   2.831   3.891  12.872  0.3495  0.1238 -0.0486
 1518SOL    HW116190   2.914   3.846  12.884 -0.0674 -0.4066  0.8001
 1518SOL    HW216191   2.844   3.947  12.795  0.2756 -0.2544 -0.3316
 1519SOL     OW16192   4.698   0.653   7.748 -0.0889 -0.0836 -0.1168
 1519SOL    HW116193   4.607   0.629   7.761  0.0346 -1.9411 -2.5519
 1519SOL    HW216194   4.729   0.673   7.836  0.1873  1.5407 -0.5943
 1520SOL     OW16195   1.966   3.328  15.116 -0.2734  0.1608 -0.0964
 1520SOL    HW116196   1.983   3.356  15.026 -3.0868  0.6643 -0.4711
 1520SOL    HW216197   2.052   3.350  15.152 -1.8971  1.2124  3.1384
 1521SOL     OW16198   0.576   3.257   4.642 -0.2183  0.1026 -0.1929
 1521SOL    HW116199   0.648   3.319   4.627 -0.1215 -0.1065 -0.5996
 1521SOL    HW216200   0.499   3.306   4.614  0.5744  0.8410 -1.0906
 1522SOL     OW16201   1.748   0.331   1.984 -0.3558  0.2963  0.2892
 1522SOL    HW116202   1.661   0.320   1.946  0.0078 -0.0842 -0.4409
 1522SOL    HW216203   1.756   0.300   2.074 -3.3776 -0.6871  0.2150
 1523SOL     OW16204   3.048   2.134   3.179 -0.3917 -0.4634  0.0817
 1523SOL    HW116205   3.123   2.096   3.133  1.2130  0.1465  2.2235
 1523SOL    HW216206   2.997   2.172   3.108 -0.1548 -0.2540  0.0277
 1524SOL     OW16207   2.472   2.922   1.421  0.0611 -0.2107 -0.2340
 1524SOL    HW116208   2.495   2.991   1.483  1.6191  0.2170 -1.2922
 1524SOL    HW216209   2.519   2.846   1.453  1.5223 -0.1057 -2.1519
 1525SOL     OW16210   3.423   0.745  11.781  0.3066 -0.1515 -0.5049
 1525SOL    HW116211   3.353   0.687  11.750  1.0124 -0.5312 -1.3697
 1525SOL    HW216212   3.484   0.697  11.836  0.0005 -0.3991 -0.3807
 1526SOL     OW16213   0.395   2.323   4.632  0.0359  0.2530  0.0501
 1526SOL    HW116214   0.375   2.399   4.578  0.5230  1.1501  1.1377
 1526SOL    HW216215   0.486   2.307   4.605 -0.1831 -1.3543  0.2342
 1527SOL     OW16216   3.005   4.040  16.421  0.5991 -0.0869 -0.4565
 1527SOL    HW116217   2.946   4.014  16.492  0.6071 -0.8608 -0.7365
 1527SOL    HW216218   3.009   3.954  16.381 -0.9122 -0.4727  0.2343
 1528SOL     OW16219   4.712   1.395   1.918  0.0809 -0.0991 -0.0473
 1528SOL    HW116220   4.724   1.487   1.938  0.8580 -0.2929  0.3893
 1528SOL    HW216221   0.040   1.369   1.855 -1.7623 -0.7332 -1.7340
 1529SOL     OW16222   2.475   3.157   7.873  0.0203  0.0324  0.0036
 1529SOL    HW116223   2.505   3.124   7.788  1.3355  0.0353  0.4617
 1529SOL    HW216224   2.557   3.193   7.907  1.0994 -0.4227 -2.1150
 1530SOL     OW16225   2.303   3.655   5.757 -0.3111  0.1972  0.0075
 1530SOL    HW116226   2.361   3.660   5.833 -0.2381 -1.5405  0.0648
 1530SOL    HW216227   2.366   3.642   5.686  0.3072 -0.4408  0.6794
 1531SOL     OW16228   4.511   2.070   4.616  0.8726  0.0239  0.0496
 1531SOL    HW116229   4.475   1.990   4.579 -1.0468  0.1698  1.5949
 1531SOL    HW216230   4.474   2.066   4.705 -1.6965  0.2900 -1.0006
 1532SOL     OW16231   3.446   3.707   1.111 -0.1443  0.2931  0.1897
 1532SOL    HW116232   3.415   3.637   1.168  4.8326 -1.0105  1.3565
 1532SOL    HW216233   3.504   3.752   1.172 -0.4352  2.6167 -1.2692
 1533SOL     OW16234   1.767   1.140  13.096  0.3057  0.0828 -0.8269
 1533SOL    HW116235   1.794   1.203  13.162 -0.4308 -1.5741  1.0353
 1533SOL    HW216236   1.720   1.079  13.152  2.3377 -0.4062  0.3503
 1534SOL     OW16237   0.331   4.411  12.447  0.7538  0.0849  0.2591
 1534SOL    HW116238   0.360   4.500  12.463  0.5862  0.1026  0.4611
 1534SOL    HW216239   0.275   4.420  12.524 -0.9141  1.1236 -1.0757
 1535SOL     OW16240   0.695   0.443   1.215  0.1916  0.1578 -0.3654
 1535SOL    HW116241   0.758   0.451   1.287 -1.8852 -1.2695  1.6221
 1535SOL    HW216242   0.628   0.383   1.248  1.6838 -1.0871  0.4008
 1536SOL     OW16243   1.715   1.581  17.697 -0.1908  0.2319  0.0918
 1536SOL    HW116244   1.792   1.586  17.641 -0.3326 -0.3344 -0.1594
 1536SOL    HW216245   1.733   1.498  17.743  0.3917 -0.7512 -1.9167
 1537SOL     OW16246   4.451   1.024   6.199  0.3394  0.2189 -0.4015
 1537SOL    HW116247   4.510   1.079   6.251 -0.4528  1.5560 -0.9163
 1537SOL    HW216248   4.407   0.964   6.259  2.0628 -2.8623 -2.1910
 1538SOL     OW16249   2.263   0.245  12.651 -0.5626  0.0196 -0.2877
 1538SOL    HW116250   2.269   0.226  12.744  1.1627 -1.9697 -0.8028
 1538SOL    HW216251   2.182   0.199  12.631 -0.4049 -1.1420  1.7486
 1539SOL     OW16252   0.250   2.031   9.392  0.7616  0.3918 -0.2806
 1539SOL    HW116253   0.250   2.125   9.410  3.1167  0.2743  0.2785
 1539SOL    HW216254   0.159   2.005   9.406  0.2809  1.1777 -1.9818
 1540SOL     OW16255   3.899   4.159  12.876  0.8887 -0.3725 -0.2829
 1540SOL    HW116256   3.944   4.139  12.957 -0.4582  0.0348  0.5707
 1540SOL    HW216257   3.966   4.131  12.814  1.2435  1.4873 -0.7152
 1541SOL     OW16258   1.918   1.853   6.479  0.2443  0.1463  0.6723
 1541SOL    HW116259   1.844   1.848   6.418 -2.0082 -0.3111  3.4571
 1541SOL    HW216260   1.932   1.761   6.503  0.4845  0.1301  0.4792
 1542SOL     OW16261   3.374   2.237   0.357  0.6275 -0.5197 -0.1498
 1542SOL    HW116262   3.381   2.219   0.263 -3.3418  1.0461 -0.7311
 1542SOL    HW216263   3.355   2.152   0.397  2.5314 -0.6413  0.4860
 1543SOL     OW16264   0.023   4.024   8.202  0.1133  0.1325  0.4516
 1543SOL    HW116265   4.731   4.016   8.292  1.4160 -0.3523  0.8471
 1543SOL    HW216266   4.718   3.947   8.167  0.3952 -1.0367  2.6976
 1544SOL     OW16267   3.770   2.194   8.636  0.7370  0.3935 -0.8870
 1544SOL    HW116268   3.774   2.274   8.584  0.7135  0.3182 -1.0055
 1544SOL    HW216269   3.692   2.148   8.604  1.0428  1.0028 -2.4985
 1545SOL     OW16270   0.305   0.642   2.997  0.4535  0.6670 -0.6191
 1545SOL    HW116271   0.321   0.669   3.087 -0.8006  0.2200 -0.2515
 1545SOL    HW216272   0.378   0.585   2.972  2.0076  1.3629  2.3352
 1546SOL     OW16273   0.391   4.056   5.519 -0.0084  0.0690  0.3891
 1546SOL    HW116274   0.405   3.969   5.482 -0.9499  0.3763 -0.6954
 1546SOL    HW216275   0.401   4.113   5.442 -0.3623 -2.2464 -1.3768
 1547SOL     OW16276   2.040   1.992   0.131 -0.0922  0.0599  0.3648
 1547SOL    HW116277   1.968   1.964   0.075 -1.8233 -0.5809  2.9241
 1547SOL    HW216278   2.116   1.938   0.108 -3.6066 -3.4766 -2.9494
 1548SOL     OW16279   4.519   1.222   3.795 -0.1466  0.1615  0.2256
 1548SOL    HW116280   4.510   1.161   3.868  0.0298 -0.7692 -0.5206
 1548SOL    HW216281   4.427   1.221   3.768 -0.3457 -2.0015  0.9799
 1549SOL     OW16282   0.078   2.060   5.715 -0.3499 -0.0897 -0.0088
 1549SOL    HW116283   4.736   2.020   5.746 -1.0675  0.1365 -1.6152
 1549SOL    HW216284   0.139   2.041   5.787 -0.5521  0.4444  0.3075
 1550SOL     OW16285   3.064   1.117   7.611 -0.1705 -0.2155  0.4515
 1550SOL    HW116286   3.031   1.104   7.700  0.9258  0.8735  1.0210
 1550SOL    HW216287   3.152   1.140   7.640 -0.3210 -0.8594  1.3996
 1551SOL     OW16288   2.662   3.242   8.950 -0.8174  0.0654 -0.2648
 1551SOL    HW116289   2.677   3.283   8.865  2.4259 -0.6392 -0.0287
 1551SOL    HW216290   2.716   3.291   9.011 -0.2676  0.0611 -0.7562
 1552SOL     OW16291   0.989   2.693   3.649 -0.2887  0.1964 -0.0101
 1552SOL    HW116292   0.971   2.731   3.735 -0.3745 -0.4330  0.2499
 1552SOL    HW216293   1.070   2.732   3.615 -0.9245  0.2070 -1.5098
 1553SOL     OW16294   4.555   0.714   2.140 -0.1507 -0.2524 -0.0199
 1553SOL    HW116295   4.469   0.691   2.174  0.1993 -0.9802  0.3688
 1553SOL    HW216296   4.595   0.634   2.105 -1.7247 -0.6922 -0.8113
 1554SOL     OW16297   3.237   0.583  11.613 -0.4408  0.5242  0.0800
 1554SOL    HW116298   3.294   0.506  11.604 -1.4464 -0.4274  1.8935
 1554SOL    HW216299   3.177   0.566  11.540 -1.1813 -1.2974  1.1120
 1555SOL     OW16300   2.596   4.628  17.309 -0.4378 -0.0744 -0.2603
 1555SOL    HW116301   2.594   4.714  17.267 -0.6512 -0.9288 -2.0245
 1555SOL    HW216302   2.650   4.581  17.245 -0.8060 -2.9291  1.5235
 1556SOL     OW16303   0.036   4.619   6.298 -0.1448 -0.0989 -0.3760
 1556SOL    HW116304   4.690   4.648   6.266 -0.6133  0.2588  1.2063
 1556SOL    HW216305   0.020   4.536   6.343 -0.1646  0.4450  0.6085
 1557SOL     OW16306   3.828   2.089   9.475  0.5098  0.3604  0.3683
 1557SOL    HW116307   3.893   2.040   9.426  1.9903  1.4447  1.2451
 1557SOL    HW216308   3.779   2.114   9.397  0.4433  0.0525  0.3108
 1558SOL     OW16309   0.694   0.335   6.611 -0.9922  0.1137 -0.5548
 1558SOL    HW116310   0.735   0.360   6.528  2.8477  2.5542  2.0691
 1558SOL    HW216311   0.725   0.244   6.609 -0.2917  0.3311  0.4848
 1559SOL     OW16312   2.804   0.150  15.609  0.2692  0.5113  0.3666
 1559SOL    HW116313   2.837   0.240  15.617 -0.6615  0.6439  2.6385
 1559SOL    HW216314   2.720   0.143  15.655 -0.6536 -1.8648 -1.7149
 1560SOL     OW16315   1.192   1.739   0.308 -0.3028 -0.4491 -0.1569
 1560SOL    HW116316   1.221   1.752   0.218 -0.3648  1.5415  0.0970
 1560SOL    HW216317   1.270   1.773   0.353 -0.2045 -2.6063  1.2806
 1561SOL     OW16318   1.871   1.416   5.302 -0.2565 -0.3892  0.0654
 1561SOL    HW116319   1.831   1.419   5.390  0.1927  0.3923  0.2401
 1561SOL    HW216320   1.827   1.339   5.265  2.1525 -0.5141 -2.4941
 1562SOL     OW16321   2.870   2.417   1.870  0.3074 -0.2501 -0.1381
 1562SOL    HW116322   2.845   2.463   1.789  0.4818  0.8867  0.4428
 1562SOL    HW216323   2.871   2.486   1.936 -2.0203 -0.0023 -0.3674
 1563SOL     OW16324   2.747   3.558   4.179 -0.0512  0.8161 -0.2921
 1563SOL    HW116325   2.687   3.580   4.250  2.2211  1.7119  1.3522
 1563SOL    HW216326   2.790   3.642   4.161  0.9330  0.6155  1.1081
 1564SOL     OW16327   0.568   0.681   0.264  0.1826 -0.1053  0.2525
 1564SOL    HW116328   0.508   0.607   0.274 -0.4338  0.4130  0.3867
 1564SOL    HW216329   0.509   0.727   0.203  1.5358  3.0774  1.3509
 1565SOL     OW16330   1.809   0.272   9.050  0.3550  0.1326 -0.4196
 1565SOL    HW116331   1.781   0.362   9.066  0.0582  0.2747 -1.6789
 1565SOL    HW216332   1.831   0.241   9.137  0.2876  1.9493  0.2536
 1566SOL     OW16333   0.324   3.244   1.655  0.4709 -0.2371 -0.1298
 1566SOL    HW116334   0.336   3.186   1.580 -0.5119  0.8983 -1.1665
 1566SOL    HW216335   0.378   3.200   1.721  0.7965 -0.6527 -0.6735
 1567SOL     OW16336   0.322   0.868   3.973  0.0104 -0.5791  0.6312
 1567SOL    HW116337   0.365   0.866   3.888 -1.6686  0.1655 -0.2364
 1567SOL    HW216338   0.400   0.871   4.029  1.2036  0.0226 -1.0621
 1568SOL     OW16339   2.581   3.346   2.498  0.6410  0.8379 -0.3725
 1568SOL    HW116340   2.574   3.293   2.419 -0.6176 -0.4167  0.5835
 1568SOL    HW216341   2.662   3.391   2.476  1.2751  0.7999  1.8063
 1569SOL     OW16342   4.532   4.313   3.184  0.5464  0.3223 -0.5757
 1569SOL    HW116343   4.559   4.393   3.141  1.7654 -0.5969 -1.5087
 1569SOL    HW216344   4.438   4.330   3.192  0.9074  1.1737  1.8746
 1570SOL     OW16345   4.237   1.064  17.324  0.0329 -0.3617  0.1811
 1570SOL    HW116346   4.315   1.115  17.347 -0.2063 -0.4630  1.2247
 1570SOL    HW216347   4.193   1.061  17.409  0.8261  1.5669  0.6774
 1571SOL     OW16348   1.913   1.788   6.023  0.2361 -0.0033  0.0799
 1571SOL    HW116349   1.950   1.721   5.964 -0.2612  0.9957 -1.3642
 1571SOL    HW216350   1.873   1.733   6.091 -1.1090  0.2338 -0.5141
 1572SOL     OW16351   0.043   1.646   7.500 -0.2689  0.0561  0.0882
 1572SOL    HW116352   4.701   1.611   7.462 -0.0987  1.3411 -1.4627
 1572SOL    HW216353   0.002   1.698   7.568  2.5796  1.1384  0.9568
 1573SOL     OW16354   4.032   3.161  16.162  0.0489  0.7131 -0.6422
 1573SOL    HW116355   3.946   3.187  16.128 -0.8632  1.6070  2.3549
 1573SOL    HW216356   4.082   3.183  16.084  0.6239 -1.1100 -0.7811
 1574SOL     OW16357   3.938   2.648  14.079  0.3274  0.2322  0.5226
 1574SOL    HW116358   3.909   2.711  14.145  0.1911  1.6159 -0.8574
 1574SOL    HW216359   3.878   2.577  14.100  2.5256 -1.8506 -0.2321
 1575SOL     OW16360   1.420   1.242   5.241  0.0488 -0.4628  0.6229
 1575SOL    HW116361   1.395   1.193   5.163  0.5030  0.8375 -0.3355
 1575SOL    HW216362   1.377   1.328   5.233 -0.6426 -0.9010 -0.3285
 1576SOL     OW16363   0.149   1.367   3.757 -0.1430 -0.0084 -0.4860
 1576SOL    HW116364   0.138   1.322   3.673 -2.0632  0.5614 -0.5409
 1576SOL    HW216365   0.102   1.446   3.733 -0.2701 -0.3192 -1.2724
 1577SOL     OW16366   2.520   3.477   3.582  0.3285 -0.0633 -0.3393
 1577SOL    HW116367   2.533   3.402   3.524  1.8215 -3.8976  4.9287
 1577SOL    HW216368   2.458   3.456   3.651  1.0087  1.6748  0.7867
 1578SOL     OW16369   3.863   1.534   8.718  0.1514 -0.8738 -0.4672
 1578SOL    HW116370   3.839   1.444   8.737  0.4149 -0.8851 -0.1677
 1578SOL    HW216371   3.910   1.565   8.796  0.5782  2.4757 -2.0481
 1579SOL     OW16372   0.556   1.812   3.041 -0.1455  0.4749  0.2318
 1579SOL    HW116373   0.514   1.735   3.001  2.2692 -0.9589  0.4496
 1579SOL    HW216374   0.499   1.842   3.112  1.1388  0.6522  1.1833
 1580SOL     OW16375   1.901   3.088   0.197  0.6078 -0.4932 -0.3377
 1580SOL    HW116376   1.942   3.040   0.126 -0.3418 -0.0101 -1.2122
 1580SOL    HW216377   1.891   3.015   0.259  1.7626 -0.4199 -0.0739
 1581SOL     OW16378   4.320   0.954   1.297  0.6198 -0.0564  0.2809
 1581SOL    HW116379   4.399   0.925   1.344  0.7985  0.5272  0.3368
 1581SOL    HW216380   4.264   0.888   1.339  0.7504 -2.4392 -3.3113
 1582SOL     OW16381   0.564   1.136   2.498 -0.7291  0.1051 -0.1910
 1582SOL    HW116382   0.577   1.208   2.560  1.5593  0.7485 -1.4042
 1582SOL    HW216383   0.650   1.126   2.457 -0.5888 -4.7074  1.2298
 1583SOL     OW16384   1.558   3.047   5.005  0.1832 -0.0326  0.5931
 1583SOL    HW116385   1.641   3.002   5.018  0.1137  0.0490  1.3627
 1583SOL    HW216386   1.580   3.132   5.044 -2.0528  0.7659  0.0937
 1584SOL     OW16387   0.581   3.652   4.622 -0.4941  0.0237  0.0397
 1584SOL    HW116388   0.523   3.631   4.548  0.4052 -0.1657 -0.6050
 1584SOL    HW216389   0.518   3.689   4.684  0.2077  2.7965 -0.8928
 1585SOL     OW16390   3.451   3.261  11.688  0.3698  0.5633 -0.0697
 1585SOL    HW116391   3.362   3.272  11.723 -0.4356 -0.6902 -1.7102
 1585SOL    HW216392   3.460   3.318  11.611 -2.0091 -0.0307 -0.8067
 1586SOL     OW16393   0.153   0.282   5.628  0.0424 -0.1116 -0.5101
 1586SOL    HW116394   0.089   0.312   5.564 -2.3540 -0.6469  1.6448
 1586SOL    HW216395   0.127   0.190   5.626  1.0119 -0.4173  1.2081
 1587SOL     OW16396   3.076   3.929  12.478 -0.5483 -0.5324  0.0182
 1587SOL    HW116397   3.032   3.958  12.558 -1.0573  0.0869 -0.4913
 1587SOL    HW216398   2.997   3.903  12.431 -0.0936 -1.1535 -0.4022
 1588SOL     OW16399   3.288   3.393   1.352 -0.4483 -0.1699  0.3959
 1588SOL    HW116400   3.303   3.305   1.318  2.1704 -0.3627  2.0205
 1588SOL    HW216401   3.367   3.439   1.324 -0.1426  1.1964  3.5145
 1589SOL     OW16402   2.088   1.271   6.240  0.0918  0.2282  0.1961
 1589SOL    HW116403   2.107   1.290   6.149 -3.5357  2.2370 -0.1386
 1589SOL    HW216404   1.999   1.238   6.231 -0.1177  0.6696  0.5939
 1590SOL     OW16405   1.159   3.722   5.412  0.2222  0.3488  0.0467
 1590SOL    HW116406   1.074   3.757   5.386  0.4417  0.5173 -0.4421
 1590SOL    HW216407   1.187   3.679   5.331 -0.3985 -0.0432  0.0422
 1591SOL     OW16408   2.954   0.763   4.728 -0.2696  0.3317  0.3179
 1591SOL    HW116409   2.893   0.788   4.659  0.0770  1.8621  0.5752
 1591SOL    HW216410   3.023   0.714   4.683 -1.0910 -0.8670  0.3497
 1592SOL     OW16411   3.666   2.009  15.932  0.1322  0.4115 -0.4594
 1592SOL    HW116412   3.712   1.970  16.006 -1.6705 -1.2118 -0.1669
 1592SOL    HW216413   3.577   2.022  15.966  0.1689 -3.0701  0.9520
 1593SOL     OW16414   1.416   2.787  10.607  0.2441  0.3033 -0.3868
 1593SOL    HW116415   1.441   2.872  10.644  1.3019 -0.3026  0.3147
 1593SOL    HW216416   1.324   2.809  10.596 -0.3941 -1.2766  1.7048
 1594SOL     OW16417   0.870   2.533   4.304 -0.2361  0.6875  0.2786
 1594SOL    HW116418   0.815   2.462   4.272 -0.8031  0.9561  0.6486
 1594SOL    HW216419   0.956   2.493   4.317 -0.0608  1.8757  2.7919
 1595SOL     OW16420   1.493   0.680   6.874  0.0796  0.2314 -0.5652
 1595SOL    HW116421   1.491   0.745   6.804  1.5031  1.0925  0.1866
 1595SOL    HW216422   1.400   0.680   6.897  0.2049  1.2154 -0.0434
 1596SOL     OW16423   2.198   2.966   5.103  0.1892 -0.4828 -0.1362
 1596SOL    HW116424   2.220   2.989   5.013  0.8139  2.7375  0.8542
 1596SOL    HW216425   2.189   2.870   5.097  2.0008 -0.7212  0.6563
 1597SOL     OW16426   0.976   1.553  11.320  0.0523  0.2040 -0.4242
 1597SOL    HW116427   0.955   1.643  11.295  2.4886  1.2137  1.1238
 1597SOL    HW216428   1.044   1.563  11.388 -1.0342  0.7272  0.5916
 1598SOL     OW16429   3.167   1.446   1.299 -0.3012  0.5796 -0.5089
 1598SOL    HW116430   3.095   1.452   1.236 -2.5306 -1.9326  1.7801
 1598SOL    HW216431   3.161   1.535   1.333  1.3911 -0.2747  1.9654
 1599SOL     OW16432   2.777   2.818   4.991 -0.0294 -0.3532  0.1301
 1599SOL    HW116433   2.805   2.897   5.037 -0.8998  0.0227  0.0098
 1599SOL    HW216434   2.800   2.850   4.904 -2.6064  0.6649 -0.1915
 1600SOL     OW16435   1.563   2.998  15.651 -0.3235  0.2882  0.6477
 1600SOL    HW116436   1.638   3.038  15.696  0.9216 -1.1146 -0.2022
 1600SOL    HW216437   1.608   2.923  15.613 -1.0264  0.8544 -1.3027
 1601SOL     OW16438   2.454   0.313  12.439 -0.0036 -0.2049 -0.4358
 1601SOL    HW116439   2.494   0.400  12.451  0.3255 -0.4971  0.5512
 1601SOL    HW216440   2.402   0.297  12.518 -0.7318 -0.0917 -0.8900
 1602SOL     OW16441   3.879   0.846   6.799 -0.0529 -0.4644  0.4049
 1602SOL    HW116442   3.801   0.829   6.852  0.3928  0.3158  1.3224
 1602SOL    HW216443   3.889   0.937   6.828 -1.7820 -1.0574  2.8082
 1603SOL     OW16444   3.039   1.307  13.308 -0.3765 -0.5690 -0.3712
 1603SOL    HW116445   3.126   1.346  13.316 -0.2312 -1.0316  0.2361
 1603SOL    HW216446   3.008   1.361  13.234  0.0513 -0.6797 -0.6327
 1604SOL     OW16447   3.437   3.098   4.422  0.3054 -0.4397  0.7563
 1604SOL    HW116448   3.369   3.081   4.487  0.0449  0.8051  0.7965
 1604SOL    HW216449   3.372   3.129   4.359  0.9170 -1.9229 -0.6007
 1605SOL     OW16450   3.201   1.116   9.946 -0.1653  0.6307  0.0144
 1605SOL    HW116451   3.116   1.157   9.932  0.4955  1.7481 -0.8135
 1605SOL    HW216452   3.173   1.032   9.981  0.9110  0.3028  0.0787
 1606SOL     OW16453   4.122   1.181   6.676 -0.3549  0.3772 -0.3212
 1606SOL    HW116454   4.111   1.236   6.754  0.6733 -0.6313  0.5436
 1606SOL    HW216455   4.173   1.235   6.616 -1.0594  0.3712 -0.9100
 1607SOL     OW16456   0.976   2.163   1.817  0.6985  0.2856  0.0189
 1607SOL    HW116457   0.898   2.177   1.871  1.9734  2.8312  1.2117
 1607SOL    HW216458   1.042   2.207   1.870  0.5047  0.6021 -0.0057
 1608SOL     OW16459   1.673   0.520   9.117  0.3728  0.7032  0.1889
 1608SOL    HW116460   1.648   0.588   9.053  2.4241  1.3367  0.0535
 1608SOL    HW216461   1.586   0.495   9.145  0.1485 -1.1914 -2.1462
 1609SOL     OW16462   3.041   2.502   5.507 -0.1392  0.2265  0.0175
 1609SOL    HW116463   3.121   2.553   5.522  0.2397 -0.1304 -0.8249
 1609SOL    HW216464   3.082   2.416   5.496 -1.0390 -0.2852  0.6634
 1610SOL     OW16465   4.209   0.730  10.623 -0.1369 -0.4804  0.3426
 1610SOL    HW116466   4.285   0.719  10.680  0.3426  1.4492  0.0704
 1610SOL    HW216467   4.253   0.780  10.554 -0.1698  1.5443  1.7833
 1611SOL     OW16468   2.061   4.652   1.744  0.2618  0.1208 -0.2464
 1611SOL    HW116469   2.030   4.596   1.815 -0.0981  1.1485  0.4040
 1611SOL    HW216470   2.153   4.626   1.732 -0.5111 -1.4420 -2.9623
 1612SOL     OW16471   3.694   3.461  12.361  0.5309  0.4180 -0.2223
 1612SOL    HW116472   3.711   3.463  12.455 -1.1548  0.9387  0.0703
 1612SOL    HW216473   3.599   3.449  12.373  1.0386 -3.9676 -0.6059
 1613SOL     OW16474   0.777   3.376   7.416 -0.3715 -0.2127  0.0153
 1613SOL    HW116475   0.780   3.404   7.324  0.3343 -1.1358 -0.2401
 1613SOL    HW216476   0.822   3.447   7.462 -0.2512 -1.0512  1.1811
 1614SOL     OW16477   3.583   1.159   9.009  0.0570 -0.4013  0.0808
 1614SOL    HW116478   3.562   1.103   8.933 -1.7145  0.3161  0.0519
 1614SOL    HW216479   3.590   1.098   9.082  0.3012  0.4313  0.7479
 1615SOL     OW16480   1.919   2.055   8.231 -0.0278 -0.4278  0.1707
 1615SOL    HW116481   1.967   1.975   8.251 -0.6446 -0.7678  0.3049
 1615SOL    HW216482   1.964   2.122   8.283  0.4749 -1.7367  1.4014
 1616SOL     OW16483   2.347   0.033   6.249 -0.2775 -0.3070  0.4547
 1616SOL    HW116484   2.372   0.081   6.170 -1.7021 -0.3298 -0.0173
 1616SOL    HW216485   2.419   0.056   6.308 -0.6219 -3.2803  2.0512
 1617SOL     OW16486   3.568   2.157   3.080 -1.1006  0.2262  0.9071
 1617SOL    HW116487   3.500   2.218   3.051 -3.1695 -3.1500 -1.3204
 1617SOL    HW216488   3.634   2.220   3.111  1.9412 -2.3216 -0.3610
 1618SOL     OW16489   3.678   4.401   6.194 -0.1327  0.7125 -0.0544
 1618SOL    HW116490   3.747   4.447   6.146 -0.6747  1.4875 -0.0881
 1618SOL    HW216491   3.720   4.384   6.279 -0.4246  1.3835  0.2279
 1619SOL     OW16492   0.760   4.576   8.839  0.9923  0.4330  0.5464
 1619SOL    HW116493   0.796   4.624   8.914  1.2087  0.9941  0.0865
 1619SOL    HW216494   0.690   4.520   8.872 -0.5765  0.5517 -2.6070
 1620SOL     OW16495   0.925   0.088   7.097  0.1438  1.0914  0.1702
 1620SOL    HW116496   0.918   0.090   7.002  0.0464 -2.4997  0.1052
 1620SOL    HW216497   0.832   0.087   7.116 -0.2657 -0.3264 -2.0016
 1621SOL     OW16498   2.683   2.569   5.050  0.6042  0.4914 -0.1930
 1621SOL    HW116499   2.698   2.661   5.025 -2.5031  0.1857 -3.2278
 1621SOL    HW216500   2.777   2.558   5.061  0.1220  0.6694  4.1429
 1622SOL     OW16501   1.900   3.360   3.352  0.0605 -0.1257  0.0675
 1622SOL    HW116502   1.914   3.331   3.443 -0.8898  4.1496  1.5873
 1622SOL    HW216503   1.925   3.277   3.311  0.2448  0.1335 -0.3403
 1623SOL     OW16504   3.424   4.101   7.116 -0.2217  0.6853  0.2773
 1623SOL    HW116505   3.335   4.133   7.099 -0.0238  0.7410 -0.6768
 1623SOL    HW216506   3.458   4.173   7.169 -3.0775  2.4540 -0.2841
 1624SOL     OW16507   2.479   2.852   4.863  0.2846 -0.4202  0.1820
 1624SOL    HW116508   2.451   2.862   4.772 -0.0972  0.5505  0.4056
 1624SOL    HW216509   2.557   2.907   4.860 -0.8402  1.2111  0.4163
 1625SOL     OW16510   4.428   2.555  12.925 -0.0765  0.3374 -1.3291
 1625SOL    HW116511   4.385   2.486  12.976  1.1798  1.1110  0.8198
 1625SOL    HW216512   4.383   2.554  12.841  1.0602 -1.2330 -1.9163
 1626SOL     OW16513   0.719   1.134  15.687 -0.3581  0.1068  0.1232
 1626SOL    HW116514   0.804   1.171  15.665 -0.8654  1.7604  0.9634
 1626SOL    HW216515   0.658   1.189  15.637 -2.3777 -1.5438  0.7409
 1627SOL     OW16516   4.440   4.609   5.841  0.5094  0.8455  0.3167
 1627SOL    HW116517   4.495   4.533   5.823  0.1992  0.9123 -0.9078
 1627SOL    HW216518   4.495   4.683   5.816  1.1126  0.3798  0.2658
 1628SOL     OW16519   2.317   0.663   5.966 -0.4203 -0.2012 -0.0385
 1628SOL    HW116520   2.331   0.698   6.054  1.1110 -0.9995  0.0377
 1628SOL    HW216521   2.368   0.584   5.981  0.4989  0.1542 -1.2636
 1629SOL     OW16522   3.756   0.847   4.201  0.3943  0.4038  0.2477
 1629SOL    HW116523   3.664   0.837   4.227 -0.7191  0.8599 -3.5486
 1629SOL    HW216524   3.795   0.762   4.223 -0.2939  0.2612  0.9255
 1630SOL     OW16525   4.641   0.197   6.938  0.2753  0.1899 -0.1378
 1630SOL    HW116526   4.727   0.239   6.936 -0.0561  0.8981  0.3813
 1630SOL    HW216527   4.632   0.158   6.851  1.3128 -0.6757  0.1377
 1631SOL     OW16528   1.308   0.923   6.665  0.1484  0.6142 -0.2786
 1631SOL    HW116529   1.340   0.988   6.727  0.5981 -0.8693  1.0284
 1631SOL    HW216530   1.221   0.899   6.697  0.0257 -2.3504 -2.7809
 1632SOL     OW16531   1.044   2.187   8.416  0.3003 -0.4988 -0.4939
 1632SOL    HW116532   1.123   2.135   8.400  0.6236  0.4408 -1.9884
 1632SOL    HW216533   1.021   2.161   8.505  0.7418  0.0001 -0.2357
 1633SOL     OW16534   0.486   3.663   8.308  0.2121  0.0627 -0.0258
 1633SOL    HW116535   0.448   3.718   8.377  1.2310  0.3753  0.2929
 1633SOL    HW216536   0.560   3.620   8.352 -1.3302 -1.7737  0.7653
 1634SOL     OW16537   2.472   0.342  16.984 -0.1968 -0.1617  0.0009
 1634SOL    HW116538   2.424   0.313  16.907  0.4166  2.4060 -1.3414
 1634SOL    HW216539   2.416   0.411  17.021  1.1569  1.1637 -0.4221
 1635SOL     OW16540   0.868   0.835   3.847 -0.0057  0.3135 -0.1825
 1635SOL    HW116541   0.962   0.843   3.833  0.0698 -0.3387 -0.0281
 1635SOL    HW216542   0.849   0.838   3.753  1.4635  2.8357 -0.4037
 1636SOL     OW16543   1.422   4.373   3.042  0.2914  0.0300  0.0036
 1636SOL    HW116544   1.354   4.353   2.977 -0.1159 -0.9463  0.7475
 1636SOL    HW216545   1.486   4.431   2.999 -1.1899  0.6300 -1.4276
 1637SOL     OW16546   1.624   3.789   8.741 -0.8026 -1.0824  0.5267
 1637SOL    HW116547   1.712   3.775   8.775 -0.2124  1.8417  0.2013
 1637SOL    HW216548   1.647   3.852   8.673 -2.3738 -0.3619  0.6626
 1638SOL     OW16549   1.404   2.888  15.082  0.1336 -0.7085  0.5818
 1638SOL    HW116550   1.482   2.934  15.052 -0.3719 -0.4181 -0.2910
 1638SOL    HW216551   1.426   2.817  15.143  0.9222  0.3545  1.5373
 1639SOL     OW16552   4.605   0.780   6.327  0.1326 -0.6911  0.8952
 1639SOL    HW116553   4.642   0.827   6.402  1.2528  0.0643 -0.1323
 1639SOL    HW216554   4.513   0.780   6.353  0.1785  1.6253  1.0840
 1640SOL     OW16555   0.131   0.537   5.736  0.4504  0.5528 -0.3017
 1640SOL    HW116556   0.147   0.453   5.692  0.7244  0.6233 -0.3363
 1640SOL    HW216557   0.150   0.537   5.830  0.5794 -1.2412 -0.3324
 1641SOL     OW16558   3.722   4.477   5.081  0.1883 -0.5794  0.4281
 1641SOL    HW116559   3.770   4.412   5.132  1.1551 -1.2079 -1.2747
 1641SOL    HW216560   3.679   4.414   5.023 -2.1821  0.7596  0.7306
 1642SOL     OW16561   0.093   0.052  11.829 -0.1020  0.2364 -0.2738
 1642SOL    HW116562   0.034   4.722  11.798 -0.8233  0.5945  0.2906
 1642SOL    HW216563   0.161   0.038  11.764 -0.5788 -2.1760 -0.2474
 1643SOL     OW16564   0.604   2.119   4.834 -0.0004 -0.3079  0.1530
 1643SOL    HW116565   0.562   2.034   4.824 -0.4272 -0.0396 -0.3459
 1643SOL    HW216566   0.602   2.171   4.754  0.0777 -3.0860 -1.6482
 1644SOL     OW16567   3.389   1.910  11.152 -0.0675  0.5074 -0.0842
 1644SOL    HW116568   3.411   1.975  11.220 -2.7604  1.5575 -0.2214
 1644SOL    HW216569   3.323   1.851  11.188 -1.3179  1.9997  0.0614
 1645SOL     OW16570   1.233   4.590   8.870 -0.3127 -0.1855  0.2116
 1645SOL    HW116571   1.232   4.496   8.886  1.5016 -0.9000 -3.9672
 1645SOL    HW216572   1.193   4.602   8.784 -0.9160 -2.3434  0.1925
 1646SOL     OW16573   3.798   0.563  11.649  0.2943  0.1089  0.0186
 1646SOL    HW116574   3.820   0.612  11.728  0.2482  1.5667 -0.8668
 1646SOL    HW216575   3.835   0.477  11.670  3.1295  1.0430 -1.1842
 1647SOL     OW16576   3.465   1.933   3.430  0.3247 -0.0489 -0.2786
 1647SOL    HW116577   3.384   1.905   3.473 -0.1979 -0.0763 -1.2822
 1647SOL    HW216578   3.512   1.978   3.500  0.9654 -2.1097  0.6138
 1648SOL     OW16579   0.899   3.493  15.660 -0.2540  0.3713  0.0237
 1648SOL    HW116580   0.964   3.423  15.651 -0.0390  0.5973 -0.1788
 1648SOL    HW216581   0.939   3.573  15.626  0.2878  0.1157  0.0613
 1649SOL     OW16582   2.765   1.174   4.000  0.2066  0.4071  0.0390
 1649SOL    HW116583   2.847   1.174   4.050  0.3408  0.7834 -0.1771
 1649SOL    HW216584   2.697   1.175   4.068  0.2710 -1.2808  0.1166
 1650SOL     OW16585   3.507   2.903   8.777 -0.2025  0.5941 -0.2643
 1650SOL    HW116586   3.418   2.938   8.768 -0.2702  1.0546  2.1576
 1650SOL    HW216587   3.491   2.828   8.833 -0.0829  1.6802  1.2204
 1651SOL     OW16588   4.179   3.878  11.416  0.4102  0.1820  0.5947
 1651SOL    HW116589   4.212   3.877  11.506  1.4156 -1.9590  0.2162
 1651SOL    HW216590   4.235   3.812  11.374  2.1486  1.6027  0.6780
 1652SOL     OW16591   3.667   3.677   8.487  0.3155 -0.1094  0.0373
 1652SOL    HW116592   3.702   3.647   8.571 -0.1545  2.4159  1.1539
 1652SOL    HW216593   3.599   3.737   8.519  1.5980  0.2357  2.1412
 1653SOL     OW16594   1.350   3.705   7.451  0.1344 -0.2947 -0.0076
 1653SOL    HW116595   1.360   3.799   7.464  1.5537 -0.4372 -0.0739
 1653SOL    HW216596   1.361   3.696   7.357 -1.2145  0.0518 -0.2006
 1654SOL     OW16597   3.488   0.800   7.401 -0.1998  0.0154 -0.4334
 1654SOL    HW116598   3.574   0.787   7.361 -0.5473 -1.3714 -0.7271
 1654SOL    HW216599   3.481   0.895   7.395  1.5355  0.1278 -0.5998
 1655SOL     OW16600   2.376   4.604   4.131 -0.2995  0.2115  0.0920
 1655SOL    HW116601   2.383   4.523   4.182  0.0534  0.8825  1.1072
 1655SOL    HW216602   2.313   4.653   4.183 -1.2990 -2.5616  1.5289
 1656SOL     OW16603   1.571   3.080   5.468 -0.3080  0.7440  0.1601
 1656SOL    HW116604   1.623   3.064   5.547  0.2785  1.4564 -0.0777
 1656SOL    HW216605   1.626   3.149   5.431 -1.5095  0.6563 -1.7714
 1657SOL     OW16606   1.815   1.810   0.063  0.6134  0.0683 -0.3416
 1657SOL    HW116607   1.734   1.861   0.061 -0.6303 -1.9912 -1.9646
 1657SOL    HW216608   1.773   1.732   0.028  1.2797 -0.0094 -0.9642
 1658SOL     OW16609   2.860   0.164   8.872 -0.4002  0.2630  0.1185
 1658SOL    HW116610   2.809   0.186   8.795  0.9258  1.5338 -0.4035
 1658SOL    HW216611   2.798   0.211   8.928 -0.8799 -0.7244  0.4111
 1659SOL     OW16612   0.392   4.208  15.757 -0.5119 -1.0862  0.4617
 1659SOL    HW116613   0.384   4.168  15.844  0.4494 -0.9980  0.5902
 1659SOL    HW216614   0.432   4.137  15.708  0.0535  0.8463 -1.8550
 1660SOL     OW16615   3.830   3.258   4.230  0.3528 -0.0566 -0.0611
 1660SOL    HW116616   3.794   3.171   4.214  0.5231  0.4912 -3.4974
 1660SOL    HW216617   3.745   3.300   4.244 -0.8655 -1.3274 -3.6006
 1661SOL     OW16618   3.217   2.568   1.027 -0.4705  0.3012 -0.4720
 1661SOL    HW116619   3.245   2.543   0.939  0.0150 -0.3320 -0.1312
 1661SOL    HW216620   3.271   2.646   1.037 -0.8741  0.3967  0.9179
 1662SOL     OW16621   3.795   1.252   1.037 -0.1641  0.4058 -0.4077
 1662SOL    HW116622   3.709   1.252   0.996 -1.4740 -0.9849  2.3934
 1662SOL    HW216623   3.794   1.177   1.096  0.7323 -0.1347 -1.0717
 1663SOL     OW16624   3.104   1.591  13.459  0.4404 -0.5484 -0.2703
 1663SOL    HW116625   3.120   1.603  13.553  0.1564 -1.0491 -0.1525
 1663SOL    HW216626   3.009   1.588  13.449  0.7002  0.9590 -3.0140
 1664SOL     OW16627   2.308   0.271   8.051  0.3052  0.4965 -0.0647
 1664SOL    HW116628   2.309   0.367   8.052  0.2663  0.5028 -0.6556
 1664SOL    HW216629   2.368   0.250   7.979  1.3205 -0.5732  1.1028
 1665SOL     OW16630   3.155   1.284  16.100 -0.4051  0.3647  0.4219
 1665SOL    HW116631   3.197   1.326  16.175  3.1554  0.1951 -1.4614
 1665SOL    HW216632   3.218   1.301  16.029 -1.9294 -0.4167 -1.1167
 1666SOL     OW16633   3.933   3.857   7.759 -0.5067  0.1899  0.1780
 1666SOL    HW116634   3.913   3.824   7.846 -1.2895 -0.8730 -0.3980
 1666SOL    HW216635   4.019   3.896   7.773 -0.1350 -1.3139  2.0170
 1667SOL     OW16636   1.175   3.444   6.119  0.4350 -0.1303 -0.2479
 1667SOL    HW116637   1.147   3.370   6.065  0.7259 -0.5343  0.1519
 1667SOL    HW216638   1.257   3.468   6.077  1.0345 -2.1597 -0.2262
 1668SOL     OW16639   2.388   4.007   7.439  0.4381  0.2520 -0.3855
 1668SOL    HW116640   2.344   4.037   7.360 -2.0616 -0.3299  0.7674
 1668SOL    HW216641   2.471   3.980   7.399  0.9422 -0.7700  1.3178
 1669SOL     OW16642   1.833   1.563   6.749  0.3454  0.0288 -0.1505
 1669SOL    HW116643   1.818   1.612   6.830 -1.1616 -0.0873 -0.3673
 1669SOL    HW216644   1.754   1.510   6.740  0.2478  0.3694 -1.2937
 1670SOL     OW16645   1.534   1.568  15.157  0.3269  0.2775  0.1253
 1670SOL    HW116646   1.463   1.586  15.096  0.5209  0.0992 -0.1526
 1670SOL    HW216647   1.604   1.600  15.100 -1.2525 -0.4634 -2.2398
 1671SOL     OW16648   3.020   3.231   2.199  0.2732 -0.6620  0.3012
 1671SOL    HW116649   3.026   3.136   2.200  0.1756 -0.6401  2.3564
 1671SOL    HW216650   3.035   3.249   2.106  1.1050 -3.7036 -0.1421
 1672SOL     OW16651   4.375   1.481   8.210  0.4009  0.1315 -0.3020
 1672SOL    HW116652   4.353   1.390   8.229  0.6807  0.0089 -0.5665
 1672SOL    HW216653   4.389   1.520   8.297  1.2627  0.1324 -0.4348
 1673SOL     OW16654   2.726   2.763   3.546 -0.0004 -0.3806  0.2274
 1673SOL    HW116655   2.784   2.692   3.574 -0.8331 -1.5455 -1.0084
 1673SOL    HW216656   2.785   2.832   3.578 -1.0539  0.4624  0.3487
 1674SOL     OW16657   3.880   0.558  17.168  0.1478 -0.0322 -0.5871
 1674SOL    HW116658   3.932   0.503  17.227 -0.4736  1.7125  1.6105
 1674SOL    HW216659   3.892   0.641  17.215 -0.9834 -0.6188  0.7221
 1675SOL     OW16660   2.591   4.257   4.849 -0.2823  0.4057 -0.6208
 1675SOL    HW116661   2.553   4.323   4.907 -0.5032 -0.2788  0.0009
 1675SOL    HW216662   2.523   4.257   4.782 -1.0742  0.2805  0.1894
 1676SOL     OW16663   0.752   3.545   5.646  0.1632 -0.5506  0.3235
 1676SOL    HW116664   0.736   3.528   5.553  2.7560 -0.1465 -0.1991
 1676SOL    HW216665   0.848   3.552   5.648  0.0913  0.1076  1.3180
 1677SOL     OW16666   3.079   2.349   9.892  0.0048  0.0088 -0.7515
 1677SOL    HW116667   3.062   2.423   9.950 -0.3925 -0.5434 -0.1667
 1677SOL    HW216668   3.053   2.273   9.945  0.4853  1.5433  1.7011
 1678SOL     OW16669   1.920   2.566   8.552 -0.1318  0.2918 -0.2490
 1678SOL    HW116670   1.872   2.634   8.598  1.8796  2.7489 -1.7706
 1678SOL    HW216671   1.864   2.538   8.480  0.7021  0.1624 -0.8462
 1679SOL     OW16672   0.926   2.064   7.515 -0.1289 -0.2094 -0.2225
 1679SOL    HW116673   0.913   1.975   7.547  0.8002  0.1221  1.0506
 1679SOL    HW216674   1.000   2.095   7.566  1.4596 -1.7102 -1.6068
 1680SOL     OW16675   3.636   0.670   8.866 -0.5706  0.0274 -0.1363
 1680SOL    HW116676   3.600   0.626   8.943  2.5624  0.2713  1.4890
 1680SOL    HW216677   3.637   0.593   8.809  2.7087  1.2944 -1.7794
 1681SOL     OW16678   4.255   1.011   4.157 -0.9415  0.1116  0.1459
 1681SOL    HW116679   4.164   1.009   4.187 -1.4703 -0.4990 -1.5096
 1681SOL    HW216680   4.298   0.948   4.216  0.1202  0.3691 -0.3580
 1682SOL     OW16681   3.214   3.954  16.041 -0.0884  0.5249  0.4953
 1682SOL    HW116682   3.183   4.006  16.116  1.3006  1.4075  0.4652
 1682SOL    HW216683   3.305   3.936  16.063  0.1131  1.0503  0.1132
 1683SOL     OW16684   4.736   3.522   4.708  0.2785 -0.0373  0.3256
 1683SOL    HW116685   0.003   3.572   4.790 -1.9251  1.0338 -0.1740
 1683SOL    HW216686   0.088   3.493   4.702 -0.3421 -1.9217 -0.0737
 1684SOL     OW16687   2.505   3.103   9.644 -0.0536 -0.0471 -0.0683
 1684SOL    HW116688   2.538   3.111   9.733  0.7540 -1.7142 -0.2280
 1684SOL    HW216689   2.412   3.128   9.649  0.2728  1.2828 -0.6963
 1685SOL     OW16690   4.488   3.319   7.215 -0.2737  0.1226 -0.3184
 1685SOL    HW116691   4.522   3.363   7.138  1.1889  0.8936  0.7702
 1685SOL    HW216692   4.521   3.371   7.289  1.6870 -1.0567 -0.3465
 1686SOL     OW16693   3.382   1.032   3.991  0.1788 -0.0226  0.3730
 1686SOL    HW116694   3.312   1.062   3.931  0.8008 -0.5709 -0.6286
 1686SOL    HW216695   3.336   0.957   4.028  0.2722 -0.0555  0.4190
 1687SOL     OW16696   2.839   0.705   2.269  0.1847 -0.5428  0.3610
 1687SOL    HW116697   2.889   0.647   2.212  0.2389  0.1442 -0.2916
 1687SOL    HW216698   2.760   0.707   2.215 -0.3626 -0.0944  1.1817
 1688SOL     OW16699   1.018   3.739   9.294  0.9038  0.0993 -0.3918
 1688SOL    HW116700   0.992   3.727   9.385 -1.3261 -1.3763 -1.2162
 1688SOL    HW216701   1.114   3.742   9.298  0.9368  0.4914 -1.3894
 1689SOL     OW16702   1.466   4.014  12.286 -0.2829 -0.1802  0.8837
 1689SOL    HW116703   1.497   3.950  12.222 -1.6747  0.7734 -0.7294
 1689SOL    HW216704   1.526   3.993  12.358  0.6366  0.0897  0.1925
 1690SOL     OW16705   1.036   3.372   8.376 -0.2591 -0.3268  0.3789
 1690SOL    HW116706   1.114   3.340   8.421  0.7695 -1.7809 -2.4260
 1690SOL    HW216707   1.023   3.451   8.428 -3.5618 -0.4242 -0.2692
 1691SOL     OW16708   4.043   4.311   8.263 -0.2502  0.2614  0.6967
 1691SOL    HW116709   4.005   4.386   8.217 -1.4187 -0.2713  0.7911
 1691SOL    HW216710   3.974   4.246   8.247  0.2152 -0.1052  0.1721
 1692SOL     OW16711   0.915   2.603   8.509 -0.2409 -0.3328 -0.3606
 1692SOL    HW116712   0.935   2.563   8.425  1.2301 -0.1876 -0.0904
 1692SOL    HW216713   0.953   2.691   8.501 -0.1202 -0.2950  0.5664
 1693SOL     OW16714   3.976   0.286   9.145 -0.7788  0.3646  1.0403
 1693SOL    HW116715   3.932   0.280   9.230 -3.4012 -0.5975 -0.3798
 1693SOL    HW216716   3.915   0.344   9.099  1.2645  0.5933 -1.3999
 1694SOL     OW16717   3.164   1.532   2.466 -0.4235 -0.1309  0.1012
 1694SOL    HW116718   3.218   1.563   2.393  0.8240  0.7891  1.4005
 1694SOL    HW216719   3.080   1.573   2.443 -0.0801  0.7253  0.3563
 1695SOL     OW16720   1.919   3.831   2.147 -0.8149  0.2485  0.1272
 1695SOL    HW116721   1.883   3.795   2.227 -0.0271 -0.5730  0.1044
 1695SOL    HW216722   1.972   3.898   2.191  1.5405 -0.0433 -2.2682
 1696SOL     OW16723   3.758   2.132  12.864  0.1771 -0.2366 -0.0990
 1696SOL    HW116724   3.781   2.194  12.934  1.9397  0.1131 -0.9776
 1696SOL    HW216725   3.663   2.118  12.868  0.0321  1.8802  4.2160
 1697SOL     OW16726   3.414   4.121   8.172 -0.0786  0.4851 -0.0139
 1697SOL    HW116727   3.442   4.108   8.082  0.5446 -2.0453  0.5387
 1697SOL    HW216728   3.432   4.033   8.206 -2.5503  1.2031  3.1507
 1698SOL     OW16729   3.239   3.778   2.250  0.2861 -0.2462  0.1322
 1698SOL    HW116730   3.182   3.806   2.321  1.4794  2.8328 -0.1327
 1698SOL    HW216731   3.221   3.684   2.260 -0.0223 -0.0432  1.4536
 1699SOL     OW16732   4.262   3.362   6.146  0.0505  0.4658 -0.2394
 1699SOL    HW116733   4.337   3.414   6.174  0.5064 -0.7730  0.8310
 1699SOL    HW216734   4.291   3.275   6.171 -0.7536  0.3370  0.2423
 1700SOL     OW16735   3.863   4.333   3.883  0.3730  0.8123  0.3002
 1700SOL    HW116736   3.875   4.428   3.888 -2.7691  1.2340 -0.6902
 1700SOL    HW216737   3.884   4.302   3.795  0.3088 -1.0477  0.9503
 1701SOL     OW16738   0.843   1.823   6.920 -0.2049 -0.0951  0.4222
 1701SOL    HW116739   0.858   1.893   6.856 -1.5847 -0.0816  0.1165
 1701SOL    HW216740   0.748   1.809   6.918 -0.2059 -0.1131  0.5879
 1702SOL     OW16741   1.819   2.933  10.586 -0.1579 -0.7717 -0.1620
 1702SOL    HW116742   1.832   2.839  10.599 -0.0860 -0.8507 -0.8476
 1702SOL    HW216743   1.912   2.950  10.570 -0.2061 -0.6577 -0.3180
 1703SOL     OW16744   0.194   2.116   4.369  0.0699  0.4700  0.1684
 1703SOL    HW116745   0.197   2.030   4.326 -1.9060  1.4626 -1.9616
 1703SOL    HW216746   0.130   2.104   4.438 -0.8870 -0.7403 -0.9378
 1704SOL     OW16747   3.144   0.878   3.690 -0.2024 -0.2943  0.4244
 1704SOL    HW116748   3.052   0.857   3.706 -0.3201  0.5527  0.8656
 1704SOL    HW216749   3.133   0.960   3.641 -1.0313  0.1021  1.2836
 1705SOL     OW16750   3.278   4.493   1.268 -0.1364 -0.6390 -1.0605
 1705SOL    HW116751   3.279   4.463   1.359  0.9521 -0.6881 -1.0941
 1705SOL    HW216752   3.186   4.505   1.245 -0.7542 -4.4481 -0.6691
 1706SOL     OW16753   4.027   0.735   1.873  0.1322 -0.4463 -0.2520
 1706SOL    HW116754   4.089   0.741   1.800  3.0093 -0.3369  2.2184
 1706SOL    HW216755   4.041   0.649   1.913 -2.2756  0.5273  2.6243
 1707SOL     OW16756   3.480   2.567   3.109  0.0096  0.5302 -0.5002
 1707SOL    HW116757   3.410   2.630   3.123 -1.8551 -0.5297 -4.9929
 1707SOL    HW216758   3.428   2.495   3.073 -0.9765  1.6068 -1.2217
 1708SOL     OW16759   1.395   2.045  12.412 -0.0881  0.5025  0.1442
 1708SOL    HW116760   1.478   2.035  12.460 -0.1642 -0.8549  0.0001
 1708SOL    HW216761   1.404   2.107  12.340 -1.0488  0.1304 -0.2973
 1709SOL     OW16762   2.047   1.381   6.838  0.1291  0.3898  0.5957
 1709SOL    HW116763   1.996   1.309   6.877 -1.6371  1.4763  0.2881
 1709SOL    HW216764   1.976   1.444   6.827 -0.4431 -0.3375  0.1024
 1710SOL     OW16765   0.950   0.212   5.440 -0.2361  0.4186  0.1861
 1710SOL    HW116766   0.878   0.156   5.411 -0.3917  1.4289 -1.4169
 1710SOL    HW216767   0.894   0.283   5.472 -1.4195  0.7937 -2.6640
 1711SOL     OW16768   2.714   0.670   6.072 -0.1828 -0.0861  0.2097
 1711SOL    HW116769   2.642   0.607   6.062  1.0207 -1.2961 -0.8001
 1711SOL    HW216770   2.712   0.690   6.166  0.9609 -2.4328  0.7375
 1712SOL     OW16771   0.061   3.369   2.038  0.5444  0.2504 -0.6031
 1712SOL    HW116772   0.037   3.282   2.069  0.6988  0.8252  1.1207
 1712SOL    HW216773   0.096   3.399   2.122  0.8364  1.0194 -0.9997
 1713SOL     OW16774   0.611   3.078   9.384 -0.1038  0.5167 -0.3334
 1713SOL    HW116775   0.521   3.047   9.379  0.6445 -1.3254 -2.4725
 1713SOL    HW216776   0.612   3.127   9.466 -0.3575 -0.1571  0.0804
 1714SOL     OW16777   3.143   4.657  10.642  0.1372 -0.3801 -0.4127
 1714SOL    HW116778   3.115   4.732  10.695  2.7656 -0.8589  1.6407
 1714SOL    HW216779   3.223   4.695  10.605 -0.6795 -0.9674 -2.7666
 1715SOL     OW16780   4.516   2.880   2.858 -0.1678  0.1244 -0.0206
 1715SOL    HW116781   4.584   2.891   2.925 -0.6654 -0.4697  0.5968
 1715SOL    HW216782   4.537   2.947   2.794 -1.3841 -1.0418 -1.6470
 1716SOL     OW16783   4.381   0.962  11.455  0.4817  0.3836  0.4653
 1716SOL    HW116784   4.307   0.994  11.507  1.4308  0.9099  1.4959
 1716SOL    HW216785   4.451   0.972  11.519  0.6545  0.2502  0.2966
 1717SOL     OW16786   3.801   0.093   3.986  0.3921 -0.1818  0.5435
 1717SOL    HW116787   3.725   0.117   4.038 -0.7202 -1.9099 -0.2770
 1717SOL    HW216788   3.863   0.162   4.010 -1.4166  1.1875  1.2419
 1718SOL     OW16789   1.633   1.546   3.003  0.0680 -0.3140  0.1170
 1718SOL    HW116790   1.574   1.580   2.936  1.0027 -1.5135 -1.3001
 1718SOL    HW216791   1.621   1.609   3.074  2.9157  0.2030  0.1301
 1719SOL     OW16792   0.725   0.735  13.534  0.2574 -0.3848 -0.1008
 1719SOL    HW116793   0.782   0.665  13.503  0.1357  0.3400 -1.9587
 1719SOL    HW216794   0.786   0.766  13.600  0.1503  1.1366 -0.7042
 1720SOL     OW16795   3.055   4.453  10.822  0.3954 -0.0393 -0.2945
 1720SOL    HW116796   2.961   4.435  10.819 -0.0034  2.3480 -2.2390
 1720SOL    HW216797   3.061   4.507  10.743 -1.3549 -1.1016 -1.1457
 1721SOL     OW16798   3.399   0.621   2.835  0.4142 -0.2424  0.6989
 1721SOL    HW116799   3.484   0.585   2.808  1.0531  1.6206  0.2181
 1721SOL    HW216800   3.358   0.618   2.749  0.3501  1.5004  0.6668
 1722SOL     OW16801   1.473   1.224   5.884  0.1611  0.0278  0.0345
 1722SOL    HW116802   1.419   1.239   5.806 -0.0914  0.1219  0.2266
 1722SOL    HW216803   1.484   1.316   5.911  0.1151  0.4456 -1.3832
 1723SOL     OW16804   0.005   0.192   5.955 -0.1132 -0.1502 -0.2511
 1723SOL    HW116805   4.729   0.168   5.864 -1.2637  1.7448 -0.5495
 1723SOL    HW216806   4.654   0.183   5.984  0.0690  0.6344  0.5527
 1724SOL     OW16807   1.362   0.219   2.088 -0.0682 -0.4989  0.4147
 1724SOL    HW116808   1.370   0.128   2.059  2.6516 -0.8905  2.3350
 1724SOL    HW216809   1.404   0.203   2.173  0.0469  1.5239  0.7506
 1725SOL     OW16810   2.344   1.758  16.537 -0.0226  0.1022  0.0502
 1725SOL    HW116811   2.397   1.713  16.602  0.5995 -0.6355 -0.9647
 1725SOL    HW216812   2.304   1.814  16.603  1.6169  0.8145  0.4390
 1726SOL     OW16813   1.479   4.472   5.072  0.0403  0.2684  0.0176
 1726SOL    HW116814   1.561   4.489   5.119 -0.5389 -2.2667  1.9244
 1726SOL    HW216815   1.435   4.556   5.081 -1.2540 -0.3156 -0.9685
 1727SOL     OW16816   3.052   0.695  11.779  0.6527 -0.7664  0.4445
 1727SOL    HW116817   3.125   0.644  11.743  2.4850  1.7347  0.6145
 1727SOL    HW216818   3.037   0.762  11.712  2.3593 -1.3065 -0.4769
 1728SOL     OW16819   1.877   0.143   5.529  0.6675 -0.4338  0.9102
 1728SOL    HW116820   1.951   0.085   5.513  0.0331 -0.9558 -0.1421
 1728SOL    HW216821   1.859   0.121   5.620  1.1751  2.3888  1.7104
 1729SOL     OW16822   4.210   4.055   0.237 -0.1616 -0.8455 -0.4905
 1729SOL    HW116823   4.127   4.045   0.284  1.8916 -2.1381  2.9098
 1729SOL    HW216824   4.224   4.149   0.232  2.2751 -1.3237 -2.2505
 1730SOL     OW16825   2.304   1.430   8.848  0.5178 -0.3368  0.2735
 1730SOL    HW116826   2.354   1.354   8.876  0.1376 -0.0881  1.6248
 1730SOL    HW216827   2.219   1.405   8.885  0.4985  0.9858  1.1103
 1731SOL     OW16828   3.022   4.158   8.503  0.2528 -0.1350  0.2610
 1731SOL    HW116829   3.078   4.232   8.478 -0.9398  0.7818  0.3318
 1731SOL    HW216830   3.040   4.092   8.435 -0.6805  0.4098 -0.5124
 1732SOL     OW16831   3.342   4.226   1.887 -0.5446  0.1157 -0.4090
 1732SOL    HW116832   3.399   4.226   1.964  0.7456  2.4147 -1.3479
 1732SOL    HW216833   3.341   4.132   1.873 -1.1186  0.0303  0.2715
 1733SOL     OW16834   3.050   1.831   2.713  0.4351  0.2392  0.5972
 1733SOL    HW116835   3.131   1.867   2.751 -0.9089  4.1084 -0.1904
 1733SOL    HW216836   3.060   1.843   2.618 -2.1685 -0.8923  0.1749
 1734SOL     OW16837   4.089   2.171   4.767  0.4278 -0.5445 -0.4178
 1734SOL    HW116838   4.021   2.128   4.820 -0.3449  1.6606  0.4213
 1734SOL    HW216839   4.080   2.118   4.688  0.7561 -1.1857 -0.0127
 1735SOL     OW16840   4.285   3.780   5.775 -0.0173  0.5880 -0.1127
 1735SOL    HW116841   4.361   3.760   5.721  0.4372  0.6835  0.4940
 1735SOL    HW216842   4.283   3.706   5.836  1.5783  1.9439  1.5787
 1736SOL     OW16843   2.722   1.825   4.514 -0.4293  0.3268 -0.1195
 1736SOL    HW116844   2.718   1.791   4.603  0.0261 -1.2373 -0.7094
 1736SOL    HW216845   2.630   1.836   4.489 -1.0000  0.0570  1.8098
 1737SOL     OW16846   1.745   2.445  15.958  0.1775  0.0315 -0.6056
 1737SOL    HW116847   1.802   2.386  16.007 -0.0869 -0.4331 -0.8562
 1737SOL    HW216848   1.699   2.484  16.032 -0.3247  2.0248 -1.9662
 1738SOL     OW16849   4.388   1.147   4.973  0.0205  0.4812 -0.3018
 1738SOL    HW116850   4.439   1.087   4.920  1.3861  0.5226  0.9676
 1738SOL    HW216851   4.425   1.118   5.057  1.4909  0.4058 -0.9828
 1739SOL     OW16852   3.405   2.104  16.131  0.3016 -0.0440 -0.1594
 1739SOL    HW116853   3.356   2.097  16.048  0.8922 -0.3865 -0.4780
 1739SOL    HW216854   3.358   2.178  16.169  0.1025  0.4237 -1.3173
 1740SOL     OW16855   0.204   0.737  17.009 -0.4174  0.1676  0.5710
 1740SOL    HW116856   0.170   0.733  16.920  0.8848  1.9856 -0.0164
 1740SOL    HW216857   0.254   0.819  17.002  0.2606 -0.0349  3.0024
 1741SOL     OW16858   1.399   2.577  13.861 -0.1591 -0.1350  0.6315
 1741SOL    HW116859   1.349   2.495  13.871 -0.2263  0.0947  2.2202
 1741SOL    HW216860   1.492   2.554  13.859 -0.4160 -1.1020 -0.0243
 1742SOL     OW16861   0.074   0.466   4.629  0.1685 -0.0751 -0.1588
 1742SOL    HW116862   0.103   0.555   4.646 -0.2977 -0.1421  0.9230
 1742SOL    HW216863   0.117   0.449   4.545 -1.8019  0.2886 -1.2510
 1743SOL     OW16864   1.257   1.928   7.607  0.6790 -0.1332  0.4726
 1743SOL    HW116865   1.200   1.884   7.544  0.6700  0.6273 -0.0509
 1743SOL    HW216866   1.282   2.000   7.548  1.9119 -0.7107  0.2908
 1744SOL     OW16867   4.030   4.148   4.269 -0.1683 -0.4864  0.2116
 1744SOL    HW116868   4.000   4.141   4.179 -1.3552  0.5650  0.5400
 1744SOL    HW216869   4.056   4.059   4.295 -2.9291 -1.4134 -0.3156
 1745SOL     OW16870   1.639   2.776   1.982 -0.3263 -0.7570  0.0594
 1745SOL    HW116871   1.679   2.763   2.068 -2.4241 -0.0139  1.1489
 1745SOL    HW216872   1.625   2.870   1.989 -0.8225 -0.7934 -0.4243
 1746SOL     OW16873   4.258   3.114  12.698 -0.2852 -0.5031  0.0336
 1746SOL    HW116874   4.308   3.157  12.628 -0.7925 -1.8641 -1.1733
 1746SOL    HW216875   4.270   3.179  12.767 -1.4898  0.4113 -0.6187
 1747SOL     OW16876   3.723   3.405   2.651 -0.4427  0.3440 -0.3775
 1747SOL    HW116877   3.672   3.371   2.577 -2.0898  1.1841  0.3709
 1747SOL    HW216878   3.776   3.327   2.670  0.2642  0.5570 -1.5088
 1748SOL     OW16879   0.532   2.112   8.723  0.9640 -0.4357  0.5092
 1748SOL    HW116880   0.588   2.156   8.659  1.4118  1.4631  2.2087
 1748SOL    HW216881   0.570   2.025   8.721 -1.0395 -1.3006  0.1804
 1749SOL     OW16882   4.588   0.361   4.054 -0.1186  0.0964  0.0806
 1749SOL    HW116883   4.503   0.317   4.064  1.3309 -2.8943 -0.7080
 1749SOL    HW216884   4.607   0.370   4.148 -4.2421 -1.6757  1.0940
 1750SOL     OW16885   3.199   2.480   3.489 -0.2991  0.6923 -0.4061
 1750SOL    HW116886   3.174   2.477   3.396 -0.0114  0.0862 -0.4598
 1750SOL    HW216887   3.282   2.527   3.494  1.2197 -1.9800 -0.7439
 1751SOL     OW16888   1.335   2.044   0.491 -0.0251 -0.3071 -0.2048
 1751SOL    HW116889   1.415   2.071   0.446  0.4018 -1.9497 -0.4286
 1751SOL    HW216890   1.354   1.953   0.513  0.7458 -0.1267 -0.1180
 1752SOL     OW16891   0.996   2.010  11.706  0.2885  0.5874 -0.3982
 1752SOL    HW116892   0.951   1.950  11.766  1.2090  0.1406 -0.1607
 1752SOL    HW216893   1.039   2.067  11.769 -0.8408  0.1238  0.7981
 1753SOL     OW16894   3.402   1.223   1.675  0.1299  0.5477  0.5330
 1753SOL    HW116895   3.410   1.255   1.585  1.1299  0.5986  0.6447
 1753SOL    HW216896   3.350   1.294   1.712  1.8223  0.7958  2.4397
 1754SOL     OW16897   0.714   1.770   9.596  0.5167 -0.5535 -0.1764
 1754SOL    HW116898   0.664   1.796   9.674  0.4779 -1.0479 -0.0361
 1754SOL    HW216899   0.638   1.778   9.537 -1.2241 -1.4509  1.9246
 1755SOL     OW16900   4.312   2.040  15.088 -0.1045  0.2304  0.6069
 1755SOL    HW116901   4.295   2.123  15.132 -0.2873  0.0648  0.8504
 1755SOL    HW216902   4.242   1.987  15.127 -0.7011  0.7839  0.3046
 1756SOL     OW16903   3.361   0.494   8.788  0.6801 -0.0161 -0.1930
 1756SOL    HW116904   3.367   0.404   8.820  0.9747 -0.1222 -0.5421
 1756SOL    HW216905   3.412   0.486   8.707 -1.6209 -1.0544 -1.5485
 1757SOL     OW16906   2.216   4.370   9.002 -0.1787  0.2226 -0.1772
 1757SOL    HW116907   2.206   4.298   8.940  0.0621 -1.3313  1.5995
 1757SOL    HW216908   2.222   4.323   9.085  0.8124 -0.3407 -0.5733
 1758SOL     OW16909   4.284   2.867   5.768  0.2710 -0.5262 -0.2374
 1758SOL    HW116910   4.359   2.841   5.821 -0.2578  1.2016  1.3527
 1758SOL    HW216911   4.242   2.946   5.803 -0.4563 -1.1178  0.2186
 1759SOL     OW16912   0.859   4.677  17.145 -0.4708 -0.0551 -0.1217
 1759SOL    HW116913   0.792   4.610  17.138  0.0945 -0.8332  1.9947
 1759SOL    HW216914   0.930   4.627  17.104 -1.1287 -1.6045  0.6331
 1760SOL     OW16915   3.617   1.393   6.649 -0.5813 -0.5021 -0.1809
 1760SOL    HW116916   3.666   1.460   6.698 -0.4269 -2.2824  2.1167
 1760SOL    HW216917   3.645   1.399   6.558  0.0009  1.6338  0.1134
 1761SOL     OW16918   1.783   0.582   3.739  0.0949  0.2068  0.0262
 1761SOL    HW116919   1.814   0.620   3.821 -0.9353  0.8937  0.0924
 1761SOL    HW216920   1.755   0.494   3.763  0.8249 -0.1975 -0.5719
 1762SOL     OW16921   2.584   4.512   1.316 -0.0393  0.0367 -0.3189
 1762SOL    HW116922   2.498   4.525   1.357  0.8338 -0.2441  1.6378
 1762SOL    HW216923   2.600   4.418   1.310 -3.5465 -0.6996  1.8595
 1763SOL     OW16924   0.700   4.127   1.846 -0.1057 -0.2166  0.0702
 1763SOL    HW116925   0.697   4.069   1.921  0.7359  0.8190  0.9167
 1763SOL    HW216926   0.647   4.083   1.780  0.0622 -1.0113  0.4699
 1764SOL     OW16927   2.843   4.071   1.951 -0.0060  0.1260  0.3943
 1764SOL    HW116928   2.937   4.061   1.935  0.1550  1.6495  0.3497
 1764SOL    HW216929   2.842   4.085   2.045 -0.5742 -0.3900  0.4678
 1765SOL     OW16930   4.213   1.404   4.640 -0.0721  0.2285 -0.1384
 1765SOL    HW116931   4.183   1.481   4.592 -1.5185  1.3838  2.6614
 1765SOL    HW216932   4.304   1.398   4.610  0.9648  2.7405  2.5037
 1766SOL     OW16933   1.406   2.633  17.750  0.6837 -0.1562 -0.1746
 1766SOL    HW116934   1.431   2.596   0.080  0.6438 -0.2168 -0.1893
 1766SOL    HW216935   1.321   2.672   0.019 -0.9412 -2.1218 -2.7570
 1767SOL     OW16936   4.385   2.835   8.198 -0.0297  0.2109 -0.7113
 1767SOL    HW116937   4.443   2.773   8.154  1.4789  0.6960  0.5774
 1767SOL    HW216938   4.449   2.874   8.257 -0.2914  1.9694 -1.5785
 1768SOL     OW16939   1.571   3.476   0.121  0.0307  0.1410  0.3179
 1768SOL    HW116940   1.527   3.423   0.187 -1.3153  0.4417 -0.3356
 1768SOL    HW216941   1.661   3.444   0.132 -0.3872 -0.5875  1.5234
 1769SOL     OW16942   3.902   3.845  11.445  0.0234 -0.6858 -0.0743
 1769SOL    HW116943   3.888   3.842  11.540 -0.5939 -4.7256 -0.3253
 1769SOL    HW216944   3.994   3.870  11.439 -0.0377 -0.7909 -1.4253
 1770SOL     OW16945   1.667   1.092   5.779  0.9661  0.1597  0.7451
 1770SOL    HW116946   1.714   1.157   5.726 -0.4139 -1.7884 -2.8037
 1770SOL    HW216947   1.595   1.138   5.823  0.1978  1.4248 -1.8489
 1771SOL     OW16948   0.161   4.127   5.110 -0.0169  0.6036 -0.3328
 1771SOL    HW116949   0.086   4.171   5.151 -0.8187 -1.1195  0.0388
 1771SOL    HW216950   0.166   4.169   5.024 -2.8258  0.9734 -0.3106
 1772SOL     OW16951   3.163   1.654   9.831  0.4891  0.1785  0.1323
 1772SOL    HW116952   3.099   1.624   9.767  0.4759  0.2522  0.1102
 1772SOL    HW216953   3.111   1.638   9.909 -2.6224  0.4566 -1.9110
 1773SOL     OW16954   3.042   0.183  16.879  0.1595 -0.0100 -0.1850
 1773SOL    HW116955   2.984   0.242  16.926 -0.6396  1.1042 -2.5762
 1773SOL    HW216956   3.020   0.207  16.789 -0.3175  0.6804  0.1157
 1774SOL     OW16957   2.229   3.331   6.806 -0.3615 -0.4391 -0.6276
 1774SOL    HW116958   2.264   3.399   6.864  0.0716 -0.8854 -0.3614
 1774SOL    HW216959   2.241   3.370   6.719 -1.3206  0.9946 -0.1259
 1775SOL     OW16960   1.105   2.808   8.420  0.6178  0.3437  0.0028
 1775SOL    HW116961   1.114   2.875   8.352  0.3487  0.5282  0.1504
 1775SOL    HW216962   1.186   2.811   8.471 -0.4861 -0.2720  1.7811
 1776SOL     OW16963   3.452   3.445   8.063  0.3813 -0.3509 -0.3631
 1776SOL    HW116964   3.499   3.456   7.981  1.2253 -1.8305 -0.0738
 1776SOL    HW216965   3.510   3.481   8.130  1.1650  0.1385 -1.3227
 1777SOL     OW16966   4.600   3.288   6.764 -0.2278  0.7213 -0.5285
 1777SOL    HW116967   4.667   3.351   6.791 -1.2634  2.6396 -2.5269
 1777SOL    HW216968   4.543   3.346   6.715 -1.9667 -1.3789 -0.9915
 1778SOL     OW16969   3.847   4.685   5.598 -0.4878  0.9672  0.3721
 1778SOL    HW116970   3.876   4.730   5.519 -1.7452  0.4762 -0.3701
 1778SOL    HW216971   3.816   0.022   5.647 -0.0838  1.4733 -0.1630
 1779SOL     OW16972   3.515   0.534   2.175  0.3035 -0.3481  0.3352
 1779SOL    HW116973   3.430   0.559   2.211  0.4707  1.3863 -0.4838
 1779SOL    HW216974   3.553   0.621   2.171 -2.2124  0.8370  2.0791
 1780SOL     OW16975   4.489   1.613  16.347  0.8010 -0.2316  0.2877
 1780SOL    HW116976   4.581   1.610  16.370  1.3064  0.5190 -1.6381
 1780SOL    HW216977   4.497   1.671  16.272 -0.6882  0.2931  0.5300
 1781SOL     OW16978   1.075   3.121   5.589 -0.5440 -0.1520 -0.1695
 1781SOL    HW116979   1.166   3.130   5.620 -0.7584  2.1905 -0.2408
 1781SOL    HW216980   1.070   3.029   5.562  0.5356 -0.6122  1.2023
 1782SOL     OW16981   1.188   1.054   6.452  0.4803 -0.4287 -0.1812
 1782SOL    HW116982   1.230   1.025   6.532  0.5811  0.4994  0.1006
 1782SOL    HW216983   1.209   0.981   6.394  2.0000  2.1593 -2.9079
 1783SOL     OW16984   3.639   2.787   3.936  0.0009  0.1586 -0.3297
 1783SOL    HW116985   3.611   2.779   4.027  2.2620 -2.4788  0.1421
 1783SOL    HW216986   3.733   2.776   3.950 -0.0582  0.8761  0.6406
 1784SOL     OW16987   1.516   4.413   8.670  0.0104 -0.0298  0.2978
 1784SOL    HW116988   1.468   4.496   8.678  2.1741  1.3149 -0.5814
 1784SOL    HW216989   1.489   4.387   8.582 -0.5149 -2.9005  1.3207
 1785SOL     OW16990   0.139   3.093   4.538  0.0045  0.2753 -0.0973
 1785SOL    HW116991   0.159   3.046   4.457 -0.2401  2.5326 -1.4889
 1785SOL    HW216992   0.144   3.021   4.600  2.1737  1.1671  0.7492
 1786SOL     OW16993   4.286   0.358  12.813 -0.1530 -0.3075  0.3200
 1786SOL    HW116994   4.256   0.422  12.877  3.1854 -0.4462  1.9899
 1786SOL    HW216995   4.245   0.274  12.834 -0.6591 -0.6521 -1.9501
 1787SOL     OW16996   4.162   4.382   8.635  0.2690 -0.0847 -0.2245
 1787SOL    HW116997   4.192   4.466   8.672  1.0894 -0.3590 -0.2654
 1787SOL    HW216998   4.067   4.394   8.632  0.3189 -0.4897 -2.9955
 1788SOL     OW16999   1.589   3.247   5.814 -0.7637  0.0370  0.1071
 1788SOL    HW117000   1.632   3.162   5.819 -1.1805 -0.1318  0.7550
 1788SOL    HW217001   1.667   3.299   5.797 -0.0278 -1.7038 -1.8257
 1789SOL     OW17002   3.184   2.137  12.801 -0.5553  0.4793  0.0818
 1789SOL    HW117003   3.133   2.097  12.731 -0.6551  1.1183 -0.2070
 1789SOL    HW217004   3.197   2.228  12.775  1.3536 -0.0206 -0.7293
 1790SOL     OW17005   0.153   0.817  15.144  0.6435 -0.0264  0.0170
 1790SOL    HW117006   0.169   0.777  15.229 -0.1580 -1.4628 -0.5177
 1790SOL    HW217007   0.237   0.859  15.124  0.3341  1.0627  1.0036
 1791SOL     OW17008   4.694   3.582   5.881 -0.2559  0.2465  0.1944
 1791SOL    HW117009   4.720   3.490   5.891  0.3997  0.3991 -0.1207
 1791SOL    HW217010   4.729   3.609   5.796 -2.3806  0.5983 -0.5713
 1792SOL     OW17011   1.152   1.952   5.310  0.4364  0.1488  0.1740
 1792SOL    HW117012   1.245   1.932   5.321  0.1975 -1.2419 -0.3645
 1792SOL    HW217013   1.150   1.944   5.214  0.2109  0.8373  0.1249
 1793SOL     OW17014   2.985   4.432   7.745 -0.1240 -0.3735 -0.5511
 1793SOL    HW117015   2.955   4.478   7.666  2.2487 -1.3844 -2.0427
 1793SOL    HW217016   2.991   4.346   7.704  2.8576 -0.3240 -0.1709
 1794SOL     OW17017   3.684   4.178   1.662  0.1410  0.5156  0.6738
 1794SOL    HW117018   3.650   4.089   1.650  1.4254 -0.2683  2.8213
 1794SOL    HW217019   3.612   4.240   1.652 -0.0091  0.4717  1.4513
 1795SOL     OW17020   1.266   3.349   8.516  0.7068  0.2465 -0.7161
 1795SOL    HW117021   1.245   3.339   8.609  0.6791  0.3675 -0.7098
 1795SOL    HW217022   1.318   3.430   8.516 -0.3362  0.9050 -1.3672
 1796SOL     OW17023   3.082   1.485   3.227  0.1871 -0.4906  0.4354
 1796SOL    HW117024   3.141   1.559   3.215 -0.4186 -0.1230 -0.3122
 1796SOL    HW217025   3.082   1.450   3.138 -1.8262  0.2708  0.1342
 1797SOL     OW17026   4.284   3.164   8.387  0.1921 -0.0275  0.3753
 1797SOL    HW117027   4.332   3.082   8.391  0.9367  0.3841 -0.1088
 1797SOL    HW217028   4.357   3.225   8.374 -2.5838  3.1798 -0.3298
 1798SOL     OW17029   3.529   4.117   3.999 -0.4277  0.3311  0.4369
 1798SOL    HW117030   3.516   4.175   3.925 -2.2702  1.0222  1.3192
 1798SOL    HW217031   3.457   4.055   3.988  0.7892 -0.9190 -0.6328
 1799SOL     OW17032   3.400   0.496   6.349  0.0526  0.3401  0.0461
 1799SOL    HW117033   3.452   0.538   6.281  0.4102 -2.0006 -1.1618
 1799SOL    HW217034   3.436   0.540   6.426  0.0478  0.5037 -0.0452
 1800SOL     OW17035   1.259   0.256   1.751  0.2554  0.4781 -0.1887
 1800SOL    HW117036   1.194   0.221   1.812  1.5072  0.5576  1.1801
 1800SOL    HW217037   1.214   0.339   1.735 -0.6589  0.1523  0.6706
 1801SOL     OW17038   3.329   1.267   9.304  0.0675 -0.1351 -0.0980
 1801SOL    HW117039   3.308   1.360   9.312 -0.0423 -0.1023 -0.7261
 1801SOL    HW217040   3.381   1.255   9.384  0.8212 -0.9297 -0.6980
 1802SOL     OW17041   4.484   0.688   7.219  0.0450 -0.2026  0.1613
 1802SOL    HW117042   4.495   0.596   7.244  2.1735  0.3983  1.5033
 1802SOL    HW217043   4.577   0.711   7.225  0.1237 -0.3524 -0.5522
 1803SOL     OW17044   0.827   4.440   6.018  0.2049  0.3353 -0.0348
 1803SOL    HW117045   0.749   4.463   6.069  0.6982  0.9137  0.4536
 1803SOL    HW217046   0.866   4.522   5.989 -0.8445  0.7861 -0.1795
 1804SOL     OW17047   1.675   4.209  14.036 -0.4921  0.4687  0.1749
 1804SOL    HW117048   1.767   4.226  14.016 -0.7853 -0.3436 -1.8540
 1804SOL    HW217049   1.645   4.295  14.067  1.5510  0.7724  1.2938
 1805SOL     OW17050   1.435   4.104   5.653  0.0805 -0.3246 -0.6238
 1805SOL    HW117051   1.353   4.069   5.620  0.9358 -1.2587 -1.7580
 1805SOL    HW217052   1.410   4.113   5.745 -1.7433  0.5871 -1.2100
 1806SOL     OW17053   2.180   1.811  13.083 -0.7033  0.3075 -0.0880
 1806SOL    HW117054   2.263   1.774  13.052 -0.2187  0.1593  1.4260
 1806SOL    HW217055   2.147   1.843  12.999  0.5063 -0.8316 -0.9945
 1807SOL     OW17056   2.274   3.074   9.809 -0.5810 -0.5805 -0.3067
 1807SOL    HW117057   2.255   3.112   9.895 -0.1833 -1.2904  0.0953
 1807SOL    HW217058   2.191   3.028   9.795 -1.3649  0.6333  0.3268
 1808SOL     OW17059   4.000   3.995   0.895  0.1022 -0.0119  0.4757
 1808SOL    HW117060   3.967   4.040   0.973 -0.6810 -0.9975  0.7147
 1808SOL    HW217061   4.033   3.917   0.940  2.2365  0.8197  0.3337
 1809SOL     OW17062   3.470   3.925  14.588  0.5612 -0.0876  0.5491
 1809SOL    HW117063   3.549   3.965  14.553  0.9600 -0.0239  1.5277
 1809SOL    HW217064   3.516   3.870  14.651  1.0371  1.3315  1.4620
 1810SOL     OW17065   0.299   3.540   3.625  0.2313 -0.2470 -0.5920
 1810SOL    HW117066   0.251   3.480   3.681 -1.7353  1.7518 -0.1554
 1810SOL    HW217067   0.380   3.490   3.614  0.5292  0.4198 -1.4314
 1811SOL     OW17068   3.837   3.600   1.558  0.3262  0.1762 -0.4029
 1811SOL    HW117069   3.752   3.585   1.598  1.1716 -2.5516  0.3621
 1811SOL    HW217070   3.890   3.545   1.616 -0.6256  0.5127  0.7755
 1812SOL     OW17071   1.328   1.038   3.801 -0.2736  0.3663 -0.1829
 1812SOL    HW117072   1.266   1.030   3.874 -2.1396 -0.7515 -1.8739
 1812SOL    HW217073   1.272   1.035   3.723  0.4704 -0.4292 -0.6939
 1813SOL     OW17074   0.124   0.118  16.279  0.2884 -0.0779  0.2861
 1813SOL    HW117075   0.126   0.210  16.304 -2.9180  0.2753 -0.7136
 1813SOL    HW217076   0.069   0.118  16.200 -0.8631  0.0082  1.0877
 1814SOL     OW17077   4.523   3.825  13.038  0.2049 -0.0255  0.3818
 1814SOL    HW117078   4.602   3.831  13.093 -0.4844  0.7751  1.3032
 1814SOL    HW217079   4.565   3.789  12.961 -0.1717  0.2433  0.0503
 1815SOL     OW17080   2.925   0.960   2.378 -0.1794  0.6018 -0.0665
 1815SOL    HW117081   2.895   0.885   2.327  0.2948 -0.4782  1.2223
 1815SOL    HW217082   2.867   0.946   2.453 -0.0272 -1.4620 -0.3382
 1816SOL     OW17083   1.301   3.740   9.680  0.2879 -0.5613 -0.5379
 1816SOL    HW117084   1.260   3.665   9.723  0.0920  0.2862  0.7406
 1816SOL    HW217085   1.245   3.815   9.701  2.9240  1.3987 -0.4328
 1817SOL     OW17086   0.928   1.939   0.945  0.3004  0.3710 -0.0801
 1817SOL    HW117087   0.951   1.937   0.852 -2.8523 -1.5063 -0.8003
 1817SOL    HW217088   0.976   2.021   0.958  0.2768  0.9773 -3.9029
 1818SOL     OW17089   4.608   2.914   3.756  0.4656  0.2614 -1.0979
 1818SOL    HW117090   4.536   2.977   3.746  0.4464  0.7577  2.2780
 1818SOL    HW217091   4.682   2.973   3.739 -0.2213  1.3089 -0.4665
 1819SOL     OW17092   0.355   2.299   6.860 -0.5659 -0.3712 -0.7920
 1819SOL    HW117093   0.402   2.319   6.779 -0.1201 -0.3152 -0.5261
 1819SOL    HW217094   0.280   2.359   6.866 -0.5279 -0.4175  0.1713
 1820SOL     OW17095   1.917   4.345  13.694  0.1216 -0.3850  0.5532
 1820SOL    HW117096   1.919   4.318  13.602 -0.8736 -2.1387  1.0556
 1820SOL    HW217097   1.985   4.411  13.706  2.3595 -2.8290  1.2258
 1821SOL     OW17098   0.680   2.284  10.395  0.1716 -1.3184 -0.1037
 1821SOL    HW117099   0.587   2.289  10.371  0.0237 -0.0612  0.7369
 1821SOL    HW217100   0.700   2.197  10.361  2.3655 -1.2396  0.9815
 1822SOL     OW17101   4.584   2.579  11.741 -0.2427  0.5611  0.2870
 1822SOL    HW117102   4.562   2.665  11.775 -1.4751 -0.5703  2.3012
 1822SOL    HW217103   4.516   2.524  11.779  2.0673 -1.7964  1.0213
 1823SOL     OW17104   0.543   2.640   4.932 -0.1606  0.1887  0.6628
 1823SOL    HW117105   0.616   2.638   4.995 -0.2239 -0.5966  0.7112
 1823SOL    HW217106   0.551   2.551   4.900 -1.1474  0.5300 -0.5254
 1824SOL     OW17107   2.063   1.340   2.813  0.2183  0.5565 -0.1589
 1824SOL    HW117108   2.053   1.271   2.878 -2.1752 -0.3979 -1.5436
 1824SOL    HW217109   2.004   1.408   2.846 -0.6486 -0.3954  0.2144
 1825SOL     OW17110   2.533   2.228  11.589  0.0866 -0.7685  0.0761
 1825SOL    HW117111   2.586   2.238  11.668 -2.0609 -0.6638  1.5029
 1825SOL    HW217112   2.487   2.311  11.577 -2.3584 -2.3677 -1.5539
 1826SOL     OW17113   3.681   0.939   8.560  0.0158  1.3180  0.1455
 1826SOL    HW117114   3.663   1.032   8.577 -1.1875  0.6389  2.5547
 1826SOL    HW217115   3.603   0.914   8.510  0.6674  1.2161 -0.8269
 1827SOL     OW17116   0.677   4.101   9.361 -0.4057  0.2621  0.1734
 1827SOL    HW117117   0.733   4.137   9.292  0.5849 -2.0991 -0.2725
 1827SOL    HW217118   0.747   4.058   9.410  0.2708  2.0878  0.8159
 1828SOL     OW17119   2.274   4.568   4.660 -0.7153  0.1793  0.1095
 1828SOL    HW117120   2.286   4.588   4.753  1.4335  0.8650 -0.3053
 1828SOL    HW217121   2.197   4.513   4.672 -0.7517  0.2064 -0.0067
 1829SOL     OW17122   1.363   3.255  14.693 -0.5849 -0.1948 -0.3617
 1829SOL    HW117123   1.447   3.269  14.648 -1.4472  2.0768 -1.2729
 1829SOL    HW217124   1.300   3.318  14.659  2.1894  2.2818 -0.9491
 1830SOL     OW17125   3.364   1.722  12.315  0.0401  1.2007  0.7326
 1830SOL    HW117126   3.451   1.754  12.295 -0.5342  1.5107 -1.2504
 1830SOL    HW217127   3.369   1.638  12.270 -0.8159  1.3565  0.3357
 1831SOL     OW17128   2.660   2.894  12.643 -0.3572  0.0410 -0.5097
 1831SOL    HW117129   2.711   2.813  12.635  1.4676  1.1829 -0.2402
 1831SOL    HW217130   2.637   2.909  12.734  0.0520  1.5897 -0.6670
 1832SOL     OW17131   2.128   1.482   4.228 -0.2187  0.2959 -0.6054
 1832SOL    HW117132   2.201   1.519   4.178 -0.3250  2.6223  0.9369
 1832SOL    HW217133   2.095   1.406   4.182 -1.4402 -0.2123  1.1371
 1833SOL     OW17134   4.101   1.932   8.752 -0.2957  0.0371 -0.3412
 1833SOL    HW117135   4.082   1.942   8.659 -1.5871 -1.2749 -0.2099
 1833SOL    HW217136   4.030   1.979   8.796  0.2585  1.6284 -1.1377
 1834SOL     OW17137   0.884   0.922   5.114 -0.5145 -0.1884  0.5752
 1834SOL    HW117138   0.799   0.883   5.093 -0.7612  0.8851 -0.4013
 1834SOL    HW217139   0.861   1.013   5.096  1.4675  0.4302  1.2528
 1835SOL     OW17140   0.703   2.162   3.970 -0.1230  0.7946 -0.0444
 1835SOL    HW117141   0.778   2.131   3.919 -1.5426  0.8332 -2.1798
 1835SOL    HW217142   0.689   2.249   3.933  0.7130  0.5806 -0.8593
 1836SOL     OW17143   4.248   4.033  12.267  0.6137 -0.3478 -0.0740
 1836SOL    HW117144   4.339   4.016  12.290  0.6929  1.2447  0.8041
 1836SOL    HW217145   4.254   4.026  12.172  0.5643 -2.1655  0.0644
 1837SOL     OW17146   0.651   3.500   2.196  0.3176 -0.1109  0.4067
 1837SOL    HW117147   0.701   3.579   2.216  1.0123 -0.2108 -0.9457
 1837SOL    HW217148   0.665   3.452   2.277 -1.1082 -1.2325 -0.0058
 1838SOL     OW17149   2.012   0.593   6.406  0.2250 -0.5746  0.3850
 1838SOL    HW117150   2.056   0.650   6.469 -2.1768 -0.3697  1.8975
 1838SOL    HW217151   1.980   0.526   6.467  0.5656 -2.6139 -1.6963
 1839SOL     OW17152   4.177   4.532   7.227  0.1939 -0.3382  0.4483
 1839SOL    HW117153   4.164   4.567   7.316 -0.2272  2.8062 -0.8513
 1839SOL    HW217154   4.096   4.481   7.226 -0.9682  1.5528 -2.2424
 1840SOL     OW17155   1.543   4.004  11.938  0.0787 -0.1169  0.3347
 1840SOL    HW117156   1.626   4.047  11.957  1.1584 -1.8785 -0.4544
 1840SOL    HW217157   1.538   3.936  12.005  1.7576  0.1633  0.7175
 1841SOL     OW17158   4.294   3.015   6.884 -0.1840  0.1462  0.3386
 1841SOL    HW117159   4.308   3.098   6.929  1.9695  0.2006 -0.4042
 1841SOL    HW217160   4.369   2.961   6.909 -0.5819 -1.5818 -2.1694
 1842SOL     OW17161   0.354   1.659   5.710  0.8797 -0.3296 -0.2472
 1842SOL    HW117162   0.417   1.602   5.664 -0.9108 -0.6027 -2.3752
 1842SOL    HW217163   0.300   1.688   5.636  1.2087 -1.8541 -1.1100
 1843SOL     OW17164   4.403   3.860  11.619  0.3107 -0.0168  0.4682
 1843SOL    HW117165   4.437   3.931  11.565  0.9576 -0.8456 -0.2162
 1843SOL    HW217166   4.448   3.779  11.593 -0.1064  0.2085 -0.9577
 1844SOL     OW17167   1.717   0.795  15.316 -0.4844 -0.0233  0.1939
 1844SOL    HW117168   1.786   0.831  15.260 -0.0696 -2.5649 -0.9427
 1844SOL    HW217169   1.742   0.821  15.405 -2.7358  0.0588  0.8011
 1845SOL     OW17170   3.638   2.723   9.220  0.0170  0.0663 -0.3735
 1845SOL    HW117171   3.685   2.741   9.302 -1.2368 -0.5680  0.4772
 1845SOL    HW217172   3.618   2.630   9.230  1.3446 -0.3182 -1.2782
 1846SOL     OW17173   0.298   2.201  16.947  0.1520  0.0851  0.6764
 1846SOL    HW117174   0.391   2.188  16.968 -0.0070  0.8712  1.8669
 1846SOL    HW217175   0.253   2.135  17.001 -2.0255  1.6367  0.7350
 1847SOL     OW17176   1.173   0.730  15.323  0.4011 -0.1267 -0.0955
 1847SOL    HW117177   1.085   0.768  15.314 -0.9242 -2.8126  1.5426
 1847SOL    HW217178   1.175   0.689  15.237  1.3258  0.3924 -0.3210
 1848SOL     OW17179   3.542   1.991   8.591 -0.1652  0.0623  0.0342
 1848SOL    HW117180   3.594   1.912   8.577 -0.6184  0.2139 -2.4698
 1848SOL    HW217181   3.458   1.975   8.549 -0.5334  0.0970  0.7619
 1849SOL     OW17182   1.590   0.992   7.275  0.0569  0.0501 -0.0261
 1849SOL    HW117183   1.581   0.943   7.356  1.1154  0.7152  0.4945
 1849SOL    HW217184   1.685   1.000   7.272  0.0003  1.0044  0.8721
 1850SOL     OW17185   0.374   1.077  12.543 -0.7076 -0.0271 -0.6007
 1850SOL    HW117186   0.309   1.103  12.478  0.9572  0.0430 -2.2350
 1850SOL    HW217187   0.342   0.990  12.566  0.5776 -0.7346 -1.4944
 1851SOL     OW17188   0.274   2.106   0.355 -0.5447 -0.7358 -0.4388
 1851SOL    HW117189   0.221   2.181   0.382  0.2379  0.1564 -1.3393
 1851SOL    HW217190   0.202   2.060   0.312 -1.1082 -0.4677  0.2124
 1852SOL     OW17191   2.365   0.020   5.559  0.2744 -0.1657 -0.3474
 1852SOL    HW117192   2.403   4.695   5.618  0.8255  0.3810 -0.1078
 1852SOL    HW217193   2.388   4.727   5.471 -1.3428 -1.1161 -0.4090
 1853SOL     OW17194   3.510   0.490  11.860  0.1224  0.5560  0.6392
 1853SOL    HW117195   3.540   0.439  11.935  0.7201 -0.6678 -0.4348
 1853SOL    HW217196   3.576   0.484  11.791 -0.9502  1.3315 -0.4552
 1854SOL     OW17197   0.224   4.264   2.957  0.3036  0.5619 -0.0627
 1854SOL    HW117198   0.267   4.179   2.964  0.9973  0.9448  0.3250
 1854SOL    HW217199   0.159   4.256   3.028 -1.2276 -1.4201 -1.6916
 1855SOL     OW17200   4.231   0.302   9.100  0.1370 -0.5621 -0.2049
 1855SOL    HW117201   4.240   0.335   9.010  1.5789  0.5641  0.3449
 1855SOL    HW217202   4.136   0.298   9.112  0.0945  0.2009 -0.2708
 1856SOL     OW17203   0.379   1.337   4.392 -0.2652 -0.3255  0.0881
 1856SOL    HW117204   0.383   1.276   4.319  1.0606  0.8249 -0.7981
 1856SOL    HW217205   0.372   1.413   4.334  1.0039  0.1586  0.5587
 1857SOL     OW17206   1.944   1.120   3.648  0.2113  0.3982 -0.3208
 1857SOL    HW117207   1.890   1.178   3.701 -0.6540 -1.4162  0.7796
 1857SOL    HW217208   2.000   1.084   3.718 -0.3743 -0.5271 -0.3296
 1858SOL     OW17209   2.229   1.804   5.208 -0.3817 -0.4943  0.1038
 1858SOL    HW117210   2.292   1.770   5.145 -1.2077  0.9837 -1.5235
 1858SOL    HW217211   2.172   1.730   5.231 -3.8578  2.9021  2.4998
 1859SOL     OW17212   2.874   3.557   2.979  0.0699 -0.1449  0.0660
 1859SOL    HW117213   2.805   3.547   2.913  2.1353 -1.7250 -1.8115
 1859SOL    HW217214   2.930   3.483   2.958 -0.2871 -0.4833  0.3153
 1860SOL     OW17215   2.864   1.347   7.658 -0.1309  0.3244  0.2504
 1860SOL    HW117216   2.879   1.441   7.651 -0.9986  0.5835  1.6763
 1860SOL    HW217217   2.899   1.320   7.573  1.0412 -1.5287  1.3197
 1861SOL     OW17218   0.424   2.249  17.475  0.3285  0.0196  0.4969
 1861SOL    HW117219   0.429   2.249  17.571  0.2999  1.0349  0.4940
 1861SOL    HW217220   0.473   2.330  17.460  2.4565 -1.1730  1.0066
 1862SOL     OW17221   4.449   3.129   3.717 -0.6127  0.0468  0.1602
 1862SOL    HW117222   4.431   3.203   3.776  0.3094  0.4059 -0.0065
 1862SOL    HW217223   4.521   3.167   3.667  0.6885 -3.4737 -0.6254
 1863SOL     OW17224   3.304   3.265   7.457  0.1169  0.0239 -0.7500
 1863SOL    HW117225   3.263   3.304   7.535  0.7703 -1.1442  0.1878
 1863SOL    HW217226   3.377   3.213   7.492 -0.8104 -1.5539 -1.2229
 1864SOL     OW17227   4.492   2.872   5.073  0.1509  0.0325 -0.2304
 1864SOL    HW117228   4.461   2.958   5.101  1.4197  0.4192  0.0220
 1864SOL    HW217229   4.502   2.825   5.157 -0.8113 -3.3019 -1.9889
 1865SOL     OW17230   1.588   0.220  12.943 -0.6383  0.0666  0.5478
 1865SOL    HW117231   1.646   0.150  12.912 -1.0452 -0.4293  0.9266
 1865SOL    HW217232   1.584   0.268  12.860 -1.2142 -0.5745  0.2019
 1866SOL     OW17233   2.212   4.480  16.433 -0.6161 -0.5133 -0.0152
 1866SOL    HW117234   2.128   4.434  16.437 -1.5504  1.2421  0.2633
 1866SOL    HW217235   2.275   4.407  16.426  0.7511  0.9015 -2.4416
 1867SOL     OW17236   0.180   0.957   0.368  0.0883 -0.3079 -0.1465
 1867SOL    HW117237   0.209   0.875   0.407  0.4175  0.2379  0.7484
 1867SOL    HW217238   0.256   0.999   0.328 -0.0242 -0.1654 -0.2124
 1868SOL     OW17239   0.410   0.313   7.377  0.0734  0.1454 -0.3831
 1868SOL    HW117240   0.431   0.265   7.457 -1.8004  0.0486  0.0476
 1868SOL    HW217241   0.395   0.404   7.399 -2.2891 -0.4494  0.4300
 1869SOL     OW17242   1.374   2.329   8.010 -0.0101 -0.3261  0.0236
 1869SOL    HW117243   1.331   2.414   7.993  1.0358  0.2278  0.1764
 1869SOL    HW217244   1.367   2.290   7.923 -1.1018 -1.3977  0.5934
 1870SOL     OW17245   2.083   1.238   9.882  0.3387 -0.1170 -0.5411
 1870SOL    HW117246   1.991   1.261   9.892  0.4737  0.3917 -0.4546
 1870SOL    HW217247   2.095   1.206   9.971  0.3950  1.8416  0.1661
 1871SOL     OW17248   1.608   1.399   9.398 -0.0237  0.4371 -0.4330
 1871SOL    HW117249   1.602   1.403   9.303 -0.7879 -3.0185 -0.5303
 1871SOL    HW217250   1.581   1.490   9.412  0.2730  0.2624  1.2840
 1872SOL     OW17251   1.699   2.463   8.366 -0.1370  0.2525  0.3677
 1872SOL    HW117252   1.698   2.398   8.437 -0.6685  0.1356  0.2495
 1872SOL    HW217253   1.616   2.436   8.328  0.1998 -0.5047  0.1700
 1873SOL     OW17254   0.677   0.972   8.479 -0.0811 -0.3106 -0.6998
 1873SOL    HW117255   0.762   1.010   8.503 -1.0373  1.3928 -0.0208
 1873SOL    HW217256   0.719   0.927   8.405  1.8366  2.1924 -1.1432
 1874SOL     OW17257   3.464   1.738   0.417  0.2049 -0.1170  0.6958
 1874SOL    HW117258   3.416   1.820   0.426 -0.1556 -0.3665  1.0770
 1874SOL    HW217259   3.455   1.724   0.323 -2.3050  1.3067  0.7413
 1875SOL     OW17260   2.715   4.662   5.253  0.0433 -0.0696  0.0850
 1875SOL    HW117261   2.718   4.683   5.346 -1.2638 -0.3860  0.1873
 1875SOL    HW217262   2.664   4.731   5.211  4.4632  1.7259 -2.4273
 1876SOL     OW17263   1.976   2.198  12.547  0.0008  0.8318 -0.3860
 1876SOL    HW117264   1.895   2.165  12.509 -2.0906  4.5003  0.9632
 1876SOL    HW217265   2.018   2.254  12.482 -0.1831 -1.1407 -2.2148
 1877SOL     OW17266   2.905   4.375   5.847 -0.0359 -0.3410  0.3240
 1877SOL    HW117267   2.992   4.382   5.807  0.8773 -0.4024  2.2963
 1877SOL    HW217268   2.916   4.304   5.911  1.8991 -1.2659 -1.0478
 1878SOL     OW17269   2.071   3.537   5.845 -0.0308 -0.2864  0.0530
 1878SOL    HW117270   2.159   3.571   5.830  0.2031 -0.5173  0.8911
 1878SOL    HW217271   2.033   3.542   5.757 -1.8696  0.4501  0.8799
 1879SOL     OW17272   1.944   2.531  10.273  0.7325  0.8595 -0.3712
 1879SOL    HW117273   1.941   2.479  10.353 -2.1227 -0.7766 -1.5503
 1879SOL    HW217274   1.966   2.471  10.202  1.0624  1.6134 -0.9031
 1880SOL     OW17275   0.457   4.708   7.751 -0.7077 -0.0095 -0.4541
 1880SOL    HW117276   0.446   4.656   7.831  1.1076 -0.6444 -0.6097
 1880SOL    HW217277   0.458   4.639   7.685 -0.0637 -0.9800  0.5719
 1881SOL     OW17278   0.900   0.565  13.418 -0.8264  0.0573  0.2577
 1881SOL    HW117279   0.933   0.504  13.353 -0.2136 -0.0752  0.6912
 1881SOL    HW217280   0.956   0.639  13.395  0.3981 -1.2941 -1.0733
 1882SOL     OW17281   0.428   4.608   7.986  0.4081 -0.2578 -0.1742
 1882SOL    HW117282   0.452   4.586   8.076  0.4826  0.0487 -0.1210
 1882SOL    HW217283   0.412   4.517   7.961 -1.8093  0.3688 -1.0732
 1883SOL     OW17284   4.383   1.690   3.617  0.5797  0.1409  0.1177
 1883SOL    HW117285   4.408   1.761   3.676  1.5815 -0.1900  0.0881
 1883SOL    HW217286   4.423   1.619   3.667 -1.0273 -0.1152  1.0230
 1884SOL     OW17287   0.787   0.611   5.403  0.6249 -0.3435 -0.2024
 1884SOL    HW117288   0.837   0.572   5.475  0.1240  1.1314  0.9255
 1884SOL    HW217289   0.798   0.704   5.422 -0.5569 -0.2340 -0.0315
 1885SOL     OW17290   4.664   4.646  12.395 -0.0026  0.5883  0.3467
 1885SOL    HW117291   4.636   4.574  12.338  0.5726  0.8665 -0.2890
 1885SOL    HW217292   4.582   4.686  12.423 -0.1633  0.5105 -0.0167
 1886SOL     OW17293   2.307   1.607   3.921  0.6869  0.0434  0.3019
 1886SOL    HW117294   2.386   1.561   3.892  2.1243  4.1921 -2.1862
 1886SOL    HW217295   2.333   1.613   4.013  1.7326  1.9316 -0.1193
 1887SOL     OW17296   1.497   2.381   4.592 -0.3734 -0.3002  0.2953
 1887SOL    HW117297   1.484   2.453   4.653  0.7482  0.5449 -0.4621
 1887SOL    HW217298   1.553   2.425   4.529 -1.3147  0.1030 -0.2683
 1888SOL     OW17299   2.164   4.421   5.391  0.6117 -0.3034  0.2156
 1888SOL    HW117300   2.241   4.372   5.362 -0.1264  0.8948 -3.7706
 1888SOL    HW217301   2.107   4.354   5.427 -0.1430 -0.3793 -1.1368
 1889SOL     OW17302   1.718   1.220   5.218  0.3122 -0.2936 -0.2311
 1889SOL    HW117303   1.622   1.211   5.215  0.2372 -0.2084  1.7463
 1889SOL    HW217304   1.745   1.151   5.159  0.9787 -1.2934  1.2317
 1890SOL     OW17305   0.747   3.101   7.698 -0.3653  0.0788 -0.0817
 1890SOL    HW117306   0.712   3.012   7.693 -0.4508  0.1259 -0.3006
 1890SOL    HW217307   0.834   3.096   7.658 -0.8046 -1.0127 -0.9137
 1891SOL     OW17308   4.551   3.925   5.503  0.0044 -0.2666  0.4158
 1891SOL    HW117309   4.538   3.968   5.419 -0.9871  1.3838  1.4179
 1891SOL    HW217310   4.634   3.962   5.532  0.1329  1.1936 -1.9152
 1892SOL     OW17311   0.605   2.534  10.523  0.5626 -0.2104  0.4257
 1892SOL    HW117312   0.643   2.452  10.491  1.4091  0.5375 -0.4518
 1892SOL    HW217313   0.675   2.564  10.580  0.4967 -0.1871  0.4940
 1893SOL     OW17314   3.453   1.860   7.814 -0.0995 -0.3222 -0.3259
 1893SOL    HW117315   3.503   1.936   7.845  1.0658  0.3127 -3.6868
 1893SOL    HW217316   3.361   1.884   7.813 -0.2447 -0.7775  1.2558
 1894SOL     OW17317   3.681   0.455   8.693  0.0428 -0.4937  0.1136
 1894SOL    HW117318   3.740   0.382   8.714 -0.3666 -1.3868 -1.8641
 1894SOL    HW217319   3.650   0.405   8.618 -0.5373 -0.0101  0.0289
 1895SOL     OW17320   0.467   2.894  15.454  0.0307  0.0488 -0.2726
 1895SOL    HW117321   0.512   2.925  15.376 -1.7366  2.4383 -0.3426
 1895SOL    HW217322   0.515   2.813  15.472  1.4015  0.4897 -1.9927
 1896SOL     OW17323   4.051   2.301   9.578  0.1278  0.7729 -0.5020
 1896SOL    HW117324   3.991   2.232   9.551 -1.7040  1.6546  1.3519
 1896SOL    HW217325   4.058   2.288   9.673 -2.7933 -1.9465 -0.6777
 1897SOL     OW17326   0.076   4.496   8.785  0.0846 -0.3862 -0.0650
 1897SOL    HW117327   4.721   4.485   8.802  0.3408 -0.5774  1.1859
 1897SOL    HW217328   0.114   4.520   8.869  0.6142 -1.3442 -0.0326
 1898SOL     OW17329   1.284   4.381   0.601 -0.1417  0.7709  0.4062
 1898SOL    HW117330   1.252   4.431   0.676  0.7718  0.8997  0.7080
 1898SOL    HW217331   1.214   4.397   0.537 -1.5196 -0.1671  1.6670
 1899SOL     OW17332   1.704   3.683   8.249 -0.0657  0.1934 -0.1849
 1899SOL    HW117333   1.678   3.770   8.221 -0.4187 -0.5314 -2.0730
 1899SOL    HW217334   1.799   3.683   8.236 -0.2034  1.4831 -1.1730
 1900SOL     OW17335   2.497   4.640   6.791 -0.0159 -0.3548 -0.2546
 1900SOL    HW117336   2.505   4.614   6.699  0.3820  0.1609 -0.3690
 1900SOL    HW217337   2.440   4.717   6.787  1.1804  0.5785  0.8314
 1901SOL     OW17338   0.024   0.889   5.210 -0.5091  0.1985 -0.4202
 1901SOL    HW117339   0.052   0.934   5.289 -1.8834 -0.5789  0.5012
 1901SOL    HW217340   0.095   0.920   5.153 -0.9677 -0.8156 -1.5480
 1902SOL     OW17341   3.326   0.689   0.307 -0.1519 -0.5274 -0.1351
 1902SOL    HW117342   3.362   0.614   0.260  2.8635  1.4235 -0.9426
 1902SOL    HW217343   3.287   0.738   0.235  0.7784  0.1413 -0.1891
 1903SOL     OW17344   0.076   1.682   7.987  0.3216  0.4607  0.2680
 1903SOL    HW117345   0.121   1.601   8.007 -0.9435 -0.4273 -0.5030
 1903SOL    HW217346   4.724   1.655   7.998  0.6321  0.8102  3.5759
 1904SOL     OW17347   2.864   0.599   5.193 -0.8827 -0.0993  0.4118
 1904SOL    HW117348   2.801   0.545   5.146 -1.5158 -0.3765  1.5592
 1904SOL    HW217349   2.906   0.534   5.249 -0.8506 -0.2402  0.2201
 1905SOL     OW17350   4.299   4.556   8.416  0.1839 -0.0428 -0.0502
 1905SOL    HW117351   4.219   4.547   8.468  0.6995 -0.5391  0.6724
 1905SOL    HW217352   4.320   4.464   8.404  0.6387 -0.2267  2.0398
 1906SOL     OW17353   0.595   2.838  12.364  0.3996  0.1728  0.1963
 1906SOL    HW117354   0.603   2.858  12.457  0.4860  1.1686 -0.0166
 1906SOL    HW217355   0.662   2.774  12.340  0.1426 -0.2829  0.7104
 1907SOL     OW17356   0.866   3.055   8.455 -0.4162  0.4473 -0.2410
 1907SOL    HW117357   0.941   3.079   8.400  0.1438 -1.8178 -0.4349
 1907SOL    HW217358   0.856   3.136   8.506 -1.0602 -2.1929  3.7611
 1908SOL     OW17359   3.849   1.409   8.975  0.3537  0.1135 -0.0366
 1908SOL    HW117360   3.852   1.381   9.067  1.8709 -3.4500 -1.1881
 1908SOL    HW217361   3.795   1.486   8.988  1.5000  0.8578  0.2655
 1909SOL     OW17362   2.067   0.322   2.034  0.2295 -0.6445 -0.0072
 1909SOL    HW117363   2.094   0.234   2.005  0.7398 -0.5949  0.3104
 1909SOL    HW217364   2.012   0.346   1.960  0.5651  0.9009  0.2420
 1910SOL     OW17365   3.788   1.145  15.269  0.1247  0.0063  0.0619
 1910SOL    HW117366   3.754   1.055  15.269 -2.0124  0.8054 -1.4882
 1910SOL    HW217367   3.705   1.190  15.255  1.1835  2.1415  0.7140
 1911SOL     OW17368   4.179   2.082   7.612  0.1239  0.3456 -0.0421
 1911SOL    HW117369   4.151   2.038   7.692  0.4034  0.8983  0.3623
 1911SOL    HW217370   4.271   2.061   7.627  0.4196  0.9466 -1.0524
 1912SOL     OW17371   2.244   3.297   2.530 -0.1224  0.4501 -0.3468
 1912SOL    HW117372   2.291   3.378   2.513  0.3303  0.2255 -0.1619
 1912SOL    HW217373   2.318   3.242   2.558 -0.1756  0.7344  0.3626
 1913SOL     OW17374   2.806   2.021  11.670 -0.3361  0.1808 -0.2525
 1913SOL    HW117375   2.881   1.985  11.622  1.3257  1.0054  1.7469
 1913SOL    HW217376   2.798   2.112  11.643 -1.6060  0.5652  1.4180
 1914SOL     OW17377   2.424   2.080   2.603  0.4402 -0.2457 -0.0296
 1914SOL    HW117378   2.380   2.112   2.682  1.4317 -1.1619  0.9015
 1914SOL    HW217379   2.514   2.102   2.626  0.3576  1.2845 -1.1681
 1915SOL     OW17380   3.836   0.708   1.527  0.2724  0.6819  0.0336
 1915SOL    HW117381   3.837   0.794   1.485 -1.8276  0.8746  0.3729
 1915SOL    HW217382   3.848   0.737   1.617 -0.4648 -0.5053  0.5167
 1916SOL     OW17383   2.014   4.073  11.138  0.0726 -0.4760  0.1948
 1916SOL    HW117384   2.078   4.006  11.164  2.4004  0.4594 -3.1247
 1916SOL    HW217385   2.057   4.157  11.157 -2.5257  0.8189  0.3089
 1917SOL     OW17386   1.922   0.721  12.922  0.4176 -0.2896  0.9370
 1917SOL    HW117387   1.872   0.644  12.897 -3.1048  2.0942  0.5882
 1917SOL    HW217388   1.865   0.796  12.904  2.8573  1.3043 -0.1613
 1918SOL     OW17389   2.676   3.323   2.034 -1.0454  0.3680  0.0841
 1918SOL    HW117390   2.650   3.333   1.942  2.1238  1.1756 -0.6984
 1918SOL    HW217391   2.769   3.334   2.017 -1.0092 -2.2909 -1.3875
 1919SOL     OW17392   3.093   1.398   7.247  0.6923  0.1708 -0.3043
 1919SOL    HW117393   3.127   1.376   7.161  0.6678  1.2143 -0.5770
 1919SOL    HW217394   3.178   1.410   7.290  0.3726 -1.1292  0.7140
 1920SOL     OW17395   0.116   0.835   2.957  0.0967 -0.1406 -0.6013
 1920SOL    HW117396   0.064   0.794   2.888 -2.6863  1.3814  0.5725
 1920SOL    HW217397   0.181   0.765   2.967 -0.5606 -0.8078 -0.9580
 1921SOL     OW17398   0.127   4.246   6.209 -0.1876  0.4888  0.0223
 1921SOL    HW117399   0.205   4.227   6.157 -0.0966 -0.4694  0.5203
 1921SOL    HW217400   0.086   4.161   6.199  0.9986 -0.0864  0.0965
 1922SOL     OW17401   4.491   1.615  17.450  0.6165  0.0825 -1.0105
 1922SOL    HW117402   4.569   1.561  17.441 -0.5142 -1.5198 -1.2951
 1922SOL    HW217403   4.464   1.623  17.358  1.1674 -1.5665 -1.3195
 1923SOL     OW17404   4.422   0.488   8.290  0.3276  0.1166 -0.2803
 1923SOL    HW117405   4.485   0.536   8.344  0.5043 -0.6145  0.1616
 1923SOL    HW217406   4.338   0.506   8.333 -0.1127  0.0526 -1.1046
 1924SOL     OW17407   3.243   4.260  13.375  0.0442 -0.1730  0.3047
 1924SOL    HW117408   3.307   4.244  13.305  0.8491 -0.0674  1.0216
 1924SOL    HW217409   3.194   4.328  13.329  1.8800  0.2643 -1.0006
 1925SOL     OW17410   0.338   1.474   6.241  0.1370  0.0753  0.3541
 1925SOL    HW117411   0.366   1.428   6.320 -2.0487  0.0411  1.1269
 1925SOL    HW217412   0.414   1.446   6.191  0.4087 -0.7173  1.1983
 1926SOL     OW17413   1.973   1.647  15.205  0.1858 -0.2145  0.1899
 1926SOL    HW117414   1.889   1.641  15.160 -0.5610 -1.6550  1.7853
 1926SOL    HW217415   1.998   1.556  15.192  1.5782  0.1192  0.5207
 1927SOL     OW17416   2.061   3.027   5.323  1.0498  0.2884 -0.0700
 1927SOL    HW117417   1.974   3.063   5.303  2.0357  2.7773  0.1421
 1927SOL    HW217418   2.095   3.006   5.236  1.2170  0.8109 -0.1306
 1928SOL     OW17419   1.108   1.724  11.067 -0.6625  0.0923 -0.5820
 1928SOL    HW117420   1.051   1.755  11.137 -1.0723  0.7849 -1.2185
 1928SOL    HW217421   1.126   1.806  11.021  1.4649 -1.1170 -1.9238
 1929SOL     OW17422   3.784   1.203   8.785 -0.1420  0.3175  0.4462
 1929SOL    HW117423   3.800   1.117   8.825 -1.5779  0.6176  1.6361
 1929SOL    HW217424   3.788   1.256   8.864 -1.4231 -1.1788  1.5095
 1930SOL     OW17425   1.801   1.591   6.199  0.0559  0.2504 -0.7265
 1930SOL    HW117426   1.894   1.569   6.203  0.3095  1.2009 -1.2983
 1930SOL    HW217427   1.753   1.559   6.276  1.3292 -1.1845 -0.5245
 1931SOL     OW17428   4.130   4.690   6.250  0.2190 -0.3098  0.0221
 1931SOL    HW117429   4.163   4.674   6.161 -0.0185  0.9145 -0.2857
 1931SOL    HW217430   4.178   0.033   6.261 -0.6373  0.1096  0.5540
 1932SOL     OW17431   2.477   1.790   0.258  0.4613  0.0399  0.1762
 1932SOL    HW117432   2.498   1.716   0.202 -2.1822 -0.7999  0.2972
 1932SOL    HW217433   2.560   1.835   0.275  0.0109  0.9282  0.0296
 1933SOL     OW17434   0.789   0.445  16.838 -0.3607 -0.1494  0.1658
 1933SOL    HW117435   0.754   0.357  16.823 -2.4175  0.9646 -1.4866
 1933SOL    HW217436   0.880   0.421  16.823 -0.6101 -0.8439 -0.2253
 1934SOL     OW17437   1.044   1.047  10.416 -0.3237 -0.2258  0.5954
 1934SOL    HW117438   1.012   0.998  10.340  1.0613  0.5312 -0.4780
 1934SOL    HW217439   1.133   1.056  10.383 -0.1789 -1.2957  0.7197
 1935SOL     OW17440   1.595   3.550   4.973 -0.1508 -0.0559  0.3405
 1935SOL    HW117441   1.532   3.621   4.989  0.6980  1.0904 -1.4242
 1935SOL    HW217442   1.672   3.591   5.011 -1.9831  0.8552  3.0919
 1936SOL     OW17443   4.530   3.616   1.777  0.3503 -0.0131  0.3671
 1936SOL    HW117444   4.508   3.693   1.724 -0.7905 -0.6080 -0.0116
 1936SOL    HW217445   4.626   3.620   1.770  0.4106 -2.0528  0.1070
 1937SOL     OW17446   3.284   4.713   2.518  0.5003 -0.0906 -0.8488
 1937SOL    HW117447   3.250   4.696   2.430  0.4010  1.8348 -1.1850
 1937SOL    HW217448   3.259   0.066   2.519 -0.6555 -0.4108 -0.1512
 1938SOL     OW17449   0.185   0.300  13.883  0.1480  0.3877 -0.2588
 1938SOL    HW117450   0.174   0.307  13.788  0.5382 -1.0166 -0.4065
 1938SOL    HW217451   0.153   0.383  13.919 -1.1088  0.3918 -1.3927
 1939SOL     OW17452   3.139   0.938   5.643  0.3848  0.4922 -0.4232
 1939SOL    HW117453   3.097   0.948   5.558 -0.2825  1.8472  0.0616
 1939SOL    HW217454   3.133   0.844   5.659 -0.6299  0.6765  0.3524
 1940SOL     OW17455   0.897   2.425   7.520  0.4866  0.1858  0.3024
 1940SOL    HW117456   0.973   2.373   7.547 -0.0667  0.6232  2.7615
 1940SOL    HW217457   0.946   2.506   7.502 -0.5884  0.6029 -0.6813
 1941SOL     OW17458   1.149   2.606   1.161  0.1471  0.0997 -0.0113
 1941SOL    HW117459   1.084   2.671   1.133 -2.6204 -2.6541  0.0749
 1941SOL    HW217460   1.225   2.657   1.132  0.2452  0.5895  1.1299
 1942SOL     OW17461   2.837   2.110   8.222  0.5947 -0.2238  0.3301
 1942SOL    HW117462   2.880   2.132   8.305  1.3198 -0.3765 -0.0087
 1942SOL    HW217463   2.781   2.187   8.217 -0.7329 -1.1756  0.4969
 1943SOL     OW17464   4.475   2.950   2.011 -0.1209 -0.7523  0.1190
 1943SOL    HW117465   4.510   2.862   2.019 -0.7202 -1.0208 -0.2177
 1943SOL    HW217466   4.398   2.940   1.955 -1.8434 -1.3840  2.5947
 1944SOL     OW17467   2.663   0.415  13.091 -0.0436 -0.2892 -0.1863
 1944SOL    HW117468   2.702   0.438  13.176  0.4755 -2.9279  0.2802
 1944SOL    HW217469   2.617   0.496  13.067  2.2081  1.8468  2.7374
 1945SOL     OW17470   3.015   4.610  10.337 -0.1976  0.1753  0.3036
 1945SOL    HW117471   2.987   4.598  10.427 -1.2708 -0.6644 -0.1495
 1945SOL    HW217472   2.958   4.547  10.293 -1.1562  2.4253 -1.7127
 1946SOL     OW17473   3.123   4.617   0.981 -0.0086  0.4286 -0.5962
 1946SOL    HW117474   3.068   4.616   1.059  0.5976  0.3550 -0.1684
 1946SOL    HW217475   3.117   4.710   0.959  2.2065  0.5574 -0.6780
 1947SOL     OW17476   3.260   2.478   4.421  0.5077  0.0138  0.2904
 1947SOL    HW117477   3.303   2.524   4.494  0.5267 -0.1167  0.3605
 1947SOL    HW217478   3.173   2.459   4.457  1.1588  2.4276  3.2102
 1948SOL     OW17479   3.896   1.630   7.801 -0.2979 -0.9621 -0.4503
 1948SOL    HW117480   3.987   1.645   7.827 -0.3364 -1.0159 -0.2835
 1948SOL    HW217481   3.855   1.696   7.857 -0.5091 -0.2129 -1.4825
 1949SOL     OW17482   2.785   2.816   7.709  0.2784  0.4534  0.2001
 1949SOL    HW117483   2.836   2.737   7.722 -0.5670 -0.3081 -1.1778
 1949SOL    HW217484   2.740   2.818   7.794 -1.1433  2.4130 -0.5803
 1950SOL     OW17485   2.977   1.316   6.179 -0.1032  0.1217 -0.6577
 1950SOL    HW117486   3.043   1.266   6.226 -1.5077 -0.3726  0.7908
 1950SOL    HW217487   2.959   1.387   6.240 -1.6243 -2.3702  1.7957
 1951SOL     OW17488   0.520   0.585   2.314 -0.0269  0.1003 -0.2707
 1951SOL    HW117489   0.565   0.662   2.282  0.8312 -0.0295  0.6190
 1951SOL    HW217490   0.595   0.526   2.320  0.2620  0.8154  3.3296
 1952SOL     OW17491   4.087   3.029   7.571  0.3815 -0.0342  0.2144
 1952SOL    HW117492   4.053   3.027   7.481  0.5780  1.6383  0.0967
 1952SOL    HW217493   4.048   3.116   7.587 -1.3850 -1.0496  1.4627
 1953SOL     OW17494   4.696   4.348   1.326  0.2912 -0.2475  0.4064
 1953SOL    HW117495   0.025   4.373   1.388  1.9646 -0.4950 -1.3128
 1953SOL    HW217496   4.720   4.391   1.244  0.4662 -2.0910 -0.5076
 1954SOL     OW17497   3.503   0.961  12.047 -0.4785 -0.0501 -0.5379
 1954SOL    HW117498   3.499   1.051  12.016  1.0491  0.1821 -0.0942
 1954SOL    HW217499   3.589   0.931  12.015 -0.0734 -1.0102  1.4562
 1955SOL     OW17500   1.454   4.297   6.867 -0.0002  0.5015 -0.4776
 1955SOL    HW117501   1.520   4.263   6.927 -1.2234  0.0215  0.6023
 1955SOL    HW217502   1.377   4.250   6.899  0.9082  0.2298  1.2953
 1956SOL     OW17503   0.056   1.621  11.513 -0.1833  0.2501 -0.2859
 1956SOL    HW117504   0.143   1.594  11.542 -0.6746 -1.8339 -0.7319
 1956SOL    HW217505   0.013   1.656  11.591  1.8156 -1.0310  1.3707
 1957SOL     OW17506   2.016   3.705   4.908 -0.7043  0.1460  0.1313
 1957SOL    HW117507   1.948   3.738   4.850  0.1140 -0.7657 -1.3480
 1957SOL    HW217508   2.092   3.729   4.856 -2.7591  1.9565 -2.0466
 1958SOL     OW17509   2.044   2.990   4.126  0.2799  1.1820 -0.1723
 1958SOL    HW117510   2.025   3.078   4.159  1.0632  1.4333 -0.3855
 1958SOL    HW217511   2.138   2.987   4.107  0.1140 -0.5262 -0.7018
 1959SOL     OW17512   1.965   0.323  12.573 -0.3515 -0.4652  0.2091
 1959SOL    HW117513   1.993   0.235  12.600  1.6324 -0.5366 -2.0674
 1959SOL    HW217514   1.991   0.372  12.651 -2.6230 -1.6618  1.7419
 1960SOL     OW17515   3.593   2.997  17.069 -0.0971 -0.4952  0.4360
 1960SOL    HW117516   3.626   3.016  17.156 -0.2310  0.8272  0.1975
 1960SOL    HW217517   3.652   3.061  17.029 -0.9364 -0.7476 -1.2436
 1961SOL     OW17518   0.257   0.301   9.451 -0.1460 -0.4182  0.2463
 1961SOL    HW117519   0.231   0.363   9.519  2.4933  1.0308 -0.0662
 1961SOL    HW217520   0.346   0.291   9.484 -0.5695  0.6805  1.7090
 1962SOL     OW17521   1.256   2.183   2.237  0.2419 -0.2041 -0.2547
 1962SOL    HW117522   1.325   2.174   2.170 -1.9793 -0.5454 -2.4956
 1962SOL    HW217523   1.203   2.108   2.209 -0.0573  0.8373 -2.4590
 1963SOL     OW17524   4.272   3.172   7.109 -0.0610 -0.1959 -0.1812
 1963SOL    HW117525   4.312   3.127   7.183  1.1120  0.0472 -0.6579
 1963SOL    HW217526   4.325   3.252   7.108  0.5539 -0.6114 -0.7204
 1964SOL     OW17527   3.232   3.684  13.705  0.2645  0.0595 -0.0106
 1964SOL    HW117528   3.160   3.747  13.714  0.1721 -0.1998  1.0564
 1964SOL    HW217529   3.256   3.659  13.794 -0.2161 -0.7445 -0.1038
 1965SOL     OW17530   0.007   0.752   7.228  0.6905  0.3908  0.1706
 1965SOL    HW117531   0.095   0.727   7.200  0.5709 -1.3157  1.2672
 1965SOL    HW217532   0.021   0.732   7.320  1.6115 -0.8682 -0.2394
 1966SOL     OW17533   4.287   1.700   3.333  0.7053 -0.4855  0.4321
 1966SOL    HW117534   4.291   1.688   3.428  2.9382 -3.2748 -0.0127
 1966SOL    HW217535   4.192   1.700   3.318  0.7258  0.6417  0.2871
 1967SOL     OW17536   4.156   0.984   2.882 -0.1677 -0.4621 -0.3180
 1967SOL    HW117537   4.170   0.988   2.977 -3.2013  0.2752  0.1164
 1967SOL    HW217538   4.097   1.060   2.887  0.6088  0.2334 -1.9640
 1968SOL     OW17539   4.720   3.420  11.281 -0.1236  0.1815 -0.7782
 1968SOL    HW117540   4.637   3.468  11.291 -1.6680 -2.2974 -1.5581
 1968SOL    HW217541   4.717   3.398  11.187 -1.2504  0.4015 -0.8038
 1969SOL     OW17542   0.845   0.137   4.389  0.3922  0.1021  0.6097
 1969SOL    HW117543   0.852   0.050   4.350  1.2942  1.1359 -1.5660
 1969SOL    HW217544   0.929   0.176   4.365  0.0423  0.2667 -0.3421
 1970SOL     OW17545   0.786   0.511  13.817 -0.0351  0.0023 -0.4727
 1970SOL    HW117546   0.859   0.516  13.879 -0.0411 -1.1788 -0.3813
 1970SOL    HW217547   0.750   0.427  13.844 -0.1484  1.0067  2.4218
 1971SOL     OW17548   2.797   3.253   2.355  0.1530 -0.0315  0.3961
 1971SOL    HW117549   2.827   3.319   2.418 -2.2443  0.3893  1.1141
 1971SOL    HW217550   2.875   3.245   2.300  0.6286 -0.4244  1.1196
 1972SOL     OW17551   0.976   1.552   0.076  0.1927  0.0856  0.1087
 1972SOL    HW117552   1.029   1.631   0.084  0.8440 -0.4707  1.4329
 1972SOL    HW217553   1.036   1.487   0.113  3.0757  1.5769 -2.0225
 1973SOL     OW17554   2.704   2.291   3.183  0.4265  0.3609 -0.0343
 1973SOL    HW117555   2.705   2.312   3.090 -1.6709  2.0074  0.3220
 1973SOL    HW217556   2.622   2.334   3.206  0.1235 -1.8161  3.0449
 1974SOL     OW17557   2.776   1.490   8.007  0.5695  0.5011  0.5648
 1974SOL    HW117558   2.814   1.463   8.091  0.2757 -2.3975 -0.2078
 1974SOL    HW217559   2.696   1.436   8.001  1.1122 -0.1897 -0.4377
 1975SOL     OW17560   4.271   3.846   2.876 -0.1586 -0.2529  0.1312
 1975SOL    HW117561   4.336   3.813   2.813 -0.5812 -1.9842  0.5933
 1975SOL    HW217562   4.212   3.771   2.887 -1.8177  0.7535 -1.8327
 1976SOL     OW17563   2.807   1.409   8.689 -0.7552 -0.0008 -0.1331
 1976SOL    HW117564   2.850   1.348   8.629 -0.2881  1.4776 -1.3090
 1976SOL    HW217565   2.716   1.391   8.664  0.5191 -2.6704 -2.9588
 1977SOL     OW17566   1.586   1.966   9.780 -0.5632 -0.1822 -0.1553
 1977SOL    HW117567   1.642   1.934   9.709  0.4478 -1.3900  1.1614
 1977SOL    HW217568   1.501   1.930   9.753 -0.5065 -0.5545  0.1513
 1978SOL     OW17569   1.910   2.167  14.559 -0.0061  0.0491  0.1297
 1978SOL    HW117570   1.933   2.233  14.494  2.5397 -0.2544  0.7476
 1978SOL    HW217571   1.929   2.214  14.640 -0.2390 -0.3004  0.3896
 1979SOL     OW17572   3.449   4.247   7.727  0.9262 -1.2655 -0.1558
 1979SOL    HW117573   3.513   4.316   7.747  0.2667 -0.5388 -0.5250
 1979SOL    HW217574   3.382   4.305   7.689  0.7462 -0.0722  1.9399
 1980SOL     OW17575   1.975   2.870   3.887  0.2178  0.6497 -0.1843
 1980SOL    HW117576   2.013   2.939   3.833  0.6594 -1.4632 -2.5480
 1980SOL    HW217577   1.985   2.900   3.978  0.5104 -0.5805  0.1841
 1981SOL     OW17578   3.912   2.699  10.689 -0.0191  0.4217  0.1571
 1981SOL    HW117579   3.885   2.668  10.603  0.7312 -0.4588  0.2368
 1981SOL    HW217580   3.874   2.786  10.684  0.4499  0.7022  1.5050
 1982SOL     OW17581   2.432   3.492   4.532  0.4052 -0.5999  0.4049
 1982SOL    HW117582   2.357   3.550   4.550  1.6016  0.9909  0.2567
 1982SOL    HW217583   2.431   3.500   4.436  1.3034 -1.7054  0.3086
 1983SOL     OW17584   1.722   2.105  13.297  0.1974  0.0506 -0.3318
 1983SOL    HW117585   1.791   2.142  13.351 -0.6125  1.3883 -0.1875
 1983SOL    HW217586   1.729   2.154  13.215  0.1267 -0.9199 -0.9088
 1984SOL     OW17587   3.397   3.258   6.348 -0.2321  0.1934 -0.9030
 1984SOL    HW117588   3.312   3.217   6.329  0.0248 -0.4207 -0.6878
 1984SOL    HW217589   3.368   3.349   6.336 -1.4234 -0.1410 -0.5685
 1985SOL     OW17590   1.182   4.368   5.822  0.3347 -0.4034 -0.1531
 1985SOL    HW117591   1.138   4.407   5.747  0.6218 -0.7975 -0.5234
 1985SOL    HW217592   1.124   4.301   5.858  0.4619 -1.0634 -1.1813
 1986SOL     OW17593   0.798   3.701   4.406 -0.2133  0.2499  0.0809
 1986SOL    HW117594   0.841   3.623   4.370 -0.3841  0.2475 -0.1224
 1986SOL    HW217595   0.742   3.650   4.465  0.2879 -2.9261 -2.1361
 1987SOL     OW17596   2.229   3.663   4.617  0.0637  0.4196  0.3576
 1987SOL    HW117597   2.227   3.745   4.568  0.5215 -0.3190 -0.9158
 1987SOL    HW217598   2.138   3.634   4.617  0.6627 -1.4416  2.2689
 1988SOL     OW17599   0.331   0.816   1.352  0.4382 -0.0163  0.4439
 1988SOL    HW117600   0.412   0.817   1.404 -0.7358 -0.4212  2.2691
 1988SOL    HW217601   0.368   0.787   1.269 -0.2092  1.2785 -0.2982
 1989SOL     OW17602   4.272   2.151   8.488 -0.1356 -0.6156 -0.5116
 1989SOL    HW117603   4.236   2.173   8.402  1.1442 -1.2855 -1.2117
 1989SOL    HW217604   4.191   2.136   8.538 -0.8023  1.7152 -0.9088
 1990SOL     OW17605   4.532   4.462   0.765 -0.0103 -0.6174 -0.7557
 1990SOL    HW117606   4.616   4.430   0.733  1.0712  2.0205 -0.4921
 1990SOL    HW217607   4.489   4.440   0.683 -2.8570  0.8452  0.3565
 1991SOL     OW17608   1.697   4.279   3.851 -0.3461 -0.5131  0.3541
 1991SOL    HW117609   1.755   4.223   3.799 -1.2535 -0.6796 -0.4713
 1991SOL    HW217610   1.766   4.328   3.895 -0.4360 -1.1840  1.2349
 1992SOL     OW17611   2.589   2.698   2.578 -0.0742 -0.2112  0.2533
 1992SOL    HW117612   2.590   2.727   2.669  2.0121  1.4477 -0.2935
 1992SOL    HW217613   2.672   2.650   2.578 -0.2747 -0.5619  1.5433
 1993SOL     OW17614   1.025   2.794   3.359  0.1972  0.0055  0.5534
 1993SOL    HW117615   1.058   2.855   3.426  0.7354 -1.3632  1.5267
 1993SOL    HW217616   0.982   2.724   3.408 -0.6707 -0.6140 -1.1114
 1994SOL     OW17617   2.279   3.101  15.208 -0.0263 -0.3360 -0.2168
 1994SOL    HW117618   2.272   3.152  15.127  2.7167 -0.1137 -0.2954
 1994SOL    HW217619   2.198   3.050  15.202  0.6683 -1.7086  2.2018
 1995SOL     OW17620   2.216   1.738  11.711  0.4285  0.2288 -0.4170
 1995SOL    HW117621   2.131   1.695  11.713  0.0517  0.9413 -1.0084
 1995SOL    HW217622   2.221   1.768  11.801  0.4400 -0.6456 -0.1296
 1996SOL     OW17623   3.432   4.281   3.407  0.0384 -0.3153 -1.1589
 1996SOL    HW117624   3.357   4.341   3.411  1.6899  1.7391 -1.3464
 1996SOL    HW217625   3.507   4.339   3.402 -0.1705 -0.1543 -2.3183
 1997SOL     OW17626   1.825   2.134   3.934  0.2031 -0.4262 -0.3752
 1997SOL    HW117627   1.799   2.101   3.848 -0.6140 -1.1453  0.1390
 1997SOL    HW217628   1.777   2.074   3.991  0.2123 -0.2039 -0.1350
 1998SOL     OW17629   1.327   1.261   8.833 -0.0266  0.1448  0.1721
 1998SOL    HW117630   1.323   1.356   8.826 -3.0268  0.0168  0.0097
 1998SOL    HW217631   1.300   1.255   8.925 -1.2731 -0.2710 -0.2154
 1999SOL     OW17632   4.083   0.527   1.608 -0.8066  0.2488 -0.4113
 1999SOL    HW117633   4.120   0.487   1.686 -0.6300  3.2083  1.0318
 1999SOL    HW217634   3.998   0.485   1.594 -0.6832 -0.8493  2.0942
 2000SOL     OW17635   1.207   4.709   2.261  0.1222  0.1211  0.1034
 2000SOL    HW117636   1.300   4.701   2.241 -0.1516  0.0105 -1.1445
 2000SOL    HW217637   1.177   4.632   2.213  1.5419  0.8664 -1.9472
 2001SOL     OW17638   0.201   0.986   0.944  0.0193 -0.7845  0.6475
 2001SOL    HW117639   0.254   0.920   0.899 -1.0465  0.4195 -2.3523
 2001SOL    HW217640   0.151   1.025   0.872  0.1099 -0.0637  0.9793
 2002SOL     OW17641   2.767   1.117   5.520  0.2320 -0.1464  0.6190
 2002SOL    HW117642   2.709   1.079   5.454  0.9710 -1.0949  0.5253
 2002SOL    HW217643   2.752   1.212   5.517 -0.5468 -0.2524  1.0528
 2003SOL     OW17644   1.378   4.095   2.165 -0.3146  0.2789 -0.7541
 2003SOL    HW117645   1.304   4.154   2.150 -1.0207 -0.7458 -1.2295
 2003SOL    HW217646   1.378   4.094   2.261 -0.6229 -2.6972 -0.7979
 2004SOL     OW17647   4.201   4.341  14.825 -0.3404 -0.0827 -0.0017
 2004SOL    HW117648   4.210   4.246  14.833  1.9679  0.0352 -1.0752
 2004SOL    HW217649   4.150   4.361  14.747  0.4891 -0.7446 -0.7210
 2005SOL     OW17650   2.575   2.991   6.701  0.2289 -0.6258  0.5603
 2005SOL    HW117651   2.483   3.008   6.721 -0.4363  0.4061 -3.2819
 2005SOL    HW217652   2.590   2.911   6.751 -1.3138 -0.5209  1.1800
 2006SOL     OW17653   2.601   3.971  10.395 -0.4493 -0.0031 -0.4277
 2006SOL    HW117654   2.608   3.876  10.403 -0.9900 -0.0202 -0.1409
 2006SOL    HW217655   2.550   3.982  10.315 -1.6707 -4.3689 -0.2830
 2007SOL     OW17656   4.132   0.182  14.301 -0.5948 -0.3023  0.0593
 2007SOL    HW117657   4.055   0.170  14.357 -1.0054  1.5954 -0.0910
 2007SOL    HW217658   4.141   0.096  14.260 -1.0042  0.0109 -0.6798
 2008SOL     OW17659   3.822   2.595   9.881 -0.2964 -0.2767  0.1440
 2008SOL    HW117660   3.776   2.512   9.873 -1.3546  0.2458  0.7510
 2008SOL    HW217661   3.912   2.570   9.863 -0.5496 -0.8613 -0.3244
 2009SOL     OW17662   4.331   0.326  11.795  0.1571 -0.1601 -0.4738
 2009SOL    HW117663   4.288   0.255  11.842 -1.5710  0.8676 -0.5142
 2009SOL    HW217664   4.267   0.394  11.813  1.9700  0.4796  3.5981
 2010SOL     OW17665   2.716   3.966   8.130 -0.4595  0.0555  0.5813
 2010SOL    HW117666   2.734   3.873   8.145 -0.2623  0.0277  0.1718
 2010SOL    HW217667   2.668   3.974   8.048  2.2478 -1.5302 -1.1801
 2011SOL     OW17668   3.124   0.063   5.355 -0.2188 -0.0284 -0.0501
 2011SOL    HW117669   3.138   0.086   5.447  3.1966 -1.1544 -0.3135
 2011SOL    HW217670   3.083   4.716   5.364 -1.5585  0.2759 -3.0917
 2012SOL     OW17671   2.819   3.953   3.983 -0.7769 -0.0844  0.0868
 2012SOL    HW117672   2.807   4.041   3.948 -1.0882  1.1536  3.3199
 2012SOL    HW217673   2.846   3.990   4.067 -0.0826 -1.3215  0.4053
 2013SOL     OW17674   2.907   3.047   7.661 -0.3818  0.0814 -0.6778
 2013SOL    HW117675   2.985   3.021   7.613  0.8429  0.1633  1.2668
 2013SOL    HW217676   2.864   2.965   7.682 -1.8074  0.8787 -0.4618
 2014SOL     OW17677   2.934   1.235   7.413  0.4006  0.2271  0.0696
 2014SOL    HW117678   2.975   1.280   7.339 -0.0722  0.3827 -0.0988
 2014SOL    HW217679   3.010   1.203   7.461 -0.0833 -0.5485  0.3194
 2015SOL     OW17680   1.016   2.224   5.127 -0.6322 -0.0885  0.5604
 2015SOL    HW117681   1.095   2.187   5.165  0.1779  0.2646 -0.7709
 2015SOL    HW217682   0.963   2.145   5.133 -0.4353 -0.3658 -1.1811
 2016SOL     OW17683   0.375   0.046   4.576 -0.4736 -0.2013  0.1713
 2016SOL    HW117684   0.413   4.733   4.646 -1.9465  1.0294  1.8820
 2016SOL    HW217685   0.448   0.025   4.517 -0.1711  1.3251  0.0070
 2017SOL     OW17686   0.111   0.038   5.328  0.1107 -0.1596 -0.5651
 2017SOL    HW117687   0.037   0.048   5.267 -0.3944  1.0471  0.2635
 2017SOL    HW217688   0.159   0.111   5.289  0.9130 -0.5961 -0.3916
 2018SOL     OW17689   0.049   0.409  12.344  0.2872  0.7785  0.2486
 2018SOL    HW117690   4.695   0.392  12.331  0.6150 -1.4454  0.8731
 2018SOL    HW217691   0.061   0.433  12.252 -0.1716  0.0091 -0.0075
 2019SOL     OW17692   2.954   0.329   1.832 -0.0579 -0.6617 -0.5072
 2019SOL    HW117693   2.963   0.398   1.767  1.3413  0.4183  0.8530
 2019SOL    HW217694   3.047   0.321   1.853  0.5364  1.6715 -2.2870
 2020SOL     OW17695   1.904   1.435  11.316  0.1483 -0.0588  0.2129
 2020SOL    HW117696   1.960   1.360  11.333 -0.9860 -1.0212 -0.2960
 2020SOL    HW217697   1.826   1.410  11.266  0.8279 -1.0218 -0.3476
 2021SOL     OW17698   1.164   2.460   8.560  0.2463 -0.1336 -0.0813
 2021SOL    HW117699   1.155   2.379   8.509 -0.2493 -0.7477  0.9836
 2021SOL    HW217700   1.075   2.487   8.579  0.0091  0.5291 -2.1651
 2022SOL     OW17701   4.515   1.746  15.129 -0.1111  0.2462  0.1290
 2022SOL    HW117702   4.499   1.791  15.046  2.3154  0.9116  0.0032
 2022SOL    HW217703   4.585   1.801  15.165  0.3975  2.1059 -3.6986
 2023SOL     OW17704   4.316   1.632   8.471  0.0643 -0.7723  0.3030
 2023SOL    HW117705   4.221   1.631   8.481  0.2043  1.7341  1.7162
 2023SOL    HW217706   4.333   1.702   8.408 -1.5066 -1.1666 -0.5604
 2024SOL     OW17707   1.479   3.675   1.520 -0.0869 -0.3584 -0.3628
 2024SOL    HW117708   1.493   3.591   1.565 -2.0214  0.5079  1.8141
 2024SOL    HW217709   1.454   3.643   1.433 -0.1782  1.8307 -1.1239
 2025SOL     OW17710   1.769   4.177  15.999  0.0513 -0.3193  0.1604
 2025SOL    HW117711   1.831   4.107  15.978  1.2094  0.3110  1.5064
 2025SOL    HW217712   1.704   4.130  16.051  1.7839 -1.6712  1.0930
 2026SOL     OW17713   3.700   4.545   6.865  0.1079 -0.0027  0.3745
 2026SOL    HW117714   3.614   4.575   6.838 -0.5607 -0.9557  1.4430
 2026SOL    HW217715   3.724   4.476   6.803 -1.6367 -0.7364  0.5237
 2027SOL     OW17716   1.152   1.929   4.218 -0.0946 -0.3631  0.1526
 2027SOL    HW117717   1.164   1.978   4.299  0.5720  0.6731 -0.5782
 2027SOL    HW217718   1.058   1.914   4.229 -0.1941  0.4496  0.4299
 2028SOL     OW17719   4.483   2.877   2.415  0.0205  0.2897  0.1137
 2028SOL    HW117720   4.408   2.818   2.408  0.6959 -0.5991  0.4055
 2028SOL    HW217721   4.550   2.828   2.368  0.0577  0.4222  0.0270
 2029SOL     OW17722   1.408   3.586   8.515  0.9622 -0.2249  0.3323
 2029SOL    HW117723   1.492   3.562   8.476 -0.1151 -0.2092 -1.9633
 2029SOL    HW217724   1.389   3.657   8.453 -0.1946 -1.2362 -0.4452
 2030SOL     OW17725   0.376   3.269   2.120 -0.1273 -0.4342 -0.3267
 2030SOL    HW117726   0.425   3.332   2.172  1.2165 -0.0612 -2.0249
 2030SOL    HW217727   0.302   3.232   2.168  0.0748 -0.5742 -0.1259
 2031SOL     OW17728   0.340   3.285  11.986 -0.4220 -0.0085  0.7772
 2031SOL    HW117729   0.287   3.235  12.048 -2.6929 -1.4069 -2.2862
 2031SOL    HW217730   0.432   3.272  12.010 -0.3067  0.6668  0.7093
 2032SOL     OW17731   1.202   2.859   2.013 -0.0830 -0.4349 -0.2564
 2032SOL    HW117732   1.242   2.775   2.038 -2.1593 -1.0556  1.0346
 2032SOL    HW217733   1.244   2.882   1.931 -2.9885 -0.1307 -1.6443
 2033SOL     OW17734   0.444   1.536   2.925 -0.1572 -0.7332  0.3882
 2033SOL    HW117735   0.486   1.461   2.881  1.2363 -0.3775  1.0969
 2033SOL    HW217736   0.375   1.546   2.860  1.9906  1.1983 -1.5948
 2034SOL     OW17737   0.093   1.879   9.570  0.3829 -0.1061  0.0269
 2034SOL    HW117738   0.069   1.786   9.569  2.5667 -0.6732 -2.6206
 2034SOL    HW217739   0.045   1.900   9.650  0.9422  2.8730 -0.4328
 2035SOL     OW17740   2.947   3.218   4.225 -0.4568 -0.3999  0.5622
 2035SOL    HW117741   2.986   3.277   4.290 -2.1583 -0.6704  1.8529
 2035SOL    HW217742   2.933   3.267   4.144 -2.1201  1.1888  1.7764
 2036SOL     OW17743   3.201   3.849   4.028  0.3303 -0.0058  0.2187
 2036SOL    HW117744   3.229   3.781   3.967  0.9107 -0.3147  0.8372
 2036SOL    HW217745   3.197   3.925   3.969 -1.0317 -1.0517 -1.0368
 2037SOL     OW17746   0.655   4.305   8.296 -0.3758  0.1905 -0.4978
 2037SOL    HW117747   0.624   4.214   8.293  0.8460 -0.2194 -0.4709
 2037SOL    HW217748   0.711   4.303   8.373 -2.2246  1.5145  0.9008
 2038SOL     OW17749   1.125   4.700   4.168 -0.5725 -0.3771 -0.0097
 2038SOL    HW117750   1.035   4.676   4.189  0.0166  1.2639  4.4248
 2038SOL    HW217751   1.113   0.009   4.086  4.2277 -0.1688 -0.6002
 2039SOL     OW17752   4.442   2.620   8.770 -0.0906 -0.3619 -0.3111
 2039SOL    HW117753   4.410   2.554   8.708  0.7415 -0.7705 -0.3101
 2039SOL    HW217754   4.422   2.587   8.858 -2.2004  4.2491  0.9516
 2040SOL     OW17755   0.324   0.288  16.067  0.5136 -0.9802 -0.1598
 2040SOL    HW117756   0.248   0.262  16.015  0.7154  3.6225 -2.7393
 2040SOL    HW217757   0.371   0.331  15.995 -0.6083  2.1599  0.9879
 2041SOL     OW17758   1.273   0.719   2.459  0.0170  0.0245  0.5754
 2041SOL    HW117759   1.329   0.703   2.382 -0.2560  0.8143  0.2173
 2041SOL    HW217760   1.339   0.707   2.527  0.6105 -2.1867 -0.3768
 2042SOL     OW17761   0.419   3.680   1.619  0.0777  0.0840  0.2951
 2042SOL    HW117762   0.365   3.670   1.698  2.3588 -0.8164  1.7207
 2042SOL    HW217763   0.352   3.713   1.560  0.9591 -0.3793 -0.9473
 2043SOL     OW17764   0.708   3.573   3.620 -0.1569  0.4232 -0.1177
 2043SOL    HW117765   0.727   3.566   3.527  1.1662  0.1253  0.1658
 2043SOL    HW217766   0.713   3.668   3.632 -2.2742  0.4745  0.2959
 2044SOL     OW17767   0.487   3.354   3.702  0.1149  0.1021 -0.3826
 2044SOL    HW117768   0.574   3.361   3.662  0.1455  2.5008  0.1033
 2044SOL    HW217769   0.469   3.267   3.665 -0.3079 -0.1360  0.3907
 2045SOL     OW17770   3.271   4.271   7.947  0.3092  0.1545 -0.0743
 2045SOL    HW117771   3.318   4.195   7.913  2.2328  0.9002  0.8950
 2045SOL    HW217772   3.274   4.263   8.043 -1.4269 -0.9971 -0.1110
 2046SOL     OW17773   4.078   1.362   5.943  0.1538  0.4610 -0.1411
 2046SOL    HW117774   4.004   1.304   5.923 -0.0666  1.0524 -1.0137
 2046SOL    HW217775   4.055   1.369   6.036  1.3935 -0.4339  0.2427
 2047SOL     OW17776   1.684   2.230   7.562 -0.3430  0.0395 -0.2194
 2047SOL    HW117777   1.765   2.281   7.550  1.6298 -2.9142  0.6302
 2047SOL    HW217778   1.632   2.270   7.493  0.4238  0.9955 -0.2506
 2048SOL     OW17779   2.582   1.748   5.320  0.0453  0.3171 -0.1605
 2048SOL    HW117780   2.534   1.725   5.241  0.3153 -1.1884  0.1219
 2048SOL    HW217781   2.568   1.843   5.321  0.6945  0.4157 -2.0027
 2049SOL     OW17782   0.446   3.622   4.312 -0.0249  0.1053 -0.4931
 2049SOL    HW117783   0.442   3.713   4.284 -0.2425 -0.0668 -1.0118
 2049SOL    HW217784   0.353   3.603   4.297 -0.9524  3.1659  1.2569
 2050SOL     OW17785   0.477   0.256   3.345 -0.1987 -0.3484 -0.2100
 2050SOL    HW117786   0.537   0.235   3.273 -0.2404  2.0745 -0.9523
 2050SOL    HW217787   0.492   0.192   3.415 -2.1109 -1.7346 -1.0653
 2051SOL     OW17788   3.469   3.857  16.104  0.7207  0.3436 -0.4151
 2051SOL    HW117789   3.411   3.830  16.176  1.0901  1.3946  0.2673
 2051SOL    HW217790   3.554   3.860  16.148  0.9003 -0.1809 -0.7188
 2052SOL     OW17791   0.871   4.577   8.366  0.3503  0.2399 -0.6489
 2052SOL    HW117792   0.853   4.652   8.423 -0.4594  0.1955 -0.8391
 2052SOL    HW217793   0.833   4.505   8.416  1.9711 -1.3170 -1.7212
 2053SOL     OW17794   3.945   0.316   4.095 -0.4035 -0.0953  0.1220
 2053SOL    HW117795   4.015   0.330   4.030 -0.9431 -1.1738 -0.6895
 2053SOL    HW217796   3.988   0.352   4.172 -0.1872 -0.0917  0.0008
 2054SOL     OW17797   1.892   2.323  12.844  0.3855 -0.0785  0.0625
 2054SOL    HW117798   1.830   2.364  12.784 -1.5400  1.3456  3.0379
 2054SOL    HW217799   1.960   2.390  12.843 -0.3378  0.6628  1.1389
 2055SOL     OW17800   0.424   1.317   8.686  0.1327  0.3542  0.1524
 2055SOL    HW117801   0.465   1.231   8.685  0.1484  0.3714 -0.8431
 2055SOL    HW217802   0.340   1.300   8.644  1.5591 -2.3890 -1.5252
 2056SOL     OW17803   3.542   3.450   6.574  0.2790  0.5855 -0.0431
 2056SOL    HW117804   3.577   3.484   6.656 -0.9891  0.4751  0.5365
 2056SOL    HW217805   3.448   3.471   6.577 -0.1670 -1.7451  1.6915
 2057SOL     OW17806   1.721   1.840  13.330 -0.1594 -0.0552  0.3608
 2057SOL    HW117807   1.815   1.834  13.345  0.0649  0.3069 -0.9100
 2057SOL    HW217808   1.714   1.935  13.323 -1.8022 -0.1544  0.5620
 2058SOL     OW17809   3.984   0.975   3.943 -0.1107  0.1384 -0.4176
 2058SOL    HW117810   4.068   1.021   3.949 -0.2690  0.7584 -2.8521
 2058SOL    HW217811   4.007   0.883   3.951 -1.6312 -0.2666 -0.8253
 2059SOL     OW17812   1.871   4.241   0.563  0.3638  0.1140 -0.0882
 2059SOL    HW117813   1.799   4.280   0.513 -1.3697  0.3727  2.6193
 2059SOL    HW217814   1.845   4.244   0.655  0.1660 -0.9466 -0.1146
 2060SOL     OW17815   0.974   0.245  16.766 -0.5035 -0.6805 -0.7694
 2060SOL    HW117816   1.058   0.228  16.810 -1.2522  0.3624  1.0878
 2060SOL    HW217817   0.939   0.178  16.825 -0.4591  0.3266  0.4265
 2061SOL     OW17818   4.724   1.081   1.942 -0.1285 -0.1265  0.0316
 2061SOL    HW117819   4.730   1.162   1.993  0.7019  0.9248 -1.6999
 2061SOL    HW217820   0.051   1.094   1.874 -0.1894  0.2830  0.0519
 2062SOL     OW17821   0.450   3.454   7.236 -0.2911 -0.0931 -0.1802
 2062SOL    HW117822   0.355   3.467   7.227 -0.1339  1.5876  0.5842
 2062SOL    HW217823   0.479   3.495   7.155 -0.8518  2.5825  0.9899
 2063SOL     OW17824   1.762   4.027   2.476 -0.4951 -0.2632  0.5175
 2063SOL    HW117825   1.838   3.970   2.469 -0.8318 -0.4514 -1.7229
 2063SOL    HW217826   1.701   3.971   2.428 -0.5976 -1.0821  1.6037
 2064SOL     OW17827   0.964   0.845   3.347 -0.0462  0.4775 -0.2646
 2064SOL    HW117828   0.914   0.839   3.429 -0.6616 -0.1865 -0.6890
 2064SOL    HW217829   0.900   0.804   3.288  0.7749 -1.0683 -0.0947
 2065SOL     OW17830   1.355   2.915   2.453 -0.0930 -0.5818  0.2854
 2065SOL    HW117831   1.361   2.941   2.361  1.8544 -0.2438  0.5138
 2065SOL    HW217832   1.375   2.821   2.445  0.5950 -0.3515 -0.7120
 2066SOL     OW17833   4.344   1.707   7.557 -0.3128 -0.3772  0.0764
 2066SOL    HW117834   4.311   1.759   7.484 -0.1970  1.0939  1.0769
 2066SOL    HW217835   4.436   1.736   7.555 -1.0483  1.9966  0.7502
 2067SOL     OW17836   3.843   0.569  12.294  0.5914  0.2377 -0.0173
 2067SOL    HW117837   3.858   0.556  12.388 -2.2571  1.2046  0.5849
 2067SOL    HW217838   3.889   0.650  12.273 -0.0397  0.4405 -0.6458
 2068SOL     OW17839   1.166   3.676   3.706 -0.1462 -0.2042  0.1619
 2068SOL    HW117840   1.212   3.729   3.771 -1.8292 -1.2180  2.1925
 2068SOL    HW217841   1.152   3.748   3.644 -1.3310  0.1540  0.8345
 2069SOL     OW17842   1.867   2.458   6.022  0.2486 -0.3412  0.0826
 2069SOL    HW117843   1.823   2.419   6.097 -2.4925  0.8592 -0.9009
 2069SOL    HW217844   1.849   2.549   6.045 -0.0929 -0.3944  0.0240
 2070SOL     OW17845   3.906   0.579   4.553  0.1918  0.0737 -0.0465
 2070SOL    HW117846   3.813   0.602   4.546  0.8275  2.6819  0.3277
 2070SOL    HW217847   3.944   0.648   4.499 -2.3240  1.8132  0.4267
 2071SOL     OW17848   0.005   2.327   1.607  0.9295  0.5707  0.1052
 2071SOL    HW117849   0.098   2.305   1.595  0.6662 -0.2137 -0.5115
 2071SOL    HW217850   4.718   2.261   1.671  2.5857  0.9138  1.1427
 2072SOL     OW17851   2.152   0.674   5.727 -0.3213  0.3086 -0.6479
 2072SOL    HW117852   2.224   0.705   5.781 -0.2990 -1.9549  0.6105
 2072SOL    HW217853   2.195   0.633   5.652 -1.2165  0.9579 -1.5345
 2073SOL     OW17854   3.081   1.914   2.440 -0.2560  0.2923 -0.7426
 2073SOL    HW117855   3.165   1.941   2.403  1.4986 -1.3803  1.9899
 2073SOL    HW217856   3.048   1.998   2.472  1.0580 -0.1853  1.8722
 2074SOL     OW17857   2.699   1.186  15.976 -0.4311 -0.2804 -0.3914
 2074SOL    HW117858   2.644   1.108  15.965 -0.3926 -0.0203 -2.3489
 2074SOL    HW217859   2.669   1.244  15.906  1.2080  0.7011 -0.2680
 2075SOL     OW17860   4.723   4.257   3.758 -0.2314 -0.3278  0.0499
 2075SOL    HW117861   0.018   4.180   3.804  1.1164 -0.2694 -0.8653
 2075SOL    HW217862   4.690   4.202   3.687 -2.7607 -1.6896  2.2457
 2076SOL     OW17863   3.011   2.601  16.953 -0.3975 -0.1044  0.2112
 2076SOL    HW117864   2.998   2.629  16.862 -0.6974  1.8282  0.8695
 2076SOL    HW217865   3.098   2.633  16.977  0.2538 -1.5653 -0.1808
 2077SOL     OW17866   4.534   3.846  10.717  0.2323  0.3564 -0.0055
 2077SOL    HW117867   4.608   3.905  10.700  1.0167 -0.2700  1.2614
 2077SOL    HW217868   4.503   3.830  10.627  0.7488 -0.0532 -0.1120
 2078SOL     OW17869   1.363   2.816  15.741 -0.4277  0.0755  0.5082
 2078SOL    HW117870   1.403   2.880  15.682 -0.4627  0.2296  0.6535
 2078SOL    HW217871   1.396   2.849  15.824  1.5590  1.9658 -1.0509
 2079SOL     OW17872   2.207   2.785   9.453  0.0847 -0.1457 -0.1913
 2079SOL    HW117873   2.188   2.806   9.361  1.6184  0.5036 -0.3565
 2079SOL    HW217874   2.130   2.816   9.501 -0.7276  1.1632 -2.3564
 2080SOL     OW17875   3.700   0.628  14.078 -0.4631  0.5311  0.3597
 2080SOL    HW117876   3.606   0.646  14.078 -1.0547 -2.5273  1.1693
 2080SOL    HW217877   3.722   0.614  13.986  1.1102  2.2475  0.4805
 2081SOL     OW17878   3.473   1.405   5.518 -0.1171 -0.2949 -0.0007
 2081SOL    HW117879   3.540   1.338   5.510 -0.8183 -0.8751 -0.9925
 2081SOL    HW217880   3.402   1.349   5.550 -2.1776  1.3560 -1.6737
 2082SOL     OW17881   3.486   2.413  11.448 -0.4057 -0.5228  0.0568
 2082SOL    HW117882   3.558   2.469  11.475 -1.7889  0.6749  1.2294
 2082SOL    HW217883   3.420   2.481  11.458  1.7826  1.7887 -1.3839
 2083SOL     OW17884   2.523   0.470   4.928  0.0181  0.3388 -0.0884
 2083SOL    HW117885   2.439   0.470   4.881 -1.4193  1.2457  2.4856
 2083SOL    HW217886   2.580   0.510   4.863  1.5145 -2.1290 -0.3059
 2084SOL     OW17887   0.953   4.416   6.614 -0.3192  0.2253 -0.0160
 2084SOL    HW117888   0.930   4.497   6.660 -1.9602  0.4984 -1.3171
 2084SOL    HW217889   1.008   4.370   6.677 -2.5848 -1.2179  0.9225
 2085SOL     OW17890   3.039   1.418   2.070  0.2883 -0.1955  0.4504
 2085SOL    HW117891   3.033   1.345   2.132  0.3704  0.2853  1.0203
 2085SOL    HW217892   3.134   1.409   2.058  0.4316  0.0541  1.3821
 2086SOL     OW17893   0.317   0.925  10.663 -0.3487  0.5832 -0.0573
 2086SOL    HW117894   0.285   1.014  10.680  0.5189  0.8372  0.1978
 2086SOL    HW217895   0.236   0.882  10.634 -1.4818  1.6733  1.4936
 2087SOL     OW17896   4.446   2.791   3.133  0.9237 -0.0864 -0.0911
 2087SOL    HW117897   4.454   2.715   3.076 -3.1730 -2.3879  2.3464
 2087SOL    HW217898   4.527   2.794   3.184  0.8599 -0.5717  0.0298
 2088SOL     OW17899   2.051   2.015   0.410  0.3987  0.0701 -0.2916
 2088SOL    HW117900   2.145   1.999   0.406  0.3428 -0.1703 -0.5918
 2088SOL    HW217901   2.042   2.055   0.324 -1.4357  0.8547  0.2444
 2089SOL     OW17902   4.532   1.896   9.517 -0.3274  0.5621 -0.0765
 2089SOL    HW117903   4.559   1.807   9.539 -0.6152  0.5550  0.2413
 2089SOL    HW217904   4.605   1.911   9.457 -0.2701 -1.4610 -0.5199
 2090SOL     OW17905   4.515   4.407   5.256  0.5636 -0.0107 -0.1980
 2090SOL    HW117906   4.482   4.449   5.335 -0.5140 -2.0150  0.4259
 2090SOL    HW217907   4.435   4.384   5.208 -0.8043  2.9148  0.6736
 2091SOL     OW17908   3.772   1.944   2.402  0.6254  0.4041  0.8688
 2091SOL    HW117909   3.761   2.010   2.470 -0.2812  0.9016  0.2322
 2091SOL    HW217910   3.681   1.938   2.374  0.6633  1.6680  0.4871
 2092SOL     OW17911   4.360   1.735   8.872 -0.5495 -0.5074  0.3662
 2092SOL    HW117912   4.379   1.655   8.821  0.7208 -0.9339  1.4989
 2092SOL    HW217913   4.399   1.693   8.949 -0.0938  0.3245  0.5922
 2093SOL     OW17914   0.952   3.008   7.550 -0.0307  0.2740  0.5236
 2093SOL    HW117915   1.000   2.999   7.633  2.4995  2.1786 -0.7302
 2093SOL    HW217916   1.015   2.962   7.495  0.8116 -1.1251  2.6235
 2094SOL     OW17917   3.457   0.676   5.483 -0.3498 -0.1527 -0.1790
 2094SOL    HW117918   3.502   0.757   5.505 -2.7590  1.4189 -1.0631
 2094SOL    HW217919   3.386   0.706   5.427  0.3054  1.1179 -0.3194
 2095SOL     OW17920   4.239   4.566   1.191  0.5650 -0.1244  0.0305
 2095SOL    HW117921   4.211   4.527   1.108 -3.4854 -0.0360  1.3142
 2095SOL    HW217922   4.169   4.529   1.245  1.0893 -1.6900 -0.3647
 2096SOL     OW17923   4.522   1.168   2.500 -0.4309 -0.4570 -0.3502
 2096SOL    HW117924   4.616   1.159   2.483  0.1209  1.8832  1.3904
 2096SOL    HW217925   4.514   1.144   2.593  0.6824 -2.6910 -0.8193
 2097SOL     OW17926   0.387   3.243   1.366  0.1331  0.0150  0.1419
 2097SOL    HW117927   0.342   3.261   1.284  0.6720  1.5817  0.1900
 2097SOL    HW217928   0.334   3.301   1.421  0.0973 -0.5420  0.6980
 2098SOL     OW17929   0.266   3.014   6.942 -0.4470  0.1294  0.1748
 2098SOL    HW117930   0.340   2.959   6.917  0.1410 -0.1019  2.4175
 2098SOL    HW217931   0.205   2.945   6.969  1.2513 -1.2769  0.4358
 2099SOL     OW17932   0.012   3.380   7.850  0.0069  0.2834 -0.1027
 2099SOL    HW117933   0.099   3.345   7.870 -0.1877  1.0563  2.1112
 2099SOL    HW217934   4.706   3.313   7.798  0.6182 -0.4536  0.3154
 2100SOL     OW17935   1.109   1.800   7.393  0.5619 -0.4527  0.0899
 2100SOL    HW117936   1.087   1.830   7.304 -2.5375 -0.0201  0.9990
 2100SOL    HW217937   1.183   1.744   7.368  0.4264  0.4141 -2.2966
 2101SOL     OW17938   0.894   0.439   5.600 -0.3345  0.0362  0.0586
 2101SOL    HW117939   0.895   0.394   5.685  0.5867  1.6889  0.9321
 2101SOL    HW217940   0.975   0.489   5.603 -0.4437  0.1580  1.0612
 2102SOL     OW17941   2.986   0.965   9.074 -0.2214 -0.4271 -0.4132
 2102SOL    HW117942   3.077   0.978   9.047 -0.4260  4.1519  1.2004
 2102SOL    HW217943   2.977   1.028   9.145  0.2579 -0.7643 -0.0556
 2103SOL     OW17944   3.422   2.445   9.027  0.1881 -0.0212  0.2982
 2103SOL    HW117945   3.380   2.379   8.972  1.1632  0.6372 -1.2322
 2103SOL    HW217946   3.501   2.400   9.057  0.2678  0.7675  1.2784
 2104SOL     OW17947   3.917   0.770  17.348  0.4799  0.1869  0.3065
 2104SOL    HW117948   3.879   0.784  17.435 -0.7144  0.5758 -0.2810
 2104SOL    HW217949   4.009   0.748  17.365  0.0508 -0.6673  1.5190
 2105SOL     OW17950   1.133   1.108  16.941 -0.3674  0.0720 -0.1851
 2105SOL    HW117951   1.081   1.028  16.937 -1.2839  0.6399  0.3946
 2105SOL    HW217952   1.108   1.149  16.857 -1.1547 -0.0771 -0.0259
 2106SOL     OW17953   4.672   1.960   3.494  0.0468 -0.2691 -0.1520
 2106SOL    HW117954   4.619   2.040   3.503  0.7799 -0.2151  3.6759
 2106SOL    HW217955   0.021   1.988   3.471 -0.0320  0.8754  0.8890
 2107SOL     OW17956   1.113   3.275   5.381 -0.7356  0.1392 -0.4146
 2107SOL    HW117957   1.048   3.216   5.344  1.1124 -0.3954 -2.8219
 2107SOL    HW217958   1.097   3.251   5.472 -0.4571  1.4915 -0.0103
 2108SOL     OW17959   4.684   1.752   8.674 -0.6097  0.4090 -0.5272
 2108SOL    HW117960   4.599   1.709   8.683 -0.3789  0.0028 -0.2577
 2108SOL    HW217961   4.697   1.754   8.579  1.5865 -1.5191 -0.2869
 2109SOL     OW17962   0.981   4.452   1.683  0.1841 -0.7396  0.2325
 2109SOL    HW117963   1.001   4.394   1.610 -0.6606 -0.4198 -0.2520
 2109SOL    HW217964   0.965   4.534   1.635  2.1923 -0.1019  0.6389
 2110SOL     OW17965   0.846   4.423   9.970  0.4623  0.0491 -0.1687
 2110SOL    HW117966   0.798   4.457  10.046 -0.3028 -1.0848 -0.1415
 2110SOL    HW217967   0.896   4.499   9.940  0.5454 -0.2440 -0.7627
 2111SOL     OW17968   0.947   2.870   5.589 -0.2414 -0.2348  0.4294
 2111SOL    HW117969   0.956   2.788   5.638  1.3091 -0.3069  0.0321
 2111SOL    HW217970   0.854   2.891   5.599  0.0400  2.1433 -2.0966
 2112SOL     OW17971   0.720   1.666   2.374  0.4714 -0.2964 -0.4244
 2112SOL    HW117972   0.804   1.699   2.407  0.8648  0.1017 -1.8568
 2112SOL    HW217973   0.673   1.667   2.457 -0.3356 -0.7832 -0.8828
 2113SOL     OW17974   0.472   1.167  17.642  0.4497  0.3597  0.6900
 2113SOL    HW117975   0.534   1.126  17.703 -1.4581 -1.1781  1.5898
 2113SOL    HW217976   0.464   1.112  17.565 -3.8204 -2.3886  3.1081
 2114SOL     OW17977   0.015   2.253   6.765  0.9042  0.4521  0.4741
 2114SOL    HW117978   0.049   2.172   6.803 -1.0443 -0.4246  0.3251
 2114SOL    HW217979   4.709   2.284   6.844 -0.2034 -0.0375  0.0300
 2115SOL     OW17980   0.207   1.678   4.338  0.0645  0.1894  0.0448
 2115SOL    HW117981   0.284   1.730   4.315  1.2729 -2.3062 -1.5377
 2115SOL    HW217982   0.230   1.599   4.289 -2.4817  0.1794 -1.1289
 2116SOL     OW17983   1.775   4.115   3.629  0.7260 -0.5204  0.1565
 2116SOL    HW117984   1.817   4.032   3.651  2.3018 -0.3617 -2.2621
 2116SOL    HW217985   1.683   4.093   3.643  0.5927 -0.0824 -0.0327
 2117SOL     OW17986   4.156   0.066   4.628 -0.1252  0.2329  0.0811
 2117SOL    HW117987   4.155   0.063   4.723  2.2963  0.4252  0.1091
 2117SOL    HW217988   4.061   0.065   4.617 -0.3356 -2.7104  2.1801
 2118SOL     OW17989   0.156   4.518   2.008 -0.7646  0.3314  0.0335
 2118SOL    HW117990   0.197   4.437   2.038  0.0056  0.6696 -0.1221
 2118SOL    HW217991   0.090   4.538   2.075  0.0723  0.5502  0.7860
 2119SOL     OW17992   0.757   3.155  11.331  0.1942 -0.3612 -0.4158
 2119SOL    HW117993   0.746   3.246  11.359 -2.3674 -0.9722  0.5781
 2119SOL    HW217994   0.850   3.147  11.349 -0.0659  0.5307  1.3010
 2120SOL     OW17995   0.106   2.826   7.103  0.4599  0.1068  0.0404
 2120SOL    HW117996   0.136   2.755   7.159 -0.1062 -0.0849  0.1079
 2120SOL    HW217997   0.020   2.840   7.143 -0.2140 -1.4320 -0.8479
 2121SOL     OW17998   3.658   1.517   5.018  0.4432  0.1384 -0.0425
 2121SOL    HW117999   3.574   1.495   4.977  0.9148 -1.7294 -0.0065
 2121SOL    HW218000   3.642   1.601   5.061 -0.3542  0.2265 -0.5174
 2122SOL     OW18001   3.714   1.034   5.787  0.6118 -0.2589 -0.0376
 2122SOL    HW118002   3.725   0.940   5.797 -0.0454 -0.1348  1.7524
 2122SOL    HW218003   3.618   1.042   5.787  0.6850  0.6671  0.7884
 2123SOL     OW18004   1.256   2.041  11.254  0.6683  0.1072 -0.4757
 2123SOL    HW118005   1.260   1.974  11.322  2.3183  1.8841  1.1450
 2123SOL    HW218006   1.217   2.115  11.300 -1.5434 -0.3326 -1.6376
 2124SOL     OW18007   3.949   2.716  13.775  0.8241  0.0000  0.4690
 2124SOL    HW118008   3.967   2.637  13.725 -1.9660 -0.8954  0.8730
 2124SOL    HW218009   3.947   2.681  13.864 -2.3161 -1.2437 -0.0959
 2125SOL     OW18010   3.651   3.193   2.965  0.0666 -0.0786  0.0414
 2125SOL    HW118011   3.725   3.164   2.911 -0.4960 -2.3073  0.4610
 2125SOL    HW218012   3.700   3.232   3.036 -2.4341 -0.5971  2.0436
 2126SOL     OW18013   3.365   1.957   0.305  0.4161  0.4913  0.0056
 2126SOL    HW118014   3.270   1.943   0.307  0.2407  1.5811 -0.2580
 2126SOL    HW218015   3.388   1.904   0.229 -2.7512 -1.3769  0.3301
 2127SOL     OW18016   1.533   1.677   0.745  0.2996  0.1747  0.6464
 2127SOL    HW118017   1.494   1.748   0.797 -1.2155 -1.7938  2.1770
 2127SOL    HW218018   1.627   1.691   0.758  0.6225 -1.6149  0.1997
 2128SOL     OW18019   0.190   1.375  16.060  0.4687 -0.2987 -0.4891
 2128SOL    HW118020   0.107   1.397  16.102  1.2243  1.1510  0.2576
 2128SOL    HW218021   0.252   1.404  16.128  0.8158 -1.4702 -0.3111
 2129SOL     OW18022   1.064   0.018  17.548 -0.5575  0.0882  0.1506
 2129SOL    HW118023   1.006   0.064  17.488  0.7101  2.4972  0.7736
 2129SOL    HW218024   1.141   0.075  17.553 -1.1733  0.8329  1.1435
 2130SOL     OW18025   3.011   1.347  10.997  0.1154 -0.0153  0.1416
 2130SOL    HW118026   3.056   1.284  11.054  1.1239 -1.0430 -1.7738
 2130SOL    HW218027   3.039   1.435  11.022  0.7854 -0.3118  0.4269
 2131SOL     OW18028   4.601   1.808   7.660  0.0314 -0.0305  0.1922
 2131SOL    HW118029   4.613   1.899   7.632 -2.5895  0.4912  0.7249
 2131SOL    HW218030   4.546   1.806   7.739 -0.1662 -0.7006  0.0397
 2132SOL     OW18031   4.639   3.025   1.712  0.2719  0.3334 -0.0499
 2132SOL    HW118032   4.703   3.006   1.645 -0.6938 -0.3656 -0.7748
 2132SOL    HW218033   4.640   2.944   1.763 -1.1866 -0.6063 -1.4892
 2133SOL     OW18034   3.110   1.745   0.210 -0.1121 -0.3268  0.3460
 2133SOL    HW118035   3.115   1.772   0.301 -2.6563  2.0391 -0.2358
 2133SOL    HW218036   3.178   1.678   0.201 -0.0335 -0.5011  2.1909
 2134SOL     OW18037   3.604   1.370   9.663  0.0800  0.1655 -0.0989
 2134SOL    HW118038   3.621   1.297   9.723 -0.0360 -0.5991 -1.0017
 2134SOL    HW218039   3.676   1.367   9.600  2.1139 -0.9384  2.2827
 2135SOL     OW18040   2.213   3.165  14.930 -0.0530  0.2891  0.0395
 2135SOL    HW118041   2.255   3.102  14.871  1.8079 -0.0647  1.7689
 2135SOL    HW218042   2.126   3.125  14.940 -1.5587  3.6775  0.6760
 2136SOL     OW18043   4.300   4.614  14.811  0.4580  0.5519  0.0082
 2136SOL    HW118044   4.205   4.618  14.817  0.5829 -2.5921  4.1619
 2136SOL    HW218045   4.309   4.519  14.816 -2.7647  0.2685  0.1022
 2137SOL     OW18046   2.572   2.224   9.590 -0.3092 -0.8376  0.1305
 2137SOL    HW118047   2.503   2.290   9.583 -0.1219 -0.4280  2.3508
 2137SOL    HW218048   2.528   2.140   9.605 -1.7305 -0.0058  0.5620
 2138SOL     OW18049   3.028   2.987   2.333 -0.3270 -0.3871 -0.7830
 2138SOL    HW118050   3.111   3.027   2.357  0.0710 -0.7482 -1.5303
 2138SOL    HW218051   2.981   2.987   2.416  0.8112  2.0279 -0.1330
 2139SOL     OW18052   1.470   3.029   3.007 -0.2634 -0.3531  0.1055
 2139SOL    HW118053   1.490   2.936   3.007  2.4623  0.2394 -1.7682
 2139SOL    HW218054   1.377   3.032   2.984 -0.8759 -1.2675  2.4279
 2140SOL     OW18055   3.871   4.439   2.960  0.1130 -0.3332 -0.1627
 2140SOL    HW118056   3.802   4.477   3.014  0.9591  0.5774  0.2664
 2140SOL    HW218057   3.821   4.413   2.883 -0.2575 -2.5057  0.7963
 2141SOL     OW18058   4.154   2.607  13.557 -0.0312 -0.3515  0.4008
 2141SOL    HW118059   4.136   2.552  13.634  1.4977 -2.8463 -1.0418
 2141SOL    HW218060   4.063   2.606  13.527 -0.1386  0.8087  0.6867
 2142SOL     OW18061   2.751   1.297   1.326 -0.1466 -0.0631 -0.0806
 2142SOL    HW118062   2.666   1.334   1.349 -1.2381 -2.4563 -0.2155
 2142SOL    HW218063   2.766   1.353   1.251  0.2270 -0.4386 -0.2866
 2143SOL     OW18064   4.003   4.227   9.428  0.0885  0.3434 -0.1429
 2143SOL    HW118065   3.975   4.149   9.475  1.4485  1.9892  3.4670
 2143SOL    HW218066   4.035   4.272   9.506  1.9019 -0.9251 -0.1554
 2144SOL     OW18067   4.218   4.220   7.315  0.1678 -0.9192 -0.0101
 2144SOL    HW118068   4.199   4.147   7.374 -0.4727 -1.1845 -0.5394
 2144SOL    HW218069   4.142   4.218   7.257  1.2117  1.4072 -1.4623
 2145SOL     OW18070   4.059   3.891   4.399 -0.1961 -0.1398 -0.4472
 2145SOL    HW118071   4.087   3.800   4.389 -1.6807 -0.7012  0.4353
 2145SOL    HW218072   4.000   3.879   4.474 -0.4565  0.1224 -0.6099
 2146SOL     OW18073   1.195   2.136   2.641 -0.3798 -0.4891  0.5964
 2146SOL    HW118074   1.163   2.066   2.584  0.4983 -0.6292  0.2778
 2146SOL    HW218075   1.249   2.200   2.595 -3.5067  1.7859  0.1525
 2147SOL     OW18076   4.433   4.695   4.302 -0.3751 -0.0761  0.3833
 2147SOL    HW118077   4.501   4.650   4.353 -1.3529 -1.4726  0.4544
 2147SOL    HW218078   4.472   4.728   4.221 -3.3889  0.7351 -0.7149
 2148SOL     OW18079   4.017   4.284   9.905 -0.1469 -0.7792  0.6563
 2148SOL    HW118080   3.994   4.192   9.914 -1.8416 -0.4280 -0.0819
 2148SOL    HW218081   3.934   4.332   9.903  0.8321  0.9137  0.7122
 2149SOL     OW18082   1.608   2.047   3.494 -0.1409 -0.4914  0.2337
 2149SOL    HW118083   1.610   2.032   3.589  1.2020  0.8841  0.4202
 2149SOL    HW218084   1.651   1.968   3.463 -0.2425  0.5798 -2.6092
 2150SOL     OW18085   1.928   3.179   5.659  0.3506 -0.5458 -0.8691
 2150SOL    HW118086   2.020   3.173   5.685 -0.0564  1.2933  0.9958
 2150SOL    HW218087   1.928   3.261   5.610 -0.3691 -1.4355 -2.3794
 2151SOL     OW18088   0.061   0.739   1.036  0.2124  0.2802 -0.0400
 2151SOL    HW118089   0.101   0.803   0.977  0.4698 -0.1840 -0.3679
 2151SOL    HW218090   0.109   0.748   1.118  2.3429  0.9455 -1.3531
 2152SOL     OW18091   3.353   3.152   8.233  0.0233 -0.3475 -0.4466
 2152SOL    HW118092   3.406   3.148   8.153  0.6949  0.5650 -0.0572
 2152SOL    HW218093   3.420   3.119   8.293  0.0794 -1.5625 -1.1783
 2153SOL     OW18094   1.853   3.516  14.062  0.1505 -0.0064  0.5810
 2153SOL    HW118095   1.829   3.578  14.131 -2.4463 -1.6233  1.1301
 2153SOL    HW218096   1.841   3.431  14.105  0.4147 -0.5838 -0.4769
 2154SOL     OW18097   1.623   0.433   5.631  0.1090  0.1787 -0.5140
 2154SOL    HW118098   1.575   0.512   5.604 -0.1925 -0.0190 -0.5544
 2154SOL    HW218099   1.703   0.475   5.662  0.3254  0.2009 -1.0986
 2155SOL     OW18100   1.271   1.548   3.149  0.0029 -0.2275  0.3019
 2155SOL    HW118101   1.296   1.530   3.058 -0.4605 -2.2792  0.5757
 2155SOL    HW218102   1.180   1.576   3.137  0.0376  0.0068  0.5964
 2156SOL     OW18103   0.310   3.499   4.070  0.4088 -0.0029 -0.2489
 2156SOL    HW118104   0.224   3.540   4.057 -0.0763 -0.8603  0.2851
 2156SOL    HW218105   0.366   3.577   4.066 -2.1361  1.8436 -0.4365
 2157SOL     OW18106   1.987   1.719  10.851 -0.0037  0.7045  0.0238
 2157SOL    HW118107   1.974   1.788  10.916 -0.7227 -0.4235  1.0991
 2157SOL    HW218108   1.900   1.678  10.852  0.2112  0.2525  0.3279
 2158SOL     OW18109   4.103   4.150  13.573  0.2166 -0.0277 -0.0556
 2158SOL    HW118110   4.190   4.111  13.584  0.9269  1.4957 -0.2868
 2158SOL    HW218111   4.055   4.069  13.585  0.2042 -0.0965 -0.5954
 2159SOL     OW18112   1.891   3.705   3.578  0.1831 -0.2200 -0.0034
 2159SOL    HW118113   1.915   3.775   3.517 -1.1053 -0.6616 -1.0415
 2159SOL    HW218114   1.957   3.705   3.647  0.9841 -1.7378 -0.7856
 2160SOL     OW18115   4.009   1.716   3.339  0.0083 -0.6630 -0.5788
 2160SOL    HW118116   3.922   1.689   3.310 -0.9293 -1.4387  3.0419
 2160SOL    HW218117   3.981   1.787   3.397  0.3004 -0.0435 -1.1935
 2161SOL     OW18118   3.910   4.674   9.018 -0.2119  0.2751  0.5403
 2161SOL    HW118119   3.877   4.589   8.987  1.9135 -0.7329  1.0610
 2161SOL    HW218120   3.883   4.665   9.109  0.1976  3.0511  0.9223
 2162SOL     OW18121   3.758   1.502  15.214  0.2854  0.0560 -0.0147
 2162SOL    HW118122   3.830   1.468  15.160  0.1984 -1.0053  0.5405
 2162SOL    HW218123   3.699   1.427  15.210  1.9725 -1.2628 -0.0847
 2163SOL     OW18124   0.084   1.163   5.865  0.2698 -0.5493  0.7620
 2163SOL    HW118125   0.034   1.117   5.932  1.3219 -1.6683  0.7687
 2163SOL    HW218126   0.060   1.106   5.791  0.5848 -2.1019  1.8624
 2164SOL     OW18127   2.188   3.161   6.048  0.5772  0.1735  0.0569
 2164SOL    HW118128   2.262   3.215   6.074  1.0517 -0.2019 -0.5359
 2164SOL    HW218129   2.169   3.125   6.135 -0.0429  1.0842  0.3027
 2165SOL     OW18130   4.303   2.061  10.350  0.1732 -0.6662  0.4677
 2165SOL    HW118131   4.243   2.021  10.288  2.4650 -1.7673 -1.0190
 2165SOL    HW218132   4.257   2.144  10.364 -0.8264 -1.2052  0.3948
 2166SOL     OW18133   1.105   0.031   6.805  0.0973 -0.5695  0.0147
 2166SOL    HW118134   1.035   4.705   6.806 -0.9806  0.5648 -0.5004
 2166SOL    HW218135   1.051   0.107   6.827  0.5786  0.3947 -2.1299
 2167SOL     OW18136   0.057   1.779  17.175 -0.0655 -0.0760  0.4876
 2167SOL    HW118137   0.042   1.692  17.140  0.1867  0.6341 -1.4160
 2167SOL    HW218138   0.136   1.767  17.229  0.0366  1.1294  0.6299
 2168SOL     OW18139   4.229   0.049   0.985 -0.4073 -0.2906  0.1176
 2168SOL    HW118140   4.299   0.017   0.928  0.1654  2.4201 -0.6956
 2168SOL    HW218141   4.186   4.707   1.011  0.7855 -0.9068  0.1538
 2169SOL     OW18142   0.836   1.487   3.210 -0.1545 -0.4189 -0.0489
 2169SOL    HW118143   0.787   1.564   3.239 -0.9124 -0.6799 -0.6287
 2169SOL    HW218144   0.910   1.478   3.270  0.6585 -2.0525 -1.2843
 2170SOL     OW18145   0.920   2.052  17.447  0.6934  0.0923 -0.6019
 2170SOL    HW118146   0.984   2.118  17.471 -0.5383  1.0644 -0.0180
 2170SOL    HW218147   0.971   1.986  17.400  1.1455 -0.3925  0.5621
 2171SOL     OW18148   4.679   2.996  14.976  0.1443  0.4084  0.2473
 2171SOL    HW118149   4.643   2.968  15.060  1.1029  0.4210  0.6649
 2171SOL    HW218150   4.603   2.980  14.920  1.2795  0.4929 -1.3349
 2172SOL     OW18151   4.705   3.089   4.844  0.1551 -1.0989 -0.0719
 2172SOL    HW118152   4.663   3.007   4.821 -0.1367 -0.1910 -2.7191
 2172SOL    HW218153   4.655   3.157   4.798  0.8896 -0.5736 -0.0938
 2173SOL     OW18154   2.901   4.602   5.533  0.3516 -0.3271 -0.2778
 2173SOL    HW118155   2.844   4.678   5.520  0.5890 -0.0924  0.0148
 2173SOL    HW218156   2.928   4.628   5.621 -1.9796  2.3205 -0.3426
 2174SOL     OW18157   3.976   2.256   5.954  0.1902  0.1287 -0.7800
 2174SOL    HW118158   4.039   2.285   6.020  1.6050  1.9897 -2.8956
 2174SOL    HW218159   3.894   2.266   6.002 -0.3233 -0.8054 -1.4647
 2175SOL     OW18160   2.476   1.049   3.927  0.4549  0.2134 -0.0307
 2175SOL    HW118161   2.562   1.011   3.913  0.2653 -0.3701  0.3498
 2175SOL    HW218162   2.423   0.978   3.963 -0.8658  1.0242 -0.3693
 2176SOL     OW18163   4.398   1.853   4.545 -0.2275  0.2799  0.2504
 2176SOL    HW118164   4.414   1.760   4.536 -0.2392  0.6161 -3.2450
 2176SOL    HW218165   4.316   1.851   4.595  0.4234 -0.7217  1.2680
 2177SOL     OW18166   4.443   3.572   6.165  0.2562 -0.1927  0.0786
 2177SOL    HW118167   4.365   3.627   6.174  0.1222  0.1156 -2.9731
 2177SOL    HW218168   4.494   3.626   6.225 -1.5109  1.0215  0.5031
 2178SOL     OW18169   0.806   3.199   9.962 -0.1139  0.3787 -0.4745
 2178SOL    HW118170   0.724   3.248   9.959 -0.2077  0.1437 -1.6692
 2178SOL    HW218171   0.815   3.157   9.876  1.2117 -0.1501 -0.0778
 2179SOL     OW18172   3.576   0.187  10.364 -0.5901  0.4505  0.3501
 2179SOL    HW118173   3.608   0.205  10.452 -1.2347 -0.8520  0.8581
 2179SOL    HW218174   3.648   0.206  10.304 -0.9573  1.2118  0.1489
 2180SOL     OW18175   1.303   4.320   8.910 -0.5850 -0.4427 -0.0947
 2180SOL    HW118176   1.254   4.269   8.845 -1.6827  0.2139  0.2241
 2180SOL    HW218177   1.302   4.252   8.976  0.4798 -1.1445 -0.7980
 2181SOL     OW18178   0.041   1.409  12.159  0.3364  0.7235  0.2299
 2181SOL    HW118179   4.737   1.432  12.241  2.4467  0.0245  1.5254
 2181SOL    HW218180   0.090   1.488  12.137  1.3241 -0.5338 -2.1011
 2182SOL     OW18181   4.441   4.030  11.384 -0.2334  0.5123  0.1953
 2182SOL    HW118182   4.495   4.106  11.366 -0.6842  0.8781  0.3823
 2182SOL    HW218183   4.382   4.029  11.309 -0.2972 -3.1373  0.2791
 2183SOL     OW18184   0.218   1.394   4.800  0.0110 -0.3437  1.0949
 2183SOL    HW118185   0.188   1.484   4.787  0.3642 -0.3347  0.3344
 2183SOL    HW218186   0.143   1.338   4.779  0.7020  0.2423 -2.8279
 2184SOL     OW18187   1.029   3.723  15.608  0.0563 -0.0738  0.0191
 2184SOL    HW118188   0.999   3.787  15.672 -1.1672  2.0602 -2.6675
 2184SOL    HW218189   1.027   3.778  15.529 -0.0035 -1.6784 -1.0980
 2185SOL     OW18190   4.022   3.456   1.736 -0.1643  0.0985  0.1263
 2185SOL    HW118191   4.085   3.419   1.673  1.6137  0.0009  1.9597
 2185SOL    HW218192   4.086   3.514   1.777  0.9413  0.6225 -2.3377
 2186SOL     OW18193   3.663   2.768   9.693  0.1322  0.0895  0.4136
 2186SOL    HW118194   3.586   2.805   9.734  0.8111  1.8544  0.0835
 2186SOL    HW218195   3.704   2.718   9.764 -0.1788 -0.1988  0.3920
 2187SOL     OW18196   1.339   0.174   1.099 -0.9435  0.2920  0.1342
 2187SOL    HW118197   1.335   0.177   1.004 -0.7407  0.3070  0.1274
 2187SOL    HW218198   1.250   0.147   1.124 -1.3518  0.3234 -1.2749
 2188SOL     OW18199   3.915   4.690  13.710 -0.4280 -0.1279  0.5543
 2188SOL    HW118200   3.953   4.646  13.633 -2.9933 -0.4328 -0.5513
 2188SOL    HW218201   3.993   4.706  13.762  1.7184 -1.7881 -2.1281
 2189SOL     OW18202   2.125   0.631   4.692 -0.3496 -0.0836 -0.6285
 2189SOL    HW118203   2.090   0.590   4.770 -0.8071  1.1006 -0.2127
 2189SOL    HW218204   2.123   0.560   4.628  0.4189  0.5906 -1.4055
 2190SOL     OW18205   3.561   3.211   5.784 -0.1333 -0.1165  0.7544
 2190SOL    HW118206   3.493   3.167   5.835 -0.1797 -0.1637  0.6517
 2190SOL    HW218207   3.623   3.229   5.855  3.1525 -0.7222 -1.9432
 2191SOL     OW18208   0.943   2.770   3.915 -0.4590  0.0037  0.1978
 2191SOL    HW118209   0.874   2.726   3.963 -0.8018 -1.0450 -1.2823
 2191SOL    HW218210   1.018   2.728   3.957  0.0951  1.5229  0.7564
 2192SOL     OW18211   3.899   2.169   3.436 -0.1151  0.4437  0.3202
 2192SOL    HW118212   3.836   2.137   3.501 -0.7944  0.5346 -0.2877
 2192SOL    HW218213   3.846   2.158   3.356  0.0241 -0.4502  0.3481
 2193SOL     OW18214   2.294   3.048   6.795  0.1378  0.6808  0.1994
 2193SOL    HW118215   2.204   3.016   6.803 -0.1696  1.5894  0.3979
 2193SOL    HW218216   2.280   3.143   6.785  0.5251  0.9224  1.9550
 2194SOL     OW18217   4.504   3.681   5.613 -0.4896  0.3149 -0.0986
 2194SOL    HW118218   4.591   3.667   5.650 -0.5256 -0.1556 -0.1809
 2194SOL    HW218219   4.511   3.766   5.571  2.8342  0.7352  1.3173
 2195SOL     OW18220   1.769   2.166   4.790 -0.1107  0.5737  0.1886
 2195SOL    HW118221   1.836   2.161   4.722  0.6604 -1.1139  1.0505
 2195SOL    HW218222   1.787   2.086   4.839  1.4366 -0.0488 -1.4025
 2196SOL     OW18223   1.567   2.883   4.206 -0.0479 -0.3015 -0.1078
 2196SOL    HW118224   1.593   2.902   4.296 -0.8922 -1.1939  0.3194
 2196SOL    HW218225   1.472   2.886   4.222 -0.1824 -2.5962 -0.5535
 2197SOL     OW18226   1.809   1.318   4.698 -0.4935  0.7570  0.4882
 2197SOL    HW118227   1.727   1.307   4.747 -0.5461 -3.3144 -0.5029
 2197SOL    HW218228   1.873   1.276   4.755  0.8993  0.9531 -0.9614
 2198SOL     OW18229   4.327   4.653   0.661 -0.1894  0.5210  0.1926
 2198SOL    HW118230   4.360   4.568   0.633 -1.1822  0.6380 -1.3326
 2198SOL    HW218231   4.235   4.653   0.635  0.0453  4.9744 -0.6682
 2199SOL     OW18232   0.926   3.717   8.527  0.3583 -0.3222  0.2985
 2199SOL    HW118233   0.913   3.637   8.577 -1.7254 -0.0089  0.2854
 2199SOL    HW218234   0.884   3.704   8.441 -3.4813  0.9949  1.9701
 2200SOL     OW18235   4.636   1.434   2.808  0.1462  0.3266  0.7262
 2200SOL    HW118236   4.602   1.365   2.865  0.7326  0.3103  1.0651
 2200SOL    HW218237   4.559   1.484   2.784  0.2539  1.1358  2.0760
 2201SOL     OW18238   1.340   2.135   7.430  0.1177  0.1181 -0.4964
 2201SOL    HW118239   1.293   2.160   7.351  0.8232  0.3701 -0.8385
 2201SOL    HW218240   1.428   2.134   7.391 -0.2735 -0.9611 -1.3558
 2202SOL     OW18241   1.312   4.367   9.840 -0.1353  0.0740 -0.6508
 2202SOL    HW118242   1.291   4.388   9.931  0.1770 -2.3598 -0.0181
 2202SOL    HW218243   1.358   4.442   9.802  1.7341 -0.5377  0.4655
 2203SOL     OW18244   4.295   4.315   0.255 -0.4906 -0.1329  0.1778
 2203SOL    HW118245   4.380   4.299   0.215  0.6160  0.9961  2.1000
 2203SOL    HW218246   4.300   4.411   0.255  1.1860 -0.2326 -2.3356
 2204SOL     OW18247   2.098   2.655   2.624  0.1863  0.1036  0.5923
 2204SOL    HW118248   2.102   2.632   2.531 -0.5387  2.0898  0.0771
 2204SOL    HW218249   2.004   2.676   2.623 -0.0184 -0.9060 -2.4982
 2205SOL     OW18250   1.614   4.594  13.482 -0.2634 -0.1141  0.4681
 2205SOL    HW118251   1.519   4.583  13.495 -0.6330  0.9572 -1.4309
 2205SOL    HW218252   1.627   4.682  13.517  0.4438  0.3580 -0.9916
 2206SOL     OW18253   2.369   1.524   8.213 -0.0305  0.3395  0.1923
 2206SOL    HW118254   2.438   1.463   8.239  0.4892 -0.1003 -2.2166
 2206SOL    HW218255   2.306   1.465   8.173  2.0898 -2.4606  1.0361
 2207SOL     OW18256   3.539   1.906   6.905  0.0271  0.2106  0.5558
 2207SOL    HW118257   3.506   1.909   6.995 -0.8878 -1.5994  0.2838
 2207SOL    HW218258   3.631   1.890   6.925 -0.5731 -2.1985  1.3828
 2208SOL     OW18259   2.834   4.568   3.464  0.5340 -0.1942 -0.4940
 2208SOL    HW118260   2.755   4.614   3.492 -0.7870 -3.0662  0.4372
 2208SOL    HW218261   2.819   4.569   3.370 -0.5783 -1.0053 -0.3191
 2209SOL     OW18262   0.065   2.155   8.959 -0.7380  0.0055 -0.1527
 2209SOL    HW118263   0.077   2.066   8.924 -0.1361 -0.6195  1.6372
 2209SOL    HW218264   4.732   2.126   9.014 -1.6135  2.1510 -0.1872
 2210SOL     OW18265   2.608   2.545  17.685 -0.4422  0.3411  0.1332
 2210SOL    HW118266   2.542   2.608  17.655 -0.1920 -0.1872 -1.5394
 2210SOL    HW218267   2.553   2.467  17.687  2.2539 -1.6058 -1.2750
 2211SOL     OW18268   2.322   1.495   2.208 -0.4736  0.1185  0.1910
 2211SOL    HW118269   2.341   1.409   2.169 -0.6625 -0.0695  0.5121
 2211SOL    HW218270   2.232   1.474   2.232 -0.2137 -0.2864  0.8209
 2212SOL     OW18271   2.698   3.065   2.123  0.2574  0.1737  0.3274
 2212SOL    HW118272   2.696   3.063   2.219 -1.6110  1.7632  0.3143
 2212SOL    HW218273   2.675   3.155   2.101 -2.1615 -0.3199  0.8326
 2213SOL     OW18274   4.247   2.592   3.506  0.3593 -0.3925  0.1459
 2213SOL    HW118275   4.314   2.540   3.551  0.3163 -1.5267 -1.1066
 2213SOL    HW218276   4.200   2.522   3.462  0.5317  0.2212 -1.0058
 2214SOL     OW18277   3.748   1.631   5.865 -0.3357  0.1078  0.2428
 2214SOL    HW118278   3.731   1.546   5.905 -0.3032  0.8511  1.8785
 2214SOL    HW218279   3.841   1.629   5.845 -0.4950  1.3769 -0.6680
 2215SOL     OW18280   1.184   0.036   7.853  0.4897 -0.2565  0.3750
 2215SOL    HW118281   1.232   0.067   7.777 -0.4939  0.1197 -0.0980
 2215SOL    HW218282   1.255   4.737   7.903 -1.1733 -0.4127  2.6423
 2216SOL     OW18283   1.769   2.532   6.560  0.3760 -0.1760 -0.0747
 2216SOL    HW118284   1.810   2.552   6.644 -0.0702  0.1384  0.0686
 2216SOL    HW218285   1.706   2.463   6.583  0.9670 -0.6168  0.2292
 2217SOL     OW18286   2.709   4.579   2.785 -0.2545 -0.4499  0.1861
 2217SOL    HW118287   2.645   4.543   2.724 -0.2300  0.7587 -0.5319
 2217SOL    HW218288   2.654   4.642   2.831  1.2761  0.2254  1.0617
 2218SOL     OW18289   1.033   2.959   4.297 -0.3018 -0.0299 -0.0435
 2218SOL    HW118290   0.990   2.951   4.212 -1.3753  0.6965  0.4264
 2218SOL    HW218291   0.983   2.898   4.351 -2.8022  1.6455 -0.4430
 2219SOL     OW18292   2.557   3.144   9.937  0.3146  0.4422 -0.4348
 2219SOL    HW118293   2.558   3.048   9.936  1.2261  0.4709 -2.1103
 2219SOL    HW218294   2.631   3.170   9.992  0.8800  0.7588 -1.3410
 2220SOL     OW18295   4.458   3.010   6.540 -0.0346  0.9258 -0.4213
 2220SOL    HW118296   4.523   3.025   6.608 -1.7989  0.2077  1.4257
 2220SOL    HW218297   4.491   2.932   6.495 -0.9431  0.2080  0.1603
 2221SOL     OW18298   4.177   3.543   4.507  0.1731 -0.2880 -0.4618
 2221SOL    HW118299   4.099   3.508   4.464 -0.4393  0.9541 -0.3707
 2221SOL    HW218300   4.218   3.464   4.541  0.2147  1.1702  2.9193
 2222SOL     OW18301   0.539   4.321   4.233  0.0417  0.4208 -0.3573
 2222SOL    HW118302   0.458   4.271   4.220  0.0038  0.8450 -1.7494
 2222SOL    HW218303   0.541   4.384   4.161  1.5323  1.4449  0.5986
 2223SOL     OW18304   0.537   2.352   3.442  0.4925 -0.4164  0.0054
 2223SOL    HW118305   0.528   2.447   3.442  0.3442 -0.4319  1.4557
 2223SOL    HW218306   0.462   2.326   3.389  0.4618  0.5247 -0.4128
 2224SOL     OW18307   0.681   3.462   2.545  0.1921  0.7100  0.2047
 2224SOL    HW118308   0.670   3.520   2.621  4.9233 -0.7483  1.9629
 2224SOL    HW218309   0.775   3.467   2.530  0.0788  2.4659 -0.0377
 2225SOL     OW18310   1.614   2.979   4.499 -0.0506  1.2537  0.1940
 2225SOL    HW118311   1.643   2.924   4.571  0.8885  0.3811 -0.8363
 2225SOL    HW218312   1.531   2.946   4.463 -0.7742  0.7688  2.3524
 2226SOL     OW18313   4.085   2.139   6.676 -0.1002  0.0247  0.4499
 2226SOL    HW118314   3.999   2.125   6.638 -0.3537  0.8859  0.7125
 2226SOL    HW218315   4.131   2.180   6.602 -2.5979  3.4753  0.8078
 2227SOL     OW18316   0.477   1.574   5.098  0.0041 -0.3304 -0.7639
 2227SOL    HW118317   0.561   1.527   5.094  0.9176  1.1896  0.6266
 2227SOL    HW218318   0.430   1.513   5.155  1.8948 -1.0908 -0.0098
 2228SOL     OW18319   0.036   3.965   4.443 -0.2314 -0.0155 -0.3218
 2228SOL    HW118320   4.724   3.887   4.422 -1.7215  0.7417  0.4386
 2228SOL    HW218321   0.112   3.947   4.387  1.5779 -1.2085  2.5492
 2229SOL     OW18322   2.252   3.174   6.435 -0.0490  0.6315 -0.0642
 2229SOL    HW118323   2.322   3.233   6.463  0.1272 -0.0666  0.9531
 2229SOL    HW218324   2.295   3.095   6.403 -0.7480  1.0739 -2.0589
 2230SOL     OW18325   0.951   4.197   9.879 -0.3549  0.1827 -0.2553
 2230SOL    HW118326   0.998   4.246   9.811 -0.8199  1.2780  0.2194
 2230SOL    HW218327   0.902   4.270   9.917 -2.4133 -1.2919 -0.1143
 2231SOL     OW18328   2.915   2.946   3.675  0.2163  0.2508  0.2119
 2231SOL    HW118329   2.880   3.019   3.727  2.0386  1.2347  0.0778
 2231SOL    HW218330   2.975   2.912   3.742  0.4686  0.5554  0.1427
 2232SOL     OW18331   4.170   1.977   7.909 -0.3025 -0.3838 -0.0839
 2232SOL    HW118332   4.255   1.958   7.946 -0.6192 -0.1719  0.7404
 2232SOL    HW218333   4.165   1.894   7.861 -2.0433 -1.6826  2.3794
 2233SOL     OW18334   1.861   3.164   8.087  0.0991  0.5519  0.0829
 2233SOL    HW118335   1.765   3.168   8.091 -0.1002 -1.9748 -2.6098
 2233SOL    HW218336   1.885   3.256   8.069  0.7037  0.6585  1.4278
 2234SOL     OW18337   4.252   0.432   0.570  0.3135 -0.1042 -0.1178
 2234SOL    HW118338   4.296   0.448   0.653 -3.0429 -0.0560  1.6661
 2234SOL    HW218339   4.243   0.339   0.589  2.5118 -0.5519 -1.2529
 2235SOL     OW18340   2.579   3.123   1.567  0.1754 -0.3041  0.2765
 2235SOL    HW118341   2.607   3.126   1.659 -0.5460 -0.0455  0.4919
 2235SOL    HW218342   2.653   3.167   1.526 -0.2643  1.7631  1.7048
 2236SOL     OW18343   3.774   4.213   6.426 -0.4408  0.0599  0.2072
 2236SOL    HW118344   3.864   4.185   6.443 -0.1963  0.8488  0.2149
 2236SOL    HW218345   3.774   4.205   6.331  0.4143 -1.1304  0.3120
 2237SOL     OW18346   2.550   0.933   5.708  0.5725 -0.4471 -0.1731
 2237SOL    HW118347   2.515   0.848   5.683  0.9433 -0.7455  0.3284
 2237SOL    HW218348   2.607   0.921   5.784  0.7905  0.7428 -0.1546
 2238SOL     OW18349   1.654   4.351  13.371 -0.2716 -0.1130 -0.1665
 2238SOL    HW118350   1.612   4.434  13.392  0.9026  0.9773 -2.1181
 2238SOL    HW218351   1.635   4.300  13.449  3.1825  2.1339  2.1507
 2239SOL     OW18352   2.780   1.459   1.103 -0.2050 -0.0090 -0.0953
 2239SOL    HW118353   2.692   1.486   1.079 -0.1534  0.0581 -0.2076
 2239SOL    HW218354   2.816   1.547   1.096  1.1595 -0.6773 -1.6289
 2240SOL     OW18355   1.306   1.260   4.111  0.1891  0.4628 -0.2039
 2240SOL    HW118356   1.312   1.308   4.194  0.1871  0.9258 -0.4725
 2240SOL    HW218357   1.247   1.314   4.058  0.8173  0.3816 -0.9802
 2241SOL     OW18358   3.559   3.602   6.351 -0.2143 -0.0772  0.2303
 2241SOL    HW118359   3.465   3.612   6.340  0.0352  0.0694 -1.8443
 2241SOL    HW218360   3.565   3.555   6.434  0.1148 -0.1176  0.1832
 2242SOL     OW18361   3.869   1.466   2.984  0.2575  0.3562  0.1267
 2242SOL    HW118362   3.821   1.384   2.994 -0.2062  0.7000  0.6947
 2242SOL    HW218363   3.923   1.455   3.062 -3.6458 -3.5110  2.2667
 2243SOL     OW18364   3.229   2.337   1.154 -0.1329  0.0405 -0.4201
 2243SOL    HW118365   3.221   2.425   1.117 -1.4137  0.1951  0.2084
 2243SOL    HW218366   3.321   2.319   1.137 -0.0106 -0.3469  0.6413
 2244SOL     OW18367   1.531   4.271  15.283  0.0112  0.5182  0.6499
 2244SOL    HW118368   1.455   4.328  15.271 -0.3067 -0.1706 -0.6620
 2244SOL    HW218369   1.567   4.319  15.357 -0.2272  0.5385  0.7518
 2245SOL     OW18370   2.158   2.225   9.868  0.2463  0.6517 -0.0053
 2245SOL    HW118371   2.121   2.196   9.784 -1.4924  1.2132  0.5820
 2245SOL    HW218372   2.162   2.142   9.916 -1.4718  0.0262 -0.9264
 2246SOL     OW18373   2.243   1.415   1.096  0.1598 -0.3598 -0.0228
 2246SOL    HW118374   2.200   1.494   1.129 -3.2599 -2.5506  0.7714
 2246SOL    HW218375   2.285   1.383   1.176  1.5651  1.4642 -0.0484
 2247SOL     OW18376   2.646   2.781   6.848  0.3586 -0.2619 -0.1162
 2247SOL    HW118377   2.676   2.751   6.934 -2.8546 -1.4429  0.5943
 2247SOL    HW218378   2.620   2.699   6.805 -0.7063 -0.1066  0.2459
 2248SOL     OW18379   0.763   4.515   8.132 -0.2095 -0.2607 -0.3175
 2248SOL    HW118380   0.804   4.539   8.214 -1.9287  0.3075  0.3811
 2248SOL    HW218381   0.725   4.434   8.164 -2.1386  1.1697  1.0527
 2249SOL     OW18382   0.635   4.516  17.231  0.7606 -0.6430  0.8443
 2249SOL    HW118383   0.656   4.436  17.182 -0.5305 -0.8790  0.6535
 2249SOL    HW218384   0.653   4.491  17.321 -1.3812 -0.5525  1.2977
 2250SOL     OW18385   0.531   4.577   3.590  0.3952 -0.5813 -0.4752
 2250SOL    HW118386   0.624   4.581   3.610 -0.0501  0.6392  1.3289
 2250SOL    HW218387   0.521   4.483   3.607 -0.1606 -0.4760 -0.2204
 2251SOL     OW18388   0.182   2.895   5.324 -0.4557 -0.2339  0.1920
 2251SOL    HW118389   0.265   2.883   5.279  0.4612  3.9086  0.7270
 2251SOL    HW218390   0.129   2.827   5.281 -2.0381  1.3223 -0.3257
 2252SOL     OW18391   2.140   3.262   1.764  0.3883 -0.2177  0.1264
 2252SOL    HW118392   2.054   3.266   1.724  0.4270 -2.7343 -0.2438
 2252SOL    HW218393   2.193   3.221   1.695  0.1865  1.6539 -1.1288
 2253SOL     OW18394   3.187   2.460   0.325  0.1198  0.3324 -0.1331
 2253SOL    HW118395   3.230   2.545   0.326 -0.4410  0.6079  0.4155
 2253SOL    HW218396   3.258   2.399   0.346 -0.4884 -1.2566 -2.6291
 2254SOL     OW18397   2.345   3.904  15.692 -0.3049  0.2025 -0.1023
 2254SOL    HW118398   2.358   3.938  15.781  0.0435 -0.0567 -0.0546
 2254SOL    HW218399   2.421   3.948  15.654  0.6478 -2.3510 -1.1449
 2255SOL     OW18400   4.347   1.351   0.838  0.2973 -0.5386 -0.5239
 2255SOL    HW118401   4.297   1.305   0.905  0.0498 -0.6029 -0.7536
 2255SOL    HW218402   4.401   1.279   0.807  0.5706 -0.3326 -0.5327
 2256SOL     OW18403   3.536   0.838   4.928  0.5140 -0.4337 -0.5118
 2256SOL    HW118404   3.627   0.860   4.947  0.4768 -1.8780  1.3453
 2256SOL    HW218405   3.523   0.782   5.005 -0.4846 -1.1647 -1.2226
 2257SOL     OW18406   2.530   3.055   8.246 -0.1436 -0.8812  0.0344
 2257SOL    HW118407   2.626   3.058   8.244 -0.2102  0.8439 -0.2377
 2257SOL    HW218408   2.510   3.000   8.322  1.2155 -2.0555 -0.4370
 2258SOL     OW18409   0.824   3.208  13.259 -0.4029 -0.1614 -0.0766
 2258SOL    HW118410   0.735   3.243  13.252 -0.2866  0.5200  1.7571
 2258SOL    HW218411   0.860   3.294  13.280 -1.5562  0.2943  0.0312
 2259SOL     OW18412   2.330   2.398   6.712 -0.4880 -0.2924 -0.5842
 2259SOL    HW118413   2.400   2.463   6.712 -2.1700  1.5490  0.0902
 2259SOL    HW218414   2.324   2.395   6.808  0.7293 -0.4061 -0.5204
 2260SOL     OW18415   0.200   0.623  17.533  0.4024  0.5513  0.1175
 2260SOL    HW118416   0.165   0.708  17.559  0.7226  0.9689 -0.8220
 2260SOL    HW218417   0.228   0.627  17.442 -1.9324  0.5579 -0.5901
 2261SOL     OW18418   1.438   3.696   5.592 -0.3296 -0.1276 -0.1612
 2261SOL    HW118419   1.459   3.729   5.680 -0.3239  0.2008 -0.2861
 2261SOL    HW218420   1.351   3.734   5.578 -0.0988  1.7566  3.3499
 2262SOL     OW18421   4.659   1.699   4.134 -0.2812 -0.7228 -0.4530
 2262SOL    HW118422   4.565   1.685   4.124  0.0006 -1.6862 -1.8150
 2262SOL    HW218423   4.691   1.610   4.148  0.4712 -0.3374  0.2784
 2263SOL     OW18424   2.114   2.149   3.357  0.1328 -0.5858  0.2727
 2263SOL    HW118425   2.124   2.237   3.320  0.8049 -0.4974  0.6562
 2263SOL    HW218426   2.202   2.121   3.334 -0.1790 -0.4540 -1.0389
 2264SOL     OW18427   2.321   4.507  14.741  0.2654  0.0516 -0.0977
 2264SOL    HW118428   2.278   4.582  14.700  1.1635  1.2333  1.1197
 2264SOL    HW218429   2.396   4.545  14.786 -0.8400  1.6656  0.3870
 2265SOL     OW18430   4.711   1.204   4.826 -0.7783  0.5885  0.0774
 2265SOL    HW118431   4.626   1.163   4.836 -0.4664  0.2687  1.3898
 2265SOL    HW218432   4.721   1.246   4.912  2.3586  2.3332 -1.1175
 2266SOL     OW18433   0.315   4.722  10.912 -0.8495  0.5603 -0.4779
 2266SOL    HW118434   0.368   4.714  10.992 -0.3031  0.3279 -0.8588
 2266SOL    HW218435   0.285   0.073  10.923 -1.3088  0.1010  2.1172
 2267SOL     OW18436   0.912   0.416  14.856 -0.2378 -0.5752  1.0094
 2267SOL    HW118437   0.866   0.337  14.828 -0.6494  0.5113 -1.3867
 2267SOL    HW218438   0.934   0.460  14.774 -0.3984 -1.0664  0.7056
 2268SOL     OW18439   0.255   2.192   7.379  0.1837 -0.1727  0.4517
 2268SOL    HW118440   0.209   2.276   7.380 -0.0803 -0.3389  2.1620
 2268SOL    HW218441   0.274   2.190   7.285 -0.9979  0.2097  0.2153
 2269SOL     OW18442   2.751   1.978   7.781 -0.4226 -0.2502  0.1027
 2269SOL    HW118443   2.834   2.009   7.744 -0.3667 -0.7749 -0.2072
 2269SOL    HW218444   2.722   1.911   7.719  0.3811 -0.2627 -0.2475
 2270SOL     OW18445   0.546   4.624  16.642  0.0602 -0.0626  0.2874
 2270SOL    HW118446   0.459   4.591  16.663 -0.4320  1.1813  0.2121
 2270SOL    HW218447   0.534   4.705  16.593 -2.2346 -0.2731  0.5095
 2271SOL     OW18448   0.664   2.845   1.676 -0.5100 -0.3560 -0.1243
 2271SOL    HW118449   0.755   2.836   1.704 -0.1377  0.9500 -0.9141
 2271SOL    HW218450   0.655   2.938   1.697 -3.0304 -0.6116 -0.0414
 2272SOL     OW18451   4.005   0.545   7.691  0.1070  0.0340 -0.3177
 2272SOL    HW118452   3.985   0.634   7.720 -1.4993  0.2161 -2.0037
 2272SOL    HW218453   3.992   0.551   7.596 -0.5405  2.1838 -0.0809
 2273SOL     OW18454   1.343   1.307   3.588 -0.2435  0.2825  1.0051
 2273SOL    HW118455   1.256   1.346   3.580 -0.1890 -0.0302 -1.0120
 2273SOL    HW218456   1.373   1.353   3.667 -0.8941  1.2076  0.7047
 2274SOL     OW18457   0.739   2.440   3.958  0.5003  0.0917  0.1608
 2274SOL    HW118458   0.703   2.527   3.976  0.0726  0.4749 -2.5767
 2274SOL    HW218459   0.818   2.464   3.908 -0.0829  0.1296 -0.7504
 2275SOL     OW18460   2.449   3.563   2.207 -0.1533 -0.4696 -0.3251
 2275SOL    HW118461   2.384   3.596   2.269 -0.1698  0.4420 -0.8403
 2275SOL    HW218462   2.446   3.468   2.222 -0.2662 -0.5413 -0.7999
 2276SOL     OW18463   3.324   2.227   8.838 -0.0227  0.0661  0.2518
 2276SOL    HW118464   3.251   2.234   8.900  1.6639 -0.2796  2.2793
 2276SOL    HW218465   3.320   2.136   8.808  1.7894  0.1088 -0.0925
 2277SOL     OW18466   4.087   2.557   9.837 -0.0112  0.2769  0.0465
 2277SOL    HW118467   4.089   2.463   9.857 -1.7899  0.3524  0.5867
 2277SOL    HW218468   4.153   2.566   9.769 -0.0765 -0.0786 -0.0611
 2278SOL     OW18469   3.728   2.619   5.863  0.3758 -0.3242 -0.0733
 2278SOL    HW118470   3.797   2.675   5.828  0.7984 -1.1724 -0.6162
 2278SOL    HW218471   3.652   2.668   5.833  1.1005  0.0162 -1.3747
 2279SOL     OW18472   3.333   2.941   3.117  0.1421 -0.0100  0.1047
 2279SOL    HW118473   3.357   2.987   3.197 -1.8599 -0.4135  0.9263
 2279SOL    HW218474   3.263   2.881   3.144  0.2105  1.8373  4.2993
 2280SOL     OW18475   2.368   3.236   8.115  0.0576  0.0338  0.5874
 2280SOL    HW118476   2.395   3.190   8.035 -1.1091 -0.9088  0.7439
 2280SOL    HW218477   2.437   3.201   8.172  0.5550 -1.3779 -0.8922
 2281SOL     OW18478   4.001   3.011   2.287  0.3753  0.0301 -0.0919
 2281SOL    HW118479   3.976   2.968   2.205  2.3040 -0.2494 -0.5287
 2281SOL    HW218480   4.096   3.017   2.276  0.3327  0.8995  0.0023
 2282SOL     OW18481   4.661   2.694   2.325 -0.5790 -0.3503 -0.0535
 2282SOL    HW118482   4.627   2.622   2.379  0.5249 -1.4152 -0.7795
 2282SOL    HW218483   0.011   2.687   2.358 -0.1486  2.3447 -0.6392
 2283SOL     OW18484   4.072   0.816   4.443  0.5199 -0.4110  0.4992
 2283SOL    HW118485   4.168   0.820   4.443  0.5206 -0.6450 -1.7647
 2283SOL    HW218486   4.050   0.845   4.532  0.9548 -0.4209  0.6107
 2284SOL     OW18487   1.562   4.089   6.643 -0.1900  0.2064  0.2918
 2284SOL    HW118488   1.651   4.103   6.674  0.2458  0.3240 -1.0107
 2284SOL    HW218489   1.552   4.007   6.691 -1.9695  0.4943  0.4319
 2285SOL     OW18490   0.926   0.096  16.323 -0.1516 -0.1052  0.0068
 2285SOL    HW118491   0.912   0.055  16.408 -1.6250  1.1608  0.3545
 2285SOL    HW218492   0.998   0.160  16.330  1.0451 -1.5696  1.0889
 2286SOL     OW18493   0.456   3.985   2.697  0.5321 -0.5018 -0.0286
 2286SOL    HW118494   0.517   4.028   2.638  1.4133 -2.3026 -0.4173
 2286SOL    HW218495   0.477   4.019   2.785 -2.6179 -1.1052  0.9657
 2287SOL     OW18496   2.998   3.335   5.017  0.0467  0.1895  0.1940
 2287SOL    HW118497   3.052   3.256   5.020 -2.7275 -1.6710  1.9518
 2287SOL    HW218498   2.998   3.359   4.925  0.7402  0.0996  0.1714
 2288SOL     OW18499   0.584   0.544   3.432  0.1287 -0.4306 -0.2044
 2288SOL    HW118500   0.560   0.531   3.523  0.3201  0.1054 -0.0811
 2288SOL    HW218501   0.536   0.471   3.391  1.4056 -0.2813 -1.9834
 2289SOL     OW18502   1.850   1.751  11.558  0.4305  0.2906 -0.0380
 2289SOL    HW118503   1.880   1.724  11.645  1.8873  2.2088  0.0629
 2289SOL    HW218504   1.766   1.708  11.546  0.9611 -0.9939  0.7882
 2290SOL     OW18505   4.077   4.610  15.170 -0.6769 -0.3029  0.2947
 2290SOL    HW118506   4.160   4.646  15.139 -0.9984 -0.6182 -0.9349
 2290SOL    HW218507   4.070   4.651  15.256  1.0669 -0.3451  0.4619
 2291SOL     OW18508   1.637   2.870   7.750 -0.2645 -0.0617  0.1174
 2291SOL    HW118509   1.698   2.833   7.686  1.0506 -0.0223  1.3559
 2291SOL    HW218510   1.613   2.794   7.802  0.6976 -1.5026 -1.5381
 2292SOL     OW18511   4.295   2.548   1.849  0.8014 -0.3532 -0.8602
 2292SOL    HW118512   4.292   2.627   1.795  0.7968 -0.7173 -1.3941
 2292SOL    HW218513   4.252   2.476   1.803 -0.3471  0.3938 -0.9332
 2293SOL     OW18514   3.657   2.643   8.459 -0.0586  0.1843 -0.4730
 2293SOL    HW118515   3.729   2.653   8.397 -0.4651 -1.4743 -1.2238
 2293SOL    HW218516   3.600   2.598   8.396  1.2692  0.6520 -2.0108
 2294SOL     OW18517   3.468   0.478   3.479  0.4422  0.4327 -0.0987
 2294SOL    HW118518   3.528   0.533   3.530  2.4003 -1.0081 -0.8978
 2294SOL    HW218519   3.383   0.522   3.475  1.0456  1.6792  0.5296
 2295SOL     OW18520   3.030   0.159   8.021  0.2865 -0.1218 -0.5556
 2295SOL    HW118521   3.088   0.156   7.946  0.9591 -2.0867  0.0508
 2295SOL    HW218522   2.982   0.233   7.983 -3.1857 -2.4158 -0.7196
 2296SOL     OW18523   1.232   0.774   4.710 -0.5890 -0.2959 -0.1182
 2296SOL    HW118524   1.224   0.733   4.624  0.6562  0.7671 -0.7541
 2296SOL    HW218525   1.144   0.762   4.744 -0.5703 -0.7791 -0.2298
 2297SOL     OW18526   1.647   0.842   9.367  0.9063 -0.5272 -0.0859
 2297SOL    HW118527   1.662   0.883   9.452 -1.8070  1.0137 -0.3621
 2297SOL    HW218528   1.595   0.910   9.324  1.3633 -0.3881 -0.4151
 2298SOL     OW18529   0.371   0.344   4.541 -0.0680  0.2870  0.0077
 2298SOL    HW118530   0.418   0.347   4.458 -0.3126 -0.1320 -0.1447
 2298SOL    HW218531   0.369   0.250   4.557  0.4360  0.0140 -1.5828
 2299SOL     OW18532   1.956   4.249  13.949  0.1301 -0.0447  0.0565
 2299SOL    HW118533   2.052   4.244  13.945  0.1723  0.2513  0.7166
 2299SOL    HW218534   1.935   4.276  13.859 -0.8429 -1.9755 -0.2842
 2300SOL     OW18535   0.131   4.053   7.199  0.1818  0.6183 -0.2518
 2300SOL    HW118536   0.204   3.992   7.192  0.0679  0.3589  0.8716
 2300SOL    HW218537   0.084   4.006   7.268 -0.0208 -0.8398 -1.3609
 2301SOL     OW18538   0.951   2.940  12.934  0.3591 -0.1564 -0.5104
 2301SOL    HW118539   0.994   3.023  12.957  0.3939  0.1510 -1.6932
 2301SOL    HW218540   1.030   2.887  12.944  0.5740  0.8458  3.1178
 2302SOL     OW18541   4.547   1.854   8.187 -0.3112  0.4051  0.2719
 2302SOL    HW118542   4.472   1.876   8.243 -0.1587 -1.3560  1.1503
 2302SOL    HW218543   4.610   1.828   8.254  1.4725  0.3258 -1.4267
 2303SOL     OW18544   1.457   1.892   3.997  0.0025 -0.6109  0.7524
 2303SOL    HW118545   1.373   1.858   4.028 -0.4039 -1.9467 -1.8055
 2303SOL    HW218546   1.499   1.923   4.077 -0.7601 -3.5177  2.2646
 2304SOL     OW18547   3.071   4.034   8.909 -0.1920 -0.4842  0.2621
 2304SOL    HW118548   3.038   4.109   8.859  0.8227  0.0580  0.3895
 2304SOL    HW218549   3.001   4.026   8.974 -1.6591 -0.4386 -1.3060
 2305SOL     OW18550   4.477   3.440   4.254 -0.0061 -0.3305 -0.2587
 2305SOL    HW118551   4.480   3.344   4.254 -1.1912 -0.3695 -1.5455
 2305SOL    HW218552   4.382   3.448   4.250 -0.4130 -1.7181  5.7848
 2306SOL     OW18553   2.434   2.109   8.879  0.0030  0.0063  0.7343
 2306SOL    HW118554   2.377   2.057   8.824  1.5525 -1.9520  0.9764
 2306SOL    HW218555   2.368   2.155   8.931 -1.8459 -1.3687 -0.4396
 2307SOL     OW18556   0.459   2.568   8.786  0.2886  0.4918  0.3771
 2307SOL    HW118557   0.545   2.560   8.744  0.4366  3.5140  0.1578
 2307SOL    HW218558   0.400   2.529   8.722 -0.9906  3.9944 -0.5339
 2308SOL     OW18559   4.063   2.677   2.985 -0.7621  0.2253  0.1987
 2308SOL    HW118560   4.123   2.751   2.977  0.7728 -1.0249  0.0190
 2308SOL    HW218561   3.982   2.728   2.984  0.0692  1.5912  1.5795
 2309SOL     OW18562   0.181   0.869   6.104 -0.2502 -0.1900 -0.7244
 2309SOL    HW118563   0.213   0.827   6.184 -1.6034 -1.1869 -0.7091
 2309SOL    HW218564   0.090   0.841   6.096 -0.5729  0.9861 -1.1709
 2310SOL     OW18565   4.101   3.606   2.902  0.5980 -0.0754  0.1207
 2310SOL    HW118566   4.043   3.580   2.973 -0.7665 -0.0314 -0.9810
 2310SOL    HW218567   4.075   3.556   2.825  0.1202 -0.5598  0.6031
 2311SOL     OW18568   3.075   4.596   8.647 -0.4748 -0.2321  0.2084
 2311SOL    HW118569   3.098   4.576   8.556  1.5835 -1.5828  1.0291
 2311SOL    HW218570   3.158   4.586   8.693  0.1858 -1.7089 -1.2855
 2312SOL     OW18571   4.621   3.153   3.475 -0.6304 -0.2077  0.4938
 2312SOL    HW118572   4.594   3.096   3.403  2.0866 -1.5684  0.5644
 2312SOL    HW218573   4.714   3.134   3.484 -0.5832 -2.0796 -3.6332
 2313SOL     OW18574   1.684   1.761   2.693  0.7960  0.3234  0.5456
 2313SOL    HW118575   1.712   1.806   2.613  2.0373  1.6804  1.7383
 2313SOL    HW218576   1.741   1.804   2.757  0.7972 -1.7475  1.9258
 2314SOL     OW18577   4.120   2.464   5.136  0.6641 -0.2137  0.1508
 2314SOL    HW118578   4.175   2.533   5.173  0.3737 -0.6874  1.4781
 2314SOL    HW218579   4.123   2.497   5.046 -0.6969  0.5728  0.3920
 2315SOL     OW18580   3.635   3.025   6.454 -0.2348  0.2967  0.0499
 2315SOL    HW118581   3.670   2.983   6.376 -0.4693 -1.6456  0.9810
 2315SOL    HW218582   3.690   2.981   6.519 -0.1818 -0.2161 -0.3443
 2316SOL     OW18583   3.824   0.527   5.903  0.1964 -0.1324  0.6639
 2316SOL    HW118584   3.841   0.434   5.888 -0.9537 -0.2586  0.1724
 2316SOL    HW218585   3.914   0.553   5.925  0.0851  1.9286 -1.3770
 2317SOL     OW18586   1.026   1.867   7.133 -0.2619 -0.2634  0.5373
 2317SOL    HW118587   0.977   1.895   7.056  1.2064  1.4358  0.1965
 2317SOL    HW218588   1.114   1.855   7.096 -0.8477 -0.6128 -0.7655
 2318SOL     OW18589   3.282   0.809   8.154  0.1247  0.0066 -0.0945
 2318SOL    HW118590   3.299   0.809   8.060 -0.2287 -0.9839 -0.1557
 2318SOL    HW218591   3.370   0.792   8.189  0.2009  2.5054  0.9374
 2319SOL     OW18592   1.164   1.296   8.217 -0.1852  0.1441 -0.6967
 2319SOL    HW118593   1.174   1.315   8.310  1.4131  0.3996 -0.9175
 2319SOL    HW218594   1.241   1.241   8.200 -0.9776 -1.6038  1.3968
 2320SOL     OW18595   3.311   1.421   4.112 -0.2109 -0.1929 -0.2953
 2320SOL    HW118596   3.251   1.379   4.050 -2.7486 -0.4268  2.3206
 2320SOL    HW218597   3.366   1.462   4.046 -0.7824  0.0283 -0.6394
 2321SOL     OW18598   2.129   3.179   3.108 -0.1314  0.0761 -0.6090
 2321SOL    HW118599   2.186   3.245   3.068  0.0391 -0.4409 -1.2121
 2321SOL    HW218600   2.075   3.167   3.030 -1.6110 -1.6357  0.6747
 2322SOL     OW18601   0.413   3.004   1.454 -0.6256  0.0293  0.0814
 2322SOL    HW118602   0.435   3.097   1.451 -0.9710  0.0782 -1.0064
 2322SOL    HW218603   0.485   2.967   1.403 -0.3179  0.2695  0.3415
 2323SOL     OW18604   1.456   4.654   2.658  0.0612 -0.5823  0.3776
 2323SOL    HW118605   1.520   4.698   2.714 -0.4064 -0.6539  0.9619
 2323SOL    HW218606   1.412   4.728   2.616  0.1044 -0.7445  0.0402
 2324SOL     OW18607   1.253   4.424  16.032  0.3201 -0.3458  0.0205
 2324SOL    HW118608   1.312   4.364  15.985  1.9250  1.4716 -0.2799
 2324SOL    HW218609   1.234   4.373  16.110  0.1223 -0.4715 -0.1104
 2325SOL     OW18610   1.093   4.359   7.577 -0.3758  0.6864  0.0466
 2325SOL    HW118611   1.014   4.356   7.523  0.8811 -0.6609 -1.6854
 2325SOL    HW218612   1.066   4.312   7.656  0.8198 -0.0274  0.0365
 2326SOL     OW18613   1.992   2.679   1.514  0.1919  0.0540 -0.0374
 2326SOL    HW118614   1.913   2.632   1.488 -0.3455  1.3053 -0.6419
 2326SOL    HW218615   1.983   2.669   1.608 -2.0628  2.8268  0.0238
 2327SOL     OW18616   4.450   1.902  14.928  0.0652 -0.5398  0.7958
 2327SOL    HW118617   4.394   1.954  14.986 -0.4884 -0.0936 -0.1323
 2327SOL    HW218618   4.387   1.852  14.877  0.3923 -0.3104  0.1577
 2328SOL     OW18619   2.663   0.486  16.436 -0.2924 -0.2738 -0.0602
 2328SOL    HW118620   2.658   0.482  16.340 -0.3862  1.1220 -0.1030
 2328SOL    HW218621   2.757   0.498  16.442 -0.1500 -1.4312  0.0206
 2329SOL     OW18622   2.116   4.350   4.765 -0.4596  0.5868 -0.3181
 2329SOL    HW118623   2.206   4.331   4.789  0.3520  3.2310 -1.2683
 2329SOL    HW218624   2.075   4.314   4.843 -1.0982  0.5183 -0.6776
 2330SOL     OW18625   4.209   0.696   4.858 -0.0765  0.2072  0.5833
 2330SOL    HW118626   4.177   0.713   4.769 -0.5345 -1.0565  0.5161
 2330SOL    HW218627   4.293   0.654   4.838  0.3502  1.2619  0.1474
 2331SOL     OW18628   1.845   1.272  13.368  0.3039  0.7735  0.3056
 2331SOL    HW118629   1.905   1.207  13.406 -2.7866 -0.2395  3.4733
 2331SOL    HW218630   1.806   1.308  13.448  0.3152  0.2510  0.5475
 2332SOL     OW18631   0.562   0.277   4.322  0.0355  0.4989 -0.6955
 2332SOL    HW118632   0.591   0.196   4.365 -1.7166  0.7103  0.8944
 2332SOL    HW218633   0.643   0.295   4.275  1.5393 -0.4402  1.5444
 2333SOL     OW18634   3.277   1.323   9.754  0.7001  0.0853 -0.4099
 2333SOL    HW118635   3.356   1.365   9.787  0.4469 -0.8060  1.3028
 2333SOL    HW218636   3.261   1.263   9.827 -0.2217 -0.3874 -0.9986
 2334SOL     OW18637   0.222   2.426   4.804  0.0487 -0.0394  0.0446
 2334SOL    HW118638   0.213   2.373   4.884  2.6637  0.9050  0.9619
 2334SOL    HW218639   0.278   2.369   4.752 -1.8301 -1.6509 -0.2015
 2335SOL     OW18640   2.512   1.194   9.669  0.1620  0.2204 -0.0194
 2335SOL    HW118641   2.486   1.104   9.686 -0.1393  0.1705 -0.7369
 2335SOL    HW218642   2.449   1.238   9.727  0.4749 -0.1554  0.6056
 2336SOL     OW18643   3.438   0.306   4.017  0.1647 -0.3910  0.1782
 2336SOL    HW118644   3.493   0.241   3.974 -0.1005 -0.0727 -0.6359
 2336SOL    HW218645   3.501   0.378   4.013 -3.4351  2.6405 -1.7750
 2337SOL     OW18646   4.670   4.441   7.520 -0.2993  0.3659 -0.1260
 2337SOL    HW118647   4.591   4.461   7.571  1.8904  0.1635  3.3376
 2337SOL    HW218648   4.653   4.500   7.446  2.7969  0.2779 -0.9052
 2338SOL     OW18649   2.278   1.416   3.440 -0.1070  0.3240  0.0454
 2338SOL    HW118650   2.243   1.501   3.412  1.5075  0.4977 -1.4461
 2338SOL    HW218651   2.372   1.436   3.443  0.1581 -0.7548 -1.2857
 2339SOL     OW18652   1.463   2.540   3.362 -0.4018  0.1146  0.2082
 2339SOL    HW118653   1.481   2.478   3.292  0.4447 -0.9470  1.3728
 2339SOL    HW218654   1.382   2.583   3.334  0.5601  2.4924  1.0624
 2340SOL     OW18655   1.557   4.289   8.918  0.1853  0.2760  0.3326
 2340SOL    HW118656   1.582   4.310   8.828  0.1581  0.7334  0.4334
 2340SOL    HW218657   1.462   4.295   8.919  0.0550 -1.6843  0.5839
 2341SOL     OW18658   4.633   2.841   7.842  0.6098 -0.3321 -0.0364
 2341SOL    HW118659   4.589   2.761   7.868  0.8919 -0.6884 -0.6448
 2341SOL    HW218660   4.665   2.880   7.923 -0.2332 -0.2478  0.2525
 2342SOL     OW18661   3.271   3.091   4.670  0.5315 -0.4461 -0.1660
 2342SOL    HW118662   3.359   3.066   4.699  1.2977  0.4390 -1.6819
 2342SOL    HW218663   3.217   3.027   4.715 -0.9019  1.0929  0.2815
 2343SOL     OW18664   2.354   0.780   6.254  0.3556  0.0340 -0.8085
 2343SOL    HW118665   2.416   0.814   6.319 -0.7030 -0.9544  0.7053
 2343SOL    HW218666   2.335   0.854   6.197 -0.1696  0.4936 -0.0271
 2344SOL     OW18667   1.667   2.814   4.717 -0.2116 -0.5866 -0.4040
 2344SOL    HW118668   1.618   2.741   4.755 -1.2815 -0.8009 -2.2151
 2344SOL    HW218669   1.751   2.813   4.763 -0.0391  2.7718 -0.6311
 2345SOL     OW18670   1.163   3.062   3.256  0.3981 -0.1115 -0.2658
 2345SOL    HW118671   1.241   3.117   3.270  0.3317 -0.1056  0.0877
 2345SOL    HW218672   1.097   3.118   3.296  0.1124  0.0312 -0.9383
 2346SOL     OW18673   4.547   3.720   3.076 -0.7329  0.2094  0.4036
 2346SOL    HW118674   4.565   3.737   2.984  0.4654 -0.3085  0.5405
 2346SOL    HW218675   4.479   3.784   3.099 -1.7510 -0.9206  0.5028
 2347SOL     OW18676   4.038   0.989   8.632 -0.8042  0.1889 -0.3026
 2347SOL    HW118677   3.950   0.973   8.667 -0.9009  1.8457  0.2127
 2347SOL    HW218678   4.041   1.083   8.646  1.8520 -0.1356  1.1706
 2348SOL     OW18679   3.150   0.909   6.149 -0.2996 -0.3405  0.8404
 2348SOL    HW118680   3.129   0.947   6.064  1.0429  1.9559  1.5327
 2348SOL    HW218681   3.167   0.817   6.128  0.4207  0.2101 -0.9816
 2349SOL     OW18682   2.445   0.937  12.693 -0.3496 -0.2038  0.0965
 2349SOL    HW118683   2.534   0.900  12.692 -0.1053  0.3753  0.2230
 2349SOL    HW218684   2.456   1.014  12.749 -1.3777  0.2042 -0.2617
 2350SOL     OW18685   1.736   2.767  14.102  0.4276 -0.1098  0.1511
 2350SOL    HW118686   1.715   2.740  14.192 -2.3396  0.8262 -0.2029
 2350SOL    HW218687   1.652   2.810  14.084  0.7376  0.9037  1.1207
 2351SOL     OW18688   4.679   1.396   2.295  0.0507 -0.3905 -0.0519
 2351SOL    HW118689   4.675   1.444   2.212 -0.1986 -0.2756  0.0283
 2351SOL    HW218690   4.705   1.305   2.276  0.3740 -0.2086 -0.4835
 2352SOL     OW18691   1.572   1.554   8.854 -0.3187 -0.1868 -0.2359
 2352SOL    HW118692   1.590   1.464   8.828 -1.3988 -0.0605 -1.3691
 2352SOL    HW218693   1.661   1.590   8.849  0.1764 -0.8605  3.2890
 2353SOL     OW18694   0.401   2.336   2.363  0.1947 -0.6634  0.4026
 2353SOL    HW118695   0.440   2.251   2.383  0.5649 -0.8182 -0.9592
 2353SOL    HW218696   0.473   2.380   2.409  1.6871 -0.5516 -2.0152
 2354SOL     OW18697   0.686   3.964   7.951 -0.9113 -0.1057  0.2653
 2354SOL    HW118698   0.776   3.982   7.980 -0.8931  1.2557 -0.6162
 2354SOL    HW218699   0.657   4.055   7.940 -0.1532  0.2332  1.0489
 2355SOL     OW18700   0.448   2.794   8.926  0.1806  0.4559 -0.0529
 2355SOL    HW118701   0.461   2.713   8.877  0.7895  0.3722  0.2394
 2355SOL    HW218702   0.538   2.803   8.959  0.6088  1.7650 -1.5948
 2356SOL     OW18703   0.723   2.443  12.336 -0.3229  0.5998  0.1474
 2356SOL    HW118704   0.743   2.534  12.316  0.7905 -0.1936 -2.3597
 2356SOL    HW218705   0.629   2.450  12.354 -0.2731  1.5514  0.0227
 2357SOL     OW18706   3.075   0.508   5.004  0.5341 -0.1232  1.3378
 2357SOL    HW118707   3.062   0.445   4.933 -1.7194  1.7530  0.1041
 2357SOL    HW218708   2.998   0.505   5.061  0.5910 -1.5932  1.3237
 2358SOL     OW18709   0.876   1.249   2.717 -0.5827 -0.5020  0.4378
 2358SOL    HW118710   0.908   1.202   2.794 -0.2069  1.0024  1.1990
 2358SOL    HW218711   0.896   1.195   2.640 -0.3119  0.6307 -0.2848
 2359SOL     OW18712   0.866   2.070   8.987 -0.5311 -0.2361 -0.1732
 2359SOL    HW118713   0.816   2.141   8.946  0.2022  0.5656  0.3123
 2359SOL    HW218714   0.852   1.997   8.927 -1.7158  0.4268 -0.7158
 2360SOL     OW18715   3.307   3.295   5.288 -0.4149  0.5793  0.1588
 2360SOL    HW118716   3.287   3.221   5.345 -1.2152  0.3339 -0.4428
 2360SOL    HW218717   3.282   3.253   5.206  0.6498 -1.0117  0.6488
 2361SOL     OW18718   2.231   0.360   9.440 -0.1333  0.1474 -0.5634
 2361SOL    HW118719   2.218   0.372   9.346  0.3521  3.0776 -0.2395
 2361SOL    HW218720   2.251   0.266   9.438  0.3221  0.2535 -0.9783
 2362SOL     OW18721   3.610   3.768   5.719 -0.7159 -0.7008 -0.1562
 2362SOL    HW118722   3.565   3.845   5.755 -3.4997 -1.8987 -1.0243
 2362SOL    HW218723   3.541   3.702   5.715 -0.9753 -0.5660  2.1492
 2363SOL     OW18724   2.221   2.562   2.887 -0.1639 -0.5694  0.1580
 2363SOL    HW118725   2.205   2.606   2.803  1.4794 -1.2644 -0.5241
 2363SOL    HW218726   2.240   2.637   2.943  2.2390  0.0896 -1.5408
 2364SOL     OW18727   0.523   1.598   4.616 -0.6308  0.2336  0.4266
 2364SOL    HW118728   0.499   1.511   4.648  0.9061 -0.0734  0.7523
 2364SOL    HW218729   0.600   1.578   4.563 -1.6964  0.2498 -1.1384
 2365SOL     OW18730   1.308   2.949   5.489 -0.1977  0.5572 -0.1784
 2365SOL    HW118731   1.364   2.969   5.414 -0.4638 -3.1772 -1.3708
 2365SOL    HW218732   1.337   3.018   5.550  1.4006  1.0516 -1.5094
 2366SOL     OW18733   1.822   0.653  10.724  0.2164  0.3833  0.3175
 2366SOL    HW118734   1.828   0.561  10.749  4.0939  0.6367  0.4067
 2366SOL    HW218735   1.917   0.667  10.719  0.2452  0.2973  0.6308
 2367SOL     OW18736   1.898   0.949  16.659 -0.8101 -0.2840 -0.7643
 2367SOL    HW118737   1.974   0.903  16.622 -0.0641 -1.1100  1.7369
 2367SOL    HW218738   1.826   0.887  16.650 -1.0976  0.0351 -0.6387
 2368SOL     OW18739   0.201   1.511   7.342  0.2254  0.0819 -0.4594
 2368SOL    HW118740   0.153   1.499   7.259  3.9671 -1.9727 -2.3318
 2368SOL    HW218741   0.143   1.570   7.390  0.7798  2.0940 -2.2217
 2369SOL     OW18742   0.587   1.000  15.435 -0.1178 -0.3343 -0.1425
 2369SOL    HW118743   0.576   1.092  15.460 -1.7274  0.0383 -2.1442
 2369SOL    HW218744   0.644   1.015  15.360 -1.6336  2.2935 -0.7718
 2370SOL     OW18745   2.060   2.724   6.738  0.3568 -0.3595 -0.1247
 2370SOL    HW118746   1.994   2.660   6.765  0.2444  1.2181  3.3448
 2370SOL    HW218747   2.140   2.685   6.773 -0.2238 -0.2455  1.3081
 2371SOL     OW18748   3.919   0.292  12.762  0.1355 -0.6302 -0.0932
 2371SOL    HW118749   3.840   0.246  12.792  0.8174 -1.5539  0.2652
 2371SOL    HW218750   3.965   0.317  12.842  1.0365 -2.0582 -0.1657
 2372SOL     OW18751   1.217   3.531   1.758  0.2194 -0.0810  0.3626
 2372SOL    HW118752   1.211   3.518   1.664 -0.8325  1.6069  0.2057
 2372SOL    HW218753   1.222   3.626   1.772 -1.1800 -0.2837  2.2520
 2373SOL     OW18754   0.292   1.002  14.907 -0.4119  0.3448  0.0080
 2373SOL    HW118755   0.260   0.914  14.888 -0.3226  0.1484  0.7931
 2373SOL    HW218756   0.210   1.051  14.901 -1.1459 -1.0489 -1.4514
 2374SOL     OW18757   1.902   0.258   5.224 -0.0825 -0.3363  0.2730
 2374SOL    HW118758   1.988   0.276   5.263  0.4193  0.1188 -1.0540
 2374SOL    HW218759   1.847   0.259   5.303  1.6992 -0.0615  1.5163
 2375SOL     OW18760   2.521   0.271   3.074 -0.1428  0.0752 -0.0463
 2375SOL    HW118761   2.472   0.249   3.154 -0.5338  2.3506  0.3527
 2375SOL    HW218762   2.609   0.299   3.100 -0.5841  0.9265  0.5331
 2376SOL     OW18763   4.610   2.338  17.513 -0.4103 -0.0207  0.1273
 2376SOL    HW118764   4.664   2.336  17.434  1.5562 -2.3337  1.5319
 2376SOL    HW218765   4.563   2.254  17.518  3.2717 -2.1758 -1.4987
 2377SOL     OW18766   3.719   4.649   4.875  0.0501 -0.4037 -0.3413
 2377SOL    HW118767   3.737   4.592   4.950 -2.1330 -1.8679 -0.9352
 2377SOL    HW218768   3.626   4.631   4.867 -0.1335  0.6227 -0.4976
 2378SOL     OW18769   1.138   3.949   2.643  0.3915 -0.1713 -0.2356
 2378SOL    HW118770   1.097   4.017   2.697  4.9066  1.6877  0.8779
 2378SOL    HW218771   1.096   3.867   2.667 -0.2126  0.4082  0.7046
 2379SOL     OW18772   2.477   0.838   7.148 -0.1505  0.6817  0.2735
 2379SOL    HW118773   2.461   0.916   7.200  0.7310  0.1906  1.2822
 2379SOL    HW218774   2.452   0.859   7.058 -0.2541 -2.2672 -0.4002
 2380SOL     OW18775   4.482   0.169  11.944  0.3377 -0.3908  0.4240
 2380SOL    HW118776   4.441   0.225  11.878 -1.4701  1.4044  3.1013
 2380SOL    HW218777   4.513   0.092  11.895  2.1035 -0.0138  0.9358
 2381SOL     OW18778   3.961   0.721  10.097  0.1967  0.0020 -0.1262
 2381SOL    HW118779   3.920   0.758  10.175  2.1164  1.5280  0.1600
 2381SOL    HW218780   4.039   0.680  10.135 -0.5921  3.0285  4.6865
 2382SOL     OW18781   2.599   3.314   6.329  0.2322 -0.2185 -0.5839
 2382SOL    HW118782   2.512   3.324   6.367  0.2573 -0.4211 -0.4721
 2382SOL    HW218783   2.603   3.218   6.327 -1.2930 -0.3062  0.6436
 2383SOL     OW18784   4.683   0.152  16.028  0.2191  0.2028 -0.1651
 2383SOL    HW118785   4.713   0.239  16.003  2.6766 -0.9215 -1.2313
 2383SOL    HW218786   4.605   0.146  15.973 -0.7346  1.6653  1.0361
 2384SOL     OW18787   1.520   4.442  15.474  0.0332 -0.1948 -0.2971
 2384SOL    HW118788   1.445   4.499  15.460 -0.6386 -0.5597  1.8900
 2384SOL    HW218789   1.539   4.474  15.562  1.1510  0.4229 -0.7562
 2385SOL     OW18790   4.530   1.049   6.653  0.1455 -0.2494  0.3267
 2385SOL    HW118791   4.459   0.994   6.619 -0.1723  0.5440 -0.2979
 2385SOL    HW218792   4.475   1.124   6.675  1.5612  0.6882  0.6883
 2386SOL     OW18793   3.577   0.971   5.386 -0.2563  0.1855  0.2209
 2386SOL    HW118794   3.546   0.997   5.299 -2.1997  0.5705  1.0388
 2386SOL    HW218795   3.649   0.915   5.358 -0.9768  0.2110 -1.7498
 2387SOL     OW18796   0.008   3.811   1.782 -0.9791 -0.1271  0.0653
 2387SOL    HW118797   4.720   3.901   1.768 -2.2700 -0.7444 -1.4555
 2387SOL    HW218798   0.046   3.815   1.870 -1.3984 -0.6153  0.2728
 2388SOL     OW18799   2.526   0.949  10.496  0.5755 -0.7118  0.1443
 2388SOL    HW118800   2.562   1.012  10.558  1.3924  0.2875 -1.3550
 2388SOL    HW218801   2.540   0.992  10.412  1.1163  0.7961  1.0207
 2389SOL     OW18802   2.777   4.546   1.718 -0.1312  0.1456  0.4136
 2389SOL    HW118803   2.724   4.605   1.665 -1.4626 -2.7115 -1.4512
 2389SOL    HW218804   2.831   4.607   1.767 -0.0916  0.7267 -0.3529
 2390SOL     OW18805   4.336   0.537   9.273 -0.0175 -0.3649 -0.1704
 2390SOL    HW118806   4.284   0.474   9.223  2.4140 -2.3709 -0.1662
 2390SOL    HW218807   4.296   0.547   9.360  1.4714  1.4905  0.2918
 2391SOL     OW18808   3.571   1.994   9.875  0.3755 -0.0311 -0.0614
 2391SOL    HW118809   3.571   1.962   9.965  3.1104  0.5198  0.1423
 2391SOL    HW218810   3.651   1.948   9.848  0.3792  1.1773 -2.1364
 2392SOL     OW18811   3.049   3.094  10.343  0.1755 -0.7990 -0.7028
 2392SOL    HW118812   3.074   3.180  10.309  0.5805 -0.9142 -0.7027
 2392SOL    HW218813   2.957   3.113  10.359  0.6436  0.3002  0.6679
 2393SOL     OW18814   4.010   1.626   8.928  0.4859 -0.0834  0.2323
 2393SOL    HW118815   3.936   1.663   8.976 -0.1740 -0.8061 -0.2355
 2393SOL    HW218816   4.072   1.700   8.930  0.7904 -0.3204 -0.3742
 2394SOL     OW18817   0.283   4.018  14.248  0.8667 -0.7987  0.2786
 2394SOL    HW118818   0.349   3.951  14.230 -1.9574 -2.7995 -2.6736
 2394SOL    HW218819   0.283   4.049  14.157 -0.1288  0.5792  0.7495
 2395SOL     OW18820   0.915   2.447   3.209 -0.5477 -0.9594 -0.2752
 2395SOL    HW118821   0.874   2.512   3.266 -1.9729 -0.3504 -2.0107
 2395SOL    HW218822   0.843   2.416   3.155 -0.7333  0.6776 -0.9394
 2396SOL     OW18823   0.513   4.596  11.984 -0.0844 -0.0977  0.1614
 2396SOL    HW118824   0.580   4.535  11.953 -0.1104 -0.3983  0.6912
 2396SOL    HW218825   0.479   4.647  11.910 -1.4848 -0.2942  0.6690
 2397SOL     OW18826   0.277   0.508   0.021  0.1057 -0.0649 -0.4367
 2397SOL    HW118827   0.229   0.538  17.699  1.8449 -2.1568 -2.3392
 2397SOL    HW218828   0.363   0.543  17.752  0.4937 -2.0504 -1.9883
 2398SOL     OW18829   3.526   2.878   7.718 -0.2730 -0.0959 -0.4154
 2398SOL    HW118830   3.578   2.812   7.673 -1.0338 -0.9418 -0.0518
 2398SOL    HW218831   3.451   2.835   7.759  1.1629  0.9846  3.3035
 2399SOL     OW18832   3.193   4.173   7.463 -0.4417 -0.6967 -0.5437
 2399SOL    HW118833   3.124   4.123   7.419 -1.3378  0.6021 -0.6271
 2399SOL    HW218834   3.264   4.114   7.485  0.9349  0.3650 -2.0746
 2400SOL     OW18835   1.632   2.061   7.770 -0.0490 -0.0949  0.3916
 2400SOL    HW118836   1.721   2.035   7.792 -0.1965 -1.5224 -0.6470
 2400SOL    HW218837   1.664   2.133   7.716  0.8371 -0.3146  0.6242
 2401SOL     OW18838   1.307   2.165   6.733 -0.2398  0.2121 -0.2740
 2401SOL    HW118839   1.230   2.159   6.791 -0.2948 -1.4003 -0.5155
 2401SOL    HW218840   1.302   2.255   6.702  1.5294 -0.7138 -3.1337
 2402SOL     OW18841   0.614   1.649   4.144 -0.5039 -0.7258 -0.0065
 2402SOL    HW118842   0.662   1.598   4.079  0.3504 -0.4007  0.3766
 2402SOL    HW218843   0.606   1.738   4.109 -1.1416 -0.2569  1.3417
 2403SOL     OW18844   4.092   1.039   0.554  0.5138 -0.3940 -0.0064
 2403SOL    HW118845   4.083   0.945   0.564 -0.8036 -0.0934  1.5344
 2403SOL    HW218846   4.091   1.048   0.458 -2.0223 -0.2577  0.0170
 2404SOL     OW18847   0.936   0.198   0.139 -0.0372  0.1542  0.1261
 2404SOL    HW118848   0.904   0.258   0.071 -1.2139  0.2920  0.7893
 2404SOL    HW218849   0.865   0.204   0.204  1.9339  3.0452  2.0474
 2405SOL     OW18850   2.933   0.249  16.641  0.1731 -0.2435 -0.4761
 2405SOL    HW118851   2.930   0.324  16.580  3.5084 -0.4915 -0.9337
 2405SOL    HW218852   2.839   0.231  16.648  0.2716 -0.7202 -0.3871
 2406SOL     OW18853   3.376   3.975   1.836  0.0111  0.0226 -0.5681
 2406SOL    HW118854   3.293   3.954   1.793 -0.2105  0.8942 -0.5846
 2406SOL    HW218855   3.398   3.916   1.908 -0.9522 -0.9251 -1.0650
 2407SOL     OW18856   3.914   0.300  11.704 -0.1847  0.3399  0.3966
 2407SOL    HW118857   3.993   0.338  11.741 -1.0955  3.2470 -0.6347
 2407SOL    HW218858   3.959   0.231  11.655  1.5684  3.6398 -2.6106
 2408SOL     OW18859   4.093   4.228   5.782 -0.2960 -0.1875 -0.3644
 2408SOL    HW118860   4.070   4.153   5.727  1.2905  0.9975 -2.6660
 2408SOL    HW218861   4.089   4.185   5.867 -1.2909  1.0034  0.1889
 2409SOL     OW18862   3.706   2.196   9.085  0.0245  0.7173 -0.3979
 2409SOL    HW118863   3.688   2.153   9.001 -0.1417  3.4200 -1.7344
 2409SOL    HW218864   3.649   2.139   9.137  2.1066 -0.7200  0.3312
 2410SOL     OW18865   2.020   2.653   2.111 -0.0608  0.6071  0.1099
 2410SOL    HW118866   1.942   2.699   2.142 -0.2542  0.2266  0.1807
 2410SOL    HW218867   1.981   2.566   2.105 -0.2212  0.6420  0.6947
 2411SOL     OW18868   4.011   1.213   4.616  0.3241  0.2540  0.1661
 2411SOL    HW118869   4.086   1.265   4.585  0.2176  0.7870  0.8115
 2411SOL    HW218870   4.053   1.133   4.647  2.4634  1.6187  0.7834
 2412SOL     OW18871   1.209   1.955  11.540 -0.4612  0.4002 -0.6244
 2412SOL    HW118872   1.249   2.030  11.583  0.4542 -0.6206  0.2942
 2412SOL    HW218873   1.128   1.951  11.591  0.6951 -1.8723  1.0290
 2413SOL     OW18874   2.208   3.407   4.098 -0.3490 -0.0818  0.0751
 2413SOL    HW118875   2.168   3.379   4.181 -0.3787  0.2872  0.1847
 2413SOL    HW218876   2.134   3.427   4.041 -0.7564  0.3524  0.7589
 2414SOL     OW18877   2.191   1.793   2.758  0.2821  0.7747  0.1946
 2414SOL    HW118878   2.125   1.734   2.795  0.0812  1.9897  1.7804
 2414SOL    HW218879   2.185   1.766   2.667  0.0904  0.1555  0.3858
 2415SOL     OW18880   2.695   4.702  12.280  0.1424  0.1535 -0.2844
 2415SOL    HW118881   2.641   4.646  12.335  2.1549  0.6054  2.1664
 2415SOL    HW218882   2.776   4.651  12.286  0.0892  0.1237  0.2315
 2416SOL     OW18883   1.820   0.159   4.371  0.1095 -0.3040  0.8038
 2416SOL    HW118884   1.833   0.163   4.465  2.0615  0.4641  0.5193
 2416SOL    HW218885   1.766   0.080   4.368 -0.6453  0.2507 -0.4806
 2417SOL     OW18886   1.415   1.089  12.603  0.0637 -0.2183 -0.4946
 2417SOL    HW118887   1.382   1.101  12.692  1.9505 -1.1874  0.3226
 2417SOL    HW218888   1.340   1.124  12.555  1.3172  1.6709 -1.0504
 2418SOL     OW18889   2.424   1.156   8.872  0.6400  0.3096  0.1412
 2418SOL    HW118890   2.497   1.110   8.914  2.9161  2.8402 -1.0410
 2418SOL    HW218891   2.419   1.107   8.790  0.5301 -2.3501  1.7361
 2419SOL     OW18892   1.189   2.692   5.065 -0.6018 -0.2908  0.0183
 2419SOL    HW118893   1.156   2.722   5.150 -0.8921 -0.3047 -0.0876
 2419SOL    HW218894   1.125   2.714   4.996 -0.7175  1.2595  0.6022
 2420SOL     OW18895   0.243   3.756  17.289 -0.1995  0.1902  0.6121
 2420SOL    HW118896   0.318   3.813  17.306 -0.2067  1.5593 -3.9588
 2420SOL    HW218897   0.271   3.668  17.312  1.8012  0.7914  0.4842
 2421SOL     OW18898   0.521   3.633  16.374  0.0736  0.0696  0.3360
 2421SOL    HW118899   0.511   3.539  16.355  0.6964 -0.0158  0.4288
 2421SOL    HW218900   0.452   3.669  16.319 -0.7820  0.4652  1.6816
 2422SOL     OW18901   1.343   0.163   2.605  0.2790  0.2174 -0.0953
 2422SOL    HW118902   1.350   0.259   2.611 -0.3254  0.1248  1.9930
 2422SOL    HW218903   1.262   0.148   2.654  0.8328  0.3436  0.8692
 2423SOL     OW18904   3.148   0.256   5.153  0.7460  0.2461  0.0095
 2423SOL    HW118905   3.110   0.210   5.078 -0.0687 -1.2538  1.3414
 2423SOL    HW218906   3.136   0.194   5.225  0.3495 -2.0814 -2.0592
 2424SOL     OW18907   0.601   3.330  13.266  0.0489 -0.3378 -0.3114
 2424SOL    HW118908   0.628   3.403  13.322 -1.9957 -0.1962  0.4741
 2424SOL    HW218909   0.519   3.299  13.303  1.1013  0.0998  2.3614
 2425SOL     OW18910   4.069   2.972   2.025 -0.9175  0.3834  1.2103
 2425SOL    HW118911   4.032   3.059   2.010 -0.4290  0.4112  0.1813
 2425SOL    HW218912   4.142   2.978   1.964 -0.3518 -1.6602  1.7073
 2426SOL     OW18913   2.060   0.426   0.185 -0.7500 -0.5491  0.7263
 2426SOL    HW118914   2.038   0.341   0.223 -1.4814  0.2649  2.1476
 2426SOL    HW218915   2.154   0.431   0.170 -1.2665 -0.1796 -2.3034
 2427SOL     OW18916   0.798   1.834   3.611 -0.2626 -0.2558  0.2808
 2427SOL    HW118917   0.785   1.798   3.699 -0.8444  0.6006  0.5497
 2427SOL    HW218918   0.728   1.899   3.615 -0.8911 -1.0275  1.7895
 2428SOL     OW18919   1.520   1.072   7.743 -0.3450  0.4923 -0.1364
 2428SOL    HW118920   1.536   1.093   7.835  2.2835  0.0192 -0.4716
 2428SOL    HW218921   1.587   1.004   7.734 -1.0341  0.4409 -4.6557
 2429SOL     OW18922   0.532   0.995  10.499 -0.0916  0.1733  0.0795
 2429SOL    HW118923   0.442   0.987  10.531  0.6786 -3.3472  1.4179
 2429SOL    HW218924   0.574   0.942  10.567 -0.3616 -0.4089 -0.2088
 2430SOL     OW18925   2.034   3.708   6.279  0.0705  0.2605 -0.4661
 2430SOL    HW118926   2.023   3.680   6.188  1.2603  3.7936 -1.6881
 2430SOL    HW218927   2.055   3.799   6.257 -2.3474  1.0877  0.6411
 2431SOL     OW18928   2.686   3.488   2.770 -0.2836  0.2064 -0.1892
 2431SOL    HW118929   2.630   3.440   2.831 -2.6509  1.1803 -1.6020
 2431SOL    HW218930   2.637   3.570   2.772 -1.0788 -0.3397  2.2182
 2432SOL     OW18931   3.951   2.737   7.386 -0.2662  0.3551  0.8091
 2432SOL    HW118932   3.893   2.671   7.425  4.3982 -3.3756  1.4356
 2432SOL    HW218933   3.894   2.812   7.371 -0.7705  0.1194  1.5399
 2433SOL     OW18934   1.050   1.683  12.859  0.1365 -0.0865  0.1313
 2433SOL    HW118935   0.966   1.677  12.904 -0.7459 -1.5071 -1.6830
 2433SOL    HW218936   1.047   1.596  12.819  0.1277 -0.6851  1.4621
 2434SOL     OW18937   3.136   1.012   4.975  0.9737  0.0902 -0.0465
 2434SOL    HW118938   3.084   0.993   5.053 -0.3595  0.6365 -0.7880
 2434SOL    HW218939   3.203   1.069   5.012  1.0349  0.1269 -0.2120
 2435SOL     OW18940   2.215   3.951   2.548  0.6868  0.3136 -0.6009
 2435SOL    HW118941   2.173   3.867   2.565  0.0636  0.6974 -0.2510
 2435SOL    HW218942   2.183   4.011   2.615 -0.4944  0.9658 -1.7365
 2436SOL     OW18943   3.130   1.914   4.375 -0.7812 -0.0751  0.7970
 2436SOL    HW118944   3.149   1.825   4.347 -0.1424  0.2229  0.2763
 2436SOL    HW218945   3.035   1.905   4.387 -0.8392  2.1095  1.9707
 2437SOL     OW18946   1.989   1.789   9.770  0.2651  0.3612 -0.2381
 2437SOL    HW118947   1.990   1.729   9.695 -2.6861  0.0000  0.0022
 2437SOL    HW218948   2.047   1.738   9.826  0.0893  1.7687  1.2207
 2438SOL     OW18949   2.221   4.231  13.963  0.0366  0.0923 -0.0694
 2438SOL    HW118950   2.286   4.184  14.014 -1.8297 -1.6247  0.7625
 2438SOL    HW218951   2.276   4.299  13.925 -0.0604  0.7653  1.0260
 2439SOL     OW18952   0.440   4.709   6.385  0.7448  0.0685  0.0305
 2439SOL    HW118953   0.408   4.652   6.316  1.1149  0.3487 -0.3705
 2439SOL    HW218954   0.493   0.029   6.332  0.8038  0.1527  0.1834
 2440SOL     OW18955   2.287   3.295   0.423  0.2884  0.2753 -0.9524
 2440SOL    HW118956   2.200   3.302   0.461 -0.0095  0.5811 -1.6951
 2440SOL    HW218957   2.335   3.363   0.470  2.2623  0.1346 -2.7225
 2441SOL     OW18958   2.988   4.513   6.193  0.1970 -0.1390 -0.1011
 2441SOL    HW118959   3.037   4.559   6.261  2.9569 -3.7598  0.3833
 2441SOL    HW218960   3.065   4.506   6.138  0.3588 -2.1743  0.3652
 2442SOL     OW18961   2.433   3.611   3.285  0.1367  0.3536 -0.5190
 2442SOL    HW118962   2.400   3.702   3.281  0.5559  0.5209 -0.1256
 2442SOL    HW218963   2.521   3.620   3.322 -0.2242  2.0904 -0.0469
 2443SOL     OW18964   1.384   3.669   1.239  0.4094  0.2825  0.2599
 2443SOL    HW118965   1.374   3.574   1.253 -0.5890  0.3595  0.0871
 2443SOL    HW218966   1.292   3.690   1.218 -0.6484 -2.5314  2.0674
 2444SOL     OW18967   0.260   3.110  17.302 -0.6242 -0.8527  0.7957
 2444SOL    HW118968   0.318   3.135  17.229  0.0041  1.4024  2.0502
 2444SOL    HW218969   0.202   3.186  17.302 -2.0051 -1.8994 -0.8643
 2445SOL     OW18970   1.730   1.594   6.493 -0.2924  0.4249 -0.2578
 2445SOL    HW118971   1.787   1.620   6.565  1.8626  0.1794 -1.8864
 2445SOL    HW218972   1.665   1.663   6.507 -1.9889 -1.1700 -0.2386
 2446SOL     OW18973   3.487   3.103   7.586  0.5220 -0.1228 -0.1542
 2446SOL    HW118974   3.500   3.016   7.624  0.1338 -0.7227 -1.3628
 2446SOL    HW218975   3.565   3.107   7.530  0.6793  0.7448  0.1354
 2447SOL     OW18976   0.424   3.770   5.800  0.2002 -0.4740  0.6734
 2447SOL    HW118977   0.515   3.797   5.785 -0.4071  1.4659  0.4753
 2447SOL    HW218978   0.377   3.829   5.741  1.1667  0.7855  1.1642
 2448SOL     OW18979   2.597   0.317   6.776  0.3990  0.0485 -0.8649
 2448SOL    HW118980   2.670   0.355   6.825 -0.1210  1.2429 -1.0249
 2448SOL    HW218981   2.651   0.269   6.713 -0.1980  1.9251 -2.8258
 2449SOL     OW18982   2.052   1.138  13.506 -0.2969  0.7999  0.0201
 2449SOL    HW118983   2.063   1.216  13.559 -1.4365 -0.1365  1.6587
 2449SOL    HW218984   2.108   1.086  13.564 -0.2341  0.4796 -0.3234
 2450SOL     OW18985   0.507   4.435   9.412  0.7124 -0.8258 -0.3483
 2450SOL    HW118986   0.516   4.410   9.504 -1.6976  1.0499  0.3951
 2450SOL    HW218987   0.418   4.410   9.387  1.4278 -0.7412 -3.0345
 2451SOL     OW18988   0.777   4.456  16.966 -0.0261 -0.3000  0.0583
 2451SOL    HW118989   0.684   4.454  16.948 -0.2767  2.3928  0.9292
 2451SOL    HW218990   0.806   4.480  16.878 -0.1408 -0.3080  0.0187
 2452SOL     OW18991   0.254   2.548  11.822 -0.3521  0.2397 -0.1783
 2452SOL    HW118992   0.308   2.597  11.759 -1.7067 -0.2691 -1.7503
 2452SOL    HW218993   0.279   2.460  11.793 -1.8556  0.1458 -1.1660
 2453SOL     OW18994   0.886   2.455   5.994  0.5346 -0.4318  0.7192
 2453SOL    HW118995   0.826   2.482   6.064 -0.4189 -1.3922  0.2676
 2453SOL    HW218996   0.956   2.417   6.048  1.0557  0.0863  0.4142
 2454SOL     OW18997   1.943   2.000   5.452 -0.7867  0.0701  0.0676
 2454SOL    HW118998   1.857   2.032   5.479 -0.2074  1.4311  0.3130
 2454SOL    HW218999   1.935   1.908   5.477  0.5995  0.1017  0.6533
 2455SOL     OW19000   4.294   0.567   8.810  0.3114  0.1297  0.4958
 2455SOL    HW119001   4.225   0.606   8.757 -0.0428 -1.5267 -0.2449
 2455SOL    HW219002   4.256   0.483   8.837 -3.2299  0.8369 -2.3216
 2456SOL     OW19003   2.683   3.661   7.406 -0.1407 -0.1869 -0.3205
 2456SOL    HW119004   2.617   3.597   7.431 -0.1935  0.3813  0.9937
 2456SOL    HW219005   2.756   3.630   7.460 -1.0040 -1.6403 -0.0093
 2457SOL     OW19006   2.428   1.310   4.061  0.0278  0.3689  0.1870
 2457SOL    HW119007   2.444   1.363   3.983  0.9227 -0.0011  0.1118
 2457SOL    HW219008   2.440   1.222   4.025 -0.3701  0.9386 -1.3364
 2458SOL     OW19009   3.942   1.069   1.624 -0.3298  0.4470 -0.1387
 2458SOL    HW119010   3.977   1.014   1.694 -1.3662 -0.6599 -0.4853
 2458SOL    HW219011   3.947   1.151   1.674 -0.9364  1.0454 -1.0468
 2459SOL     OW19012   2.589   4.668   3.574 -0.1869  0.0804  0.0773
 2459SOL    HW119013   2.588   0.000   3.510 -1.1516 -0.9894 -1.0982
 2459SOL    HW219014   2.495   4.661   3.590 -0.2933 -0.2364 -0.7172
 2460SOL     OW19015   0.855   0.754  13.090  0.1184  0.3545  0.8766
 2460SOL    HW119016   0.881   0.684  13.031 -0.9766 -0.4437  1.3516
 2460SOL    HW219017   0.830   0.825  13.030 -1.8955 -1.8911 -0.9199
 2461SOL     OW19018   1.418   1.897   5.285  0.3685  0.0690  0.1818
 2461SOL    HW119019   1.434   1.872   5.194  1.6919 -0.7596  0.6359
 2461SOL    HW219020   1.479   1.971   5.292  0.7635 -0.0553 -1.9072
 2462SOL     OW19021   3.474   1.689   4.349 -0.3301  0.9536  0.4424
 2462SOL    HW119022   3.515   1.734   4.423  1.4494 -2.2959  1.4716
 2462SOL    HW219023   3.528   1.612   4.334 -2.7313 -0.9135  1.3012
 2463SOL     OW19024   0.034   1.746   6.092 -0.0905 -0.2237  0.1298
 2463SOL    HW119025   0.028   1.656   6.126  0.0946 -0.5495 -0.7057
 2463SOL    HW219026   0.119   1.749   6.047 -0.2187 -0.2770 -0.1118
 2464SOL     OW19027   3.069   4.188   7.711  0.0388 -0.3053  0.5745
 2464SOL    HW119028   3.133   4.189   7.782 -1.3924 -0.1647  1.8569
 2464SOL    HW219029   3.125   4.191   7.633 -3.0865 -3.1814 -1.7883
 2465SOL     OW19030   3.604   3.946   6.691  0.7855 -0.2677 -0.0999
 2465SOL    HW119031   3.698   3.930   6.682  0.8811  0.1168  0.1886
 2465SOL    HW219032   3.599   3.941   6.787 -1.9776  1.3428 -0.1763
 2466SOL     OW19033   3.702   0.162   5.701  0.0422 -0.1560  0.5718
 2466SOL    HW119034   3.759   0.234   5.674 -0.0518 -0.8200 -1.4496
 2466SOL    HW219035   3.657   0.199   5.777  0.8994  1.0101  0.5084
 2467SOL     OW19036   2.766   3.247   9.579 -0.5419  0.2414 -0.1153
 2467SOL    HW119037   2.775   3.220   9.488  1.4064  2.3602 -0.5509
 2467SOL    HW219038   2.682   3.208   9.603 -0.9604  0.5473 -1.1343
 2468SOL     OW19039   1.189   0.138   8.399  0.1555 -0.2712 -0.0064
 2468SOL    HW119040   1.249   0.109   8.329 -0.5266  0.2645 -0.8101
 2468SOL    HW219041   1.110   0.156   8.349  0.7894 -1.0643 -1.2971
 2469SOL     OW19042   2.032   3.666   6.859 -0.1403 -0.4727 -0.5309
 2469SOL    HW119043   2.016   3.690   6.767  0.2778 -1.3935 -0.8506
 2469SOL    HW219044   1.941   3.674   6.887  0.2345  2.0451 -0.0425
 2470SOL     OW19045   3.999   4.194   4.630  0.3433 -0.2504 -0.0747
 2470SOL    HW119046   4.002   4.247   4.550 -0.3970 -1.1479 -0.6897
 2470SOL    HW219047   3.923   4.219   4.683  1.4270  1.2745  0.7806
 2471SOL     OW19048   1.251   4.299   6.186  0.2299 -0.0618 -0.0556
 2471SOL    HW119049   1.297   4.382   6.195 -2.2221  1.2613  0.2346
 2471SOL    HW219050   1.225   4.275   6.275  1.5660 -1.3478 -0.0091
 2472SOL     OW19051   1.966   1.472   3.080  0.5799  0.9263  0.0675
 2472SOL    HW119052   1.963   1.507   3.169 -0.6579  1.0501 -0.0165
 2472SOL    HW219053   1.875   1.445   3.067  0.7992 -0.2638  1.0955
 2473SOL     OW19054   4.084   3.162   9.407  0.0695 -0.4425 -0.9210
 2473SOL    HW119055   4.025   3.173   9.332 -0.6043 -0.2439 -0.3705
 2473SOL    HW219056   4.111   3.254   9.407 -0.5453 -0.2646  4.2255
 2474SOL     OW19057   3.247   2.828   0.081  0.1073  0.2306 -0.0768
 2474SOL    HW119058   3.291   2.869   0.007 -0.3590  1.1522  0.1541
 2474SOL    HW219059   3.153   2.839   0.070  0.1396 -0.4239 -0.9662
 2475SOL     OW19060   3.115   2.878   3.899  0.4218 -0.1461 -0.0123
 2475SOL    HW119061   3.204   2.902   3.874  0.0032  3.0996  1.6121
 2475SOL    HW219062   3.117   2.832   3.982  1.1468  2.3023  1.3041
 2476SOL     OW19063   1.706   3.121   3.700  0.6955 -0.1654 -0.0666
 2476SOL    HW119064   1.695   3.098   3.608  1.0583  1.0961 -0.4133
 2476SOL    HW219065   1.709   3.036   3.745  0.7052 -0.0099  0.2285
 2477SOL     OW19066   2.893   0.736  11.986 -0.0513  0.2953  0.1760
 2477SOL    HW119067   2.961   0.726  11.919  0.4994 -1.7251  1.0222
 2477SOL    HW219068   2.911   0.828  12.005  2.0788 -0.3796  1.3542
 2478SOL     OW19069   3.148   1.367   6.629  0.5836  0.2486  0.1067
 2478SOL    HW119070   3.182   1.403   6.547 -1.0584  0.3385 -0.5283
 2478SOL    HW219071   3.062   1.338   6.601  0.4094 -0.7915  1.7498
 2479SOL     OW19072   1.434   0.323   4.944  0.3900  0.0580 -0.2903
 2479SOL    HW119073   1.477   0.296   5.025  0.5386  2.9697  0.6287
 2479SOL    HW219074   1.381   0.248   4.918  0.1546  0.6512 -1.5643
 2480SOL     OW19075   1.277   3.461   2.114 -0.0118  0.8675  0.5695
 2480SOL    HW119076   1.305   3.499   2.197  1.9857 -2.9099  1.6100
 2480SOL    HW219077   1.290   3.533   2.051 -1.9356  0.1518 -0.6423
 2481SOL     OW19078   1.560   4.616  13.994 -0.3137  0.0397 -0.2216
 2481SOL    HW119079   1.588   4.537  13.948  0.0792  0.7742 -1.2631
 2481SOL    HW219080   1.592   4.675  13.925 -1.8018  2.0420  0.7784
 2482SOL     OW19081   1.483   0.885   5.709  0.0482 -0.4798  0.4718
 2482SOL    HW119082   1.576   0.886   5.732 -0.1849  0.6358  1.3338
 2482SOL    HW219083   1.489   0.969   5.664  1.4420 -0.3225  0.9440
 2483SOL     OW19084   1.496   3.376   3.044  0.0044 -0.4279  0.7630
 2483SOL    HW119085   1.514   3.468   3.023  1.5879 -0.4740  1.8773
 2483SOL    HW219086   1.483   3.379   3.139 -0.4447 -0.7508  0.7099
 2484SOL     OW19087   4.559   2.205   3.708 -0.1595 -0.7831  0.7530
 2484SOL    HW119088   4.583   2.149   3.781  0.2032  1.8391  2.6306
 2484SOL    HW219089   4.640   2.216   3.658 -0.8380  0.8620  0.0018
 2485SOL     OW19090   2.055   2.957   0.921 -0.0020 -0.0193  0.2600
 2485SOL    HW119091   2.129   2.977   0.865 -1.7235  0.0535 -1.9969
 2485SOL    HW219092   1.984   2.994   0.869 -0.1334  0.3145  0.6698
 2486SOL     OW19093   1.062   1.669   4.379 -0.1241  0.4428 -0.0714
 2486SOL    HW119094   1.008   1.725   4.324 -2.0305  0.4254  1.7645
 2486SOL    HW219095   1.006   1.637   4.450 -0.0764 -0.4595 -0.4415
 2487SOL     OW19096   1.321   0.435   5.503 -0.2694  0.2810 -0.1296
 2487SOL    HW119097   1.391   0.500   5.513 -0.1877  0.1232  0.3175
 2487SOL    HW219098   1.286   0.467   5.420 -1.3486  0.4339  0.3766
 2488SOL     OW19099   3.927   1.729  14.080 -0.1787 -0.3994 -0.3495
 2488SOL    HW119100   3.946   1.637  14.062  2.2993 -0.1055  0.7228
 2488SOL    HW219101   3.885   1.751  13.997  0.2936  1.0285 -0.2226
 2489SOL     OW19102   4.005   4.205   8.972 -0.0183 -0.0925  0.1483
 2489SOL    HW119103   4.026   4.214   9.065 -1.6076  0.1826  0.4728
 2489SOL    HW219104   3.959   4.121   8.971  0.3616 -0.2890 -0.9202
 2490SOL     OW19105   4.222   3.596   4.780 -0.5195 -0.2835  0.1461
 2490SOL    HW119106   4.199   3.582   4.688 -0.6982 -1.5836  0.3919
 2490SOL    HW219107   4.279   3.524   4.805 -0.1135 -0.3047 -0.8338
 2491SOL     OW19108   4.170   2.336   8.833  0.0891  0.1520  0.0366
 2491SOL    HW119109   4.261   2.349   8.807 -0.4653  2.7643 -0.5162
 2491SOL    HW219110   4.130   2.420   8.812 -0.6353 -0.3072 -0.4221
 2492SOL     OW19111   2.083   4.018   2.274  0.0695  0.9873 -0.0887
 2492SOL    HW119112   2.123   4.022   2.361 -0.2653  3.1944 -0.0404
 2492SOL    HW219113   2.142   4.070   2.220  2.7335 -2.5545 -0.6009
 2493SOL     OW19114   0.005   3.881   6.994  0.1547  0.0350 -0.3226
 2493SOL    HW119115   0.038   3.819   6.928 -1.8039  0.5720 -1.8176
 2493SOL    HW219116   0.017   3.835   7.077 -1.8510 -0.7650 -0.4720
 2494SOL     OW19117   0.496   0.833   4.181 -0.3491  0.2615  0.3940
 2494SOL    HW119118   0.587   0.820   4.154 -0.5843  3.0632 -1.7183
 2494SOL    HW219119   0.473   0.743   4.205 -1.0396  0.1468 -0.6704
 2495SOL     OW19120   2.893   1.689   9.656  0.5071 -0.6222 -0.0378
 2495SOL    HW119121   2.947   1.610   9.655 -0.1512 -1.0584 -0.7391
 2495SOL    HW219122   2.817   1.667   9.603  1.0959 -0.7233 -0.8436
 2496SOL     OW19123   2.174   0.834  12.703 -0.1670  1.1761  0.2350
 2496SOL    HW119124   2.147   0.811  12.614  0.5828 -1.0779  0.5762
 2496SOL    HW219125   2.260   0.874  12.691  0.3940 -0.3225 -0.7286
 2497SOL     OW19126   1.755   3.902   5.256 -0.1364  0.0699 -0.0746
 2497SOL    HW119127   1.798   3.865   5.332 -1.0384 -0.9188 -0.0437
 2497SOL    HW219128   1.689   3.967   5.281  0.9604  0.5603  1.5452
 2498SOL     OW19129   0.572   2.472  17.420  0.3571 -0.0457 -0.5228
 2498SOL    HW119130   0.611   2.560  17.414 -1.0324  0.4865 -1.7984
 2498SOL    HW219131   0.637   2.438  17.481  0.6788  0.8635 -0.3494
 2499SOL     OW19132   0.210   0.467   8.767 -0.0043  0.2424 -0.0641
 2499SOL    HW119133   0.219   0.417   8.848 -3.2524  0.7878  0.6275
 2499SOL    HW219134   0.302   0.495   8.768  0.0815  0.0923 -2.3814
 2500SOL     OW19135   4.176   3.898   6.483  0.3926  0.3891 -0.1233
 2500SOL    HW119136   4.160   3.811   6.445 -0.3058 -0.3413  1.8313
 2500SOL    HW219137   4.220   3.872   6.564  2.9981  1.3358 -1.2368
 2501SOL     OW19138   4.594   4.052   3.028  0.1074  0.1239 -0.0204
 2501SOL    HW119139   4.565   4.131   3.074 -2.3022 -0.1389 -1.0979
 2501SOL    HW219140   4.566   3.986   3.091 -0.8661  0.8913  0.3528
 2502SOL     OW19141   4.186   0.936  10.169  0.1101 -0.6995 -0.6459
 2502SOL    HW119142   4.172   0.846  10.199 -2.0317 -0.2922 -0.4254
 2502SOL    HW219143   4.141   0.983  10.239  3.3867 -1.0323  1.6819
 2503SOL     OW19144   0.348   2.182   5.578  0.0215 -0.2957  0.0482
 2503SOL    HW119145   0.394   2.156   5.498  0.4076  0.3922  0.0516
 2503SOL    HW219146   0.258   2.185   5.546  0.0327  2.0894  0.2960
 2504SOL     OW19147   0.215   4.574  16.480  0.1070 -0.6276  0.2445
 2504SOL    HW119148   0.281   4.556  16.413 -0.6317  0.8488 -0.8832
 2504SOL    HW219149   0.200   4.667  16.462  1.1025 -0.1876  1.6969
 2505SOL     OW19150   2.929   0.385  15.711 -0.2086  0.0178 -0.1077
 2505SOL    HW119151   3.020   0.356  15.709  0.4618  2.1739 -1.0317
 2505SOL    HW219152   2.928   0.472  15.670  3.0286  0.8982  1.7435
 2506SOL     OW19153   3.125   2.547   7.807  0.1366  0.2203  0.4103
 2506SOL    HW119154   3.079   2.548   7.891  0.3710 -0.4376  0.5448
 2506SOL    HW219155   3.042   2.544   7.760  0.0435 -1.7248  0.6852
 2507SOL     OW19156   3.856   2.918   4.556  0.2702  0.3123 -0.2796
 2507SOL    HW119157   3.802   2.851   4.514  1.1611 -0.2244 -0.5471
 2507SOL    HW219158   3.782   2.969   4.589  0.5724  0.2256  0.5232
 2508SOL     OW19159   0.248   0.917   9.230 -0.1391 -0.0304  0.2356
 2508SOL    HW119160   0.294   0.905   9.146  1.7691 -0.0980  1.2918
 2508SOL    HW219161   0.161   0.927   9.191  0.2664 -1.6503 -1.0994
 2509SOL     OW19162   4.518   4.221   3.462 -0.8754 -0.1295  0.5445
 2509SOL    HW119163   4.577   4.146   3.461 -0.2450  0.4506 -4.2041
 2509SOL    HW219164   4.532   4.244   3.370  0.0114 -0.6821  0.5372
 2510SOL     OW19165   1.411   2.932  16.021  0.0975  0.2326 -0.1666
 2510SOL    HW119166   1.431   3.021  16.050 -1.6336  0.3436  0.6782
 2510SOL    HW219167   1.320   2.946  15.994  0.2055  1.5957  0.1989
 2511SOL     OW19168   3.435   0.596   9.472  0.1181  0.2454  0.2955
 2511SOL    HW119169   3.371   0.664   9.450  0.9734  0.8572 -0.3119
 2511SOL    HW219170   3.514   0.644   9.448  1.1599 -1.8428 -0.3953
 2512SOL     OW19171   2.306   0.408   8.439 -0.1585 -0.2817  0.1419
 2512SOL    HW119172   2.383   0.416   8.383 -0.3412 -1.1219 -0.2280
 2512SOL    HW219173   2.288   0.314   8.444  3.2200 -1.0015 -1.0227
 2513SOL     OW19174   2.725   0.503   4.455  0.4153 -0.2113  0.2794
 2513SOL    HW119175   2.732   0.420   4.408 -0.4950  2.1260 -3.9616
 2513SOL    HW219176   2.774   0.482   4.535  1.4709 -1.7737 -0.7703
 2514SOL     OW19177   1.333   2.245   3.724 -0.7914  0.0870 -0.0832
 2514SOL    HW119178   1.404   2.299   3.688  2.1730 -0.8662  4.3485
 2514SOL    HW219179   1.295   2.212   3.643 -1.6434  2.3498 -0.6250
 2515SOL     OW19180   3.932   2.133   5.455 -0.1809 -0.3934 -0.2122
 2515SOL    HW119181   3.929   2.037   5.459  0.9012 -0.3929  0.5347
 2515SOL    HW219182   3.842   2.162   5.470  0.0915  0.6522 -0.6436
 2516SOL     OW19183   2.465   3.552   4.262  0.1242 -0.3056  0.2156
 2516SOL    HW119184   2.479   3.636   4.218 -0.2072  1.3986  3.3140
 2516SOL    HW219185   2.382   3.520   4.226  0.9939 -1.9042 -0.3192
 2517SOL     OW19186   3.918   3.347  12.999  0.7616 -0.4079 -0.4549
 2517SOL    HW119187   3.909   3.439  12.976  0.7367  0.3210  2.4953
 2517SOL    HW219188   3.834   3.318  13.035  0.2173 -0.9245 -2.1564
 2518SOL     OW19189   3.018   1.032   5.381  0.1003  0.1697  0.1003
 2518SOL    HW119190   2.934   1.058   5.419 -0.5775  0.1764 -1.3760
 2518SOL    HW219191   2.986   0.986   5.303  2.8180 -1.3011 -0.1520
 2519SOL     OW19192   2.514   4.339   5.632 -0.8546 -0.6013 -0.4824
 2519SOL    HW119193   2.471   4.254   5.632 -2.1145  0.0255  3.5614
 2519SOL    HW219194   2.599   4.307   5.605 -0.4661  0.6320 -0.7431
 2520SOL     OW19195   0.472   4.444   4.473 -0.8323  0.1483  0.7099
 2520SOL    HW119196   0.495   4.392   4.396 -1.8042 -0.1915  0.6435
 2520SOL    HW219197   0.378   4.426   4.482 -0.2234 -2.8871  0.8302
 2521SOL     OW19198   3.843   3.839   1.434 -0.5641  0.4453  0.0459
 2521SOL    HW119199   3.851   3.779   1.509 -1.3159 -0.3948 -0.5519
 2521SOL    HW219200   3.813   3.918   1.479 -1.3691  0.2877 -0.2149
 2522SOL     OW19201   1.662   4.428  13.807 -0.6023  0.1957  0.4582
 2522SOL    HW119202   1.599   4.390  13.745  0.1574 -2.3098  1.2154
 2522SOL    HW219203   1.741   4.387  13.770 -1.3436  0.3221 -1.2829
 2523SOL     OW19204   4.417   2.164   7.204  0.8378  0.1221  0.1687
 2523SOL    HW119205   4.406   2.241   7.259 -0.3855  0.9293 -1.2149
 2523SOL    HW219206   4.335   2.157   7.156  0.9468  1.9739 -0.2684
 2524SOL     OW19207   1.393   1.123   8.172 -0.3212  0.2652  0.0566
 2524SOL    HW119208   1.449   1.082   8.107  1.8693  3.0545  0.1667
 2524SOL    HW219209   1.399   1.060   8.244 -2.0508  1.8950  1.6650
 2525SOL     OW19210   4.064   1.075   1.341  0.4495 -1.1840 -0.5482
 2525SOL    HW119211   4.154   1.043   1.343  0.1180 -2.0973  0.1090
 2525SOL    HW219212   4.043   1.061   1.434 -1.9785  0.0394 -0.9256
 2526SOL     OW19213   4.097   4.050   5.998 -0.1605 -0.0221 -0.4493
 2526SOL    HW119214   4.009   4.013   6.004 -0.4438  1.3301  3.4457
 2526SOL    HW219215   4.131   4.046   6.087  0.2930  0.0691 -0.6145
 2527SOL     OW19216   1.240   2.359  13.833 -0.8948 -0.5599 -0.4283
 2527SOL    HW119217   1.155   2.367  13.876 -0.6044 -1.5240  0.3209
 2527SOL    HW219218   1.266   2.275  13.870  0.1319 -0.8297 -1.7836
 2528SOL     OW19219   2.919   4.268  15.099 -0.4807  0.3059 -0.1891
 2528SOL    HW119220   2.977   4.314  15.159  0.4489  0.6858 -1.3762
 2528SOL    HW219221   2.984   4.249  15.031  1.4467 -3.8607  2.8038
 2529SOL     OW19222   4.117   0.722   6.764  0.1556 -0.3634 -0.1863
 2529SOL    HW119223   4.036   0.766   6.789  0.3195  0.2597 -0.7681
 2529SOL    HW219224   4.154   0.678   6.840  0.0356  0.2853  0.2530
 2530SOL     OW19225   1.777   0.962   3.846 -0.2666  0.2210 -0.2485
 2530SOL    HW119226   1.756   1.054   3.830  0.6578  0.6828  1.1923
 2530SOL    HW219227   1.691   0.922   3.844  0.6188 -1.7678  1.2099
 2531SOL     OW19228   3.280   4.716   3.352  0.2845 -0.9184  0.1197
 2531SOL    HW119229   3.286   0.032   3.430  0.7424  1.0907 -1.3485
 2531SOL    HW219230   3.203   0.023   3.319  1.4226 -0.5407 -1.9884
 2532SOL     OW19231   2.876   4.559   0.535 -0.2066  0.0732 -0.5392
 2532SOL    HW119232   2.948   4.525   0.482  2.0757 -1.1058  3.3661
 2532SOL    HW219233   2.878   4.498   0.608 -0.2452 -1.5430 -1.8977
 2533SOL     OW19234   2.198   1.129   2.464 -0.1861 -0.2404 -0.4865
 2533SOL    HW119235   2.131   1.196   2.475  0.6369  0.4324  0.4419
 2533SOL    HW219236   2.271   1.154   2.522  0.7148  2.2582 -2.7016
 2534SOL     OW19237   1.811   3.196   7.735 -0.1720 -0.1079  0.0558
 2534SOL    HW119238   1.739   3.208   7.674 -0.3941  0.1247  0.3634
 2534SOL    HW219239   1.774   3.227   7.818  0.7951  0.6344  0.2212
 2535SOL     OW19240   2.345   1.323  14.177 -0.4158  0.1654 -0.0510
 2535SOL    HW119241   2.379   1.238  14.206 -0.9942  0.7659  2.4103
 2535SOL    HW219242   2.428   1.366  14.157  0.0001 -1.6868 -2.2229
 2536SOL     OW19243   3.647   3.107   4.584  0.5813 -0.3086 -0.5939
 2536SOL    HW119244   3.567   3.107   4.531 -0.0788  0.6201  0.4193
 2536SOL    HW219245   3.655   3.200   4.605 -0.3827 -0.1909 -0.7388
 2537SOL     OW19246   4.386   0.419   0.810  0.4316  0.5402 -0.0542
 2537SOL    HW119247   4.437   0.343   0.783  0.4051 -0.3197  2.3178
 2537SOL    HW219248   4.377   0.384   0.898 -0.3926  1.1890  0.1194
 2538SOL     OW19249   3.801   2.256  10.933 -0.5333  0.4672 -0.0256
 2538SOL    HW119250   3.851   2.329  10.896  0.2614  0.0057  0.1419
 2538SOL    HW219251   3.833   2.273  11.022  0.7837 -0.7456 -0.2704
 2539SOL     OW19252   2.755   0.498   0.748 -0.2643 -0.3260  0.3220
 2539SOL    HW119253   2.833   0.553   0.752 -1.5519  1.3987  1.7982
 2539SOL    HW219254   2.720   0.513   0.836  0.1165  0.2705  0.3686
 2540SOL     OW19255   1.123   0.309   7.138  0.5772  0.3854  0.2739
 2540SOL    HW119256   1.070   0.238   7.175 -1.4931  0.9861 -1.5542
 2540SOL    HW219257   1.206   0.262   7.136  0.5903  0.3645  1.6346
 2541SOL     OW19258   0.562   1.930   8.195 -0.0823  0.0616  0.6766
 2541SOL    HW119259   0.498   2.000   8.213 -1.4243 -0.6079 -1.3698
 2541SOL    HW219260   0.641   1.982   8.181  0.1145 -0.2976  0.4806
 2542SOL     OW19261   3.723   0.615   7.346  0.5722  0.3238  0.4122
 2542SOL    HW119262   3.764   0.539   7.305 -1.9778 -0.7906 -0.0692
 2542SOL    HW219263   3.776   0.690   7.317  0.6416  0.6838  1.4422
 2543SOL     OW19264   2.671   3.811   5.113 -0.5327  0.4506  0.2580
 2543SOL    HW119265   2.691   3.890   5.063 -1.5025 -0.7758 -2.0661
 2543SOL    HW219266   2.575   3.803   5.112 -0.4921  0.6851 -3.5784
 2544SOL     OW19267   2.285   3.767   0.958  0.2339  0.2054  0.1226
 2544SOL    HW119268   2.293   3.779   1.053  1.4060 -0.4967  0.1114
 2544SOL    HW219269   2.215   3.828   0.935 -0.4274  0.0375  1.6641
 2545SOL     OW19270   0.442   3.303  11.025  0.1440 -0.0042  0.4815
 2545SOL    HW119271   0.517   3.352  11.059 -0.4271 -1.9298  4.5334
 2545SOL    HW219272   0.428   3.340  10.938 -1.2224  2.4870  1.7510
 2546SOL     OW19273   0.042   3.293   6.370  0.0178  0.6104  0.2423
 2546SOL    HW119274   4.685   3.295   6.370  0.0335  1.6837  2.3910
 2546SOL    HW219275   0.065   3.212   6.325  0.1425  1.7485 -1.7409
 2547SOL     OW19276   0.947   2.144  11.463  0.1522 -0.2232  0.1758
 2547SOL    HW119277   0.854   2.123  11.460  0.2685 -0.3388 -2.2066
 2547SOL    HW219278   0.967   2.104  11.548 -0.6416 -3.1370 -1.0168
 2548SOL     OW19279   0.914   0.049   8.548 -0.3875  0.0934 -0.2781
 2548SOL    HW119280   0.819   0.041   8.557 -0.4480 -1.2106 -2.1329
 2548SOL    HW219281   0.910   0.114   8.478  0.3594  0.4101 -0.0267
 2549SOL     OW19282   0.702   1.927   8.556 -0.5789  0.2654 -0.1836
 2549SOL    HW119283   0.758   1.904   8.483  0.6366 -0.0516  0.8524
 2549SOL    HW219284   0.679   2.012   8.518 -0.7660  0.5292  0.5043
 2550SOL     OW19285   1.074   2.645   0.337 -0.7330 -0.2392 -0.0475
 2550SOL    HW119286   1.064   2.555   0.365 -2.1425  0.2135  0.8986
 2550SOL    HW219287   0.990   2.660   0.294 -0.0934  2.2055 -0.4479
 2551SOL     OW19288   1.570   1.656   5.458 -0.2090  0.0013 -0.2776
 2551SOL    HW119289   1.480   1.690   5.460 -0.4332 -0.6195  0.1815
 2551SOL    HW219290   1.568   1.590   5.527 -3.8950  1.4199  0.9609
 2552SOL     OW19291   1.893   0.506   2.542 -0.4671  0.0250  0.1096
 2552SOL    HW119292   1.966   0.483   2.484 -0.0279 -0.6348  0.9119
 2552SOL    HW219293   1.917   0.596   2.566 -0.3841  0.5181 -1.7850
 2553SOL     OW19294   1.179   0.760   0.536  0.3475 -0.6846 -0.3452
 2553SOL    HW119295   1.139   0.697   0.476 -0.4103  1.1718 -1.7681
 2553SOL    HW219296   1.140   0.846   0.519  0.5183 -0.5712 -0.1644
 2554SOL     OW19297   0.814   3.277   9.219 -0.2746  0.3311  0.2708
 2554SOL    HW119298   0.750   3.208   9.236 -0.8356  1.2178  1.6785
 2554SOL    HW219299   0.877   3.235   9.277  0.9863 -0.6277 -1.7844
 2555SOL     OW19300   0.885   1.347   7.814  0.7145 -0.2472 -0.3797
 2555SOL    HW119301   0.813   1.404   7.838 -0.5397 -1.8431 -0.3540
 2555SOL    HW219302   0.965   1.385   7.851  1.5937 -2.2317 -0.2010
 2556SOL     OW19303   2.800   2.038   4.707 -0.0130 -0.2504  0.3902
 2556SOL    HW119304   2.849   1.977   4.652  1.6430 -0.4106  2.0430
 2556SOL    HW219305   2.714   2.006   4.680 -0.5717 -1.5068  3.5537
 2557SOL     OW19306   2.001   3.426   5.537 -0.3767 -0.3202  0.4500
 2557SOL    HW119307   1.919   3.459   5.501 -0.1473 -0.2984 -0.0593
 2557SOL    HW219308   2.054   3.506   5.531  0.2359 -0.7064  0.6669
 2558SOL     OW19309   4.328   0.768  12.688 -0.0041  0.0458 -0.1878
 2558SOL    HW119310   4.317   0.675  12.668  0.1549  0.2322 -1.1721
 2558SOL    HW219311   4.299   0.808  12.606  0.6862  1.9095  0.4967
 2559SOL     OW19312   4.231   1.219   1.057  0.1226  1.1668  0.2933
 2559SOL    HW119313   4.240   1.128   1.084 -0.8159  1.8395  2.8696
 2559SOL    HW219314   4.267   1.275   1.126 -0.0910  0.8245  0.6801
 2560SOL     OW19315   1.696   3.171   4.320 -0.3320 -0.7099  0.6363
 2560SOL    HW119316   1.787   3.151   4.339 -0.1912 -1.5428 -0.9391
 2560SOL    HW219317   1.650   3.117   4.384  1.5442 -1.6944  1.1294
 2561SOL     OW19318   4.623   3.320  15.947 -0.3381 -0.1635 -0.3960
 2561SOL    HW119319   4.634   3.334  16.041  0.4926 -0.9170 -0.3900
 2561SOL    HW219320   4.541   3.273  15.937  0.0398 -1.3761  2.2004
 2562SOL     OW19321   2.049   3.204   0.589 -0.7424 -0.1965 -0.2017
 2562SOL    HW119322   2.097   3.257   0.653  1.0714 -0.6770 -1.1948
 2562SOL    HW219323   1.994   3.142   0.636  0.8618  0.1896  2.1912
 2563SOL     OW19324   2.054   4.536   2.088 -0.0209 -0.6829 -0.2061
 2563SOL    HW119325   2.010   4.487   2.158 -1.1918  3.0554  1.6726
 2563SOL    HW219326   2.029   4.488   2.009  1.8023 -1.6465 -0.1969
 2564SOL     OW19327   3.313   1.812  11.872  0.6273 -0.8822  0.6078
 2564SOL    HW119328   3.333   1.722  11.847 -0.9247 -0.6444 -1.4282
 2564SOL    HW219329   3.292   1.806  11.965  1.6767 -0.8101  0.8488
 2565SOL     OW19330   2.210   3.566   1.400 -0.4975 -0.0537  0.0776
 2565SOL    HW119331   2.300   3.536   1.413 -0.1970 -0.3972 -2.6497
 2565SOL    HW219332   2.180   3.480   1.368  1.5468 -0.3816 -0.9467
 2566SOL     OW19333   3.771   4.554   4.072  0.3369  0.4502 -0.0540
 2566SOL    HW119334   3.866   4.544   4.064  0.1012 -2.1532  0.3231
 2566SOL    HW219335   3.766   4.631   4.016  0.0834 -0.0617 -0.7362
 2567SOL     OW19336   2.553   4.319   8.716  0.6282  0.0785  0.5881
 2567SOL    HW119337   2.643   4.351   8.713  0.8200 -0.6953 -1.4681
 2567SOL    HW219338   2.561   4.264   8.638  0.6824 -0.3587  0.9024
 2568SOL     OW19339   1.397   4.298   6.598  0.0301 -0.2931  0.2796
 2568SOL    HW119340   1.457   4.223   6.599  0.5499  0.1162  0.0461
 2568SOL    HW219341   1.423   4.342   6.679 -0.7976  1.1464 -0.2454
 2569SOL     OW19342   4.347   3.433  12.196 -0.3126 -0.5217 -0.1852
 2569SOL    HW119343   4.297   3.408  12.117 -1.1202  1.9639 -0.4780
 2569SOL    HW219344   4.405   3.503  12.167  1.1744 -0.8156  2.1095
 2570SOL     OW19345   2.882   1.689   7.832  0.4261  0.1596 -0.1042
 2570SOL    HW119346   2.874   1.749   7.906  0.5875 -0.9669  0.8262
 2570SOL    HW219347   2.857   1.610   7.880 -0.1470  1.2936  1.4561
 2571SOL     OW19348   2.940   2.916  13.870 -0.0179  0.3948 -0.2595
 2571SOL    HW119349   2.911   2.978  13.803 -0.4394 -0.6065 -0.9963
 2571SOL    HW219350   2.995   2.970  13.928 -0.3305  1.6419 -1.1242
 2572SOL     OW19351   3.528   3.252   1.654 -0.1082 -0.6607 -0.2924
 2572SOL    HW119352   3.540   3.332   1.603  0.5904  0.3104  1.4247
 2572SOL    HW219353   3.435   3.228   1.648 -0.8019  1.8189  0.9128
 2573SOL     OW19354   2.824   1.924  17.091  0.1110  0.2580 -0.0980
 2573SOL    HW119355   2.817   2.019  17.094 -0.0132  0.2513 -0.1918
 2573SOL    HW219356   2.870   1.912  17.008 -0.1751  1.3693 -0.4089
 2574SOL     OW19357   2.861   3.197   5.690 -0.4357 -0.1450  0.5652
 2574SOL    HW119358   2.935   3.139   5.673  0.0303 -0.0971  2.4603
 2574SOL    HW219359   2.875   3.238   5.775  4.3526  0.1785 -0.3997
 2575SOL     OW19360   0.480   4.684   3.313 -0.6946 -0.3331 -0.4275
 2575SOL    HW119361   0.462   4.670   3.406 -2.4934  0.5741 -0.6321
 2575SOL    HW219362   0.391   4.686   3.278 -0.4675 -2.4548 -1.0937
 2576SOL     OW19363   2.720   2.292  11.788  0.2297  0.1023  0.1716
 2576SOL    HW119364   2.815   2.302  11.786  0.3486 -0.5934  1.8796
 2576SOL    HW219365   2.704   2.208  11.832  0.3573 -0.8479 -1.6092
 2577SOL     OW19366   3.734   3.086  12.225  0.0001  0.0273  0.3805
 2577SOL    HW119367   3.659   3.131  12.264 -0.8505 -1.7165  0.7644
 2577SOL    HW219368   3.737   3.135  12.143 -0.5923  1.3897  1.1777
 2578SOL     OW19369   4.509   3.424   7.480  0.3997 -0.2499  0.6948
 2578SOL    HW119370   4.467   3.360   7.538  0.2336 -0.5289  0.2617
 2578SOL    HW219371   4.492   3.505   7.530  0.6022  0.5638 -0.5572
 2579SOL     OW19372   2.607   2.554   4.114  0.0605  0.5984  0.6408
 2579SOL    HW119373   2.660   2.495   4.167 -1.5029 -0.0318  1.5376
 2579SOL    HW219374   2.661   2.632   4.127  1.9139 -0.4822 -0.6489
 2580SOL     OW19375   0.451   1.862   7.953 -0.3241 -0.2430 -0.1253
 2580SOL    HW119376   0.378   1.843   8.012 -0.5074  1.1863  0.0899
 2580SOL    HW219377   0.526   1.885   8.009 -0.6990  1.4103 -0.3111
 2581SOL     OW19378   4.387   4.652   6.535 -0.2180 -0.7246 -0.3061
 2581SOL    HW119379   4.397   4.726   6.475 -3.0304 -1.5195 -1.7801
 2581SOL    HW219380   4.378   4.575   6.478 -0.1935  0.3855 -1.8201
 2582SOL     OW19381   1.324   0.099  12.883 -0.3287  0.1908 -0.1934
 2582SOL    HW119382   1.397   0.142  12.929  0.7051  0.6811 -2.2718
 2582SOL    HW219383   1.375   0.063  12.810  0.1192  0.3986  0.0133
 2583SOL     OW19384   1.097   1.782   6.334  1.1184  0.0661 -0.1988
 2583SOL    HW119385   1.130   1.849   6.394  1.9135 -0.0163 -0.5386
 2583SOL    HW219386   1.005   1.807   6.327  1.3976  0.3168 -2.9511
 2584SOL     OW19387   2.523   2.117  14.297 -0.2718 -0.0425 -0.8513
 2584SOL    HW119388   2.547   2.200  14.256 -0.5116  0.6160  0.3534
 2584SOL    HW219389   2.546   2.063  14.221  0.6181 -1.0932  0.1691
 2585SOL     OW19390   3.765   1.778   8.598 -0.4115  0.4032  0.4171
 2585SOL    HW119391   3.807   1.700   8.632  0.5476  0.7434 -0.0093
 2585SOL    HW219392   3.768   1.773   8.503  0.0896  1.4811  0.3675
 2586SOL     OW19393   4.423   2.385   9.035 -0.3134 -0.2706  0.0399
 2586SOL    HW119394   4.462   2.342   8.958  2.0773 -0.7559  1.5353
 2586SOL    HW219395   4.397   2.309   9.087  2.5524 -1.1907  0.1420
 2587SOL     OW19396   2.233   3.992  10.894  0.2167  0.1811 -0.2509
 2587SOL    HW119397   2.222   4.083  10.867  2.1501  0.7484  0.8731
 2587SOL    HW219398   2.148   3.957  10.867  1.7145 -2.9971 -0.8391
 2588SOL     OW19399   2.907   4.029  12.651 -0.0866  0.0016  0.0699
 2588SOL    HW119400   2.835   4.020  12.589  0.0955  1.9759 -0.4235
 2588SOL    HW219401   2.912   4.123  12.665  3.0708 -0.2249  0.3388
 2589SOL     OW19402   2.885   1.167   5.788  0.1159  0.1002 -0.4041
 2589SOL    HW119403   2.804   1.127   5.754 -0.2650 -1.3196  2.1478
 2589SOL    HW219404   2.938   1.150   5.710 -2.4426 -2.6966 -1.5441
 2590SOL     OW19405   2.369   2.171  10.247  0.4798  0.0928  0.0943
 2590SOL    HW119406   2.450   2.189  10.295  1.3433 -2.8673 -0.2534
 2590SOL    HW219407   2.346   2.263  10.233  1.1989  0.9918  4.7035
 2591SOL     OW19408   2.914   2.922  11.830 -0.1513  0.2794  0.3777
 2591SOL    HW119409   2.903   2.973  11.910 -1.8419  2.7097 -1.3726
 2591SOL    HW219410   2.995   2.876  11.851  0.5733  0.9221 -0.9713
 2592SOL     OW19411   3.880   3.041  15.906 -0.1537 -0.5191 -0.3856
 2592SOL    HW119412   3.900   3.126  15.867 -0.6553 -0.2796 -0.1138
 2592SOL    HW219413   3.786   3.049  15.921  0.4783  1.8307  2.3486
 2593SOL     OW19414   0.909   0.397   3.787 -0.4973 -0.4195 -0.2006
 2593SOL    HW119415   0.869   0.470   3.835  1.1089  1.0680 -1.1063
 2593SOL    HW219416   0.950   0.433   3.708 -0.5213 -3.1806 -1.4462
 2594SOL     OW19417   1.312   0.077   7.619 -0.1981  0.4962  0.1712
 2594SOL    HW119418   1.283   0.013   7.554  1.4048 -0.3484  0.2742
 2594SOL    HW219419   1.406   0.061   7.615 -0.8866 -3.8538  1.5373
 2595SOL     OW19420   4.533   1.380  14.397 -0.4841 -0.3560  0.1085
 2595SOL    HW119421   4.490   1.296  14.379  0.6195 -1.1171  0.9059
 2595SOL    HW219422   4.622   1.368  14.364 -0.2912 -2.6580  1.4592
 2596SOL     OW19423   1.280   2.179   1.927 -0.0226 -0.4063 -0.4134
 2596SOL    HW119424   1.346   2.127   1.973 -1.7537 -0.2543  2.2333
 2596SOL    HW219425   1.256   2.117   1.858 -0.1685 -1.8913  0.9702
 2597SOL     OW19426   1.622   1.555   4.945  0.3726 -0.5611  0.1803
 2597SOL    HW119427   1.614   1.459   4.942  2.5651 -0.7043 -0.7337
 2597SOL    HW219428   1.578   1.578   5.027  0.4391  1.1726 -0.2867
 2598SOL     OW19429   1.935   0.584   7.516  0.0845 -0.1557  0.3020
 2598SOL    HW119430   1.958   0.613   7.605  1.1145  1.5035 -0.5063
 2598SOL    HW219431   1.948   0.490   7.524  0.2168  0.0296  2.3997
 2599SOL     OW19432   2.205   1.044  10.125 -0.1831  0.5014 -0.0539
 2599SOL    HW119433   2.146   0.973  10.150  2.7877 -1.4955  1.4613
 2599SOL    HW219434   2.183   1.115  10.185 -0.4375  0.5886 -0.2541
 2600SOL     OW19435   2.938   1.428   4.949 -0.2867 -0.5808 -0.2002
 2600SOL    HW119436   2.993   1.349   4.944  1.1550  0.5273 -1.6265
 2600SOL    HW219437   2.980   1.487   4.886 -0.7963 -0.1493 -0.1366
 2601SOL     OW19438   4.645   4.396   9.596  0.0478  0.3749 -0.0676
 2601SOL    HW119439   4.658   4.309   9.634  0.5811  0.5594  0.1637
 2601SOL    HW219440   4.660   4.460   9.665 -0.2783  2.0725 -1.5744
 2602SOL     OW19441   3.772   0.107  16.606  0.0331  0.0657 -0.5628
 2602SOL    HW119442   3.760   0.199  16.629  0.8309 -0.0760  0.4102
 2602SOL    HW219443   3.835   0.106  16.534  1.3866  0.1445  0.6205
 2603SOL     OW19444   3.698   0.137   3.442  0.3440  0.5240 -0.5509
 2603SOL    HW119445   3.618   0.188   3.453 -0.0536  0.3184 -2.5189
 2603SOL    HW219446   3.677   0.059   3.391 -0.7391 -0.7808  1.8908
 2604SOL     OW19447   2.842   0.950   2.682 -0.1925 -0.3016  0.5101
 2604SOL    HW119448   2.751   0.944   2.709 -0.2646 -0.3677  0.2504
 2604SOL    HW219449   2.868   1.024   2.737 -0.3564 -0.3494  0.6530
 2605SOL     OW19450   2.895   0.118  12.127  0.0286 -0.4984 -0.2836
 2605SOL    HW119451   2.883   0.047  12.190  1.3905 -0.2543  0.2412
 2605SOL    HW219452   2.830   0.171  12.172  0.7391 -0.5176  0.7615
 2606SOL     OW19453   3.187   1.347   7.924 -0.2407  0.7052 -0.4494
 2606SOL    HW119454   3.107   1.305   7.957  0.2061 -0.4563 -0.8608
 2606SOL    HW219455   3.198   1.346   7.829  0.7023 -0.9169 -0.3201
 2607SOL     OW19456   1.057   4.488  17.688  0.6198  0.2711 -0.1037
 2607SOL    HW119457   0.985   4.447  17.737  0.1486 -2.1967 -2.8590
 2607SOL    HW219458   1.058   4.581  17.709 -2.5421  0.1275  0.7584
 2608SOL     OW19459   0.851   0.784   3.021  0.4165 -0.3798  0.0420
 2608SOL    HW119460   0.915   0.732   3.071  1.1723  2.7389  2.3491
 2608SOL    HW219461   0.772   0.755   3.068  2.3746 -2.1127  2.3179
 2609SOL     OW19462   2.480   3.661  11.035 -0.7059  0.3262 -0.0043
 2609SOL    HW119463   2.556   3.699  11.081  0.0055 -0.5776 -0.4410
 2609SOL    HW219464   2.426   3.740  11.025 -1.2247 -0.3806 -2.6264
 2610SOL     OW19465   0.228   1.660   4.624  0.9846  0.1433  0.3049
 2610SOL    HW119466   0.203   1.671   4.533 -1.0111 -0.9891  0.7256
 2610SOL    HW219467   0.321   1.666   4.603  0.6648 -0.0015 -1.1159
 2611SOL     OW19468   2.488   1.285   0.800  0.2624  0.3729  0.0995
 2611SOL    HW119469   2.536   1.311   0.879 -1.3614  0.0089  1.2127
 2611SOL    HW219470   2.507   1.191   0.809  1.5932  0.7147  0.9328
 2612SOL     OW19471   4.715   0.455   0.503 -0.3835 -0.4963 -0.3169
 2612SOL    HW119472   4.699   0.550   0.499  1.9819 -0.2181 -2.9621
 2612SOL    HW219473   0.037   0.446   0.430 -1.4198  2.4767 -1.5672
 2613SOL     OW19474   2.874   3.886   4.640  0.2697  0.1360  0.2854
 2613SOL    HW119475   2.840   3.974   4.657 -0.7811 -0.5159  1.5142
 2613SOL    HW219476   2.816   3.854   4.571  1.6454 -1.9524  0.1147
 2614SOL     OW19477   3.673   4.354   7.467 -0.2585  0.9797 -0.3429
 2614SOL    HW119478   3.662   4.356   7.562  0.8274 -1.9816 -0.1598
 2614SOL    HW219479   3.747   4.414   7.455  0.9424 -0.4646 -0.1269
 2615SOL     OW19480   2.079   3.352   4.730 -0.2159 -0.4276  0.4732
 2615SOL    HW119481   2.030   3.322   4.806 -2.0944  1.5134  0.0215
 2615SOL    HW219482   2.164   3.315   4.752  0.4258 -0.3535 -1.9166
 2616SOL     OW19483   1.826   4.437  17.488  0.0848 -0.3798  0.5628
 2616SOL    HW119484   1.848   4.352  17.449  2.6570  1.0648 -1.0921
 2616SOL    HW219485   1.742   4.413  17.527 -1.1086  3.4016  0.2755
 2617SOL     OW19486   0.930   4.246   1.845  0.1183 -0.1653 -0.1230
 2617SOL    HW119487   0.840   4.213   1.848  0.4637 -1.1143 -0.4096
 2617SOL    HW219488   0.927   4.330   1.799  2.0027 -0.5084 -0.8480
 2618SOL     OW19489   3.136   3.588   3.230  0.0103 -0.3739 -0.4174
 2618SOL    HW119490   3.103   3.608   3.318  2.2169  4.2036 -0.6510
 2618SOL    HW219491   3.197   3.661   3.223 -1.0254  0.6155  0.7121
 2619SOL     OW19492   4.099   4.653   3.489 -0.2714 -0.3228  0.1639
 2619SOL    HW119493   4.072   4.562   3.499 -1.2836 -0.2288 -1.6993
 2619SOL    HW219494   4.082   4.686   3.577  0.5091 -0.2075  0.2728
 2620SOL     OW19495   4.067   4.277  11.534  0.2449  0.0986 -0.2980
 2620SOL    HW119496   4.159   4.304  11.527  0.3198  0.2490  1.1884
 2620SOL    HW219497   4.059   4.235  11.449  1.3787 -2.5230  0.8624
 2621SOL     OW19498   2.125   1.216   7.243 -0.3179 -0.1535 -0.5884
 2621SOL    HW119499   2.202   1.243   7.193  0.8334 -0.0970  1.2593
 2621SOL    HW219500   2.148   1.134   7.286 -2.1270 -0.1986  0.2715
 2622SOL     OW19501   1.857   3.007   2.379  0.7779 -0.6685 -0.1138
 2622SOL    HW119502   1.797   3.025   2.451  2.0950 -3.2330  1.6262
 2622SOL    HW219503   1.914   3.083   2.386  0.2215 -0.1951 -0.7568
 2623SOL     OW19504   3.197   1.960  12.310  0.7104 -0.3061 -0.1263
 2623SOL    HW119505   3.171   1.919  12.227 -0.8043  0.9079 -0.2596
 2623SOL    HW219506   3.246   1.886  12.345 -1.0974 -1.5798 -0.2709
 2624SOL     OW19507   1.038   2.390   0.401  0.3853  0.8400  0.0002
 2624SOL    HW119508   1.119   2.339   0.397  0.9790  1.6843  1.4012
 2624SOL    HW219509   1.000   2.333   0.468 -0.5550 -0.2277 -1.4398
 2625SOL     OW19510   3.246   3.814  15.041  0.4746  0.0733  0.0928
 2625SOL    HW119511   3.222   3.876  14.973  2.4099 -0.6819 -1.2796
 2625SOL    HW219512   3.174   3.846  15.095  1.8169 -0.9175  2.4743
 2626SOL     OW19513   3.395   0.654   3.200  0.2952  0.3514  0.3770
 2626SOL    HW119514   3.412   0.642   3.294  0.5750 -1.1903  0.1207
 2626SOL    HW219515   3.300   0.655   3.200  0.2904 -1.0913 -0.7628
 2627SOL     OW19516   1.274   2.980   5.951 -0.1168  0.5868  0.4822
 2627SOL    HW119517   1.308   2.988   6.040  1.1613  0.7107 -0.0151
 2627SOL    HW219518   1.222   2.900   5.951  0.3713  0.2759  1.5608
 2628SOL     OW19519   3.365   3.019   3.379  0.5855 -0.2706  0.6398
 2628SOL    HW119520   3.460   3.030   3.371  0.7627 -1.0131  1.7391
 2628SOL    HW219521   3.351   3.061   3.464  0.3099  0.9262  0.0069
 2629SOL     OW19522   3.687   4.714   7.141  0.2195  0.7385  0.2438
 2629SOL    HW119523   3.748   0.037   7.099  0.8588  0.4979  0.8140
 2629SOL    HW219524   3.639   4.680   7.066 -0.3864  3.4482 -0.5935
 2630SOL     OW19525   1.553   3.204   3.936  0.1165  0.5939  0.2614
 2630SOL    HW119526   1.480   3.210   3.997 -0.4681  0.6180 -0.4309
 2630SOL    HW219527   1.578   3.112   3.935 -1.2931  0.2115  1.0198
 2631SOL     OW19528   0.547   1.049  14.639 -0.6034  0.7626  0.5361
 2631SOL    HW119529   0.512   1.041  14.550 -1.3704  1.2999  0.7795
 2631SOL    HW219530   0.482   0.999  14.689 -2.3110  1.3870 -1.0538
 2632SOL     OW19531   1.174   3.868   2.047  0.1000 -0.2273 -0.2168
 2632SOL    HW119532   1.215   3.950   2.018 -1.5578  0.2060 -1.3201
 2632SOL    HW219533   1.247   3.811   2.019 -0.5380  0.1654 -2.7216
 2633SOL     OW19534   1.685   2.796   8.089  0.4079 -0.4550  0.4755
 2633SOL    HW119535   1.601   2.831   8.058  1.1939  0.9869 -0.0012
 2633SOL    HW219536   1.651   2.743   8.161 -2.8287  0.9617  0.0105
 2634SOL     OW19537   4.365   1.396   7.201  0.2589 -0.5579 -0.4159
 2634SOL    HW119538   4.434   1.330   7.204  1.0310  0.2380 -0.6389
 2634SOL    HW219539   4.305   1.345   7.256 -0.6413  2.1682  1.1226
 2635SOL     OW19540   0.914   3.794  12.398 -0.3366 -0.5593 -0.5345
 2635SOL    HW119541   0.842   3.818  12.340  0.5660 -1.4487 -2.0079
 2635SOL    HW219542   0.924   3.704  12.366 -1.7041 -0.5784 -0.9037
 2636SOL     OW19543   0.695   2.362   5.292  0.2064 -0.1412  0.0977
 2636SOL    HW119544   0.650   2.312   5.224 -2.4106  2.8073 -0.3632
 2636SOL    HW219545   0.744   2.429   5.245 -2.6719  1.4325 -0.6090
 2637SOL     OW19546   3.311   2.224   9.892  0.3687  0.1174  0.3881
 2637SOL    HW119547   3.283   2.150   9.945 -0.5219  0.3291  0.2181
 2637SOL    HW219548   3.231   2.277   9.885  0.5978  0.1035 -2.1793
 2638SOL     OW19549   3.097   1.996   5.473 -0.2458 -0.1791  0.2044
 2638SOL    HW119550   3.012   2.019   5.435  0.6350  0.6552 -1.2578
 2638SOL    HW219551   3.078   1.906   5.501  1.4739 -0.5207  0.3092
 2639SOL     OW19552   3.744   3.795   4.167 -0.1131  0.1912 -0.6670
 2639SOL    HW119553   3.692   3.852   4.222  1.1867  0.0668  0.6958
 2639SOL    HW219554   3.681   3.775   4.098 -1.2671 -0.6042  0.6279
 2640SOL     OW19555   0.905   3.460   9.868 -0.0620  0.2374 -0.3840
 2640SOL    HW119556   0.911   3.365   9.879  2.7335  0.7414  2.4991
 2640SOL    HW219557   0.938   3.502   9.948 -1.5372 -0.5324  0.6239
 2641SOL     OW19558   2.439   1.129  12.932 -0.1414  0.2602  0.0809
 2641SOL    HW119559   2.474   1.044  12.958  0.1011  0.1605 -0.5648
 2641SOL    HW219560   2.353   1.127  12.974  1.2095 -0.8573  2.7371
 2642SOL     OW19561   0.925   2.299   4.588  0.4295  0.2244 -0.6299
 2642SOL    HW119562   0.916   2.232   4.656  2.5755  0.3345 -0.2281
 2642SOL    HW219563   0.982   2.364   4.629  0.6281 -1.2208  1.4160
 2643SOL     OW19564   3.508   3.047   9.639  0.2436  0.1022 -0.3178
 2643SOL    HW119565   3.424   3.057   9.685 -0.7863  2.3715 -2.6871
 2643SOL    HW219566   3.472   3.042   9.551  0.1817  0.7854 -0.3255
 2644SOL     OW19567   2.028   4.567  13.045  0.1415  0.1835 -0.2348
 2644SOL    HW119568   1.999   4.499  13.106 -1.1284  1.2175  0.3402
 2644SOL    HW219569   1.982   4.646  13.074  2.0156  1.8740 -1.8208
 2645SOL     OW19570   1.023   0.693   8.716 -0.1121 -0.8318  0.2162
 2645SOL    HW119571   1.072   0.663   8.792 -0.1635  2.9367  1.6891
 2645SOL    HW219572   1.026   0.788   8.715 -1.0258 -0.7899  2.2093
 2646SOL     OW19573   2.831   3.700   2.539  0.1879  0.0821  0.2770
 2646SOL    HW119574   2.805   3.609   2.548  2.5205 -0.5659  0.3158
 2646SOL    HW219575   2.915   3.696   2.585  0.3798 -1.5245 -0.2110
 2647SOL     OW19576   4.112   2.330   3.559 -0.5045 -0.0848  0.5880
 2647SOL    HW119577   4.192   2.286   3.587 -0.1879  0.3426  0.3539
 2647SOL    HW219578   4.066   2.248   3.538  0.2869 -0.5259  0.5895
 2648SOL     OW19579   1.459   2.899   3.800 -0.0543 -0.6559  0.2145
 2648SOL    HW119580   1.390   2.885   3.735  0.0445  1.5430 -0.3612
 2648SOL    HW219581   1.432   2.868   3.886 -0.5269 -1.0026 -0.0571
 2649SOL     OW19582   4.100   4.676   5.730  0.0297  0.5027 -0.0607
 2649SOL    HW119583   4.152   4.607   5.689  0.0811  1.6208 -1.8785
 2649SOL    HW219584   4.056   4.713   5.654  0.9569 -0.5300 -1.0860
 2650SOL     OW19585   0.096   0.783  10.610 -0.1242  0.3965  0.1844
 2650SOL    HW119586   0.036   0.835  10.664 -0.2515 -1.2444  1.6168
 2650SOL    HW219587   0.112   0.705  10.664  0.4810  0.0711 -0.4643
 2651SOL     OW19588   1.397   4.539   5.853 -0.4870  0.0611 -0.2870
 2651SOL    HW119589   1.366   4.615   5.804  0.2347  0.2459 -0.4528
 2651SOL    HW219590   1.319   4.484   5.850 -0.6749  0.2634  0.8483
 2652SOL     OW19591   4.678   2.721  14.207  0.5328 -0.4123 -0.4427
 2652SOL    HW119592   4.602   2.761  14.165 -0.4349 -3.3151 -1.4660
 2652SOL    HW219593   4.692   2.633  14.173  0.7678 -0.4037 -0.3750
 2653SOL     OW19594   0.890   1.185   8.282  0.1259  0.0383  0.2086
 2653SOL    HW119595   0.974   1.149   8.253 -0.8247 -0.6365 -1.7232
 2653SOL    HW219596   0.866   1.128   8.354  1.2980  0.8752  1.2658
 2654SOL     OW19597   2.593   3.727  10.519 -0.0059 -0.1152 -0.3043
 2654SOL    HW119598   2.584   3.657  10.583 -1.0228 -0.1119 -0.4460
 2654SOL    HW219599   2.642   3.680  10.452  1.2525 -1.0860  1.2740
 2655SOL     OW19600   2.591   1.377   4.692  0.0352 -0.7826  0.2394
 2655SOL    HW119601   2.563   1.394   4.602 -1.0294 -0.7847  0.5695
 2655SOL    HW219602   2.683   1.403   4.692 -0.2666  0.3025 -0.6393
 2656SOL     OW19603   0.748   0.153   3.855 -0.7548 -0.0743 -0.2248
 2656SOL    HW119604   0.816   0.219   3.842 -1.8345  1.2514  0.9194
 2656SOL    HW219605   0.675   0.207   3.884 -0.8097 -0.5277  0.4975
 2657SOL     OW19606   1.190   3.418   7.033 -0.2355  0.5885 -0.0127
 2657SOL    HW119607   1.130   3.356   7.074 -0.7459  1.5771  0.7216
 2657SOL    HW219608   1.225   3.366   6.961 -0.2405  0.8155 -0.1769
 2658SOL     OW19609   3.161   4.428   3.356 -0.5039 -0.8755  0.3366
 2658SOL    HW119610   3.145   4.419   3.262 -3.2482  0.3817  0.6599
 2658SOL    HW219611   3.207   4.511   3.368 -1.0916 -0.6006  0.6843
 2659SOL     OW19612   1.723   3.074  11.825 -0.3675  0.0879 -0.6968
 2659SOL    HW119613   1.757   3.127  11.753 -0.9367 -1.2983 -2.0018
 2659SOL    HW219614   1.635   3.052  11.795 -0.9620  1.3063  0.1674
 2660SOL     OW19615   2.332   4.663   2.954  0.0350 -0.6610  0.4335
 2660SOL    HW119616   2.378   4.717   2.890  0.1412 -0.9734  0.2431
 2660SOL    HW219617   2.247   4.664   2.910 -0.4500  1.0456  1.4146
 2661SOL     OW19618   0.604   1.117   4.838  0.2187  0.0974  0.5446
 2661SOL    HW119619   0.560   1.041   4.801  0.4753 -0.4750  1.4348
 2661SOL    HW219620   0.566   1.185   4.782 -0.1383  0.1522  0.8565
 2662SOL     OW19621   2.872   1.659   8.783 -0.0125 -0.1132 -0.7408
 2662SOL    HW119622   2.838   1.573   8.756  4.3183 -1.8057 -0.9660
 2662SOL    HW219623   2.802   1.684   8.842  0.5172 -1.0028  0.2627
 2663SOL     OW19624   3.234   1.963  10.258 -0.3281  1.0073  0.2256
 2663SOL    HW119625   3.138   1.956  10.260 -0.2681 -0.2126 -2.0795
 2663SOL    HW219626   3.246   2.049  10.218 -1.5939  0.0993 -2.0791
 2664SOL     OW19627   4.329   1.789   2.225 -0.3100 -0.2958  0.3464
 2664SOL    HW119628   4.375   1.721   2.274 -0.0721  0.4201  1.1128
 2664SOL    HW219629   4.242   1.760   2.250 -1.2579  0.8363 -1.6293
 2665SOL     OW19630   4.457   0.166   0.712  0.1828  0.5938  0.1681
 2665SOL    HW119631   4.541   0.161   0.758  0.2265  0.4963  0.0773
 2665SOL    HW219632   4.447   0.077   0.678 -1.0993  1.4676 -1.7381
 2666SOL     OW19633   2.074   0.206   0.316 -0.3472 -0.2689 -0.0413
 2666SOL    HW119634   2.156   0.194   0.364 -1.5491 -0.3097  1.9686
 2666SOL    HW219635   2.038   0.120   0.337  0.9263 -0.8552 -0.2215
 2667SOL     OW19636   2.859   3.423   6.021 -0.0730 -0.2791 -0.4404
 2667SOL    HW119637   2.950   3.423   5.994 -0.2604  2.4043 -1.1327
 2667SOL    HW219638   2.853   3.344   6.074  2.3885 -1.5021 -2.0189
 2668SOL     OW19639   0.209   2.717   3.005 -1.0825  0.3920  0.1206
 2668SOL    HW119640   0.225   2.699   2.912  0.1640 -1.1517  0.6380
 2668SOL    HW219641   0.160   2.639   3.032 -2.1651  2.2301  3.4429
 2669SOL     OW19642   1.762   2.993   2.651  0.5079  0.3680  0.7287
 2669SOL    HW119643   1.675   3.029   2.635  1.0820  1.0553 -0.7983
 2669SOL    HW219644   1.810   3.071   2.680 -0.8812  1.2559  0.6354
 2670SOL     OW19645   0.964   2.379   7.846 -0.9500 -0.0392  0.4716
 2670SOL    HW119646   0.921   2.448   7.896  0.0033  0.6319  0.3715
 2670SOL    HW219647   1.033   2.426   7.798 -0.1541 -0.5870  1.0898
 2671SOL     OW19648   0.785   3.180   0.598  0.3829  0.7590 -0.1797
 2671SOL    HW119649   0.858   3.159   0.540  0.5549  2.1897 -0.4875
 2671SOL    HW219650   0.795   3.127   0.677  0.8429  1.5391  0.2917
 2672SOL     OW19651   1.214   0.049   3.250  0.3566  0.0585  0.1498
 2672SOL    HW119652   1.237   0.055   3.158  1.6427 -1.0981  0.3984
 2672SOL    HW219653   1.225   4.694   3.267 -2.2417  0.5813  4.9204
 2673SOL     OW19654   2.846   0.061   1.901  0.3663  0.1063 -0.2330
 2673SOL    HW119655   2.897   0.141   1.912 -0.5176  0.2357  2.7805
 2673SOL    HW219656   2.824   0.045   1.992  0.2788 -2.6865 -0.7394
 2674SOL     OW19657   1.566   2.774   9.748  0.2066  0.2196  0.5807
 2674SOL    HW119658   1.480   2.740   9.725  0.5463  0.0255 -0.4271
 2674SOL    HW219659   1.565   2.795   9.841  1.9654  1.0272  0.4246
 2675SOL     OW19660   1.592   1.886   8.643 -0.3052 -0.1388  0.5923
 2675SOL    HW119661   1.541   1.889   8.724  1.7477  0.6800  1.8604
 2675SOL    HW219662   1.678   1.918   8.670  0.6138 -0.2403 -2.2962
 2676SOL     OW19663   4.122   4.625   5.275 -0.0656 -0.0498  0.3960
 2676SOL    HW119664   4.192   4.639   5.212 -1.5122 -0.0368 -1.2175
 2676SOL    HW219665   4.137   4.536   5.308 -1.9229 -0.3341  0.5015
 2677SOL     OW19666   0.288   1.662   7.632 -0.2540  0.6113  0.2440
 2677SOL    HW119667   0.365   1.631   7.584 -1.0707 -0.2269 -0.5058
 2677SOL    HW219668   0.216   1.624   7.582  1.5968  0.4289 -2.2523
 2678SOL     OW19669   3.460   0.058  10.108  0.2663  0.2967  0.1386
 2678SOL    HW119670   3.380   0.024  10.069  0.1472  0.8567 -0.0992
 2678SOL    HW219671   3.423   0.101  10.185 -3.5867 -3.2734  0.2765
 2679SOL     OW19672   4.367   1.261   5.539  0.1787 -0.0732 -0.0140
 2679SOL    HW119673   4.278   1.263   5.576 -1.0041 -4.1116 -2.6540
 2679SOL    HW219674   4.373   1.335   5.479  0.9385  0.3340  0.5640
 2680SOL     OW19675   4.046   0.694   7.446 -0.0282  0.0870  0.8176
 2680SOL    HW119676   4.122   0.720   7.394 -0.8495  1.8351  0.4995
 2680SOL    HW219677   3.974   0.740   7.403  1.1503  0.7390 -0.4532
 2681SOL     OW19678   3.831   2.034   6.610  0.0560  0.5881 -0.4287
 2681SOL    HW119679   3.785   2.107   6.568 -0.6048  1.1911  1.3418
 2681SOL    HW219680   3.824   2.050   6.704 -1.1454 -1.0846 -0.2417
 2682SOL     OW19681   1.740   1.053   4.851 -0.3085  0.7945  0.3377
 2682SOL    HW119682   1.727   1.038   4.757 -0.5261  1.4004  0.2703
 2682SOL    HW219683   1.815   0.997   4.871 -0.5279 -0.4831 -2.3859
 2683SOL     OW19684   2.541   2.184  12.448 -0.1828  0.4653 -0.1998
 2683SOL    HW119685   2.512   2.095  12.468 -1.1403  1.0964  1.1957
 2683SOL    HW219686   2.623   2.190  12.495 -0.6966 -0.2663  0.7953
 2684SOL     OW19687   3.931   0.198  11.386  0.6077  0.0566  0.2901
 2684SOL    HW119688   3.988   0.134  11.428  1.2106  1.4902  1.6839
 2684SOL    HW219689   3.919   0.152  11.302 -2.5277  2.2119 -0.4418
 2685SOL     OW19690   1.604   2.530   5.581  0.2622  0.0822  0.5256
 2685SOL    HW119691   1.680   2.484   5.545 -0.1693 -0.9962  0.9969
 2685SOL    HW219692   1.561   2.555   5.499  0.2582  2.9591  1.4213
 2686SOL     OW19693   1.312   0.641  15.558 -0.1654 -0.0993  0.2757
 2686SOL    HW119694   1.391   0.637  15.505 -0.9576 -1.0377 -0.8230
 2686SOL    HW219695   1.238   0.656  15.498 -0.2225 -0.7254  0.1933
 2687SOL     OW19696   3.799   4.127   6.899  0.0303 -0.0569  0.4328
 2687SOL    HW119697   3.866   4.105   6.835  0.7066 -2.2573  1.8933
 2687SOL    HW219698   3.847   4.122   6.982 -1.7972 -1.4097  1.4130
 2688SOL     OW19699   0.182   1.351  17.255 -0.8607 -0.3961  0.5605
 2688SOL    HW119700   0.268   1.317  17.231 -1.4042 -0.2207 -1.5613
 2688SOL    HW219701   0.158   1.414  17.188 -0.8590  0.9780  1.8393
 2689SOL     OW19702   3.866   1.552   5.421  0.5821 -0.1342 -0.0609
 2689SOL    HW119703   3.921   1.517   5.352  0.1851  1.3001 -1.1074
 2689SOL    HW219704   3.899   1.497   5.492 -0.1959 -1.3278 -0.6360
 2690SOL     OW19705   1.299   2.609   2.105  0.2261 -0.0148  0.3350
 2690SOL    HW119706   1.269   2.569   2.186 -0.5190 -2.7706 -1.3241
 2690SOL    HW219707   1.278   2.549   2.034  1.7054  2.4238 -2.1567
 2691SOL     OW19708   2.059   3.226   9.235 -0.2185  0.0471 -0.5309
 2691SOL    HW119709   1.988   3.286   9.213  0.6504  0.9727 -0.7779
 2691SOL    HW219710   2.134   3.284   9.228  0.9046 -1.4779 -1.1030
 2692SOL     OW19711   1.223   4.560   1.492 -0.6751  0.9851 -0.1718
 2692SOL    HW119712   1.237   4.569   1.398 -0.7444 -0.2142 -0.3005
 2692SOL    HW219713   1.189   4.470   1.486  0.2867  0.4666  2.0284
 2693SOL     OW19714   3.922   3.322  15.860  0.0095  0.2651  0.7582
 2693SOL    HW119715   3.950   3.414  15.858  0.8334 -0.0160 -0.3414
 2693SOL    HW219716   3.837   3.349  15.894 -1.2520 -0.3505 -1.9633
 2694SOL     OW19717   1.006   0.797   5.772  0.0981  0.1782  0.7455
 2694SOL    HW119718   1.088   0.844   5.787 -0.6214  0.9099  2.3959
 2694SOL    HW219719   1.039   0.707   5.780  0.9702  0.4485  0.1906
 2695SOL     OW19720   0.586   0.040   2.626  0.1342 -0.1758 -0.2317
 2695SOL    HW119721   0.621   0.126   2.606 -1.1410  0.5168  0.5314
 2695SOL    HW219722   0.508   0.030   2.572 -1.3894 -2.0385  2.3068
 2696SOL     OW19723   0.626   1.272   3.247 -0.1921 -0.2493 -0.3368
 2696SOL    HW119724   0.550   1.315   3.209 -0.0840  1.0679  0.9681
 2696SOL    HW219725   0.694   1.339   3.253 -0.3945 -0.1165  0.4677
 2697SOL     OW19726   2.144   1.116   9.635  0.2983 -0.1067  0.6911
 2697SOL    HW119727   2.062   1.077   9.666 -0.7142  1.8270  0.4601
 2697SOL    HW219728   2.149   1.200   9.681 -0.6199  0.5181 -0.3443
 2698SOL     OW19729   1.406   2.496   9.495  0.6974 -0.1693  0.0507
 2698SOL    HW119730   1.396   2.402   9.507  0.2694 -0.0128  0.9276
 2698SOL    HW219731   1.363   2.503   9.409 -0.6070 -1.8567  0.5719
 2699SOL     OW19732   3.697   2.237   6.499 -0.0976 -0.0486  0.6071
 2699SOL    HW119733   3.660   2.319   6.465 -1.3350 -0.8648 -0.0099
 2699SOL    HW219734   3.622   2.180   6.481 -0.5766  0.8987 -0.3956
 2700SOL     OW19735   0.807   3.739   2.304 -0.0488 -0.3498 -0.2284
 2700SOL    HW119736   0.885   3.790   2.324 -0.1635  0.1447 -1.0451
 2700SOL    HW219737   0.754   3.736   2.384  3.8064  0.7087  2.3758
 2701SOL     OW19738   2.045   2.561  14.661  0.4967 -0.0246 -0.5649
 2701SOL    HW119739   1.968   2.601  14.701  0.3409 -0.5998 -0.2854
 2701SOL    HW219740   2.119   2.608  14.698  1.2373 -1.1592 -0.5875
 2702SOL     OW19741   4.495   2.005   9.839 -0.0009  0.2238 -0.0506
 2702SOL    HW119742   4.423   2.068   9.833  1.0118  1.3199 -0.6604
 2702SOL    HW219743   4.506   1.991   9.744  0.0368  1.7152 -0.2538
 2703SOL     OW19744   1.960   0.895   4.919 -0.0566  0.2601 -0.3090
 2703SOL    HW119745   2.011   0.914   4.840 -0.2437  1.2215 -0.2003
 2703SOL    HW219746   2.031   0.858   4.972 -1.5622 -0.2650  1.3179
 2704SOL     OW19747   0.033   0.647   8.909  0.1385 -0.2286  0.4882
 2704SOL    HW119748   0.053   0.574   8.850  0.9655 -0.1979  0.7348
 2704SOL    HW219749   0.041   0.599   8.992  0.8212 -1.2071 -0.1333
 2705SOL     OW19750   3.198   3.216   9.389 -0.0155 -0.3728  0.1253
 2705SOL    HW119751   3.197   3.310   9.370  0.9971 -0.1885  1.0365
 2705SOL    HW219752   3.151   3.218   9.472  2.3565  0.3860  1.4492
 2706SOL     OW19753   2.994   0.045   7.491  0.2029 -0.3346  0.1624
 2706SOL    HW119754   2.946   0.039   7.408 -1.6186 -0.5264  1.2135
 2706SOL    HW219755   2.919   0.060   7.550 -0.3221 -0.5576 -0.4548
 2707SOL     OW19756   0.373   3.353   0.866 -0.2463  0.2205 -0.1963
 2707SOL    HW119757   0.456   3.306   0.870 -0.0175  0.5191 -1.3917
 2707SOL    HW219758   0.342   3.350   0.957 -0.6848 -0.4469 -0.3652
 2708SOL     OW19759   4.628   4.459   9.098 -0.2178  0.0534 -0.4886
 2708SOL    HW119760   4.571   4.382   9.098  1.5663 -1.2575 -0.8981
 2708SOL    HW219761   4.697   4.430   9.158  0.0713 -2.7148 -2.1498
 2709SOL     OW19762   2.380   2.940   6.344  0.2861  0.0294  0.4738
 2709SOL    HW119763   2.364   2.886   6.266  0.5431  0.4294  0.1406
 2709SOL    HW219764   2.365   2.873   6.411  0.1186 -0.7618 -0.3463
 2710SOL     OW19765   3.151   0.505   3.881 -0.5325 -0.0034  0.0257
 2710SOL    HW119766   3.200   0.573   3.835 -0.1524 -1.5132 -1.7898
 2710SOL    HW219767   3.213   0.481   3.949 -2.1760 -1.6078  0.9373
 2711SOL     OW19768   3.635   4.255  17.047 -0.1337  0.2670 -0.3514
 2711SOL    HW119769   3.713   4.239  16.995 -0.1325 -1.2660  0.1263
 2711SOL    HW219770   3.585   4.176  17.028 -1.6231  0.9133  0.8579
 2712SOL     OW19771   3.393   2.830  17.350 -0.1438 -0.1051 -0.0072
 2712SOL    HW119772   3.323   2.864  17.294  2.6955  2.6445 -1.8630
 2712SOL    HW219773   3.432   2.776  17.282 -0.0704  1.6085 -1.3343
 2713SOL     OW19774   0.640   3.507  11.170  0.0595 -0.4073  0.2423
 2713SOL    HW119775   0.702   3.457  11.116 -1.0411  2.7224 -3.9644
 2713SOL    HW219776   0.668   3.477  11.256  0.4143 -1.2216 -0.1543
 2714SOL     OW19777   0.968   3.288   2.972  0.3349  0.5514  0.2493
 2714SOL    HW119778   0.874   3.282   2.954  0.3968  1.7553 -0.4286
 2714SOL    HW219779   0.981   3.380   2.949 -1.1349  0.9607  1.0371
 2715SOL     OW19780   2.524   1.132   4.837 -0.6836  0.1473  0.5101
 2715SOL    HW119781   2.447   1.154   4.889 -3.0715 -1.9495 -2.0872
 2715SOL    HW219782   2.548   1.218   4.803  0.4922 -0.8358 -1.1324
 2716SOL     OW19783   2.471   0.251   9.306  1.0518 -0.3814  0.3421
 2716SOL    HW119784   2.529   0.292   9.370 -0.5975  0.1137  1.5272
 2716SOL    HW219785   2.455   0.326   9.249 -0.1185  0.5772  1.9065
 2717SOL     OW19786   2.588   2.229   9.926 -0.3288  0.1655  0.2101
 2717SOL    HW119787   2.601   2.158   9.989 -1.4983 -0.0093  0.2475
 2717SOL    HW219788   2.561   2.184   9.847 -0.3638  2.4754 -1.0994
 2718SOL     OW19789   2.071   0.189   3.225  0.6245 -0.3500  0.3196
 2718SOL    HW119790   2.070   0.284   3.212  1.6936 -0.6922 -2.3268
 2718SOL    HW219791   2.136   0.171   3.293  2.6958  0.0042 -1.5678
 2719SOL     OW19792   3.525   0.179   0.508  0.7559 -0.4664 -0.3432
 2719SOL    HW119793   3.523   0.273   0.524 -0.3896 -0.3206 -1.3889
 2719SOL    HW219794   3.436   0.155   0.535  0.1494  3.6731  1.3735
 2720SOL     OW19795   2.847   1.920   1.390 -0.4447  0.1667  0.0145
 2720SOL    HW119796   2.838   1.891   1.481  0.8319  1.0121  0.4154
 2720SOL    HW219797   2.940   1.944   1.382 -0.4650  0.5428  0.9313
 2721SOL     OW19798   2.633   1.063   2.430 -0.0071 -0.3521  0.6655
 2721SOL    HW119799   2.585   1.018   2.500  0.6206 -0.1865  1.2087
 2721SOL    HW219800   2.633   0.998   2.360 -0.9927 -0.0502  0.3924
 2722SOL     OW19801   2.137   2.721  10.344  0.0169 -0.1852  0.0491
 2722SOL    HW119802   2.139   2.769  10.261 -0.1777 -0.9721 -0.4196
 2722SOL    HW219803   2.075   2.650  10.325 -1.1425  0.7850  0.1711
 2723SOL     OW19804   3.924   3.302   5.244  0.5927  0.1615 -0.0244
 2723SOL    HW119805   3.947   3.242   5.316  1.3144  4.0415  2.9655
 2723SOL    HW219806   3.946   3.386   5.285 -2.7796  0.9848  0.1182
 2724SOL     OW19807   1.792   2.519  12.178  0.4378  0.1980  0.3468
 2724SOL    HW119808   1.869   2.570  12.153 -0.3281  1.6394  0.9824
 2724SOL    HW219809   1.784   2.474  12.094  4.0603 -1.2952  0.7727
 2725SOL     OW19810   3.401   0.338   3.097 -0.4685  0.3058 -0.7763
 2725SOL    HW119811   3.392   0.400   3.169 -0.1131 -0.9083  0.3187
 2725SOL    HW219812   3.447   0.382   3.026 -0.5874 -0.5024 -1.3560
 2726SOL     OW19813   1.045   2.712   4.160 -0.4057 -0.2723 -0.2720
 2726SOL    HW119814   1.101   2.746   4.230  1.0534  0.3890 -1.7551
 2726SOL    HW219815   0.978   2.661   4.205  0.3999  0.2315  1.5116
 2727SOL     OW19816   0.676   3.169   4.017  0.0712  0.3634  0.1487
 2727SOL    HW119817   0.637   3.257   4.017  1.0253  0.7799 -0.6325
 2727SOL    HW219818   0.764   3.196   3.991  0.6634 -1.5818  0.2035
 2728SOL     OW19819   0.595   4.006  17.492  0.1128  0.6874 -0.3027
 2728SOL    HW119820   0.637   3.923  17.512  0.7146  0.7882 -1.1610
 2728SOL    HW219821   0.601   4.052  17.576  1.4009 -1.7718  0.9252
 2729SOL     OW19822   0.967   2.780   7.789  0.1302 -0.2532  0.4545
 2729SOL    HW119823   1.054   2.781   7.828 -0.1512 -1.2376  1.0850
 2729SOL    HW219824   0.940   2.868   7.815  0.5162 -0.2236  0.7645
 2730SOL     OW19825   2.247   3.078   1.174 -0.1665  0.0490  0.1242
 2730SOL    HW119826   2.158   3.063   1.145 -0.1342 -0.6204  0.3461
 2730SOL    HW219827   2.273   2.989   1.199  1.7822  0.7220  0.5610
 2731SOL     OW19828   3.155   1.834   6.032  0.3505 -0.4970  0.2479
 2731SOL    HW119829   3.086   1.864   6.091  0.7099  0.7171  0.0599
 2731SOL    HW219830   3.189   1.763   6.086 -2.1391 -1.9338 -0.0757
 2732SOL     OW19831   2.788   2.954   7.206 -0.0959 -0.2138  0.0698
 2732SOL    HW119832   2.763   2.878   7.154  0.6737 -0.7160  0.4405
 2732SOL    HW219833   2.883   2.964   7.192 -0.1869 -1.4647 -1.3409
 2733SOL     OW19834   2.227   0.568   1.103 -0.0057  0.1690  0.5608
 2733SOL    HW119835   2.201   0.656   1.131 -2.4311 -0.3209 -0.1576
 2733SOL    HW219836   2.314   0.575   1.142  0.7824 -0.9691 -1.0044
 2734SOL     OW19837   1.229   0.175   8.671  0.1685 -0.0660  0.3524
 2734SOL    HW119838   1.228   0.162   8.576  0.5726 -1.5282  0.5396
 2734SOL    HW219839   1.301   0.117   8.696 -1.6679 -1.8130  1.5929
 2735SOL     OW19840   4.612   1.213  12.092 -0.0035  0.0456  0.3195
 2735SOL    HW119841   4.671   1.285  12.111 -0.6731  0.3359  1.3671
 2735SOL    HW219842   4.649   1.148  12.152 -1.0888 -1.1342 -0.2677
 2736SOL     OW19843   0.827   1.106   1.020  0.1101 -0.1076 -0.1253
 2736SOL    HW119844   0.881   1.126   1.097 -0.7328 -0.0151  0.4315
 2736SOL    HW219845   0.871   1.023   0.999 -1.1617 -0.9748  0.6333
 2737SOL     OW19846   2.816   1.547   1.481 -0.8289  0.0111 -0.4792
 2737SOL    HW119847   2.799   1.454   1.469 -0.9854 -0.1420  0.9466
 2737SOL    HW219848   2.731   1.587   1.462 -1.1860 -0.1134  0.8769
 2738SOL     OW19849   2.012   2.615  14.128  0.6317 -0.0744 -0.0071
 2738SOL    HW119850   1.967   2.631  14.211 -2.4767  0.5732 -1.8294
 2738SOL    HW219851   2.103   2.599  14.151  1.1842  1.2993 -1.2670
 2739SOL     OW19852   2.200   2.886  10.096 -0.1888  0.0202  0.3583
 2739SOL    HW119853   2.278   2.855  10.141  0.0600  0.1258 -0.0031
 2739SOL    HW219854   2.176   2.822  10.029  2.2601  0.6617 -1.0794
 2740SOL     OW19855   0.044   4.478   1.105  0.1761  0.8264 -0.2691
 2740SOL    HW119856   0.106   4.475   1.032  0.2721 -1.2959 -0.1050
 2740SOL    HW219857   0.053   4.572   1.124  2.4428  0.8738 -1.6463
 2741SOL     OW19858   3.970   0.090   5.387  0.6558  0.8630 -0.0769
 2741SOL    HW119859   3.913   0.097   5.311 -1.9149 -2.1951  1.5603
 2741SOL    HW219860   4.037   0.030   5.353 -0.8401 -1.6035  1.3390
 2742SOL     OW19861   4.374   1.906   3.001 -0.1223 -0.3764 -0.0327
 2742SOL    HW119862   4.347   1.823   2.961  1.4505 -1.3247  0.8441
 2742SOL    HW219863   4.298   1.919   3.057  0.0567  0.1065  0.1020
 2743SOL     OW19864   2.807   1.537   5.162  0.4578 -0.1211  0.9195
 2743SOL    HW119865   2.733   1.486   5.130 -1.4881  0.9658  3.6263
 2743SOL    HW219866   2.861   1.509   5.089 -0.4359  1.4693 -0.3356
 2744SOL     OW19867   4.316   3.025   1.416  0.1030  0.2471  0.4584
 2744SOL    HW119868   4.402   2.996   1.447  0.1125 -2.0047 -1.6703
 2744SOL    HW219869   4.331   3.050   1.325  1.8896 -2.8186 -0.1179
 2745SOL     OW19870   0.716   0.406   2.305 -0.2876 -0.7990  0.2916
 2745SOL    HW119871   0.750   0.322   2.275  0.9619 -1.0656  2.4640
 2745SOL    HW219872   0.784   0.460   2.266 -0.1346 -0.0491  1.5850
 2746SOL     OW19873   1.631   0.855   4.195 -0.1803  0.1345  0.0115
 2746SOL    HW119874   1.692   0.926   4.213 -1.7256  1.1951  1.0756
 2746SOL    HW219875   1.584   0.886   4.118  0.7149 -0.3612 -0.7268
 2747SOL     OW19876   2.331   4.712   3.562 -0.6724  1.0323 -0.0462
 2747SOL    HW119877   2.274   0.018   3.625 -0.1210  0.3012  0.9738
 2747SOL    HW219878   2.324   0.032   3.486  0.2976  0.7593 -0.3427
 2748SOL     OW19879   0.209   4.270   8.988  0.2953 -0.3839  0.6858
 2748SOL    HW119880   0.165   4.354   8.984 -0.7234 -0.9002  0.9520
 2748SOL    HW219881   0.139   4.205   8.974  1.1140 -1.3806  1.1871
 2749SOL     OW19882   1.467   0.808  13.423  0.7319  0.1337 -0.0068
 2749SOL    HW119883   1.404   0.738  13.438 -1.2351  2.2109  1.5131
 2749SOL    HW219884   1.413   0.881  13.391  2.2593  1.7061  0.9728
 2750SOL     OW19885   2.896   2.014   9.483  0.4201  0.6809 -0.2790
 2750SOL    HW119886   2.887   2.109   9.480  1.6222  0.7326 -1.6743
 2750SOL    HW219887   2.858   1.988   9.399  1.9516  0.5439 -0.9137
 2751SOL     OW19888   4.059   2.706   3.341 -0.1063  0.3681  0.2396
 2751SOL    HW119889   4.118   2.691   3.416 -4.0796  1.4013  3.5573
 2751SOL    HW219890   4.108   2.772   3.291  1.5619 -1.3338 -0.3917
 2752SOL     OW19891   2.536   3.536   9.695 -0.2913  0.5879 -0.4172
 2752SOL    HW119892   2.496   3.451   9.712  1.0809  0.1284  0.5765
 2752SOL    HW219893   2.475   3.605   9.720  0.8674  0.4731  2.7193
 2753SOL     OW19894   3.414   0.590  12.309 -0.0723  0.0551 -0.3656
 2753SOL    HW119895   3.457   0.603  12.393  0.9992  0.3558 -0.9689
 2753SOL    HW219896   3.360   0.513  12.324  0.3032  0.0541  0.9735
 2754SOL     OW19897   3.151   1.136  16.358 -0.1877 -0.0819 -0.4404
 2754SOL    HW119898   3.109   1.208  16.405 -1.2094 -1.0453  0.1267
 2754SOL    HW219899   3.117   1.129  16.269 -0.9653 -2.6362  0.0639
 2755SOL     OW19900   4.616   3.897   4.002 -0.1641 -0.2810  0.4408
 2755SOL    HW119901   4.609   3.871   4.093  0.4323 -0.5107  0.4234
 2755SOL    HW219902   4.525   3.897   3.974 -0.3979 -2.3100  1.2840
 2756SOL     OW19903   3.396   2.886   3.890  0.1614  0.5303  0.0142
 2756SOL    HW119904   3.490   2.882   3.907  0.1016  2.0242  0.6401
 2756SOL    HW219905   3.399   2.847   3.802 -0.2663 -2.4120  1.3126
 2757SOL     OW19906   1.526   1.525   5.716  0.2869  0.5771 -0.3198
 2757SOL    HW119907   1.510   1.616   5.743 -0.6687  0.1834  0.4530
 2757SOL    HW219908   1.445   1.486   5.750  1.1995 -0.3220  0.7908
 2758SOL     OW19909   0.693   2.059   0.664 -0.3753  0.2576  0.1761
 2758SOL    HW119910   0.609   2.058   0.617 -1.3683  0.4066  1.9598
 2758SOL    HW219911   0.653   2.044   0.750 -1.3766 -2.0159 -0.6931
 2759SOL     OW19912   3.827   1.392   9.444 -0.5374 -0.7083  0.2040
 2759SOL    HW119913   3.913   1.432   9.434 -1.3844  0.2105 -3.2750
 2759SOL    HW219914   3.796   1.360   9.359 -0.1496 -1.5917  0.3883
 2760SOL     OW19915   1.748   2.412   6.251  0.0545 -0.4578  0.9746
 2760SOL    HW119916   1.755   2.381   6.342 -1.9018 -0.7418  1.0308
 2760SOL    HW219917   1.669   2.466   6.254 -1.4914 -2.6521 -0.7574
 2761SOL     OW19918   4.609   3.232   2.399 -0.5653 -0.2774 -0.5900
 2761SOL    HW119919   4.702   3.215   2.385 -0.6636 -1.5119  0.2705
 2761SOL    HW219920   4.565   3.193   2.324  0.7917 -0.0541 -1.5091
 2762SOL     OW19921   3.274   1.003  16.078 -0.0003 -0.4650 -0.4181
 2762SOL    HW119922   3.227   1.034  16.001 -2.2176 -0.8590  0.7904
 2762SOL    HW219923   3.362   1.001  16.040  1.5083 -0.2723  3.0097
 2763SOL     OW19924   1.543   0.874   3.899  0.3990 -0.2265 -0.0964
 2763SOL    HW119925   1.494   0.798   3.868 -0.8772  0.8290 -0.6228
 2763SOL    HW219926   1.473   0.938   3.889  0.7320  0.3891  1.5847
 2764SOL     OW19927   3.833   4.706   6.021 -0.2894 -0.4918  0.5842
 2764SOL    HW119928   3.828   4.621   5.978 -0.7946 -0.0512 -0.2328
 2764SOL    HW219929   3.848   4.684   6.113  1.4897  2.2936  0.9555
 2765SOL     OW19930   1.764   1.769   4.651 -0.2255  0.3026  0.0073
 2765SOL    HW119931   1.676   1.740   4.675 -0.8561  0.6011 -1.9199
 2765SOL    HW219932   1.816   1.757   4.730  1.3837  2.8427 -0.6723
 2766SOL     OW19933   0.614   1.661   7.248 -0.7309 -0.0108 -0.1965
 2766SOL    HW119934   0.603   1.611   7.167  0.7719  0.7716 -0.8774
 2766SOL    HW219935   0.676   1.730   7.225 -0.9482  0.0002 -0.7513
 2767SOL     OW19936   1.817   0.977  12.292  0.3168 -0.4523  0.9041
 2767SOL    HW119937   1.724   0.995  12.280 -0.0171 -1.6975  1.6311
 2767SOL    HW219938   1.857   1.060  12.319 -0.1403  0.0984 -0.0852
 2768SOL     OW19939   3.180   2.343   5.225 -0.0797 -0.2624 -0.2472
 2768SOL    HW119940   3.198   2.300   5.308  0.0486  0.4593  0.1047
 2768SOL    HW219941   3.091   2.313   5.206  0.4934 -1.6619 -0.6351
 2769SOL     OW19942   2.643   3.545   4.977 -0.1057 -0.1717  0.4417
 2769SOL    HW119943   2.647   3.586   5.064  0.3920 -0.2609  0.4623
 2769SOL    HW219944   2.710   3.586   4.923  0.2354 -0.4736  0.6365
 2770SOL     OW19945   1.653   1.138  12.732  0.3998 -0.3578  0.4963
 2770SOL    HW119946   1.575   1.135  12.677  0.8378 -2.8760  0.0137
 2770SOL    HW219947   1.707   1.067  12.698 -1.0282 -1.1320 -0.1558
 2771SOL     OW19948   1.752   1.133  11.806  0.5564  0.2648 -0.2122
 2771SOL    HW119949   1.815   1.142  11.734  1.8686 -0.0015  0.9120
 2771SOL    HW219950   1.682   1.177  11.757  0.5153 -0.6110 -0.9324
 2772SOL     OW19951   3.864   4.635   6.319 -0.2584 -0.2855  0.5564
 2772SOL    HW119952   3.889   4.592   6.400  0.5747  0.5308  0.7396
 2772SOL    HW219953   3.952   4.673   6.308 -0.5248  0.8826  2.4936
 2773SOL     OW19954   0.954   2.527   1.996  0.0095  0.0187 -0.5564
 2773SOL    HW119955   0.925   2.467   2.065 -2.0960  2.6112  0.8175
 2773SOL    HW219956   1.032   2.483   1.961  0.2504 -0.2279  0.2932
 2774SOL     OW19957   1.383   3.769   8.300 -0.4520  0.5997 -0.1624
 2774SOL    HW119958   1.391   3.858   8.266 -1.1519 -0.1310 -2.2144
 2774SOL    HW219959   1.360   3.719   8.222 -0.9101  3.2046 -1.6543
 2775SOL     OW19960   3.882   2.022   4.882  0.7184 -0.1708  0.2661
 2775SOL    HW119961   3.805   2.060   4.924  1.1890 -1.7485  2.5457
 2775SOL    HW219962   3.876   1.929   4.900  1.5258 -0.3684 -0.4540
 2776SOL     OW19963   1.464   4.110   3.155 -0.6428 -0.3799 -0.6135
 2776SOL    HW119964   1.460   4.185   3.095  0.3693  1.5014  1.6681
 2776SOL    HW219965   1.559   4.100   3.163 -0.4712  0.3924 -1.6737
 2777SOL     OW19966   1.880   3.291   4.930 -0.3674  0.0697 -0.0268
 2777SOL    HW119967   1.907   3.203   4.904  0.1245 -0.4621  2.2646
 2777SOL    HW219968   1.801   3.305   4.878 -0.1852  2.8856  0.4887
 2778SOL     OW19969   4.662   1.429  12.399 -0.4801  0.0841  0.7920
 2778SOL    HW119970   4.591   1.365  12.406  0.1676 -0.7667 -0.2912
 2778SOL    HW219971   4.633   1.487  12.469 -0.3666  2.2728 -0.9835
 2779SOL     OW19972   3.335   4.349   6.789  0.0808  0.5490  0.0628
 2779SOL    HW119973   3.409   4.396   6.827 -0.8743  0.8360  1.5701
 2779SOL    HW219974   3.388   4.275   6.759  1.7895  1.5224  0.7060
 2780SOL     OW19975   1.556   3.872   2.146  0.3779 -0.4651 -0.5607
 2780SOL    HW119976   1.489   3.939   2.161  1.7636  0.9578 -0.7928
 2780SOL    HW219977   1.567   3.826   2.230  0.6012  1.3222  0.3940
 2781SOL     OW19978   1.947   2.608   9.727  0.6920  0.4697 -0.8780
 2781SOL    HW119979   1.871   2.655   9.692 -1.4720 -2.6617 -0.4181
 2781SOL    HW219980   1.945   2.526   9.677  0.4526 -1.0451  1.5999
 2782SOL     OW19981   1.632   1.080  10.281 -0.3353 -0.1391  0.3557
 2782SOL    HW119982   1.633   1.171  10.251 -1.4029 -0.0548  0.5777
 2782SOL    HW219983   1.578   1.085  10.359 -0.9609 -0.6265 -0.0543
 2783SOL     OW19984   3.447   0.257   6.226  0.5123  0.0046 -0.1660
 2783SOL    HW119985   3.419   0.342   6.258  2.2275 -0.1638  1.8134
 2783SOL    HW219986   3.526   0.254   6.281  0.9788 -2.8015 -0.9544
 2784SOL     OW19987   3.366   4.206   2.977  0.1265 -0.5203  0.5623
 2784SOL    HW119988   3.271   4.195   2.967  0.5661 -1.6574 -2.3280
 2784SOL    HW219989   3.374   4.206   3.072  0.8470 -0.6183  0.5028
 2785SOL     OW19990   4.599   2.307   7.009 -0.0656 -0.0148 -0.4983
 2785SOL    HW119991   4.513   2.287   6.972 -0.7106  1.9146 -0.0387
 2785SOL    HW219992   4.612   2.225   7.058 -2.7600 -0.8062 -1.0815
 2786SOL     OW19993   1.279   3.319   0.094  0.2925 -0.5278  0.1725
 2786SOL    HW119994   1.227   3.397   0.116  1.1099  0.1428 -0.2523
 2786SOL    HW219995   1.225   3.291   0.020  0.8921  0.2972 -0.5818
 2787SOL     OW19996   1.663   1.706   7.847 -0.3372 -0.1636  0.1275
 2787SOL    HW119997   1.738   1.763   7.837  0.2584 -0.8292  0.7997
 2787SOL    HW219998   1.614   1.742   7.772 -2.3325 -0.7654  1.1386
 2788SOL     OW19999   3.841   2.093   3.727  0.3858  0.5169 -0.0328
 2788SOL    HW120000   3.834   2.048   3.812 -2.2061  3.2018  1.1822
 2788SOL    HW220001   3.919   2.143   3.750  0.1387  0.7922  0.2118
 2789SOL     OW20002   2.168   0.464  10.938 -0.3143  0.5352  0.1808
 2789SOL    HW120003   2.173   0.559  10.948  0.1208  0.6060 -0.6781
 2789SOL    HW220004   2.256   0.440  10.966 -0.8702 -1.0108  0.6038
 2790SOL     OW20005   1.959   3.712   8.171 -0.0867 -0.5455  0.3741
 2790SOL    HW120006   1.988   3.655   8.242 -0.4778  0.7894  1.5976
 2790SOL    HW220007   1.994   3.793   8.208  0.7280 -1.2208  1.0853
 2791SOL     OW20008   4.052   1.269   1.810 -0.4959 -0.0521 -0.9615
 2791SOL    HW120009   4.098   1.351   1.828 -0.2856 -0.5613  0.7703
 2791SOL    HW220010   4.123   1.206   1.797 -1.3966 -1.3644  0.4217
 2792SOL     OW20011   2.291   3.722   3.596 -0.0730  0.4219 -0.1759
 2792SOL    HW120012   2.365   3.718   3.656  0.7317 -0.2553 -1.2173
 2792SOL    HW220013   2.215   3.691   3.644 -1.2364  2.3342 -0.7803
 2793SOL     OW20014   2.380   3.941   6.403  0.0703 -0.2959 -0.3737
 2793SOL    HW120015   2.386   4.033   6.377  2.5628 -0.0515  1.0857
 2793SOL    HW220016   2.331   3.945   6.486 -0.3401 -2.6667 -0.5035
 2794SOL     OW20017   2.705   3.365   7.252 -0.1440 -0.2669  0.0746
 2794SOL    HW120018   2.644   3.439   7.256 -0.7529 -0.7966  0.5474
 2794SOL    HW220019   2.685   3.329   7.338 -0.4968  3.7647  1.6932
 2795SOL     OW20020   0.500   4.174  15.022  0.1793 -0.4395 -0.1840
 2795SOL    HW120021   0.586   4.196  15.058 -1.4341  6.0312 -0.2844
 2795SOL    HW220022   0.465   4.263  15.011  1.0771 -0.0717 -0.0884
 2796SOL     OW20023   2.617   4.013  16.708  0.4628 -0.1200 -0.4054
 2796SOL    HW120024   2.562   4.004  16.786  0.6408  1.8267 -0.0590
 2796SOL    HW220025   2.594   4.100  16.677 -1.8688 -1.1530 -1.5725
 2797SOL     OW20026   2.919   2.525   8.276  0.0303 -0.2432  0.6263
 2797SOL    HW120027   3.004   2.528   8.321 -0.0998  2.3215  0.6963
 2797SOL    HW220028   2.894   2.617   8.282 -3.2544 -0.9376 -2.4355
 2798SOL     OW20029   3.568   3.816   1.319  0.5762 -0.0304 -0.3752
 2798SOL    HW120030   3.554   3.910   1.303  1.5004  0.1140 -0.3281
 2798SOL    HW220031   3.644   3.812   1.376  0.2841  1.3233  0.1024
 2799SOL     OW20032   2.867   3.386   4.005 -0.0607 -0.3744  0.0811
 2799SOL    HW120033   2.815   3.452   4.052  1.1996  0.4546  0.3017
 2799SOL    HW220034   2.933   3.446   3.973  0.3167 -0.3875  0.8342
 2800SOL     OW20035   2.175   2.494   7.947 -0.0116  0.8292 -0.3713
 2800SOL    HW120036   2.112   2.479   8.016 -0.0796  1.2114 -0.3482
 2800SOL    HW220037   2.155   2.587   7.932  0.3280  0.7110 -1.6057
 2801SOL     OW20038   2.599   3.969   0.853 -0.7592 -0.6330  0.2774
 2801SOL    HW120039   2.539   3.958   0.779  2.2707 -0.1252 -2.2665
 2801SOL    HW220040   2.652   3.889   0.850 -0.2856 -0.1879 -3.1342
 2802SOL     OW20041   3.917   0.227   3.343 -0.1411  0.4424  0.4207
 2802SOL    HW120042   3.913   0.320   3.366  1.3098  0.4607  0.6301
 2802SOL    HW220043   3.833   0.190   3.369  0.1164 -1.0752 -0.9220
 2803SOL     OW20044   1.819   2.452   7.798  0.7042 -0.1075  0.2076
 2803SOL    HW120045   1.782   2.410   7.876  0.3270 -0.7035 -0.2860
 2803SOL    HW220046   1.846   2.536   7.835  2.6462 -1.8292  2.7129
 2804SOL     OW20047   0.214   0.465   8.392 -0.4485 -0.0149 -0.0993
 2804SOL    HW120048   0.282   0.413   8.435 -0.4940 -0.2020 -0.2540
 2804SOL    HW220049   0.228   0.441   8.300 -1.6722 -2.2779  0.2883
 2805SOL     OW20050   1.512   4.605   0.671 -0.0079 -0.6664 -0.3436
 2805SOL    HW120051   1.606   4.591   0.659 -0.3801 -1.6108 -2.1263
 2805SOL    HW220052   1.509   4.695   0.703 -0.8945 -1.1364  0.9280
 2806SOL     OW20053   2.552   2.911   2.820  0.1337 -0.3571  0.1084
 2806SOL    HW120054   2.632   2.917   2.768  1.1798 -1.0299  1.6457
 2806SOL    HW220055   2.585   2.933   2.907  0.7272 -1.2961  0.1174
 2807SOL     OW20056   0.320   4.503  13.059  1.0960 -0.3284 -0.3687
 2807SOL    HW120057   0.318   4.511  12.964  0.2771 -0.4621 -0.3599
 2807SOL    HW220058   0.410   4.525  13.084  0.7356 -0.4927  1.0506
 2808SOL     OW20059   2.546   3.571  10.045 -0.0867 -0.0181  0.0023
 2808SOL    HW120060   2.503   3.649  10.080  0.6130  0.0523  0.7223
 2808SOL    HW220061   2.519   3.581   9.954  1.8240 -2.2130 -0.7925
 2809SOL     OW20062   1.869   2.747  12.328 -0.2274  0.1703 -0.5770
 2809SOL    HW120063   1.890   2.770  12.237 -1.5534 -1.1404 -1.2132
 2809SOL    HW220064   1.777   2.722  12.331 -0.1356 -0.2214 -0.9196
 2810SOL     OW20065   4.707   2.520   4.355 -0.2305  0.2273 -0.0444
 2810SOL    HW120066   4.695   2.567   4.273 -4.6448  0.5423  0.7617
 2810SOL    HW220067   4.665   2.436   4.336 -0.0994 -0.4427  2.5729
 2811SOL     OW20068   0.476   4.041   6.549 -0.1033 -0.4447  0.2329
 2811SOL    HW120069   0.565   4.041   6.586 -0.1978 -0.9579  0.4598
 2811SOL    HW220070   0.460   3.949   6.528 -2.0293 -0.1037  0.2587
 2812SOL     OW20071   0.380   1.923   3.589  0.4064 -0.4157 -0.0054
 2812SOL    HW120072   0.356   1.834   3.614  0.2652  0.3132  2.4615
 2812SOL    HW220073   0.446   1.947   3.654 -1.8948 -1.1252  2.5832
 2813SOL     OW20074   3.277   3.610   1.867  0.3158  0.1916  0.2058
 2813SOL    HW120075   3.190   3.618   1.907  0.2537 -0.0516  0.1157
 2813SOL    HW220076   3.260   3.645   1.780  0.0261  1.1983  0.6594
 2814SOL     OW20077   3.895   0.249  13.226 -0.0727  0.2964 -0.5471
 2814SOL    HW120078   3.950   0.177  13.195  0.2004  0.2711  0.0049
 2814SOL    HW220079   3.831   0.202  13.281  1.9799 -3.7226 -1.5853
 2815SOL     OW20080   4.439   4.589   9.245  0.3001 -0.2689  0.0682
 2815SOL    HW120081   4.428   4.678   9.213  1.5283 -0.7650 -1.6900
 2815SOL    HW220082   4.519   4.562   9.200  0.9219  0.9984  0.3937
 2816SOL     OW20083   0.078   4.729   8.269  0.4165  0.2755 -0.6923
 2816SOL    HW120084   0.120   4.670   8.331 -2.8873  0.7336  2.0147
 2816SOL    HW220085   0.146   0.048   8.237  1.3846 -1.0510 -1.0474
 2817SOL     OW20086   0.122   2.166   7.632 -0.0390  0.4273  0.1758
 2817SOL    HW120087   0.151   2.129   7.549  0.8646  0.9377  0.2636
 2817SOL    HW220088   0.207   2.170   7.676 -0.0991  1.1806  0.2344
 2818SOL     OW20089   0.101   2.046   2.878 -0.1175 -0.2835 -0.2747
 2818SOL    HW120090   0.027   2.055   2.818  1.7402  1.2909 -2.3156
 2818SOL    HW220091   0.128   1.957   2.858 -3.6646 -1.4628  0.1809
 2819SOL     OW20092   4.121   0.260   5.014  0.3361  0.0064  0.3444
 2819SOL    HW120093   4.175   0.263   5.093 -1.4873 -0.7507  1.6303
 2819SOL    HW220094   4.033   0.244   5.050  0.6179 -0.7648  0.6860
 2820SOL     OW20095   0.538   1.214   5.889 -0.3264  0.3174 -0.3149
 2820SOL    HW120096   0.618   1.170   5.859  0.1838  0.6282  0.5814
 2820SOL    HW220097   0.487   1.144   5.930 -0.4378  0.1273 -0.7800
 2821SOL     OW20098   0.247   3.145  13.286 -0.1360  0.1919 -0.4522
 2821SOL    HW120099   0.237   3.072  13.347  0.3162  0.1536 -0.4286
 2821SOL    HW220100   0.306   3.208  13.326  0.3331 -1.4982  1.4922
 2822SOL     OW20101   3.954   2.408  12.458 -0.0860  0.0615  0.0915
 2822SOL    HW120102   3.883   2.470  12.476 -0.2633  0.7772 -3.0754
 2822SOL    HW220103   3.957   2.345  12.530  1.2516 -1.2569 -1.1335
 2823SOL     OW20104   3.568   1.575  12.585 -0.2690  0.2986 -0.1550
 2823SOL    HW120105   3.482   1.570  12.627  0.1269 -0.9840  0.5167
 2823SOL    HW220106   3.610   1.655  12.618 -1.0528  0.3266  0.8008
 2824SOL     OW20107   3.353   4.583   4.427 -0.3766  0.0605 -0.0088
 2824SOL    HW120108   3.315   4.634   4.356 -3.0043 -1.4136  0.3320
 2824SOL    HW220109   3.422   4.536   4.381  0.0010  0.2799  0.3377
 2825SOL     OW20110   2.319   3.890   1.521  0.2082 -0.2857 -0.5148
 2825SOL    HW120111   2.299   3.983   1.531  0.0064 -0.3641 -0.1933
 2825SOL    HW220112   2.237   3.857   1.557  0.8053 -0.0070  1.1183
 2826SOL     OW20113   1.520   4.727   4.669 -0.3516 -0.8803 -0.3673
 2826SOL    HW120114   1.436   0.003   4.712 -0.0337 -2.3581  0.7542
 2826SOL    HW220115   1.581   4.733   4.743 -1.1395 -0.8245  0.2745
 2827SOL     OW20116   0.967   3.774   6.476 -0.9474 -0.0366  0.4572
 2827SOL    HW120117   0.985   3.868   6.476  0.2994 -0.2651  0.3033
 2827SOL    HW220118   0.952   3.746   6.566  2.2814 -0.1742  0.9653
 2828SOL     OW20119   3.486   3.019  11.564  0.1424 -0.1199  0.3396
 2828SOL    HW120120   3.554   3.037  11.498 -0.2211  1.7016  0.4541
 2828SOL    HW220121   3.477   3.103  11.610  0.7221  0.2246 -0.1786
 2829SOL     OW20122   0.059   0.504   6.295 -0.1121  0.1396  0.2467
 2829SOL    HW120123   0.082   0.569   6.360  3.7217 -0.1694 -0.7901
 2829SOL    HW220124   0.123   0.433   6.305  0.1118  0.0295 -1.7895
 2830SOL     OW20125   3.197   2.440   2.138  0.2768 -0.3362 -0.3637
 2830SOL    HW120126   3.106   2.450   2.165  0.8909  0.8616  1.2306
 2830SOL    HW220127   3.239   2.507   2.191  2.4723 -0.6404 -1.7198
 2831SOL     OW20128   1.740   4.232   4.257 -0.1336  0.1490  0.0157
 2831SOL    HW120129   1.695   4.189   4.185  1.6009 -2.2330  0.3254
 2831SOL    HW220130   1.667   4.285   4.287 -0.6315  0.6587 -2.1016
 2832SOL     OW20131   1.183   1.575   9.746 -0.3026  0.5674 -0.3144
 2832SOL    HW120132   1.104   1.547   9.793 -0.6333  1.5334 -0.2768
 2832SOL    HW220133   1.148   1.601   9.661 -0.7332  1.9150  0.2655
 2833SOL     OW20134   1.419   3.533   6.065 -0.0471 -0.5930 -0.0880
 2833SOL    HW120135   1.479   3.462   6.088 -0.0143  0.1931  2.2658
 2833SOL    HW220136   1.477   3.604   6.038 -2.2160  0.9857 -0.5637
 2834SOL     OW20137   1.017   4.194   7.811 -0.0207 -0.2195 -0.2451
 2834SOL    HW120138   0.943   4.172   7.754  0.2298  0.9211 -1.0073
 2834SOL    HW220139   0.984   4.279   7.840  0.7191 -0.1320  0.3379
 2835SOL     OW20140   2.268   1.310   4.597  0.0571 -0.1047  0.7318
 2835SOL    HW120141   2.285   1.287   4.506 -0.9878  0.8631  0.2981
 2835SOL    HW220142   2.178   1.287   4.617  0.0592  0.2129  1.1159
 2836SOL     OW20143   4.513   3.087   8.900 -0.0659 -0.4237  0.3659
 2836SOL    HW120144   4.509   3.141   8.820  2.3637 -1.8134 -0.6906
 2836SOL    HW220145   4.500   3.150   8.971 -0.9494 -0.1017 -0.0742
 2837SOL     OW20146   0.416   3.373   2.392 -0.2948  0.6115  0.5373
 2837SOL    HW120147   0.415   3.433   2.467  3.0657 -0.7320  1.6731
 2837SOL    HW220148   0.508   3.345   2.393 -0.9469 -1.6432 -3.1552
 2838SOL     OW20149   3.101   4.441   9.240  0.3317 -0.3523  0.3850
 2838SOL    HW120150   3.074   4.528   9.209  2.6493  0.9274  2.0229
 2838SOL    HW220151   3.108   4.387   9.161  0.4363 -0.8208  0.7166
 2839SOL     OW20152   1.714   1.322  12.903  0.4887 -0.1006  0.0931
 2839SOL    HW120153   1.757   1.257  12.959  1.8598  0.3766 -0.4188
 2839SOL    HW220154   1.675   1.264  12.838 -0.6942  1.1042 -0.2763
 2840SOL     OW20155   0.439   3.318   6.503  0.2005  0.1557 -0.0965
 2840SOL    HW120156   0.363   3.357   6.460  0.0205 -0.3635 -0.2369
 2840SOL    HW220157   0.394   3.295   6.584 -1.3970 -0.8664 -1.2676
 2841SOL     OW20158   0.804   3.793   3.781 -0.2893 -0.2158 -0.2977
 2841SOL    HW120159   0.811   3.884   3.752 -0.4988 -0.4071 -0.9380
 2841SOL    HW220160   0.710   3.793   3.803  0.0487  0.6417  1.1716
 2842SOL     OW20161   1.009   2.677  13.844  0.1930 -0.1627 -0.8026
 2842SOL    HW120162   1.101   2.701  13.850 -0.1099  0.8350  0.1097
 2842SOL    HW220163   0.982   2.701  13.755 -3.2216  1.6241  0.7104
 2843SOL     OW20164   0.193   3.266  11.149 -0.0273 -0.0392  0.0212
 2843SOL    HW120165   0.214   3.217  11.229  0.4386  0.1008 -0.0146
 2843SOL    HW220166   0.278   3.267  11.105 -1.6002 -0.8491 -2.9939
 2844SOL     OW20167   1.518   2.229   4.190  0.2648  0.0901  0.2688
 2844SOL    HW120168   1.511   2.136   4.169  1.8957 -0.0806  0.5325
 2844SOL    HW220169   1.464   2.231   4.269  1.2277 -0.6370  0.9460
 2845SOL     OW20170   2.666   1.578  10.030 -0.6956 -0.0399  0.0282
 2845SOL    HW120171   2.662   1.674  10.033  0.4035  0.0301 -0.8980
 2845SOL    HW220172   2.730   1.568  10.100  2.0374  2.0694 -2.1511
 2846SOL     OW20173   4.713   3.413   3.146  0.3886  0.3393  0.0026
 2846SOL    HW120174   0.024   3.338   3.177 -0.6677 -1.2291 -2.1403
 2846SOL    HW220175   4.704   3.378   3.058 -2.9151  1.2435  0.0028
 2847SOL     OW20176   3.082   2.122  17.732  0.3736 -0.4031  0.1795
 2847SOL    HW120177   3.177   2.113  17.721  0.1902 -1.5930 -0.5314
 2847SOL    HW220178   3.075   2.151   0.068  2.8217 -1.0717  0.6063
 2848SOL     OW20179   3.704   2.970  10.961 -0.3540 -0.3864  0.1383
 2848SOL    HW120180   3.788   2.939  10.994  0.5051  0.7187 -1.0060
 2848SOL    HW220181   3.639   2.907  10.994 -0.8737  0.4151  0.6423
 2849SOL     OW20182   3.233   3.908  14.475  0.1181  0.2013 -0.2413
 2849SOL    HW120183   3.182   3.971  14.526 -0.4076 -0.2867 -0.1672
 2849SOL    HW220184   3.314   3.924  14.523 -0.7136  0.0429  1.2181
 2850SOL     OW20185   1.325   2.972  11.187 -0.0652  0.2960  0.6592
 2850SOL    HW120186   1.259   2.902  11.183  1.7382 -1.4132  0.6035
 2850SOL    HW220187   1.385   2.938  11.253 -0.0837  0.0961  0.5741
 2851SOL     OW20188   4.093   1.157  17.068 -0.0803 -0.4312 -0.5458
 2851SOL    HW120189   4.156   1.166  17.139 -1.4159 -0.2508  0.6095
 2851SOL    HW220190   4.084   1.065  17.042 -3.5951 -0.5436  1.0518
 2852SOL     OW20191   1.680   2.381  12.693 -0.3762  0.2007  0.0390
 2852SOL    HW120192   1.586   2.361  12.700 -0.1978 -0.8728 -0.7011
 2852SOL    HW220193   1.709   2.325  12.621 -0.7468 -1.2752  1.0442
 2853SOL     OW20194   4.159   4.395   2.395  0.5673  0.4978  0.0717
 2853SOL    HW120195   4.174   4.339   2.472  0.7032  0.7498  0.2275
 2853SOL    HW220196   4.098   4.337   2.349  0.7454  0.8821 -0.6435
 2854SOL     OW20197   3.204   1.025   2.287 -0.0662 -0.0047 -0.1560
 2854SOL    HW120198   3.119   1.036   2.330  0.9278  0.5475  1.6551
 2854SOL    HW220199   3.251   1.007   2.369 -0.4599 -0.9502 -0.1375
 2855SOL     OW20200   3.064   3.753  12.887 -0.0542  0.5252  0.5474
 2855SOL    HW120201   3.094   3.686  12.949  1.6976  1.5038  0.7485
 2855SOL    HW220202   3.113   3.832  12.909  1.0548 -0.3994  1.4516
 2856SOL     OW20203   4.531   4.355   4.911  0.5263 -0.2801 -0.3111
 2856SOL    HW120204   4.528   4.260   4.904  1.0073 -0.2705 -0.6544
 2856SOL    HW220205   4.483   4.374   4.992 -0.7357 -0.9645 -0.8988
 2857SOL     OW20206   0.412   4.350   5.614  0.8366  0.2934  0.2412
 2857SOL    HW120207   0.384   4.430   5.569  4.6082  1.7094  0.4383
 2857SOL    HW220208   0.373   4.281   5.560  1.0568 -1.1213  1.9042
 2858SOL     OW20209   3.432   2.068   2.037  0.4860 -0.2490 -0.2999
 2858SOL    HW120210   3.422   2.161   2.016 -1.8537 -0.2677  0.7094
 2858SOL    HW220211   3.524   2.050   2.056  0.3520 -0.0776  0.5401
 2859SOL     OW20212   2.483   3.429  11.580  0.0818 -0.0624 -0.2882
 2859SOL    HW120213   2.571   3.394  11.569 -0.9297 -1.9683 -2.1345
 2859SOL    HW220214   2.446   3.427  11.492  0.3330  0.4445 -0.4073
 2860SOL     OW20215   0.904   3.750   5.348  0.5050  0.3458 -0.0627
 2860SOL    HW120216   0.932   3.661   5.326  3.0891  1.0739  0.2747
 2860SOL    HW220217   0.863   3.771   5.264 -0.3293 -1.9546 -0.2104
 2861SOL     OW20218   0.219   2.129   1.513 -0.2137 -0.0724 -0.3938
 2861SOL    HW120219   0.264   2.161   1.591 -1.3393 -3.4783  1.6624
 2861SOL    HW220220   0.246   2.193   1.447 -2.6644 -0.3977 -1.7044
 2862SOL     OW20221   1.626   2.194   1.364 -0.3170 -0.2071 -0.3439
 2862SOL    HW120222   1.593   2.251   1.295  4.0052  0.2477 -2.0175
 2862SOL    HW220223   1.553   2.134   1.379 -1.8161  2.0117  1.3250
 2863SOL     OW20224   1.893   3.226  10.414  0.5335  0.2240  0.2841
 2863SOL    HW120225   1.979   3.203  10.377  0.7266  0.3323  0.6715
 2863SOL    HW220226   1.889   3.321  10.408  1.0984  0.2512  0.2914
 2864SOL     OW20227   3.944   3.937  13.604  1.0089  0.0596 -0.3022
 2864SOL    HW120228   3.897   3.976  13.678 -0.6290 -2.4744 -0.0240
 2864SOL    HW220229   3.882   3.865  13.595 -1.2983  2.2574 -2.1635
 2865SOL     OW20230   0.093   2.553   8.941 -0.5558 -0.0118 -0.4080
 2865SOL    HW120231   0.173   2.529   8.987 -0.6439 -0.7470 -0.6335
 2865SOL    HW220232   0.080   2.481   8.879 -0.4857 -0.9341  0.6562
 2866SOL     OW20233   2.852   0.855   3.789 -0.3543 -0.0150  0.1738
 2866SOL    HW120234   2.837   0.820   3.701  0.5493 -0.5892  0.2437
 2866SOL    HW220235   2.815   0.943   3.789 -0.2962  0.0191  1.9305
 2867SOL     OW20236   4.133   1.903   3.131 -0.3020  0.3951  0.5319
 2867SOL    HW120237   4.094   1.818   3.155 -0.6766  0.5230  0.3723
 2867SOL    HW220238   4.106   1.952   3.208  1.3990 -0.1311  1.4625
 2868SOL     OW20239   3.164   3.630   7.798  0.0888 -0.6901  0.2197
 2868SOL    HW120240   3.181   3.695   7.730 -1.8859 -2.2000 -1.7308
 2868SOL    HW220241   3.222   3.657   7.869  0.3225 -1.0503  0.1697
 2869SOL     OW20242   0.660   1.709  17.559  0.1068 -0.4411 -0.2615
 2869SOL    HW120243   0.588   1.663  17.515 -0.1708  0.3151 -0.6109
 2869SOL    HW220244   0.623   1.729  17.645 -0.4747 -0.3138 -0.5373
 2870SOL     OW20245   1.238   3.810  12.114  0.0928  0.8137 -0.4755
 2870SOL    HW120246   1.224   3.903  12.132  1.1318  0.7922  0.4470
 2870SOL    HW220247   1.313   3.815  12.055  0.0880  0.5458 -0.5062
 2871SOL     OW20248   1.843   3.258   9.604 -0.2289  0.1951  0.4280
 2871SOL    HW120249   1.823   3.351   9.598  0.9041  0.4743  1.0555
 2871SOL    HW220250   1.910   3.254   9.672 -0.6878 -5.9544  0.5049
 2872SOL     OW20251   3.816   1.603   4.785  0.1016 -0.0223 -0.3674
 2872SOL    HW120252   3.751   1.592   4.854 -1.3249 -1.6621 -1.9887
 2872SOL    HW220253   3.898   1.581   4.829 -0.4699  1.2512  1.3437
 2873SOL     OW20254   4.156   1.550  16.312  0.0153  0.4710  0.0311
 2873SOL    HW120255   4.240   1.512  16.336 -1.1249 -2.3121 -0.4507
 2873SOL    HW220256   4.106   1.526  16.389  1.2068  2.0567  1.2869
 2874SOL     OW20257   2.561   4.110   2.860  0.3496  0.2090  0.3128
 2874SOL    HW120258   2.520   4.116   2.946  0.8780 -1.0312  0.6584
 2874SOL    HW220259   2.546   4.197   2.825  0.4928  0.9559  2.1078
 2875SOL     OW20260   4.164   3.850  10.384  0.1715  0.5697  0.8476
 2875SOL    HW120261   4.128   3.880  10.301 -0.7690 -2.0298  0.3108
 2875SOL    HW220262   4.088   3.857  10.442 -1.9728 -0.4614 -1.8492
 2876SOL     OW20263   0.856   2.410  11.430  0.1996 -0.3652 -0.2677
 2876SOL    HW120264   0.783   2.390  11.372  1.0725 -3.0145 -0.4554
 2876SOL    HW220265   0.880   2.323  11.461  0.6526  0.4870  1.8349
 2877SOL     OW20266   0.645   2.243   3.671 -0.0605 -0.2621 -0.6059
 2877SOL    HW120267   0.737   2.245   3.644 -0.0457 -2.7470 -0.7550
 2877SOL    HW220268   0.603   2.276   3.592  2.5560  2.3815 -0.8990
 2878SOL     OW20269   3.278   4.603  14.429 -0.3148  0.0263 -0.0294
 2878SOL    HW120270   3.287   4.620  14.335 -0.3184 -0.3299 -0.0949
 2878SOL    HW220271   3.193   4.559  14.422 -0.0687 -0.6444  1.1871
 2879SOL     OW20272   4.106   2.357   6.164  0.0421  0.1547  0.7597
 2879SOL    HW120273   4.085   2.446   6.137 -0.9610  0.4930  2.7306
 2879SOL    HW220274   4.065   2.346   6.249 -0.3179  0.5914  0.6426
 2880SOL     OW20275   2.310   4.605   2.184 -0.2532 -0.1069  0.1903
 2880SOL    HW120276   2.341   4.514   2.180 -0.5019 -0.2430  1.2888
 2880SOL    HW220277   2.236   4.591   2.125  0.3846 -1.7617 -0.2372
 2881SOL     OW20278   3.654   0.360  12.042 -0.0198  0.0710  0.1088
 2881SOL    HW120279   3.644   0.294  12.112  0.9459 -2.6472 -2.3130
 2881SOL    HW220280   3.681   0.435  12.096 -1.1344 -0.2098  1.0693
 2882SOL     OW20281   1.594   1.340  10.207  0.3336  0.3079  0.2576
 2882SOL    HW120282   1.523   1.381  10.157 -0.1581  1.1635  1.6450
 2882SOL    HW220283   1.653   1.416  10.206  1.1571 -0.3423 -0.3286
 2883SOL     OW20284   1.450   2.815   2.202  0.5823  0.3561 -0.1313
 2883SOL    HW120285   1.427   2.899   2.162 -0.9477  0.0471  0.1054
 2883SOL    HW220286   1.406   2.751   2.147 -0.8491  2.0633 -0.9747
 2884SOL     OW20287   4.035   3.371   7.355 -0.7556 -0.4181 -0.3515
 2884SOL    HW120288   4.112   3.402   7.306  0.3051 -1.2306  0.7927
 2884SOL    HW220289   4.068   3.391   7.443  2.7126 -2.7088 -1.1413
 2885SOL     OW20290   3.637   4.070   7.420 -0.1969  0.0327  0.0940
 2885SOL    HW120291   3.695   4.037   7.489  0.4037  1.0026  0.0614
 2885SOL    HW220292   3.667   4.160   7.409 -1.2983  0.1333 -2.0440
 2886SOL     OW20293   4.581   0.133   2.495  0.0415 -0.2280 -0.2007
 2886SOL    HW120294   4.588   0.051   2.544  1.6492  0.5901  0.9309
 2886SOL    HW220295   4.663   0.128   2.445 -0.2225  0.7244 -0.7240
 2887SOL     OW20296   1.920   4.001   5.543  0.3195 -0.3581 -0.0088
 2887SOL    HW120297   1.975   3.958   5.609 -0.6399  0.2251  1.1895
 2887SOL    HW220298   1.837   4.014   5.590  0.8397 -0.2829  0.9066
 2888SOL     OW20299   2.317   4.127   4.945  0.0660 -0.3046  0.2736
 2888SOL    HW120300   2.396   4.078   4.966 -0.8640 -1.3293  1.3710
 2888SOL    HW220301   2.298   4.182   5.022 -3.3998  0.2328 -0.9569
 2889SOL     OW20302   0.511   1.836   9.771 -0.1086  0.1076  0.1274
 2889SOL    HW120303   0.436   1.868   9.821 -0.3917 -0.2492 -0.0754
 2889SOL    HW220304   0.523   1.755   9.820  1.7620  0.1167 -0.2934
 2890SOL     OW20305   3.330   2.659   0.587  0.2524  0.2579  0.5340
 2890SOL    HW120306   3.308   2.707   0.507 -0.7052  0.8568  1.1568
 2890SOL    HW220307   3.253   2.670   0.643  1.6163  0.4104  2.3906
 2891SOL     OW20308   3.972   4.392  17.519 -0.2053  0.0295 -0.8880
 2891SOL    HW120309   4.009   4.332  17.584 -2.1744 -1.6816 -1.3523
 2891SOL    HW220310   3.901   4.441  17.561  0.8939 -1.5140  2.8018
 2892SOL     OW20311   2.188   1.656   3.368 -0.4362  0.1101  0.0354
 2892SOL    HW120312   2.175   1.746   3.396 -0.4482 -0.1589  0.9102
 2892SOL    HW220313   2.114   1.625   3.421  1.2045 -1.2168  1.5603
 2893SOL     OW20314   2.609   2.488   9.024  0.0923  0.0780 -0.1747
 2893SOL    HW120315   2.669   2.562   9.036  0.2547  0.1620 -1.5130
 2893SOL    HW220316   2.523   2.528   9.037  0.3211  0.9331 -1.2739
 2894SOL     OW20317   1.138   4.279   3.243  0.3823 -0.1840  0.6948
 2894SOL    HW120318   1.103   4.290   3.331 -2.5933 -0.3081 -0.4678
 2894SOL    HW220319   1.069   4.277   3.177  0.9934 -3.1268  0.1350
 2895SOL     OW20320   2.273   0.602  16.687 -0.5770 -0.1479  0.0142
 2895SOL    HW120321   2.208   0.605  16.757  0.6274 -0.5241  1.1752
 2895SOL    HW220322   2.237   0.669  16.629  0.3423  1.4180  1.2603
 2896SOL     OW20323   2.282   1.642   5.668  0.3523 -0.7999  0.2710
 2896SOL    HW120324   2.250   1.642   5.758 -2.4546  2.3701 -0.7120
 2896SOL    HW220325   2.375   1.665   5.676 -0.1733  0.6516  2.2632
 2897SOL     OW20326   4.662   1.856  15.707  0.3257 -0.1340  0.8006
 2897SOL    HW120327   4.669   1.922  15.776 -0.0290 -0.6257  1.3048
 2897SOL    HW220328   4.645   1.774  15.753  0.8378 -1.8646 -2.1213
 2898SOL     OW20329   3.090   3.018   3.271 -0.2851 -0.1314  0.3725
 2898SOL    HW120330   3.178   3.038   3.303 -0.4814 -1.0683  1.4999
 2898SOL    HW220331   3.069   2.949   3.333  1.5243 -0.0204  1.1156
 2899SOL     OW20332   4.171   3.732   7.488 -0.1422 -0.5848  0.1081
 2899SOL    HW120333   4.095   3.704   7.539 -1.0659 -1.1063 -1.5591
 2899SOL    HW220334   4.231   3.660   7.509 -0.3074 -0.8000 -0.1531
 2900SOL     OW20335   1.561   0.013   5.615 -0.4648 -0.1402  0.6587
 2900SOL    HW120336   1.592   0.103   5.627 -0.7358 -0.0704  0.8264
 2900SOL    HW220337   1.637   4.699   5.640 -0.8591 -0.4168  1.2709
 2901SOL     OW20338   2.889   1.095   6.911 -0.1695 -0.7776 -0.0156
 2901SOL    HW120339   2.843   1.178   6.913 -2.4233 -2.0402  0.6631
 2901SOL    HW220340   2.885   1.073   6.818 -1.4611  3.0691 -0.8384
 2902SOL     OW20341   1.089   1.713   3.866 -0.3361  0.2621  0.0088
 2902SOL    HW120342   1.127   1.722   3.953 -1.2541 -1.3854  0.5647
 2902SOL    HW220343   1.140   1.770   3.807  2.6997 -1.0177  1.4063
 2903SOL     OW20344   2.375   0.337   8.834  0.2822 -0.1688 -0.1074
 2903SOL    HW120345   2.384   0.242   8.839  0.6585 -0.1881 -1.1443
 2903SOL    HW220346   2.303   0.337   8.771  0.6631  2.1451 -0.5507
 2904SOL     OW20347   0.947   0.839   6.217  0.0164 -0.1897  0.2224
 2904SOL    HW120348   0.909   0.789   6.289  0.1560 -1.1114 -0.3510
 2904SOL    HW220349   1.019   0.881   6.265  1.6405 -2.3785 -0.3370
 2905SOL     OW20350   4.186   3.167   1.626 -0.0658  0.5378  0.0609
 2905SOL    HW120351   4.232   3.121   1.556  1.2533  2.3235 -0.2279
 2905SOL    HW220352   4.240   3.246   1.634 -0.3663  0.7694 -0.2070
 2906SOL     OW20353   2.669   3.289   5.274  0.3288  0.0176  0.0995
 2906SOL    HW120354   2.609   3.214   5.280 -0.9197  0.9306 -0.8274
 2906SOL    HW220355   2.658   3.321   5.363  0.7509 -1.1022  0.5537
 2907SOL     OW20356   3.663   0.182   2.512  0.1405  0.4685  0.0097
 2907SOL    HW120357   3.589   0.126   2.535  1.3099 -0.7442  0.8566
 2907SOL    HW220358   3.624   0.257   2.468  0.2738  1.2768  1.2559
 2908SOL     OW20359   0.783   3.702  16.766  0.1928  0.3410  0.0548
 2908SOL    HW120360   0.705   3.722  16.714  0.9648  0.5180 -1.0244
 2908SOL    HW220361   0.776   3.607  16.772 -1.7491  0.4431 -0.5821
 2909SOL     OW20362   4.361   2.550   9.733  0.1857 -0.0380 -0.1476
 2909SOL    HW120363   4.379   2.546   9.639  1.0373 -0.5552  0.0309
 2909SOL    HW220364   4.358   2.644   9.753  1.6372 -0.1035  0.3835
 2910SOL     OW20365   0.847   3.034   7.997  0.0073  0.0814  0.3727
 2910SOL    HW120366   0.823   3.125   8.013  2.8346  0.8924 -0.0351
 2910SOL    HW220367   0.783   3.003   7.932  0.1654 -1.7719  1.0801
 2911SOL     OW20368   3.769   0.448   4.831 -0.0171 -0.3484  0.1196
 2911SOL    HW120369   3.682   0.474   4.802  0.1004  0.8542  0.8392
 2911SOL    HW220370   3.759   0.354   4.847 -0.9147 -0.4160 -0.8164
 2912SOL     OW20371   3.801   4.097  17.585 -0.7476  0.2567  0.4639
 2912SOL    HW120372   3.805   4.003  17.600 -3.8002 -0.1633 -1.6123
 2912SOL    HW220373   3.872   4.123  17.645 -1.1460 -0.5706  1.3015
 2913SOL     OW20374   1.482   2.243   5.999  0.0386  0.3347  0.4083
 2913SOL    HW120375   1.471   2.329   6.041 -0.0611  0.5782 -0.1151
 2913SOL    HW220376   1.532   2.274   5.924 -2.4836 -0.1216 -1.4282
 2914SOL     OW20377   1.075   4.201   9.445 -0.1898  0.0136  0.2367
 2914SOL    HW120378   1.094   4.244   9.528  2.0953 -0.0231 -0.2571
 2914SOL    HW220379   1.158   4.157   9.426  0.5738  1.2912  0.5794
 2915SOL     OW20380   1.126   4.565   8.271  0.4519  0.4626  0.1001
 2915SOL    HW120381   1.035   4.575   8.299  0.2833  0.2428 -0.3800
 2915SOL    HW220382   1.131   4.523   8.185  2.1366  1.3956 -0.2649
 2916SOL     OW20383   2.760   3.665   9.898  0.0367 -0.4227  0.2241
 2916SOL    HW120384   2.696   3.633   9.962  0.2089  1.0755  1.1409
 2916SOL    HW220385   2.769   3.606   9.823  0.3036 -0.8796  0.6114
 2917SOL     OW20386   1.235   1.370  12.023  0.2692  0.7182  0.4802
 2917SOL    HW120387   1.246   1.370  12.118 -0.2053 -2.6121  0.5483
 2917SOL    HW220388   1.321   1.353  11.983  0.5552  0.9421  1.0087
 2918SOL     OW20389   0.530   2.089  17.292 -0.1122  0.2993 -0.1913
 2918SOL    HW120390   0.474   2.158  17.327 -0.5594  0.2885 -0.8751
 2918SOL    HW220391   0.577   2.077  17.374 -2.3668 -0.7055  0.9592
 2919SOL     OW20392   2.668   2.336   2.910  0.1903  0.3477 -0.1317
 2919SOL    HW120393   2.677   2.313   2.818  0.4066 -0.0599 -0.0087
 2919SOL    HW220394   2.573   2.344   2.921  0.3640 -0.0180  1.6886
 2920SOL     OW20395   4.596   3.370   9.861 -0.0086  0.3548  0.1686
 2920SOL    HW120396   4.595   3.288   9.812 -1.3166  1.7374 -2.1398
 2920SOL    HW220397   4.507   3.365   9.894  0.4247 -1.8922  0.9689
 2921SOL     OW20398   0.894   1.065  17.245 -0.1228  0.5829  0.3017
 2921SOL    HW120399   0.961   1.002  17.219  0.8495  1.4725  0.6606
 2921SOL    HW220400   0.931   1.087  17.330 -3.1432  0.1169  1.7438
 2922SOL     OW20401   4.520   0.917   1.741 -0.1037  0.2936 -0.3663
 2922SOL    HW120402   4.519   0.987   1.676 -2.5909 -0.4617 -1.1444
 2922SOL    HW220403   4.498   0.949   1.829  0.7337  1.9815 -0.7741
 2923SOL     OW20404   3.701   4.033  14.492  0.6076 -0.5005  0.8655
 2923SOL    HW120405   3.653   4.063  14.414  0.9386 -4.8710 -1.0349
 2923SOL    HW220406   3.787   4.017  14.453  0.9209 -0.2489  1.4515
 2924SOL     OW20407   3.796   0.457   9.046 -0.8606 -0.0461  0.7473
 2924SOL    HW120408   3.722   0.506   9.083 -0.5071  1.8689 -1.0553
 2924SOL    HW220409   3.749   0.395   8.990 -0.8798  0.4350  0.2242
 2925SOL     OW20410   2.967   3.594   6.683  0.1805 -0.1698 -0.1419
 2925SOL    HW120411   2.942   3.644   6.605 -0.0730  0.7479  0.5281
 2925SOL    HW220412   2.892   3.598   6.743  1.0690 -0.2894  0.9858
 2926SOL     OW20413   0.859   1.473   0.423 -0.0654 -0.2553  0.5449
 2926SOL    HW120414   0.951   1.450   0.434  0.3759  0.7587 -1.1565
 2926SOL    HW220415   0.861   1.569   0.427 -1.9382 -0.1529 -1.2876
 2927SOL     OW20416   2.268   0.753   4.465  0.4383  0.3958  0.5331
 2927SOL    HW120417   2.213   0.756   4.543  0.3280 -2.1837  0.5449
 2927SOL    HW220418   2.356   0.751   4.501  1.2268 -0.7052 -1.4704
 2928SOL     OW20419   4.085   4.547   4.781 -0.2178 -0.0880 -0.1887
 2928SOL    HW120420   4.178   4.537   4.765  1.0976  2.1523  5.7420
 2928SOL    HW220421   4.087   4.621   4.843  0.9883  0.6426 -1.1109
 2929SOL     OW20422   0.243   0.710  15.381 -0.1465 -0.6787  0.1678
 2929SOL    HW120423   0.275   0.762  15.455  1.7677 -2.1097  0.3328
 2929SOL    HW220424   0.272   0.623  15.406 -0.4404 -0.8305 -0.0158
 2930SOL     OW20425   0.725   2.171   3.349 -0.4175  0.3923 -0.3551
 2930SOL    HW120426   0.686   2.201   3.267 -0.4705  2.5039  0.4361
 2930SOL    HW220427   0.686   2.232   3.412 -1.1860  1.5141 -1.9275
 2931SOL     OW20428   2.527   3.746   8.648 -0.1620  0.1872 -0.0854
 2931SOL    HW120429   2.581   3.689   8.703 -0.1824 -1.0380 -1.3371
 2931SOL    HW220430   2.584   3.766   8.574 -0.0469  0.8177  0.1684
 2932SOL     OW20431   2.922   4.297  16.493 -0.2115 -0.1625 -0.0682
 2932SOL    HW120432   2.929   4.209  16.454  0.9435  0.1576 -0.5981
 2932SOL    HW220433   3.014   4.325  16.486 -0.4314  0.2274 -1.3394
 2933SOL     OW20434   1.217   0.943   5.775  0.5442  0.6366 -0.2114
 2933SOL    HW120435   1.235   1.026   5.820 -1.8229  0.6830  0.7090
 2933SOL    HW220436   1.307   0.919   5.754 -0.2605 -1.5061 -1.2140
 2934SOL     OW20437   0.993   0.813  14.014  0.0262 -0.0983 -0.2864
 2934SOL    HW120438   0.970   0.854  14.097 -0.3615  2.2372 -1.5695
 2934SOL    HW220439   1.063   0.870  13.984  0.2044  0.1645  0.6227
 2935SOL     OW20440   2.606   2.695   1.530 -0.2033  0.2510 -0.4001
 2935SOL    HW120441   2.637   2.628   1.592 -0.4754  0.7531  0.2765
 2935SOL    HW220442   2.645   2.660   1.450 -1.7098  1.2492 -1.5519
 2936SOL     OW20443   4.012   3.111   6.031 -0.7459  0.0408  0.3549
 2936SOL    HW120444   4.018   3.111   6.127 -1.2798  3.0077  0.3715
 2936SOL    HW220445   3.996   3.202   6.008  3.2936  0.5502 -0.3927
 2937SOL     OW20446   4.732   2.939  16.513  0.0774  0.9910  0.3767
 2937SOL    HW120447   4.650   2.912  16.471  0.2759  1.6100 -0.3977
 2937SOL    HW220448   4.706   3.030  16.530  0.5702  1.2286 -0.1567
 2938SOL     OW20449   2.604   3.961   1.884  0.1209  0.6467  0.0390
 2938SOL    HW120450   2.691   3.986   1.917  1.3155 -1.1976 -1.7500
 2938SOL    HW220451   2.582   3.902   1.956  1.5712 -0.6067 -0.5627
 2939SOL     OW20452   3.251   2.801   4.370  0.1972  0.4288  0.0029
 2939SOL    HW120453   3.323   2.818   4.309 -0.9414  2.2099 -0.8734
 2939SOL    HW220454   3.297   2.751   4.437  0.0347 -1.6879 -1.4601
 2940SOL     OW20455   1.369   3.677   7.149  0.1105  0.4562 -0.6387
 2940SOL    HW120456   1.321   3.598   7.126 -0.8856  0.8094  0.2189
 2940SOL    HW220457   1.358   3.746   7.083  0.0507  1.2690  0.2328
 2941SOL     OW20458   4.261   4.408   3.187 -0.0367  0.8963 -0.5381
 2941SOL    HW120459   4.231   4.421   3.097  0.6175  1.2215 -0.7076
 2941SOL    HW220460   4.282   4.499   3.208  2.4523  0.0202  0.8347
 2942SOL     OW20461   3.709   3.748  16.958  0.0114 -0.0110 -0.1124
 2942SOL    HW120462   3.737   3.761  17.049 -0.3562  0.0641 -0.0098
 2942SOL    HW220463   3.635   3.690  16.974  1.5224 -1.1398  2.8725
 2943SOL     OW20464   4.648   0.727   3.367 -0.5027 -0.7406  0.0453
 2943SOL    HW120465   4.625   0.697   3.279  0.9041 -0.9339 -0.2449
 2943SOL    HW220466   4.721   0.673   3.396  1.1189  1.2410 -0.3946
 2944SOL     OW20467   2.228   0.942  14.217  0.1954  0.2445  0.2811
 2944SOL    HW120468   2.319   0.952  14.247  0.5827  0.3110 -0.9194
 2944SOL    HW220469   2.195   0.919  14.303 -0.1951  2.3107  0.6881
 2945SOL     OW20470   3.972   1.160   2.723  0.8534 -0.5726  0.0559
 2945SOL    HW120471   3.958   1.255   2.719  0.9854 -0.4505  2.2443
 2945SOL    HW220472   4.002   1.149   2.633 -0.1160  0.0009 -0.3416
 2946SOL     OW20473   1.698   1.310  10.491 -0.0862 -0.7459 -0.4251
 2946SOL    HW120474   1.616   1.307  10.442 -0.5245 -1.1419  0.3503
 2946SOL    HW220475   1.674   1.293  10.581  0.1062  0.0276 -0.2279
 2947SOL     OW20476   0.908   3.417   5.945 -0.1932 -0.1208 -0.1442
 2947SOL    HW120477   0.931   3.468   6.023  1.4059 -1.9399  0.5840
 2947SOL    HW220478   0.950   3.466   5.874 -0.2364  1.4450  0.9069
 2948SOL     OW20479   1.584   2.065   9.417 -0.1013 -0.1889  0.5645
 2948SOL    HW120480   1.644   2.134   9.389 -0.5560 -0.3952 -0.9219
 2948SOL    HW220481   1.494   2.090   9.395 -0.8348 -2.7683  0.6925
 2949SOL     OW20482   4.432   1.710   7.207 -0.1861 -0.1437  0.7224
 2949SOL    HW120483   4.443   1.771   7.280 -0.8381 -1.8065  2.2338
 2949SOL    HW220484   4.380   1.769   7.154 -0.2516  0.5950  1.6117
 2950SOL     OW20485   0.221   1.803   2.818 -0.1791 -0.4415 -0.3013
 2950SOL    HW120486   0.213   1.790   2.912  1.5149 -0.0325 -0.1063
 2950SOL    HW220487   0.171   1.729   2.783 -1.0882  0.7308 -1.4755
 2951SOL     OW20488   2.566   0.735   9.369 -0.1829  0.1090  0.0299
 2951SOL    HW120489   2.594   0.704   9.283 -0.3160  2.6244 -0.9211
 2951SOL    HW220490   2.591   0.663   9.428  0.1878 -0.4229 -0.7830
 2952SOL     OW20491   2.893   3.565   1.754  0.7909  0.3362  1.3783
 2952SOL    HW120492   2.932   3.585   1.839 -0.8699  0.9419  2.0116
 2952SOL    HW220493   2.879   3.656   1.729  0.6689 -0.8261 -2.6946
 2953SOL     OW20494   1.063   3.875   3.529  0.5125  0.2554  0.3116
 2953SOL    HW120495   1.092   3.965   3.540  1.1043  0.3634 -2.0023
 2953SOL    HW220496   1.022   3.888   3.443  1.8932 -0.4227 -0.4488
 2954SOL     OW20497   2.970   2.295  16.022  0.4147 -0.2427  0.3959
 2954SOL    HW120498   3.053   2.248  16.019  0.1706 -0.5361 -2.4360
 2954SOL    HW220499   2.941   2.310  15.931  0.3738 -2.3465  0.0712
 2955SOL     OW20500   1.319   3.240   2.477 -0.1197 -0.5115  0.4203
 2955SOL    HW120501   1.276   3.313   2.522 -1.2030 -1.3271  0.6912
 2955SOL    HW220502   1.289   3.162   2.523  1.9701 -0.8624  1.2096
 2956SOL     OW20503   0.077   3.988   2.857  0.2090  0.3491  0.7759
 2956SOL    HW120504   4.736   4.012   2.812 -0.6921 -1.3041  1.5086
 2956SOL    HW220505   0.071   4.040   2.938 -1.3901  2.0849 -0.4497
 2957SOL     OW20506   0.928   3.242  10.278  0.0193 -0.7256  0.2991
 2957SOL    HW120507   0.891   3.158  10.306 -1.1348 -0.0433  0.8602
 2957SOL    HW220508   0.867   3.242  10.204  1.0702  0.3266 -0.5622
 2958SOL     OW20509   3.786   3.487   2.109 -0.1076  0.7160  0.3815
 2958SOL    HW120510   3.839   3.566   2.094 -0.1882  0.1444 -2.9222
 2958SOL    HW220511   3.698   3.505   2.076  0.8195 -0.8733 -3.0267
 2959SOL     OW20512   2.787   1.514   2.566  0.3926 -0.4856  0.3631
 2959SOL    HW120513   2.710   1.516   2.623  0.8959  2.6368  0.9699
 2959SOL    HW220514   2.751   1.463   2.493 -2.4227  0.6840  0.9381
 2960SOL     OW20515   3.147   0.799   7.037  0.2288 -0.2327 -0.1195
 2960SOL    HW120516   3.218   0.843   7.084  0.1372  0.0439 -0.2435
 2960SOL    HW220517   3.110   0.748   7.109 -2.2366  1.8885  0.0850
 2961SOL     OW20518   3.103   2.319  14.915 -0.2082  0.2240  0.0512
 2961SOL    HW120519   3.172   2.365  14.866  0.0775  1.6583  1.8027
 2961SOL    HW220520   3.041   2.310  14.842  0.1859 -0.6300 -0.1738
 2962SOL     OW20521   1.082   0.998   3.558 -0.4857  0.1510 -0.8016
 2962SOL    HW120522   1.135   1.067   3.518  0.6900  0.4156  1.1826
 2962SOL    HW220523   1.088   0.930   3.490 -0.2165 -0.0974 -0.5291
 2963SOL     OW20524   3.135   1.896  12.916  0.5208  0.3844  0.6120
 2963SOL    HW120525   3.064   1.864  12.860  1.9819  0.9140 -1.5337
 2963SOL    HW220526   3.148   1.987  12.891  0.7236 -0.6100 -2.9252
 2964SOL     OW20527   4.502   0.433   0.236 -0.1662 -0.1917  0.0891
 2964SOL    HW120528   4.451   0.499   0.283  1.2860  1.9811 -1.3502
 2964SOL    HW220529   4.511   0.381   0.315  1.0747  0.4125  0.3497
 2965SOL     OW20530   4.298   0.345   4.815  0.4538  0.2580  0.0280
 2965SOL    HW120531   4.255   0.314   4.895  0.3412  1.5124  0.4449
 2965SOL    HW220532   4.221   0.364   4.761 -0.2097 -1.0557  0.4897
 2966SOL     OW20533   1.371   0.749   4.407  0.2040  0.6287 -0.3125
 2966SOL    HW120534   1.415   0.781   4.486  0.2624 -2.0472  0.7390
 2966SOL    HW220535   1.339   0.835   4.379 -2.6564  0.2622  1.7957
 2967SOL     OW20536   0.959   0.525   6.129 -0.1229  0.0175 -0.3003
 2967SOL    HW120537   1.006   0.491   6.205  2.8076 -0.8181 -2.4988
 2967SOL    HW220538   0.930   0.612   6.156  0.6862 -0.0175  0.6627
 2968SOL     OW20539   3.667   1.092   1.747 -0.7228  0.4837  0.5947
 2968SOL    HW120540   3.610   1.169   1.738 -1.4609 -0.2042 -0.6553
 2968SOL    HW220541   3.599   1.029   1.770 -2.2796  1.0577 -2.3826
 2969SOL     OW20542   3.347   3.412  12.478  0.3889 -0.0845 -0.5167
 2969SOL    HW120543   3.291   3.348  12.521 -0.3006  1.5059  0.9612
 2969SOL    HW220544   3.385   3.446  12.559  1.6664  2.3495 -2.1190
 2970SOL     OW20545   4.105   3.723   1.415  0.5991 -0.1492 -0.5246
 2970SOL    HW120546   4.104   3.628   1.406  0.1235 -0.1335 -0.6347
 2970SOL    HW220547   4.013   3.733   1.438  1.1246  1.6377  0.8636
 2971SOL     OW20548   1.906   1.510  13.159  0.4314  0.2765 -0.0789
 2971SOL    HW120549   1.969   1.459  13.109  1.4608  0.7356  0.7431
 2971SOL    HW220550   1.885   1.449  13.230 -0.6870 -0.5105 -1.1011
 2972SOL     OW20551   3.112   3.871   8.460  0.3688  0.4336  0.2890
 2972SOL    HW120552   3.034   3.914   8.493  0.8157 -0.2680  2.2331
 2972SOL    HW220553   3.178   3.914   8.514  0.4298 -1.7198  1.9345
 2973SOL     OW20554   1.790   1.986   0.345 -0.2484  0.2477  0.2130
 2973SOL    HW120555   1.878   2.009   0.376 -0.1519 -1.4007  1.1412
 2973SOL    HW220556   1.797   2.005   0.251 -2.0080  0.1467  0.0671
 2974SOL     OW20557   0.977   4.081   4.476 -0.2524 -0.2037  0.2435
 2974SOL    HW120558   0.951   4.173   4.477  0.1217 -0.0886 -0.9312
 2974SOL    HW220559   0.978   4.053   4.568  0.1146 -1.4746 -0.1498
 2975SOL     OW20560   3.002   3.799   5.456 -0.6367 -0.4405 -0.2841
 2975SOL    HW120561   2.955   3.816   5.538 -0.3707  0.4565 -0.3143
 2975SOL    HW220562   2.928   3.799   5.396  0.5840 -0.7703 -1.7968
 2976SOL     OW20563   2.055   2.703  13.226 -0.1197  0.9085  0.5711
 2976SOL    HW120564   2.099   2.651  13.159 -0.4010  0.8088  0.4640
 2976SOL    HW220565   2.007   2.647  13.287 -0.1623  0.1591 -0.1621
 2977SOL     OW20566   4.401   3.894   3.261  0.2657 -0.4921 -0.1805
 2977SOL    HW120567   4.349   3.975   3.261  1.1622  0.1017  2.0035
 2977SOL    HW220568   4.327   3.833   3.262  0.7655 -1.0998 -1.5365
 2978SOL     OW20569   3.131   0.108  11.058 -0.2089 -0.1310 -0.2506
 2978SOL    HW120570   3.113   0.020  11.090  2.9974 -0.8135 -0.3571
 2978SOL    HW220571   3.129   0.156  11.141  0.5002  0.0164 -0.3144
 2979SOL     OW20572   4.003   2.169   2.040 -0.4134 -0.0905 -0.4989
 2979SOL    HW120573   3.987   2.136   1.952 -0.8902 -1.5288  0.1197
 2979SOL    HW220574   3.947   2.116   2.097  0.4850 -1.6371 -1.0562
 2980SOL     OW20575   1.765   1.888   7.080 -0.1631 -0.5033  0.1099
 2980SOL    HW120576   1.765   1.982   7.059 -1.2017 -0.5454 -0.0758
 2980SOL    HW220577   1.830   1.888   7.150 -2.1757  0.1719  1.9600
 2981SOL     OW20578   0.172   1.082   1.196  0.3834  0.3362  0.0902
 2981SOL    HW120579   0.197   1.173   1.178  0.7246  0.1283 -0.4646
 2981SOL    HW220580   0.179   1.030   1.116  1.5601 -0.5757  0.7880
 2982SOL     OW20581   2.077   1.254   4.048 -0.6139  0.3604 -0.0430
 2982SOL    HW120582   2.091   1.318   3.977  1.0703 -0.3650 -0.3569
 2982SOL    HW220583   2.102   1.170   4.010 -1.8495  0.4368 -1.0575
 2983SOL     OW20584   0.510   3.221   4.903 -0.0800 -0.5970 -0.3970
 2983SOL    HW120585   0.546   3.215   4.815 -1.6646 -1.1511 -0.9983
 2983SOL    HW220586   0.419   3.195   4.887 -0.8007  1.6819 -0.0781
 2984SOL     OW20587   1.287   2.106   9.205 -0.0108 -0.2902 -0.1995
 2984SOL    HW120588   1.252   2.193   9.225 -0.7763 -0.4435 -0.8636
 2984SOL    HW220589   1.267   2.043   9.274  1.1560 -1.3773 -0.8507
 2985SOL     OW20590   4.490   3.902   6.904 -0.6497 -0.4527  0.3198
 2985SOL    HW120591   4.451   3.853   6.977  0.4706 -2.4899 -0.4681
 2985SOL    HW220592   4.581   3.913   6.929 -0.1693 -1.3657 -1.0398
 2986SOL     OW20593   1.966   1.652   2.858  0.4299  0.3910 -0.2012
 2986SOL    HW120594   1.916   1.723   2.897  1.3936  1.3077 -0.6422
 2986SOL    HW220595   2.001   1.607   2.935  1.4717  0.4980 -0.6030
 2987SOL     OW20596   3.078   3.156  10.966  0.0200  0.3216 -0.0975
 2987SOL    HW120597   3.137   3.081  10.954 -1.9767 -1.4134  1.0498
 2987SOL    HW220598   3.123   3.226  11.014 -1.8331  1.7677 -0.4872
 2988SOL     OW20599   0.021   2.501   8.033  0.0241  0.5423  0.5957
 2988SOL    HW120600   0.087   2.438   8.003  0.9111  1.9169 -0.3549
 2988SOL    HW220601   0.079   2.564   8.076  0.6177  2.1767 -2.5621
 2989SOL     OW20602   2.649   1.670   7.168 -0.1039 -0.0455  0.1262
 2989SOL    HW120603   2.701   1.593   7.147 -1.9736 -1.1517 -0.4020
 2989SOL    HW220604   2.647   1.723   7.088  1.6128  1.7281  1.2358
 2990SOL     OW20605   2.959   1.274   9.288 -0.1673  0.3323 -0.3041
 2990SOL    HW120606   3.015   1.199   9.307 -0.6440 -0.3908 -1.7667
 2990SOL    HW220607   2.870   1.238   9.290 -0.4773  0.9689 -3.2998
 2991SOL     OW20608   0.131   2.047   5.452 -0.7155 -0.3096  0.0015
 2991SOL    HW120609   0.039   2.051   5.427 -0.6071 -2.5515 -0.7393
 2991SOL    HW220610   0.113   2.032   5.545  2.9330  0.8033  0.8924
 2992SOL     OW20611   4.308   0.432  14.186 -0.5725 -0.4186 -0.0626
 2992SOL    HW120612   4.346   0.383  14.114  1.3867  1.6161 -0.4262
 2992SOL    HW220613   4.218   0.405  14.167 -1.9829  2.1283  2.9198
 2993SOL     OW20614   1.683   2.353   4.941  0.2395 -0.3327  0.4380
 2993SOL    HW120615   1.725   2.427   4.897  0.9258 -0.0750  1.5391
 2993SOL    HW220616   1.707   2.283   4.880 -1.7023 -0.1948 -0.5091
 2994SOL     OW20617   2.792   0.929   4.901  0.2850  0.4448 -0.7828
 2994SOL    HW120618   2.756   1.002   4.851  0.2949  0.6387 -0.5035
 2994SOL    HW220619   2.876   0.914   4.857  1.4967 -1.9861  2.3425
 2995SOL     OW20620   0.458   1.441  17.680 -0.2717 -0.3101  0.0912
 2995SOL    HW120621   0.494   1.454  17.592  0.8648 -1.5240  0.3870
 2995SOL    HW220622   0.458   1.346  17.676 -0.3433 -0.2574 -1.1785
 2996SOL     OW20623   2.721   1.545  11.584 -0.2901  0.3169  0.4101
 2996SOL    HW120624   2.633   1.580  11.595 -0.2424  0.0929  1.5986
 2996SOL    HW220625   2.747   1.563  11.494 -1.4060  0.8669  0.2048
 2997SOL     OW20626   1.424   2.714  13.598 -0.0711 -0.6955 -0.0985
 2997SOL    HW120627   1.386   2.801  13.595 -0.6113 -0.8645  1.8394
 2997SOL    HW220628   1.455   2.712  13.689 -1.8788  0.9935  0.5353
 2998SOL     OW20629   0.130   3.060   3.422  0.1486 -0.3929  0.2560
 2998SOL    HW120630   0.195   3.097   3.482 -0.2178 -0.7547  0.8768
 2998SOL    HW220631   0.145   2.966   3.435  2.1841 -0.2941 -1.3622
 2999SOL     OW20632   3.454   1.369   7.723  0.5165  0.2721 -0.1694
 2999SOL    HW120633   3.487   1.387   7.635  0.0779  0.4774 -0.2912
 2999SOL    HW220634   3.471   1.452   7.768  0.4084  0.7542 -1.0315
 3000SOL     OW20635   1.486   3.067   7.872  0.2035 -0.1265  0.0971
 3000SOL    HW120636   1.545   3.138   7.849 -2.3153  1.7915 -0.4983
 3000SOL    HW220637   1.533   2.998   7.826  2.1042  1.8310 -0.8796
 3001SOL     OW20638   2.305   2.891   1.857 -0.0036 -0.0474  0.3633
 3001SOL    HW120639   2.306   2.806   1.813 -0.1108  1.2832 -2.1653
 3001SOL    HW220640   2.248   2.932   1.793  2.0699 -0.6162 -1.8567
 3002SOL     OW20641   3.462   2.886  12.293  0.2218 -0.2011  0.5005
 3002SOL    HW120642   3.496   2.865  12.206 -2.3492 -0.7764 -0.3675
 3002SOL    HW220643   3.479   2.980  12.297  1.2446 -0.3777  0.2317
 3003SOL     OW20644   3.517   4.600   8.382  1.1550  0.2971 -0.1113
 3003SOL    HW120645   3.510   4.513   8.343 -1.1700  1.4714 -2.3256
 3003SOL    HW220646   3.485   4.645   8.304 -0.1195 -0.4269 -0.0104
 3004SOL     OW20647   3.210   1.984   8.786  0.4114  0.3596 -0.0089
 3004SOL    HW120648   3.155   2.002   8.710  2.1500 -0.1934 -1.3865
 3004SOL    HW220649   3.168   1.910   8.830  0.7859  0.0142 -0.2452
 3005SOL     OW20650   3.441   0.154   5.199  0.1297  0.2297 -0.3860
 3005SOL    HW120651   3.536   0.162   5.187  0.1546  2.1095  1.0665
 3005SOL    HW220652   3.432   0.159   5.294  2.2504  0.8768 -0.2207
 3006SOL     OW20653   4.294   0.485  12.583 -0.4725 -0.0690 -0.5326
 3006SOL    HW120654   4.220   0.441  12.542 -0.1468  0.0514 -1.2600
 3006SOL    HW220655   4.304   0.432  12.662 -1.5982 -0.8303 -0.9031
 3007SOL     OW20656   3.622   0.280   1.695  0.2075 -0.1035  0.4322
 3007SOL    HW120657   3.695   0.337   1.671  0.2628 -0.4846 -0.3019
 3007SOL    HW220658   3.554   0.325   1.644  0.5487 -2.8846 -2.4865
 3008SOL     OW20659   0.660   1.371  10.570 -0.1592 -0.9952 -0.1045
 3008SOL    HW120660   0.598   1.317  10.619 -0.6287 -2.8169 -2.6770
 3008SOL    HW220661   0.722   1.298  10.559 -0.0949 -0.8388 -0.8241
 3009SOL     OW20662   3.082   1.542   8.356  0.2750 -0.4970 -0.0586
 3009SOL    HW120663   3.068   1.588   8.439  1.3419  0.5068 -0.4254
 3009SOL    HW220664   3.177   1.544   8.341  0.1584  3.0914 -0.3566
 3010SOL     OW20665   4.625   3.948   3.412 -0.0635 -0.0151  0.3589
 3010SOL    HW120666   4.652   3.866   3.453 -0.3162 -0.5347 -0.5083
 3010SOL    HW220667   4.544   3.929   3.365  0.0571  4.2629 -1.6160
 3011SOL     OW20668   1.181   0.742   4.036  0.7062 -0.3632 -1.0230
 3011SOL    HW120669   1.150   0.721   3.948  1.7706  1.5045 -1.8174
 3011SOL    HW220670   1.180   0.837   4.035 -1.1602 -0.3165  2.5749
 3012SOL     OW20671   1.052   1.171   7.101 -0.5028 -0.5376  0.1710
 3012SOL    HW120672   1.019   1.261   7.107  1.4131  0.3381 -2.4609
 3012SOL    HW220673   1.125   1.175   7.164 -0.9001 -1.3416  0.6829
 3013SOL     OW20674   3.886   1.169   3.133 -0.2213 -0.0185 -0.3070
 3013SOL    HW120675   3.803   1.208   3.106  0.5886  1.0315 -1.3071
 3013SOL    HW220676   3.861   1.078   3.118  3.4320 -0.8351 -1.5557
 3014SOL     OW20677   3.054   3.148   9.048 -0.6074 -0.2239  0.2425
 3014SOL    HW120678   3.005   3.230   9.059  2.6795  1.8956 -0.7107
 3014SOL    HW220679   3.131   3.161   9.104 -1.0973  0.7980  0.6869
 3015SOL     OW20680   4.287   2.847   5.439  0.5804  0.1405 -0.1004
 3015SOL    HW120681   4.200   2.850   5.477 -0.3597 -2.2733 -2.0227
 3015SOL    HW220682   4.306   2.941   5.443 -1.6453  0.6123 -0.6041
 3016SOL     OW20683   1.657   4.153  15.060  0.1961  0.4099 -0.0684
 3016SOL    HW120684   1.733   4.193  15.102  1.1266 -1.6710  0.2016
 3016SOL    HW220685   1.594   4.173  15.129  1.8954  1.1847  1.2597
 3017SOL     OW20686   1.055   2.995   9.869 -0.2892 -0.5462  0.2578
 3017SOL    HW120687   1.085   3.077   9.829 -2.1427  0.4003  0.8197
 3017SOL    HW220688   1.058   3.016   9.962  0.9674  0.4580 -0.0130
 3018SOL     OW20689   2.473   2.334   0.044 -0.1539  0.3150  0.1000
 3018SOL    HW120690   2.450   2.245   0.069  0.5090 -0.1460 -0.9512
 3018SOL    HW220691   2.551   2.339   0.099  1.0890  1.5476 -1.7428
 3019SOL     OW20692   1.557   2.353   6.544  0.0713 -0.6221 -0.2881
 3019SOL    HW120693   1.498   2.363   6.469 -0.5782  1.6735  0.5249
 3019SOL    HW220694   1.495   2.384   6.610  0.8506 -0.5983  0.4282
 3020SOL     OW20695   1.106   4.467   3.985  0.4676 -0.0530  0.0574
 3020SOL    HW120696   1.102   4.555   3.947 -0.0838  0.8666  2.2274
 3020SOL    HW220697   1.058   4.483   4.066  0.1060  1.7790 -0.5261
 3021SOL     OW20698   1.791   3.850   5.935 -0.1167  0.1112 -0.5365
 3021SOL    HW120699   1.859   3.899   5.889  0.3592 -1.1241 -1.1635
 3021SOL    HW220700   1.834   3.803   6.006 -0.6931 -0.6614 -0.6957
 3022SOL     OW20701   2.807   2.889   9.289  0.0800 -0.4275 -0.3428
 3022SOL    HW120702   2.727   2.898   9.341 -0.4287 -0.8629 -1.0518
 3022SOL    HW220703   2.827   2.799   9.318 -1.5249 -0.5685  0.2897
 3023SOL     OW20704   3.182   2.353   4.166  0.2597 -0.1782 -0.1524
 3023SOL    HW120705   3.255   2.357   4.105 -0.1634 -2.0538 -0.7774
 3023SOL    HW220706   3.231   2.372   4.245 -0.0808  2.2940 -0.5131
 3024SOL     OW20707   4.417   3.884   6.176  0.0524  0.2738 -0.3241
 3024SOL    HW120708   4.439   3.932   6.096  0.3798 -1.2240 -1.1407
 3024SOL    HW220709   4.329   3.851   6.158 -0.1567  0.1426  0.9507
 3025SOL     OW20710   4.663   1.841   2.295  0.8074  0.3322 -0.1752
 3025SOL    HW120711   4.659   1.937   2.290  0.4365  0.4213  1.9427
 3025SOL    HW220712   4.582   1.814   2.336  1.4074  0.6433  1.2139
 3026SOL     OW20713   2.567   1.778   3.646  0.1142  0.0793 -0.3406
 3026SOL    HW120714   2.575   1.864   3.605  0.7400  0.4143  0.4671
 3026SOL    HW220715   2.657   1.747   3.660  0.9187  2.8274  0.4968
 3027SOL     OW20716   1.229   3.506   2.629 -0.5414 -0.4624  0.4794
 3027SOL    HW120717   1.174   3.564   2.681  0.3518  0.2872  0.5833
 3027SOL    HW220718   1.307   3.488   2.681  1.5004 -1.6100 -2.9746
 3028SOL     OW20719   1.713   3.306  15.426  0.6828 -0.6636 -0.3560
 3028SOL    HW120720   1.801   3.342  15.417  0.3638  0.2571  0.2171
 3028SOL    HW220721   1.732   3.222  15.385  1.1286 -0.0668 -1.3741
 3029SOL     OW20722   2.968   0.272  11.274 -0.2273 -0.8721  0.4706
 3029SOL    HW120723   2.886   0.230  11.300  0.2066 -0.5027  2.4321
 3029SOL    HW220724   2.936   0.318  11.196  1.1582 -0.7928 -0.0493
 3030SOL     OW20725   4.554   3.548   7.752 -0.1706  0.5061  0.1101
 3030SOL    HW120726   4.583   3.466   7.790 -1.7196  0.3669  0.9501
 3030SOL    HW220727   4.634   3.600   7.767  0.5562 -0.8147  0.7459
 3031SOL     OW20728   2.795   4.432   1.036  0.1437 -0.5791 -0.7028
 3031SOL    HW120729   2.792   4.368   0.965  1.4167 -2.2590  0.7614
 3031SOL    HW220730   2.717   4.486   1.023 -0.6895 -1.9876 -1.5826
 3032SOL     OW20731   3.284   2.842   7.412 -0.2372 -0.2930  0.0682
 3032SOL    HW120732   3.253   2.753   7.392 -0.1054 -0.1640 -0.7011
 3032SOL    HW220733   3.244   2.857   7.498 -0.6603 -0.7930 -0.0362
 3033SOL     OW20734   0.095   3.236   4.289 -0.8348  0.3572  0.1504
 3033SOL    HW120735   0.163   3.176   4.260 -1.8148 -0.7587  0.1547
 3033SOL    HW220736   0.089   3.208   4.381  0.1379  2.5428  0.8719
 3034SOL     OW20737   2.587   0.840  14.700  0.2378  0.1475  0.1357
 3034SOL    HW120738   2.532   0.764  14.681 -0.3427 -0.0524  2.6708
 3034SOL    HW220739   2.586   0.888  14.617 -0.2612  0.0978  0.1154
 3035SOL     OW20740   3.216   0.738   5.068 -0.1986  0.3060  0.1157
 3035SOL    HW120741   3.168   0.802   5.014 -1.0385  0.7798  1.4177
 3035SOL    HW220742   3.162   0.661   5.049  0.9370 -0.7097  1.0267
 3036SOL     OW20743   2.529   0.473   9.788 -0.3376  0.9154  0.1806
 3036SOL    HW120744   2.475   0.477   9.868  0.1655 -1.0343  0.6390
 3036SOL    HW220745   2.550   0.566   9.785  0.5825  0.8287  3.5151
 3037SOL     OW20746   0.121   3.804   3.954  0.0549  0.3804 -0.2094
 3037SOL    HW120747   0.036   3.844   3.973 -0.6577 -0.6888 -1.1073
 3037SOL    HW220748   0.108   3.726   3.901  1.8587  0.6607 -1.0653
 3038SOL     OW20749   1.019   2.714   2.852 -0.2501 -0.1392  0.8401
 3038SOL    HW120750   0.948   2.686   2.910 -0.9618  0.7768  0.4053
 3038SOL    HW220751   1.054   2.794   2.892 -1.2648  0.2814  0.8858
 3039SOL     OW20752   3.801   1.265   9.208  0.6446 -0.4370 -0.4029
 3039SOL    HW120753   3.735   1.207   9.170 -0.9060  1.1414 -0.0978
 3039SOL    HW220754   3.876   1.212   9.180 -0.4666 -0.4839 -3.2152
 3040SOL     OW20755   4.232   2.856   0.728  0.0625 -0.1279  0.0338
 3040SOL    HW120756   4.209   2.864   0.635  0.7763 -0.3507 -0.1642
 3040SOL    HW220757   4.199   2.942   0.756 -1.2312 -0.5154 -0.2878
 3041SOL     OW20758   2.819   1.139   3.001  0.4591 -0.5286  0.2221
 3041SOL    HW120759   2.855   1.217   3.042  2.0018  0.0090 -2.2092
 3041SOL    HW220760   2.776   1.174   2.923  2.0533 -0.0557 -0.4500
 3042SOL     OW20761   2.007   1.863   4.543  0.1574 -0.3466  0.2045
 3042SOL    HW120762   2.008   1.819   4.458  2.0607  1.1492 -0.5354
 3042SOL    HW220763   1.928   1.819   4.576 -0.9105  0.2366 -1.5607
 3043SOL     OW20764   1.476   2.333   8.260  1.0444 -0.5729  0.2220
 3043SOL    HW120765   1.405   2.284   8.303 -1.3256  1.8294 -0.9152
 3043SOL    HW220766   1.448   2.331   8.168 -1.3929 -0.7482  0.9704
 3044SOL     OW20767   1.066   2.769   7.141  0.5420 -0.6548  0.5049
 3044SOL    HW120768   0.987   2.802   7.098 -0.3812 -3.0383  0.3732
 3044SOL    HW220769   1.069   2.825   7.219  0.9137  0.0113  0.0184
 3045SOL     OW20770   0.293   1.497   5.294  0.2910 -0.0293 -0.2022
 3045SOL    HW120771   0.302   1.410   5.333  2.8043 -0.5665 -1.9481
 3045SOL    HW220772   0.198   1.505   5.304  0.2938 -1.5396  0.9809
 3046SOL     OW20773   1.429   2.226   7.095 -0.6233  0.3437 -0.0347
 3046SOL    HW120774   1.458   2.266   7.177 -1.4647  1.9473 -0.5238
 3046SOL    HW220775   1.350   2.277   7.078  0.1199  1.0226 -1.4471
 3047SOL     OW20776   3.273   2.990  15.149  0.6581  0.0207  0.0805
 3047SOL    HW120777   3.250   3.007  15.058  0.1817  0.0716  0.2081
 3047SOL    HW220778   3.302   3.078  15.172  0.3109 -0.4818  2.5132
 3048SOL     OW20779   3.794   1.765   0.290  0.2082 -0.0710  0.2718
 3048SOL    HW120780   3.740   1.837   0.324 -1.7620 -0.5241 -1.8809
 3048SOL    HW220781   3.743   1.711   0.230 -0.3939  0.5928  0.1871
 3049SOL     OW20782   2.192   1.790   2.485 -0.6561 -0.2660 -0.4846
 3049SOL    HW120783   2.144   1.858   2.439 -0.4662 -0.3824 -0.8537
 3049SOL    HW220784   2.280   1.821   2.469 -0.5411 -0.0571  0.5331
 3050SOL     OW20785   2.223   0.643   6.854 -0.1651 -0.0284 -0.1405
 3050SOL    HW120786   2.148   0.637   6.913 -0.5195 -0.7079 -0.6652
 3050SOL    HW220787   2.299   0.616   6.907  1.4009 -1.9538 -3.3649
 3051SOL     OW20788   3.762   4.611  17.483  0.4539  0.7691  0.0228
 3051SOL    HW120789   3.686   4.657  17.448 -1.0677 -3.5662 -2.4253
 3051SOL    HW220790   3.798   4.568  17.406 -1.0634 -1.9493  0.7945
 3052SOL     OW20791   3.401   0.828  11.321  0.2171 -0.2940 -0.2410
 3052SOL    HW120792   3.481   0.833  11.373 -0.5733  0.2687  0.9261
 3052SOL    HW220793   3.348   0.769  11.375 -0.5493  0.4257 -0.2007
 3053SOL     OW20794   3.760   0.841   4.649  0.5164  0.1246 -0.0687
 3053SOL    HW120795   3.710   0.882   4.579  1.5124  2.9328  0.8704
 3053SOL    HW220796   3.702   0.772   4.681  1.2815 -1.1387 -1.4123
 3054SOL     OW20797   0.861   0.884   2.086  0.3574  0.3366 -0.4599
 3054SOL    HW120798   0.816   0.827   2.023  0.6366  0.5904 -0.8865
 3054SOL    HW220799   0.943   0.841   2.110  0.5173  1.8932  1.7638
 3055SOL     OW20800   2.928   2.584   9.921  0.0280  0.2415 -0.2381
 3055SOL    HW120801   2.856   2.527   9.949  0.4377 -0.0316  0.2616
 3055SOL    HW220802   2.931   2.644   9.995 -1.3789  1.2522 -0.9884
 3056SOL     OW20803   1.637   2.798  13.789 -0.0103  0.3374 -0.4628
 3056SOL    HW120804   1.581   2.871  13.762  1.5336  1.1189 -1.5338
 3056SOL    HW220805   1.725   2.818  13.757 -1.0456  1.6386 -2.5425
 3057SOL     OW20806   0.685   0.961   1.777  0.2716  0.1986 -0.5195
 3057SOL    HW120807   0.679   1.039   1.833 -0.9807 -0.5028  0.3266
 3057SOL    HW220808   0.661   0.990   1.689 -0.4933  0.7001 -0.1469
 3058SOL     OW20809   2.947   4.091   5.594  0.2601 -0.3366 -0.3508
 3058SOL    HW120810   3.030   4.084   5.547  0.7539 -1.4004  0.6901
 3058SOL    HW220811   2.974   4.050   5.677  1.3143  1.0353 -0.0265
 3059SOL     OW20812   1.479   2.061  13.440 -0.7666  0.2874  0.2040
 3059SOL    HW120813   1.421   2.007  13.387 -0.8773 -1.0231  1.6519
 3059SOL    HW220814   1.559   2.045  13.389 -1.2012  0.3658 -0.4941
 3060SOL     OW20815   0.346   0.545   7.584  0.2136 -0.5385  0.4448
 3060SOL    HW120816   0.326   0.637   7.604  0.4145 -0.2989 -0.4469
 3060SOL    HW220817   0.411   0.535   7.654  0.2484  2.6572  0.8693
 3061SOL     OW20818   4.463   2.417  11.200  0.0453 -0.1161  0.4978
 3061SOL    HW120819   4.523   2.479  11.159 -1.8059  1.3005 -0.0898
 3061SOL    HW220820   4.506   2.332  11.209  0.0275 -0.6038 -3.7232
 3062SOL     OW20821   4.325   0.158   7.705 -0.3365  0.9352 -0.2523
 3062SOL    HW120822   4.393   0.158   7.772 -0.8518  3.7371  0.2735
 3062SOL    HW220823   4.371   0.204   7.635  1.7356  0.6088  0.9067
 3063SOL     OW20824   2.214   3.027   4.561 -0.1909  0.2080 -0.2385
 3063SOL    HW120825   2.286   2.965   4.565  0.1799  0.6804  0.4207
 3063SOL    HW220826   2.249   3.113   4.536  1.5039 -0.1187  1.1166
 3064SOL     OW20827   0.463   3.779   5.386  0.0816 -0.1128 -0.0090
 3064SOL    HW120828   0.472   3.782   5.291  0.6353  2.9997  0.1443
 3064SOL    HW220829   0.544   3.818   5.420 -1.2484  2.6223 -0.0373
 3065SOL     OW20830   2.425   1.264   2.555 -0.6608  0.3209  0.6877
 3065SOL    HW120831   2.510   1.241   2.518  0.1686  1.5668  1.8376
 3065SOL    HW220832   2.405   1.348   2.512  1.1654  1.2201  1.6054
 3066SOL     OW20833   0.507   3.038   6.154 -0.3515  0.4234 -0.0828
 3066SOL    HW120834   0.416   3.037   6.183  0.1982 -1.4693  1.5512
 3066SOL    HW220835   0.553   3.050   6.237 -1.2927 -0.9405  0.6389
 3067SOL     OW20836   4.409   0.261   1.046 -0.2759 -0.8661 -0.1228
 3067SOL    HW120837   4.339   0.197   1.043 -0.0987 -1.0433 -0.4926
 3067SOL    HW220838   4.435   0.266   1.138 -0.4423 -2.0244 -0.0218
 3068SOL     OW20839   3.139   0.405   9.107 -0.1154  0.3954 -0.1793
 3068SOL    HW120840   3.053   0.444   9.119  0.0056 -0.0217  1.9319
 3068SOL    HW220841   3.111   0.317   9.085 -1.0110  0.4300  0.8368
 3069SOL     OW20842   1.284   2.672   9.682  0.1657 -0.2124 -0.4539
 3069SOL    HW120843   1.315   2.602   9.625  0.2658 -0.0823 -0.5594
 3069SOL    HW220844   1.296   2.743   9.619 -0.5211 -0.1741 -0.5479
 3070SOL     OW20845   3.908   2.786   3.851  0.0301 -0.3304  0.2098
 3070SOL    HW120846   3.953   2.868   3.868 -0.6211  0.0500  0.0955
 3070SOL    HW220847   3.915   2.780   3.756 -0.8080  0.8465  0.0786
 3071SOL     OW20848   3.318   3.474   8.434 -0.8524  0.2700 -0.2115
 3071SOL    HW120849   3.254   3.542   8.412 -1.0073  0.0388 -0.4937
 3071SOL    HW220850   3.273   3.391   8.445  0.1898 -0.1656  0.7099
 3072SOL     OW20851   2.566   2.204   4.963  0.5454  0.2750 -0.3626
 3072SOL    HW120852   2.538   2.114   4.946 -1.7744  0.5506  2.0608
 3072SOL    HW220853   2.631   2.215   4.894  0.5832  2.8797  0.0972
 3073SOL     OW20854   1.872   1.689   8.388 -1.0105  0.4699 -0.3074
 3073SOL    HW120855   1.948   1.739   8.360 -2.1043  1.2076 -1.9396
 3073SOL    HW220856   1.823   1.703   8.307 -0.5031 -1.8815 -1.0373
 3074SOL     OW20857   4.658   2.336   9.194 -0.0644 -0.7181 -0.6269
 3074SOL    HW120858   4.597   2.392   9.146 -0.7351  0.2769  1.3605
 3074SOL    HW220859   4.728   2.332   9.129 -2.4682 -3.2196 -3.0352
 3075SOL     OW20860   2.018   1.671  13.739  0.0598  0.5215  0.2778
 3075SOL    HW120861   2.037   1.578  13.724 -1.8472  0.3982 -1.3865
 3075SOL    HW220862   2.027   1.685  13.833 -0.4531 -0.0960  0.4184
 3076SOL     OW20863   3.544   2.074   7.998  0.4201 -0.4974 -0.1691
 3076SOL    HW120864   3.548   2.117   8.083 -2.4091  1.1141 -0.8622
 3076SOL    HW220865   3.562   2.142   7.934 -1.2314 -0.5367 -0.6872
 3077SOL     OW20866   3.272   0.627   2.567  0.3470  0.1359 -0.2341
 3077SOL    HW120867   3.299   0.621   2.475  0.7475  1.0571 -0.1705
 3077SOL    HW220868   3.198   0.688   2.571  0.3736  0.2709 -1.7387
 3078SOL     OW20869   4.168   0.309   8.156 -0.4409 -0.1604 -0.1962
 3078SOL    HW120870   4.253   0.274   8.184  0.1479  0.3790 -1.2589
 3078SOL    HW220871   4.175   0.323   8.061 -0.3483 -1.1736 -0.3379
 3079SOL     OW20872   2.504   1.768   3.303  0.3563 -0.3316 -0.5978
 3079SOL    HW120873   2.511   1.775   3.208 -1.2476  0.5035 -0.6506
 3079SOL    HW220874   2.507   1.860   3.328  3.1257 -0.1710 -1.5201
 3080SOL     OW20875   1.772   0.865   0.293  0.0388  0.3907 -0.2593
 3080SOL    HW120876   1.775   0.930   0.223  1.3308  1.0828  0.4325
 3080SOL    HW220877   1.788   0.780   0.254  0.5048 -0.3812  1.5971
 3081SOL     OW20878   2.916   2.873   0.123 -0.1539 -0.8246  0.2441
 3081SOL    HW120879   2.892   2.782   0.102  0.9397 -1.4083  1.5290
 3081SOL    HW220880   2.864   2.913   0.054  0.8550 -0.9639 -0.5880
 3082SOL     OW20881   3.083   2.152   6.086 -0.1745 -0.3180 -0.2466
 3082SOL    HW120882   3.004   2.105   6.058 -0.6744 -0.2351  1.0028
 3082SOL    HW220883   3.128   2.137   6.003  1.7420  1.5262  0.4648
 3083SOL     OW20884   3.887   4.185   4.977 -0.2446  0.1863 -0.4654
 3083SOL    HW120885   3.893   4.101   4.930 -2.2049  0.4969 -1.2620
 3083SOL    HW220886   3.978   4.212   4.963  0.0233 -1.3685 -1.8048
 3084SOL     OW20887   2.735   1.875   4.044  0.2069 -0.6101 -0.5031
 3084SOL    HW120888   2.694   1.823   3.974 -1.5934  0.2784 -0.1228
 3084SOL    HW220889   2.682   1.953   4.030 -0.8946 -1.1860  0.4128
 3085SOL     OW20890   4.054   4.696   6.692  0.3596 -0.6917 -0.0705
 3085SOL    HW120891   4.007   4.632   6.639 -2.8666  2.1239 -0.6202
 3085SOL    HW220892   4.143   4.662   6.685  1.3439  1.5470  1.6185
 3086SOL     OW20893   4.579   4.218   7.136 -0.5858 -0.1283 -0.3559
 3086SOL    HW120894   4.622   4.182   7.214 -0.9173  0.0868 -0.0771
 3086SOL    HW220895   4.539   4.298   7.168  1.4424  0.7088  0.0541
 3087SOL     OW20896   3.007   4.477   1.233  0.2873 -0.2726  0.6164
 3087SOL    HW120897   2.936   4.451   1.174  3.4855 -1.5108 -2.7242
 3087SOL    HW220898   2.976   4.464   1.322 -2.1947  0.5172 -0.1302
 3088SOL     OW20899   2.942   3.017  11.565 -0.3172 -0.4762 -0.2637
 3088SOL    HW120900   2.939   3.018  11.660 -0.0365  0.3994 -0.2668
 3088SOL    HW220901   2.970   3.104  11.538 -0.7938 -0.7419 -1.6204
 3089SOL     OW20902   3.763   1.373   6.009 -0.9555  0.5978  0.2284
 3089SOL    HW120903   3.691   1.319   5.977  0.1132  0.4855 -2.0203
 3089SOL    HW220904   3.768   1.353   6.102  1.3085 -2.1089 -0.5160
 3090SOL     OW20905   0.832   0.440   9.430  0.1391  0.8623  0.3002
 3090SOL    HW120906   0.742   0.474   9.432 -0.7326 -1.3453 -1.0282
 3090SOL    HW220907   0.823   0.352   9.394 -3.5809  1.1619  0.4334
 3091SOL     OW20908   3.711   0.499   6.612 -0.4864 -0.4212  0.2756
 3091SOL    HW120909   3.711   0.417   6.661 -1.7709 -0.0286  0.9247
 3091SOL    HW220910   3.804   0.521   6.619 -0.6165  0.3637 -0.5193
 3092SOL     OW20911   0.641   2.878   7.865  0.1390 -0.1614 -0.0047
 3092SOL    HW120912   0.640   2.783   7.872  2.0999 -0.1993 -0.1419
 3092SOL    HW220913   0.574   2.903   7.929  0.9483 -0.0817  0.8176
 3093SOL     OW20914   0.328   3.347   6.174  0.0235 -0.5402  0.2306
 3093SOL    HW120915   0.263   3.356   6.104  0.9222 -1.6358 -0.7384
 3093SOL    HW220916   0.296   3.273   6.225  0.1097 -1.4692 -1.0549
 3094SOL     OW20917   2.957   4.676   2.910 -0.2447 -0.1013 -0.0956
 3094SOL    HW120918   3.027   0.000   2.894  1.4829 -2.3799 -1.5701
 3094SOL    HW220919   2.921   4.684   2.822  0.3885  2.4884 -0.1201
 3095SOL     OW20920   0.940   3.462   8.707  0.6846  0.0403 -0.3784
 3095SOL    HW120921   1.016   3.433   8.757  0.2585 -1.3098 -0.5138
 3095SOL    HW220922   0.906   3.376   8.684 -1.9098  0.4286  2.0407
 3096SOL     OW20923   2.454   2.902   5.179 -0.1561 -0.2461 -0.6182
 3096SOL    HW120924   2.361   2.921   5.187 -0.0801 -0.1046 -0.0632
 3096SOL    HW220925   2.461   2.896   5.083 -0.6239  0.3997 -0.6971
 3097SOL     OW20926   1.032   3.565   5.669  0.3244  0.1585 -0.8325
 3097SOL    HW120927   1.078   3.604   5.595  0.6922 -0.9517 -1.1726
 3097SOL    HW220928   1.106   3.551   5.728  0.9862 -2.6725 -2.3888
 3098SOL     OW20929   1.847   2.809  10.211 -0.0760  0.2700  0.5178
 3098SOL    HW120930   1.777   2.796  10.275  0.1078 -0.2267  0.6165
 3098SOL    HW220931   1.897   2.730  10.233  1.7293  0.5909 -2.3742
 3099SOL     OW20932   3.324   3.245  15.225  0.3085 -0.0326  0.3789
 3099SOL    HW120933   3.308   3.329  15.183  2.7587  0.7041  0.9318
 3099SOL    HW220934   3.382   3.270  15.297  0.5955  0.1192  0.0894
 3100SOL     OW20935   1.441   0.415   1.175 -0.1012 -0.2884  0.0466
 3100SOL    HW120936   1.397   0.330   1.166  1.2272 -0.6150 -3.2693
 3100SOL    HW220937   1.381   0.454   1.239 -0.8898 -2.3932  0.6196
 3101SOL     OW20938   2.844   3.074   5.074  0.8597  0.1160 -0.0050
 3101SOL    HW120939   2.823   3.164   5.100 -2.0705 -0.3069 -0.9886
 3101SOL    HW220940   2.901   3.097   5.000  0.0128  0.1062 -0.6576
 3102SOL     OW20941   1.156   1.680  11.787 -0.4582 -0.0366  0.3075
 3102SOL    HW120942   1.190   1.691  11.698 -0.2016 -2.4952  0.0840
 3102SOL    HW220943   1.188   1.763  11.823  2.1825 -1.1357  0.5153
 3103SOL     OW20944   2.266   1.398   7.794  0.3205 -0.5328 -0.6435
 3103SOL    HW120945   2.232   1.381   7.706 -1.8497 -0.0656  0.1205
 3103SOL    HW220946   2.351   1.435   7.772  1.0785 -1.8310  0.0833
 3104SOL     OW20947   0.793   3.015  13.428 -0.1757 -0.0927  0.1826
 3104SOL    HW120948   0.805   2.930  13.384 -4.6010 -0.6393  0.0545
 3104SOL    HW220949   0.811   3.074  13.355  0.9452 -0.9617 -0.2403
 3105SOL     OW20950   2.200   1.363   6.008 -0.1590  0.0232 -0.0219
 3105SOL    HW120951   2.223   1.277   5.973 -1.7294 -0.5950  0.4413
 3105SOL    HW220952   2.273   1.421   5.984  0.9561 -1.1425  0.5931
 3106SOL     OW20953   4.606   0.590   5.941  0.0345  0.4154  0.0377
 3106SOL    HW120954   4.700   0.570   5.951  0.4010  1.1871 -1.9288
 3106SOL    HW220955   4.606   0.662   6.004 -0.6244  1.1087 -0.7560
 3107SOL     OW20956   3.468   3.585  12.676 -0.2006 -0.6076  0.1290
 3107SOL    HW120957   3.376   3.606  12.693 -0.1819  0.6171 -1.2335
 3107SOL    HW220958   3.505   3.673  12.679 -0.8852 -0.3546  0.9007
 3108SOL     OW20959   2.437   4.392  10.954  0.0170 -0.7830 -0.0781
 3108SOL    HW120960   2.395   4.432  10.878 -0.7461 -1.5422 -0.0603
 3108SOL    HW220961   2.492   4.333  10.902  0.3622 -0.2425 -0.3224
 3109SOL     OW20962   0.102   2.519   3.151  0.0421 -0.0822  0.3123
 3109SOL    HW120963   0.073   2.464   3.078  2.7577  0.4485 -1.1626
 3109SOL    HW220964   0.066   2.467   3.223  0.8767  0.0343  0.8106
 3110SOL     OW20965   2.967   1.759  15.262  0.2100 -0.5227  0.1108
 3110SOL    HW120966   2.911   1.814  15.207 -0.6172 -0.1248  1.3691
 3110SOL    HW220967   3.028   1.719  15.200  0.5808 -0.8460  0.6857
 3111SOL     OW20968   1.584   3.477   8.139  0.4949  0.3599 -0.2968
 3111SOL    HW120969   1.512   3.526   8.098  0.9796 -0.3858 -2.0476
 3111SOL    HW220970   1.628   3.553   8.176 -0.5660  0.6501  0.3780
 3112SOL     OW20971   0.203   1.111  12.338 -0.0966 -0.2088 -0.2126
 3112SOL    HW120972   0.177   1.196  12.304  1.8908  1.4678  2.4394
 3112SOL    HW220973   0.125   1.056  12.337 -0.1400 -0.1421 -0.4589
 3113SOL     OW20974   4.318   1.466   7.890 -0.1092 -0.2203 -0.1735
 3113SOL    HW120975   4.243   1.440   7.942 -0.3250 -0.8274 -0.7820
 3113SOL    HW220976   4.393   1.457   7.949  0.2776 -0.4424 -0.6916
 3114SOL     OW20977   4.191   3.603   5.554 -0.6497  0.2063 -0.1794
 3114SOL    HW120978   4.239   3.679   5.588 -0.6835 -1.1821  2.9582
 3114SOL    HW220979   4.235   3.592   5.470 -0.1551  4.2108 -0.4719
 3115SOL     OW20980   2.326   0.910   7.669 -0.0599 -0.0012 -0.1846
 3115SOL    HW120981   2.320   0.909   7.574 -0.5959  0.8690 -0.1628
 3115SOL    HW220982   2.264   0.979   7.692  2.1566  2.1758 -0.7860
 3116SOL     OW20983   0.711   2.725   4.039  0.3265 -0.0168  0.0524
 3116SOL    HW120984   0.741   2.787   4.106  1.2800 -1.0582  0.5808
 3116SOL    HW220985   0.619   2.750   4.044  0.9780  2.2309  0.9166
 3117SOL     OW20986   4.641   3.883   0.963  0.4005 -0.7480 -0.2284
 3117SOL    HW120987   4.718   3.837   0.929  0.9612  0.7027 -0.8986
 3117SOL    HW220988   4.678   3.924   1.041  2.9873 -1.0764 -1.2882
 3118SOL     OW20989   0.219   1.849  17.556  0.5471 -0.2077 -0.5655
 3118SOL    HW120990   0.177   1.924  17.513 -0.1270 -0.1662  0.1732
 3118SOL    HW220991   0.295   1.894  17.593 -1.4905  2.6857  0.0936
 3119SOL     OW20992   4.358   1.245   2.315 -0.0391 -0.2541  0.8723
 3119SOL    HW120993   4.412   1.199   2.379  0.1339  0.1403  1.0077
 3119SOL    HW220994   4.423   1.254   2.245 -0.2313  0.3164  0.7685
 3120SOL     OW20995   1.577   0.890   1.919  0.3852 -0.3099  0.3758
 3120SOL    HW120996   1.660   0.913   1.961 -0.1513  0.8944  0.7586
 3120SOL    HW220997   1.555   0.822   1.983 -0.4831  0.7341  1.1773
 3121SOL     OW20998   0.665   0.667   7.616 -0.0766 -0.4108 -0.4527
 3121SOL    HW120999   0.649   0.577   7.588  0.5466 -0.6414 -0.0835
 3121SOL    HW221000   0.613   0.668   7.696 -3.1499  1.4078 -2.4870
 3122SOL     OW21001   1.017   0.159   2.276 -0.0342 -0.5837 -0.0177
 3122SOL    HW121002   0.953   0.115   2.220 -0.0143 -0.9734  0.2721
 3122SOL    HW221003   1.090   0.105   2.247 -0.1704 -0.6845 -0.1709
 3123SOL     OW21004   3.221   3.659   5.507  0.5422  0.3042 -0.3368
 3123SOL    HW121005   3.134   3.689   5.480  0.3148 -0.1655 -0.1422
 3123SOL    HW221006   3.277   3.732   5.484  0.8071 -0.6912 -2.8460
 3124SOL     OW21007   2.154   3.606   6.503 -0.2451 -0.3967  0.2367
 3124SOL    HW121008   2.088   3.654   6.553 -0.1108 -2.0825  2.0191
 3124SOL    HW221009   2.132   3.636   6.415 -1.0868 -1.1961  0.1841
 3125SOL     OW21010   0.806   0.776   1.588 -0.4560 -0.0461  0.3054
 3125SOL    HW121011   0.898   0.792   1.571 -0.8155  0.9987 -0.6025
 3125SOL    HW221012   0.774   0.841   1.651 -0.0968  1.0761 -0.6794
 3126SOL     OW21013   4.263   3.511   7.264 -0.2501 -0.0904  0.1606
 3126SOL    HW121014   4.304   3.597   7.253 -2.5112  0.8913 -0.6034
 3126SOL    HW221015   4.335   3.448   7.255 -0.9490 -0.7716 -0.5854
 3127SOL     OW21016   3.621   2.684   3.688  0.3259  0.0186  0.1884
 3127SOL    HW121017   3.701   2.704   3.638 -0.3948  3.0475  0.2566
 3127SOL    HW221018   3.636   2.725   3.773 -1.2351  0.7208  0.1347
 3128SOL     OW21019   2.798   2.506   1.009 -0.4251  0.5680 -0.1015
 3128SOL    HW121020   2.744   2.502   1.087  0.7166  1.7652  0.7464
 3128SOL    HW221021   2.863   2.576   1.021  0.3854 -0.4948  1.8059
 3129SOL     OW21022   2.700   3.960   7.792 -0.0173 -0.6028 -0.0453
 3129SOL    HW121023   2.662   4.047   7.779  0.3042 -0.5161 -0.4011
 3129SOL    HW221024   2.788   3.941   7.759  0.7518  0.6216  1.2653
 3130SOL     OW21025   1.802   2.267   1.092  0.6897 -0.2512 -0.2952
 3130SOL    HW121026   1.720   2.314   1.110  0.4892 -0.0497 -1.7220
 3130SOL    HW221027   1.852   2.347   1.075  0.5898 -0.0641  0.2680
 3131SOL     OW21028   2.636   3.905   3.438 -0.1771 -0.0688  0.4770
 3131SOL    HW121029   2.717   3.944   3.472  0.3875 -0.2359 -0.7082
 3131SOL    HW221030   2.675   3.824   3.406 -1.4291  0.0291 -1.2529
 3132SOL     OW21031   2.427   3.094   0.322  0.3197  0.0638  1.1223
 3132SOL    HW121032   2.372   3.165   0.354 -1.0336 -0.6738  0.4333
 3132SOL    HW221033   2.515   3.124   0.344  1.1034 -1.4192  0.0719
 3133SOL     OW21034   2.352   4.724   9.527  0.1107  0.0680  0.0590
 3133SOL    HW121035   2.328   0.027   9.609  1.1743 -0.2228  0.5163
 3133SOL    HW221036   2.292   0.037   9.473 -0.2657  0.7219  1.1145
 3134SOL     OW21037   0.277   0.514   1.128  0.2411  0.4910 -0.3154
 3134SOL    HW121038   0.287   0.438   1.071  1.1381  0.7489 -0.5050
 3134SOL    HW221039   0.346   0.573   1.097  0.5941  0.6722  0.8258
 3135SOL     OW21040   1.751   3.246  16.878  0.8083 -0.2665  0.1346
 3135SOL    HW121041   1.728   3.172  16.822 -2.5465 -1.0440  2.5179
 3135SOL    HW221042   1.702   3.315  16.832 -0.6867  0.4468  2.7621
 3136SOL     OW21043   1.358   2.158   8.780  0.5040  0.4983 -0.6115
 3136SOL    HW121044   1.343   2.064   8.769  0.6668  0.6004 -1.6847
 3136SOL    HW221045   1.370   2.179   8.873 -0.2891  0.3638 -0.4796
 3137SOL     OW21046   1.654   1.494   4.518  0.0852 -0.1057  0.4678
 3137SOL    HW121047   1.704   1.445   4.583  0.9227  0.6605  0.3878
 3137SOL    HW221048   1.571   1.498   4.566 -1.5311 -0.0629 -2.3175
 3138SOL     OW21049   2.399   1.488   6.598 -0.1334 -0.2601 -0.2941
 3138SOL    HW121050   2.353   1.562   6.559  0.0456 -1.0781 -2.0562
 3138SOL    HW221051   2.339   1.418   6.571 -1.3820  1.1710 -1.2607
 3139SOL     OW21052   2.936   3.764   5.061  0.6025  0.2230  1.1241
 3139SOL    HW121053   2.925   3.710   4.983  1.1581  0.3592  0.9474
 3139SOL    HW221054   2.846   3.769   5.094  0.3640 -0.1896  0.5214
 3140SOL     OW21055   0.712   4.066   5.370  0.0334 -0.2787 -1.3549
 3140SOL    HW121056   0.798   4.064   5.328  0.6460  3.0508 -0.3182
 3140SOL    HW221057   0.678   4.142   5.323  0.1737  1.1405  0.8190
 3141SOL     OW21058   4.706   0.168   1.748  0.1909  0.1401  0.2206
 3141SOL    HW121059   4.618   0.203   1.734 -0.3932  0.0105  3.4612
 3141SOL    HW221060   4.724   0.122   1.667  1.5862  1.2889 -0.1272
 3142SOL     OW21061   4.526   0.316  17.734 -0.1011 -0.0703 -0.3240
 3142SOL    HW121062   4.582   0.249   0.019 -1.2198 -0.2113  1.0051
 3142SOL    HW221063   4.486   0.343   0.061  1.4371 -0.7791  0.6727
 3143SOL     OW21064   0.123   3.677   3.149 -0.6857 -0.4251 -0.2078
 3143SOL    HW121065   0.058   3.690   3.080  0.1471 -0.5079 -0.9958
 3143SOL    HW221066   0.098   3.593   3.188 -1.6348 -0.3614 -0.6820
 3144SOL     OW21067   1.942   3.479   3.926  0.1767  0.5167 -0.2996
 3144SOL    HW121068   1.868   3.523   3.970  0.1482  0.0547  0.1154
 3144SOL    HW221069   1.932   3.388   3.951 -2.3517  1.2704  1.4968
 3145SOL     OW21070   1.600   2.934   6.600 -0.4368 -0.5978  0.5943
 3145SOL    HW121071   1.661   2.948   6.527 -0.4282  0.3466  0.7828
 3145SOL    HW221072   1.633   2.856   6.644  1.6349 -0.6580 -1.0914
 3146SOL     OW21073   0.308   2.877   7.578  0.3650  0.0749  0.5534
 3146SOL    HW121074   0.223   2.877   7.621  2.1132 -0.1406  4.0130
 3146SOL    HW221075   0.297   2.967   7.546 -0.9973 -0.6734 -1.1398
 3147SOL     OW21076   2.625   1.370   5.488 -0.0208 -0.6058 -0.1724
 3147SOL    HW121077   2.675   1.450   5.473  0.0449 -0.1592  2.3972
 3147SOL    HW221078   2.593   1.383   5.577 -1.2189  3.3544 -1.2094
 3148SOL     OW21079   1.537   0.201   8.027 -0.6565 -0.4646 -0.2982
 3148SOL    HW121080   1.631   0.213   8.044 -0.9077  2.1046 -0.7830
 3148SOL    HW221081   1.525   0.285   7.984 -0.2488  0.3209  1.1026
 3149SOL     OW21082   0.043   3.395   5.083 -0.2948 -0.3790  0.1919
 3149SOL    HW121083   0.077   3.310   5.056 -2.1438 -1.7015  1.9324
 3149SOL    HW221084   0.025   3.376   5.175  0.0484  0.9887  0.5461
 3150SOL     OW21085   1.080   1.279   5.536  0.5281  0.3692 -0.0829
 3150SOL    HW121086   1.092   1.373   5.525 -0.8166  0.5945  0.4543
 3150SOL    HW221087   1.044   1.253   5.451 -3.3119  0.8319  1.4036
 3151SOL     OW21088   1.669   2.120  16.233  0.0429 -0.1626  0.1154
 3151SOL    HW121089   1.729   2.172  16.179  1.9376 -1.6653  0.7919
 3151SOL    HW221090   1.586   2.169  16.229 -0.9628 -1.6872  2.1167
 3152SOL     OW21091   0.395   4.628   8.730 -0.3561 -0.4545 -0.0829
 3152SOL    HW121092   0.367   4.672   8.810  1.4176 -0.7296  0.7011
 3152SOL    HW221093   0.446   4.556   8.767  1.4112 -0.6568 -2.9226
 3153SOL     OW21094   4.683   0.817   8.051  0.2639  0.3543 -0.0341
 3153SOL    HW121095   4.734   0.847   8.126 -1.1526  4.9013 -0.9060
 3153SOL    HW221096   4.669   0.724   8.072 -0.2429  0.3113 -0.5772
 3154SOL     OW21097   0.512   3.071  13.511  0.0564  0.2383 -0.2620
 3154SOL    HW121098   0.441   3.009  13.502  0.2806 -0.1772  0.7987
 3154SOL    HW221099   0.466   3.150  13.483 -2.5440 -1.5873 -1.0997
 3155SOL     OW21100   3.476   3.628   6.883  0.5512  0.1697  0.2084
 3155SOL    HW121101   3.521   3.703   6.923  0.1132  0.9837 -0.8319
 3155SOL    HW221102   3.421   3.676   6.822  0.3831 -1.6304 -1.0217
 3156SOL     OW21103   0.440   2.997  12.814  0.0589  0.5327 -0.0784
 3156SOL    HW121104   0.408   3.006  12.904  1.2720  3.4988  0.0624
 3156SOL    HW221105   0.470   3.087  12.799  2.5909 -0.2935  0.1264
 3157SOL     OW21106   2.580   0.954   7.481 -0.3764 -0.5905 -0.4473
 3157SOL    HW121107   2.533   1.036   7.466 -0.4475 -0.1533  2.1477
 3157SOL    HW221108   2.590   0.951   7.576 -0.7780 -0.1921 -0.3925
 3158SOL     OW21109   2.550   3.272   5.853 -0.6222  0.0097 -0.2402
 3158SOL    HW121110   2.600   3.354   5.848  1.5180 -1.3347 -1.0780
 3158SOL    HW221111   2.506   3.278   5.768 -2.9270 -0.0358  0.9547
 3159SOL     OW21112   4.088   4.666  14.187  0.3589 -0.0282  0.3051
 3159SOL    HW121113   4.076   4.594  14.249 -1.7682 -0.5206 -0.6580
 3159SOL    HW221114   4.109   4.621  14.106  0.4039 -0.2613  0.4456
 3160SOL     OW21115   4.438   0.592   7.662  0.0709  0.4511 -0.3292
 3160SOL    HW121116   4.384   0.520   7.632 -0.6753  0.8992 -0.0562
 3160SOL    HW221117   4.424   0.593   7.757 -0.2599  0.4736 -0.3799
 3161SOL     OW21118   2.395   2.633   9.075  0.1325 -0.1003 -0.0769
 3161SOL    HW121119   2.376   2.612   9.167 -1.4424 -0.1523 -0.4146
 3161SOL    HW221120   2.424   2.724   9.087  0.7317 -0.0980 -1.5078
 3162SOL     OW21121   2.099   1.599   2.078 -0.2012 -0.2184  0.4495
 3162SOL    HW121122   2.058   1.524   2.034 -0.8489 -0.3543  1.2859
 3162SOL    HW221123   2.167   1.622   2.015 -1.0160  1.7099  0.2921
 3163SOL     OW21124   2.896   0.801   3.504 -0.7702 -0.3007  0.4748
 3163SOL    HW121125   2.965   0.827   3.443 -1.9262  2.0314  0.1738
 3163SOL    HW221126   2.821   0.794   3.446  0.8809 -2.6193 -1.3951
 3164SOL     OW21127   0.721   2.473  10.199  0.1072 -0.2257  0.0948
 3164SOL    HW121128   0.698   2.413  10.270  0.8140  0.0223  0.5324
 3164SOL    HW221129   0.786   2.418  10.155 -1.2254 -1.6804 -0.0607
 3165SOL     OW21130   1.217   2.127  17.187  0.1263 -0.1363  0.2902
 3165SOL    HW121131   1.201   2.210  17.143 -0.7352 -0.8298 -0.7132
 3165SOL    HW221132   1.280   2.086  17.128 -1.8997  1.0623 -2.7053
 3166SOL     OW21133   2.488   4.314   0.964 -0.4126 -0.3599 -0.1478
 3166SOL    HW121134   2.516   4.329   1.054  0.7724 -1.0221 -0.4000
 3166SOL    HW221135   2.470   4.220   0.967 -1.4234 -0.1889 -0.6614
 3167SOL     OW21136   3.996   1.272   4.198 -0.0711 -0.2923 -0.4138
 3167SOL    HW121137   3.997   1.179   4.177  2.0305 -0.8602  2.1755
 3167SOL    HW221138   3.956   1.262   4.285  1.3820 -1.1564  0.1556
 3168SOL     OW21139   0.332   4.045  17.442 -0.3687  0.5236 -0.1658
 3168SOL    HW121140   0.339   3.953  17.468 -0.3288  0.2477 -1.1429
 3168SOL    HW221141   0.427   4.057  17.450 -0.0625 -1.5213 -0.8245
 3169SOL     OW21142   3.422   1.410  12.912 -0.1021  0.1430  0.0089
 3169SOL    HW121143   3.502   1.418  12.964  0.7133  0.0789 -1.2363
 3169SOL    HW221144   3.363   1.366  12.973  0.1824  0.0110  0.1896
 3170SOL     OW21145   1.732   1.669   4.296 -0.8534 -0.1216 -0.1889
 3170SOL    HW121146   1.725   1.621   4.378 -0.0612  1.2006  0.6448
 3170SOL    HW221147   1.823   1.699   4.305  0.6386 -4.5251 -0.7417
 3171SOL     OW21148   4.006   0.876   8.268 -0.2379  0.1893 -0.4440
 3171SOL    HW121149   4.087   0.900   8.224 -1.6879 -0.3630 -3.3596
 3171SOL    HW221150   4.047   0.896   8.352 -1.9509 -1.9653  0.9133
 3172SOL     OW21151   3.384   1.588   8.735  0.2784 -0.4538  0.2972
 3172SOL    HW121152   3.311   1.527   8.728  0.4175 -0.7408  1.3940
 3172SOL    HW221153   3.406   1.581   8.828  1.2242  0.4333  0.1547
 3173SOL     OW21154   2.750   1.622   5.492  0.6044  0.4905  0.2539
 3173SOL    HW121155   2.737   1.693   5.555 -1.6536 -3.0152  3.7929
 3173SOL    HW221156   2.702   1.662   5.420  0.6663 -1.3013 -0.7926
 3174SOL     OW21157   1.454   0.391   6.158 -0.4517 -1.1140  0.7441
 3174SOL    HW121158   1.542   0.416   6.129 -0.5918 -0.8583  0.5471
 3174SOL    HW221159   1.435   0.465   6.216  1.1401 -1.8227  2.1780
 3175SOL     OW21160   2.132   0.336   8.669  0.2804  0.0602  0.0016
 3175SOL    HW121161   2.096   0.353   8.582 -1.1078 -1.7332  0.2079
 3175SOL    HW221162   2.179   0.254   8.651 -0.6001 -0.8010  1.6377
 3176SOL     OW21163   0.662   3.892  12.259 -0.4336 -0.0297  0.0769
 3176SOL    HW121164   0.693   3.982  12.273 -0.4811  1.2249 -7.7667
 3176SOL    HW221165   0.662   3.880  12.164 -0.0109  2.3904 -0.2292
 3177SOL     OW21166   4.459   1.214  17.361 -0.8800 -0.0983  0.5083
 3177SOL    HW121167   4.535   1.269  17.379  0.5008 -1.0912 -2.3358
 3177SOL    HW221168   4.489   1.166  17.284 -1.4654 -0.4103  0.4665
 3178SOL     OW21169   2.855   4.622   4.158 -0.0554 -0.0824  0.3920
 3178SOL    HW121170   2.873   4.607   4.251  1.1892  2.0686  0.5142
 3178SOL    HW221171   2.779   4.679   4.167 -0.1614 -0.1063 -0.3979
 3179SOL     OW21172   0.133   3.723  14.889 -0.1204  0.2643  0.2610
 3179SOL    HW121173   0.100   3.678  14.967 -1.1067  0.5714  0.0239
 3179SOL    HW221174   0.157   3.642  14.844 -0.5839  0.9443 -1.2381
 3180SOL     OW21175   2.928   2.588   8.002  0.1760  0.7782 -0.4035
 3180SOL    HW121176   2.876   2.659   8.040 -0.0645 -0.0130  0.7664
 3180SOL    HW221177   2.949   2.548   8.087  0.8491  1.6627 -0.1591
 3181SOL     OW21178   1.360   4.080   0.657 -0.2712 -0.0240  0.2365
 3181SOL    HW121179   1.346   4.173   0.638 -0.6978  0.1685  1.4684
 3181SOL    HW221180   1.343   4.034   0.574  0.0324  0.0794  0.1186
 3182SOL     OW21181   0.529   4.364  15.456 -0.2722  0.3494  0.4590
 3182SOL    HW121182   0.440   4.331  15.471  0.5152 -1.7031  0.6812
 3182SOL    HW221183   0.571   4.297  15.402  1.3663  0.4253  1.6364
 3183SOL     OW21184   2.509   3.969  14.290  0.3058 -0.1577  0.3373
 3183SOL    HW121185   2.447   3.915  14.338 -0.4128 -0.2290 -0.6570
 3183SOL    HW221186   2.454   4.003  14.219  3.1896  0.9118 -1.4146
 3184SOL     OW21187   0.722   3.785   1.875 -0.4859  0.3765 -0.5759
 3184SOL    HW121188   0.722   3.713   1.813  1.5066  0.3997 -0.6071
 3184SOL    HW221189   0.806   3.777   1.921 -0.7541  1.3908  0.1093
 3185SOL     OW21190   4.570   1.573   1.629  0.1623  0.1913 -0.3648
 3185SOL    HW121191   4.642   1.513   1.612 -0.2169  0.0630 -1.5461
 3185SOL    HW221192   4.610   1.652   1.593 -0.7599  0.3406 -1.0811
 3186SOL     OW21193   3.933   3.058   0.563  0.2555 -0.3243 -0.1979
 3186SOL    HW121194   4.007   3.090   0.614  0.0090  1.3200 -0.8751
 3186SOL    HW221195   3.903   2.984   0.616  0.3570 -0.6324 -0.5728
 3187SOL     OW21196   2.155   3.200  13.359  0.3989  0.3525 -0.9004
 3187SOL    HW121197   2.118   3.266  13.299  2.8504  1.9719 -0.6516
 3187SOL    HW221198   2.242   3.240  13.367  0.5138 -0.0197 -0.3599
 3188SOL     OW21199   1.404   1.417   9.791 -0.1156  0.0916 -0.1073
 3188SOL    HW121200   1.387   1.382   9.703  0.2315  0.5613 -0.3649
 3188SOL    HW221201   1.330   1.477   9.789 -2.0504 -2.2466  0.5058
 3189SOL     OW21202   0.352   2.291   3.282  0.6021 -0.5477 -0.4627
 3189SOL    HW121203   0.284   2.357   3.287  0.1916 -1.2440  3.0568
 3189SOL    HW221204   0.322   2.242   3.205  1.5857 -2.8068  0.5991
 3190SOL     OW21205   4.172   0.017   4.916 -0.4791  0.3248  0.2619
 3190SOL    HW121206   4.248   4.732   4.969 -0.1111  0.9478  0.0182
 3190SOL    HW221207   4.148   0.100   4.959 -1.7964 -0.5175  1.1546
 3191SOL     OW21208   1.422   1.011   6.049  0.1386 -0.1678  0.2949
 3191SOL    HW121209   1.507   0.996   6.092  1.0627  3.4667 -0.2872
 3191SOL    HW221210   1.432   1.088   5.994 -0.9763 -1.2163 -1.3481
 3192SOL     OW21211   2.666   2.410   5.410  0.6279 -0.0178  0.4149
 3192SOL    HW121212   2.691   2.366   5.329  3.8632  0.4414  1.1536
 3192SOL    HW221213   2.571   2.410   5.405  0.7467 -0.5853 -1.8519
 3193SOL     OW21214   3.119   1.238   6.999  0.5167  0.5367 -0.0110
 3193SOL    HW121215   3.133   1.270   6.911  0.1575  0.3161 -0.1517
 3193SOL    HW221216   3.040   1.184   6.986 -0.2985  2.0039 -1.0361
 3194SOL     OW21217   1.149   0.897   2.613 -0.0745  0.2320  0.3093
 3194SOL    HW121218   1.079   0.832   2.620 -1.4167  1.5413 -0.8557
 3194SOL    HW221219   1.198   0.846   2.549 -1.4414 -0.2797 -0.3525
 3195SOL     OW21220   0.854   1.922  11.919  0.0649  0.0106 -0.5429
 3195SOL    HW121221   0.773   1.973  11.922  0.4764  0.6200  0.1176
 3195SOL    HW221222   0.809   1.837  11.914  0.7262 -0.4195  0.6424
 3196SOL     OW21223   1.749   2.690   2.466  0.0134 -0.0454  0.7155
 3196SOL    HW121224   1.662   2.695   2.504 -0.2742  0.5399 -0.0216
 3196SOL    HW221225   1.788   2.679   2.553  0.0981  1.1957  0.8331
 3197SOL     OW21226   3.958   4.376   7.162  0.1471 -0.5321 -0.3008
 3197SOL    HW121227   3.956   4.287   7.199  0.6463 -0.3681  0.1262
 3197SOL    HW221228   3.991   4.350   7.076  1.0967  2.8739 -0.9534
 3198SOL     OW21229   2.613   3.762   2.774 -0.2242 -0.0638  0.3677
 3198SOL    HW121230   2.622   3.839   2.718  1.2819  1.1277  2.2593
 3198SOL    HW221231   2.647   3.809   2.850 -0.7887  0.6444  0.1851
 3199SOL     OW21232   2.541   0.194  10.205 -0.1127 -0.3269  0.5465
 3199SOL    HW121233   2.468   0.138  10.182  0.8153 -2.0012  1.7055
 3199SOL    HW221234   2.498   0.257  10.263  0.5648  2.0726 -1.5136
 3200SOL     OW21235   4.637   0.835   6.049 -0.1121 -0.4720 -0.6302
 3200SOL    HW121236   4.632   0.836   6.145  1.1770 -0.8484 -0.5572
 3200SOL    HW221237   4.606   0.923   6.026  2.0634  0.3813 -0.2478
 3201SOL     OW21238   2.218   4.394  14.958  0.5706  0.0646  0.1186
 3201SOL    HW121239   2.255   4.439  14.883 -2.0181 -2.2711 -2.5587
 3201SOL    HW221240   2.302   4.385  15.002  0.3030 -0.1188  0.5995
 3202SOL     OW21241   1.758   3.218   5.295 -0.1289  0.1516 -0.2277
 3202SOL    HW121242   1.771   3.307   5.329 -2.0320  1.2580 -2.4176
 3202SOL    HW221243   1.694   3.248   5.231 -0.1178 -0.9269 -0.7469
 3203SOL     OW21244   2.362   3.793   6.806  0.1469  1.4790 -0.8278
 3203SOL    HW121245   2.405   3.861   6.858 -0.3297  0.5344  0.7933
 3203SOL    HW221246   2.318   3.856   6.748 -1.2173  0.5286 -0.8215
 3204SOL     OW21247   2.974   0.254   8.304 -0.0862 -0.6915  0.3027
 3204SOL    HW121248   3.038   0.216   8.244  0.9042  1.4863 -0.0257
 3204SOL    HW221249   3.023   0.256   8.386  1.5720  0.5602 -0.7210
 3205SOL     OW21250   2.055   4.562   9.131 -0.1389  0.3442 -0.0783
 3205SOL    HW121251   2.014   4.482   9.165  0.0681 -0.7906 -2.4924
 3205SOL    HW221252   2.112   4.508   9.076 -1.5397 -1.1423 -0.1023
 3206SOL     OW21253   2.629   2.286   2.614 -0.3352 -0.2798  0.6605
 3206SOL    HW121254   2.673   2.276   2.530 -0.7725 -0.3649  0.4437
 3206SOL    HW221255   2.543   2.325   2.598  0.4457  1.9455  1.9310
 3207SOL     OW21256   3.274   3.800   9.735 -0.1007  0.1680 -0.0448
 3207SOL    HW121257   3.273   3.714   9.775  1.0658 -0.0701 -0.5414
 3207SOL    HW221258   3.214   3.852   9.789  0.3672  0.6413  0.0152
 3208SOL     OW21259   2.026   2.143   2.885  0.3854 -0.1947  0.2584
 3208SOL    HW121260   1.983   2.224   2.857 -1.3627 -1.1071  0.2970
 3208SOL    HW221261   2.039   2.098   2.802 -1.3126 -1.6441  0.7757
 3209SOL     OW21262   2.785   0.429  14.763  0.4394  0.2908  1.0158
 3209SOL    HW121263   2.792   0.521  14.787 -0.9073  0.4660  0.7236
 3209SOL    HW221264   2.860   0.387  14.805  1.6362  0.7996 -0.6085
 3210SOL     OW21265   2.574   4.399  15.358  0.5161 -0.1871 -0.9148
 3210SOL    HW121266   2.606   4.354  15.436 -0.3573  0.6278 -0.0843
 3210SOL    HW221267   2.598   4.491  15.373  0.6755 -0.5917  1.3409
 3211SOL     OW21268   4.432   2.396   0.150  0.9534  0.8611  0.3829
 3211SOL    HW121269   4.393   2.373   0.235  0.5426 -0.6974 -0.2226
 3211SOL    HW221270   4.500   2.330   0.132  0.9030  0.7656  0.5382
 3212SOL     OW21271   1.663   3.036   8.367  0.1500 -0.0309  0.3921
 3212SOL    HW121272   1.703   3.116   8.403  1.0927 -0.5182  0.4286
 3212SOL    HW221273   1.701   2.962   8.414  1.5860  1.6747  1.9151
 3213SOL     OW21274   0.386   3.825  14.654 -0.1152  0.2235 -0.4727
 3213SOL    HW121275   0.342   3.892  14.601 -0.8243  0.3449  0.2590
 3213SOL    HW221276   0.385   3.864  14.741  0.6053 -0.4913 -0.1500
 3214SOL     OW21277   4.733   1.851   9.848 -0.5587 -0.2668 -0.8413
 3214SOL    HW121278   4.726   1.809   9.933 -0.7937  0.0782 -0.6906
 3214SOL    HW221279   4.669   1.921   9.860 -0.9770 -0.6514 -0.8404
 3215SOL     OW21280   4.506   3.790   8.968 -0.1840  0.3730  0.3613
 3215SOL    HW121281   4.486   3.745   9.050  1.0510  0.2243  0.5853
 3215SOL    HW221282   4.567   3.731   8.923  2.2895  0.8185  3.1392
 3216SOL     OW21283   1.237   4.473  17.449 -0.4209  0.4608  0.1545
 3216SOL    HW121284   1.230   4.454  17.543 -3.4017  3.3595  0.5364
 3216SOL    HW221285   1.212   4.565  17.444  1.2043  0.7617 -2.2361
 3217SOL     OW21286   2.089   3.993   4.799 -0.0620 -0.3322  0.1207
 3217SOL    HW121287   2.011   3.983   4.853  0.5020 -3.6061  0.3358
 3217SOL    HW221288   2.154   4.039   4.852 -0.9994 -1.6919  2.3975
 3218SOL     OW21289   0.025   3.630   4.964  0.0276  0.8525  0.1147
 3218SOL    HW121290   0.046   3.556   5.020 -1.9527 -1.9053 -2.8209
 3218SOL    HW221291   0.079   3.698   5.005  0.9590 -0.6884  1.4282
 3219SOL     OW21292   3.674   3.337  17.678 -0.1447 -0.2789  0.0271
 3219SOL    HW121293   3.692   3.296   0.007  0.1088  0.3755  0.2924
 3219SOL    HW221294   3.725   3.277  17.624  0.9446 -0.6303  1.4500
 3220SOL     OW21295   3.602   1.685   9.433  0.2491  0.8941  0.3682
 3220SOL    HW121296   3.670   1.710   9.371 -0.2067  2.2193  0.4128
 3220SOL    HW221297   3.531   1.649   9.380  0.4046 -1.0394  1.4753
 3221SOL     OW21298   3.505   2.761   5.776  0.6600  0.2384  1.0457
 3221SOL    HW121299   3.516   2.781   5.683  1.2625 -3.3344  0.3541
 3221SOL    HW221300   3.418   2.798   5.795 -0.2708 -0.6614 -1.5135
 3222SOL     OW21301   2.008   0.212   6.744  0.0788 -0.0350  0.5852
 3222SOL    HW121302   2.002   0.202   6.839 -0.2069  0.9306  0.6701
 3222SOL    HW221303   2.045   0.126   6.724 -0.4438  0.3924 -2.2605
 3223SOL     OW21304   3.161   0.374   6.032 -0.4824 -0.7014 -0.0082
 3223SOL    HW121305   3.243   0.332   6.005 -0.4139 -0.1512 -0.6751
 3223SOL    HW221306   3.176   0.386   6.126  0.2904  0.2315 -0.2463
 3224SOL     OW21307   1.981   2.819   6.293 -0.2066  0.3868  0.1548
 3224SOL    HW121308   1.893   2.812   6.328 -0.4643 -1.0121 -0.7558
 3224SOL    HW221309   2.021   2.871   6.362 -0.6459  0.1903  0.5601
 3225SOL     OW21310   1.316   4.076  10.798  0.3386 -0.2001  0.0529
 3225SOL    HW121311   1.305   3.985  10.770 -0.8866  1.2846 -4.2393
 3225SOL    HW221312   1.387   4.071  10.862  0.0334 -0.7199  0.3443
 3226SOL     OW21313   0.268   0.616   3.710 -0.0667  0.1684  0.0749
 3226SOL    HW121314   0.302   0.527   3.717 -0.2619 -0.0264 -1.3944
 3226SOL    HW221315   0.176   0.601   3.688 -0.0038 -0.2128  0.0700
 3227SOL     OW21316   0.738   1.705   8.318 -0.1612  0.0699  0.1239
 3227SOL    HW121317   0.693   1.762   8.255 -2.0878 -2.3618 -0.6817
 3227SOL    HW221318   0.803   1.772   8.341 -0.9426  0.5080  1.0369
 3228SOL     OW21319   1.561   4.387   6.341 -0.3514 -0.1198 -0.1642
 3228SOL    HW121320   1.481   4.429   6.309 -0.5157  1.4472  2.3093
 3228SOL    HW221321   1.535   4.295   6.341  1.1523 -0.5631  3.4332
 3229SOL     OW21322   2.752   1.286   9.016 -0.6830 -0.1054  0.0429
 3229SOL    HW121323   2.715   1.226   8.952  0.8569 -1.6039  0.5620
 3229SOL    HW221324   2.740   1.239   9.098  2.8193 -2.8422 -1.0156
 3230SOL     OW21325   2.348   4.148   3.753 -0.0826  0.2245  0.2221
 3230SOL    HW121326   2.270   4.106   3.718  0.9107 -1.6911  0.3026
 3230SOL    HW221327   2.315   4.138   3.843  0.2462 -0.3088  0.2865
 3231SOL     OW21328   0.675   3.803  17.642 -0.0554 -0.4408 -0.1695
 3231SOL    HW121329   0.740   3.733  17.642  1.7321  1.2449  0.1425
 3231SOL    HW221330   0.649   3.799  17.734  0.1541 -0.8021 -0.1270
 3232SOL     OW21331   4.026   4.333  15.561  0.2197  0.5299 -0.1042
 3232SOL    HW121332   4.023   4.412  15.614 -0.9540  1.3772 -1.4007
 3232SOL    HW221333   4.071   4.366  15.483  1.9527 -1.2518  0.1551
 3233SOL     OW21334   4.159   3.205  15.935  0.5779 -0.1864  0.4104
 3233SOL    HW121335   4.220   3.235  15.867 -0.8990  1.0090 -0.4058
 3233SOL    HW221336   4.074   3.223  15.895  1.4874 -1.9031 -2.3390
 3234SOL     OW21337   4.097   2.636  14.666  0.7526  0.1825  0.0715
 3234SOL    HW121338   4.020   2.599  14.708 -0.5972  0.6279 -1.9777
 3234SOL    HW221339   4.055   2.715  14.630 -1.3025 -0.7118  0.5414
 3235SOL     OW21340   0.531   3.751  16.643 -0.0361  0.3646  0.2381
 3235SOL    HW121341   0.508   3.662  16.668  2.0969  0.0902  1.2101
 3235SOL    HW221342   0.522   3.751  16.548  0.0873  1.4690  0.2260
 3236SOL     OW21343   1.823   1.233   8.655  0.6044 -0.1490 -1.0674
 3236SOL    HW121344   1.864   1.319   8.637 -1.3639  0.6545 -1.7435
 3236SOL    HW221345   1.783   1.217   8.569  2.0194  1.4219 -2.0429
 3237SOL     OW21346   3.569   2.379  11.153 -0.3479 -0.1920 -0.1022
 3237SOL    HW121347   3.557   2.404  11.244 -0.8690 -2.0616  0.3399
 3237SOL    HW221348   3.640   2.439  11.129  0.3928 -1.8588 -2.0873
 3238SOL     OW21349   2.737   1.199  17.539  0.2748  0.1437  0.3859
 3238SOL    HW121350   2.735   1.224  17.447 -0.8303 -2.3076 -0.2664
 3238SOL    HW221351   2.736   1.285  17.580  1.9949  1.1343 -1.6587
 3239SOL     OW21352   3.114   1.282   3.736 -0.3825 -0.1114  0.0070
 3239SOL    HW121353   3.068   1.213   3.687 -0.7743  1.3362 -1.6630
 3239SOL    HW221354   3.095   1.351   3.672  0.4149 -0.2801 -0.3996
 3240SOL     OW21355   1.080   4.251   3.523 -0.1932  0.1843  0.0756
 3240SOL    HW121356   1.163   4.204   3.534  1.1506  2.7975  1.2061
 3240SOL    HW221357   1.072   4.282   3.614  0.8234  2.4675 -0.6122
 3241SOL     OW21358   2.575   3.033   7.336  0.1232 -0.2213 -0.0334
 3241SOL    HW121359   2.520   3.025   7.258  1.9801 -0.4055 -1.3467
 3241SOL    HW221360   2.658   3.036   7.288  0.1639 -1.9362 -0.0746
 3242SOL     OW21361   1.124   0.597   8.237 -0.0898  0.4112  0.1862
 3242SOL    HW121362   1.113   0.593   8.142  0.9298 -1.2495  0.1418
 3242SOL    HW221363   1.046   0.547   8.261  0.6136  0.0978  1.8158
 3243SOL     OW21364   1.211   0.780  14.670  0.2952  0.1944  0.1133
 3243SOL    HW121365   1.258   0.796  14.589  0.1495 -0.7389 -0.1460
 3243SOL    HW221366   1.135   0.738  14.631  1.0406 -1.0219 -0.0238
 3244SOL     OW21367   2.463   3.532   7.167  0.8796  0.0249  0.4248
 3244SOL    HW121368   2.378   3.534   7.211  0.3584 -0.6420 -0.5561
 3244SOL    HW221369   2.437   3.512   7.077 -3.4088 -1.7098  2.0280
 3245SOL     OW21370   1.025   1.425  13.090 -0.1606  0.0715  0.1525
 3245SOL    HW121371   0.972   1.486  13.039 -0.2762 -0.2332 -0.0929
 3245SOL    HW221372   1.105   1.433  13.037 -0.0762 -0.0140  0.2643
 3246SOL     OW21373   1.746   0.045  15.329  0.4381  0.0963  0.2772
 3246SOL    HW121374   1.651   0.054  15.322  0.3328 -1.2729 -0.1419
 3246SOL    HW221375   1.765   4.718  15.263 -1.0140 -1.3086  1.2533
 3247SOL     OW21376   0.206   0.348   9.004  0.0843 -0.1431  0.0428
 3247SOL    HW121377   0.170   0.418   9.057  0.6093 -0.5221  0.8944
 3247SOL    HW221378   0.272   0.306   9.059  0.0024 -0.2621  0.0510
 3248SOL     OW21379   0.258   3.147   7.793  0.3068  0.3019  0.0844
 3248SOL    HW121380   0.304   3.224   7.828 -1.4854  1.3016  0.2384
 3248SOL    HW221381   0.293   3.073   7.843 -1.8956  0.2253  1.5257
 3249SOL     OW21382   0.658   3.612   9.568 -0.0166 -0.0528  0.1367
 3249SOL    HW121383   0.641   3.697   9.609  1.2053  0.2321  0.0370
 3249SOL    HW221384   0.749   3.599   9.596 -0.0186  0.7693  0.5058
 3250SOL     OW21385   1.957   0.551  16.642  0.0264 -0.0350  0.1751
 3250SOL    HW121386   1.890   0.539  16.574  1.6149 -0.5350 -1.2990
 3250SOL    HW221387   2.026   0.603  16.601  0.2815  0.3115  1.0426
 3251SOL     OW21388   1.594   3.805  12.129  0.2926 -0.0804 -0.5749
 3251SOL    HW121389   1.627   3.741  12.192  3.2264  2.6632  0.7129
 3251SOL    HW221390   1.534   3.755  12.074 -0.1297  1.7495 -1.8148
 3252SOL     OW21391   2.176   0.508   2.766 -0.5448  0.0042 -0.4344
 3252SOL    HW121392   2.158   0.586   2.818 -0.5959  0.4732 -1.1558
 3252SOL    HW221393   2.215   0.551   2.690 -1.4342  1.0359 -0.3036
 3253SOL     OW21394   0.303   1.579  15.117 -0.4521  0.2298 -0.3490
 3253SOL    HW121395   0.354   1.535  15.185  0.1382  2.1765  0.4684
 3253SOL    HW221396   0.212   1.564  15.142 -0.6540  0.7748 -0.7608
 3254SOL     OW21397   2.830   2.450  11.053 -0.5010 -0.0843 -0.0443
 3254SOL    HW121398   2.808   2.410  11.137 -0.5417 -1.4679 -0.7205
 3254SOL    HW221399   2.823   2.544  11.070  1.7767  0.1105 -0.2341
 3255SOL     OW21400   1.794   2.257  13.066 -0.5311  0.1223 -0.4171
 3255SOL    HW121401   1.833   2.277  12.981 -2.8196 -2.5650 -2.1042
 3255SOL    HW221402   1.754   2.340  13.092 -0.6376  0.5562 -1.9547
 3256SOL     OW21403   0.202   2.267   5.017  0.1273  0.4580 -0.3649
 3256SOL    HW121404   0.128   2.281   5.076 -1.0810  1.6248 -2.1853
 3256SOL    HW221405   0.269   2.244   5.082 -0.6699  0.6818  0.5404
 3257SOL     OW21406   3.721   2.879  13.928  0.3308 -0.5135  0.2734
 3257SOL    HW121407   3.661   2.934  13.877  0.5680 -0.9253 -0.4437
 3257SOL    HW221408   3.790   2.847  13.871  1.6441  1.8772  0.5113
 3258SOL     OW21409   3.543   0.612  12.539 -0.3289  0.7771  0.7209
 3258SOL    HW121410   3.575   0.528  12.569  0.2800  1.7766  2.8807
 3258SOL    HW221411   3.600   0.663  12.597  1.8814 -0.4960 -0.3461
 3259SOL     OW21412   3.216   4.424  10.469  0.1158 -0.0055  0.5799
 3259SOL    HW121413   3.166   4.497  10.504 -0.8388 -1.5417  2.4238
 3259SOL    HW221414   3.269   4.466  10.401  0.8515 -1.1627  0.4323
 3260SOL     OW21415   2.770   3.021   4.105 -0.0688 -0.1348  0.2361
 3260SOL    HW121416   2.837   3.089   4.111  0.3973 -0.8461  2.8940
 3260SOL    HW221417   2.717   3.054   4.032 -0.2368  0.5926  0.6898
 3261SOL     OW21418   1.098   2.723   6.412  0.6454 -0.0778  0.2588
 3261SOL    HW121419   1.040   2.740   6.338  0.2502 -0.0916  0.5707
 3261SOL    HW221420   1.180   2.729   6.362  0.8391 -0.3205  0.5427
 3262SOL     OW21421   0.067   2.724   8.369 -0.6149 -0.0900  0.4454
 3262SOL    HW121422   0.075   2.793   8.435  2.1698  0.2378 -0.2139
 3262SOL    HW221423   0.067   2.651   8.431  3.5712  0.1474  0.7060
 3263SOL     OW21424   4.422   2.965  15.012  0.3574  0.3970 -0.8674
 3263SOL    HW121425   4.357   3.035  15.004  1.7649  1.6536 -1.3687
 3263SOL    HW221426   4.415   2.944  14.919  1.1310 -0.5145 -0.7186
 3264SOL     OW21427   0.389   3.050   1.115 -0.5299 -0.4926  0.2585
 3264SOL    HW121428   0.425   3.138   1.107  1.4345 -1.4646 -1.6589
 3264SOL    HW221429   0.465   3.005   1.152 -0.2860  0.0679  0.4277
 3265SOL     OW21430   3.615   4.540   3.049 -0.7698 -0.4415  0.0101
 3265SOL    HW121431   3.556   4.598   3.097  0.9171  0.9445  0.4140
 3265SOL    HW221432   3.557   4.491   2.991 -0.4738 -1.1039  0.2704
 3266SOL     OW21433   3.842   3.888   5.654  0.3516  0.3927  0.4831
 3266SOL    HW121434   3.770   3.847   5.701  0.9938  0.0107  1.1425
 3266SOL    HW221435   3.815   3.891   5.562  0.5432  1.8079  0.4807
 3267SOL     OW21436   3.057   2.394   8.731 -0.2232 -0.8104 -0.3583
 3267SOL    HW121437   3.028   2.466   8.787  0.2204 -0.2750 -0.8125
 3267SOL    HW221438   2.991   2.334   8.764  0.2114 -1.2906 -0.3582
 3268SOL     OW21439   4.518   0.278   0.476 -0.4233  0.0133 -0.0503
 3268SOL    HW121440   4.580   0.348   0.497 -1.6044  0.8532  0.6260
 3268SOL    HW221441   4.512   0.238   0.563 -0.1934  1.7180  0.7499
 3269SOL     OW21442   1.037   0.594  15.644 -0.2480  0.6407  0.4611
 3269SOL    HW121443   1.066   0.503  15.640 -2.7658 -0.0735 -1.2782
 3269SOL    HW221444   0.960   0.579  15.589  0.3497 -0.0085 -0.1848
 3270SOL     OW21445   2.898   2.728   5.984 -0.0056  0.5731  0.4507
 3270SOL    HW121446   2.983   2.686   5.968 -0.0901  0.6385 -0.1721
 3270SOL    HW221447   2.872   2.752   5.895 -2.2356 -2.8179  0.1976
 3271SOL     OW21448   3.780   2.550  11.109 -0.0608  0.2409  0.2210
 3271SOL    HW121449   3.787   2.645  11.112 -1.0250  0.3265 -0.2119
 3271SOL    HW221450   3.821   2.534  11.024 -0.5603 -1.4277  0.3035
 3272SOL     OW21451   1.722   4.269   2.361 -0.1912  0.4333  0.2757
 3272SOL    HW121452   1.758   4.189   2.399  1.7938  0.9116 -0.6286
 3272SOL    HW221453   1.786   4.287   2.292 -0.3552  1.8196  0.5004
 3273SOL     OW21454   1.312   1.752   0.066 -0.3692  0.3205 -0.9422
 3273SOL    HW121455   1.353   1.838   0.052  1.3900 -0.2712  0.5584
 3273SOL    HW221456   1.273   1.746  17.734 -1.1748  1.9923 -0.6949
 3274SOL     OW21457   0.319   0.055   0.992  0.6219  0.0771  0.6378
 3274SOL    HW121458   0.328   0.150   0.998  1.0066  0.1259 -0.7072
 3274SOL    HW221459   0.252   0.045   1.059 -0.5003  0.5419 -0.4120
 3275SOL     OW21460   2.952   0.289   7.123 -0.5449  0.2290 -0.2431
 3275SOL    HW121461   3.023   0.277   7.185 -0.4076 -1.5567 -0.7457
 3275SOL    HW221462   2.881   0.310   7.183 -0.9070 -1.1334 -0.1826
 3276SOL     OW21463   2.294   3.258   7.470  0.1290  0.3930  0.1410
 3276SOL    HW121464   2.328   3.169   7.465 -2.0800 -0.4045 -0.9453
 3276SOL    HW221465   2.216   3.264   7.525 -0.9515 -1.4589 -1.2010
 3277SOL     OW21466   3.398   3.835   7.189  0.3428  0.6061  0.2350
 3277SOL    HW121467   3.308   3.826   7.157  0.4854 -2.2531  0.6564
 3277SOL    HW221468   3.412   3.929   7.183  1.2409  0.5451  1.3642
 3278SOL     OW21469   2.724   2.572   4.731  0.7305  0.0985 -0.6163
 3278SOL    HW121470   2.680   2.557   4.815 -0.3945  0.4997 -1.1311
 3278SOL    HW221471   2.713   2.494   4.676 -0.2264 -1.3049  1.5518
 3279SOL     OW21472   3.381   0.953   3.414 -0.0024 -0.0687 -0.0643
 3279SOL    HW121473   3.404   0.978   3.503  0.9066 -0.1350 -0.2777
 3279SOL    HW221474   3.291   0.921   3.422 -0.1713  0.4450  0.1134
 3280SOL     OW21475   0.972   2.293   6.463  0.0798 -0.2785 -0.0754
 3280SOL    HW121476   1.011   2.259   6.543 -1.7600  3.2195  2.3260
 3280SOL    HW221477   0.905   2.355   6.493  0.0752 -0.3931  0.1501
 3281SOL     OW21478   0.779   2.678   4.708  0.0914  0.4367 -0.1283
 3281SOL    HW121479   0.745   2.610   4.766  2.6557 -1.1662 -0.5394
 3281SOL    HW221480   0.696   2.714   4.676  1.1080  1.4899 -1.5516
 3282SOL     OW21481   2.401   2.380   2.820  0.0629  0.0629 -0.7454
 3282SOL    HW121482   2.409   2.381   2.725 -2.5884 -0.3714 -0.9576
 3282SOL    HW221483   2.336   2.447   2.840 -1.4146 -1.6090  0.0548
 3283SOL     OW21484   2.834   3.817   3.081 -0.2849 -0.7468 -0.1119
 3283SOL    HW121485   2.863   3.749   3.021  0.8659  0.7315 -1.2324
 3283SOL    HW221486   2.773   3.777   3.143 -0.4857  1.5729  1.1861
 3284SOL     OW21487   0.078   3.979  14.911 -0.4222  0.9115 -0.2054
 3284SOL    HW121488   0.063   3.982  14.816  0.6511  0.5559 -0.3859
 3284SOL    HW221489   0.119   3.892  14.911 -0.4082  0.9278  0.8534
 3285SOL     OW21490   1.712   0.309  14.229  0.0815 -0.1351  0.4152
 3285SOL    HW121491   1.680   0.218  14.222 -1.6059  0.5749 -1.0607
 3285SOL    HW221492   1.799   0.301  14.189  0.2224 -1.9630  1.0488
 3286SOL     OW21493   1.928   1.094   5.101  0.4978 -0.3575 -0.3763
 3286SOL    HW121494   1.928   1.033   5.027  3.2805 -0.2319 -0.4985
 3286SOL    HW221495   2.006   1.142   5.073  0.6675 -0.0936  0.5392
 3287SOL     OW21496   0.965   4.657   9.044  0.6754  0.1117  0.0029
 3287SOL    HW121497   0.983   0.006   9.013  0.6708  0.5134  1.1338
 3287SOL    HW221498   1.049   4.622   9.016  0.4159  0.3457 -1.0864
 3288SOL     OW21499   1.896   2.687   3.177 -0.2416 -0.1735 -0.1668
 3288SOL    HW121500   1.891   2.597   3.145  0.3297  0.2471 -1.4233
 3288SOL    HW221501   1.969   2.719   3.124 -1.5663 -0.2304 -2.0277
 3289SOL     OW21502   3.241   0.176  13.510  0.5763  0.5998 -0.4916
 3289SOL    HW121503   3.295   0.228  13.451  0.6844 -0.6514 -1.4901
 3289SOL    HW221504   3.166   0.151  13.456 -0.0847 -0.7099  1.0452
 3290SOL     OW21505   3.995   3.692   4.113 -0.6808 -0.4406 -0.1394
 3290SOL    HW121506   3.921   3.746   4.142  1.0310  1.2332  1.1078
 3290SOL    HW221507   3.981   3.705   4.019 -0.3239 -0.7540 -0.2337
 3291SOL     OW21508   2.270   1.893   9.737  0.2701  0.1893 -0.2931
 3291SOL    HW121509   2.236   1.884   9.826  0.3596 -3.7119 -0.6319
 3291SOL    HW221510   2.242   1.811   9.696 -0.5889 -0.7973  2.2457
 3292SOL     OW21511   0.366   0.311   6.845  0.0385  0.2637 -0.9262
 3292SOL    HW121512   0.299   0.244   6.832 -1.4457  1.1510  1.9102
 3292SOL    HW221513   0.329   0.396   6.819 -2.2587 -0.3677  0.3135
 3293SOL     OW21514   4.380   1.498   2.730  0.6106  0.1363  0.0519
 3293SOL    HW121515   4.298   1.483   2.682  1.0973  2.1344 -1.4176
 3293SOL    HW221516   4.355   1.557   2.801 -0.1815 -0.0227 -0.0835
 3294SOL     OW21517   1.464   1.977   2.781  0.3763 -0.5083 -0.0277
 3294SOL    HW121518   1.464   1.902   2.721 -1.2745 -0.1182 -0.5262
 3294SOL    HW221519   1.397   2.035   2.744 -0.0055  0.4702  2.2314
 3295SOL     OW21520   0.688   3.908   3.065 -0.3178  0.0797  0.1254
 3295SOL    HW121521   0.775   3.872   3.051 -0.4700 -0.3689  0.3188
 3295SOL    HW221522   0.706   3.980   3.125  2.3965  0.3405 -1.0190
 3296SOL     OW21523   1.261   2.546   3.717 -0.4313  0.0459 -0.2605
 3296SOL    HW121524   1.208   2.530   3.640 -1.8386  0.5698  0.5920
 3296SOL    HW221525   1.349   2.530   3.685 -0.6897 -1.4612 -0.2144
 3297SOL     OW21526   1.775   0.685   3.225 -0.5245  0.2007 -0.1580
 3297SOL    HW121527   1.827   0.656   3.299  0.5855  0.7127 -0.7445
 3297SOL    HW221528   1.695   0.652   3.267 -2.3201  1.6455 -2.4015
 3298SOL     OW21529   1.151   3.070   3.858 -0.4244  0.0078  0.0492
 3298SOL    HW121530   1.060   3.064   3.884 -0.2254 -1.2638  0.4599
 3298SOL    HW221531   1.181   2.979   3.849  0.7156  0.5616 -1.6853
 3299SOL     OW21532   0.351   1.705   0.343 -0.0138 -0.2471 -0.4658
 3299SOL    HW121533   0.393   1.642   0.285 -2.0029 -0.6173 -1.5308
 3299SOL    HW221534   0.261   1.709   0.308 -1.0248 -0.2280  2.1638
 3300SOL     OW21535   0.878   4.626   0.499  0.0762  0.6383  0.3188
 3300SOL    HW121536   0.920   4.679   0.567 -0.3314  0.5183  0.6589
 3300SOL    HW221537   0.792   4.668   0.491 -0.1476 -0.0794 -1.1495
 3301SOL     OW21538   1.933   4.640   2.563 -0.4155 -0.1069  0.1504
 3301SOL    HW121539   1.942   4.715   2.505 -2.1510 -0.1189 -0.1296
 3301SOL    HW221540   1.860   4.589   2.527  0.5826 -2.1621  1.0475
 3302SOL     OW21541   3.619   4.693   7.405  0.5910 -0.6280  0.1054
 3302SOL    HW121542   3.653   4.674   7.318 -0.7446  0.2514 -0.6052
 3302SOL    HW221543   3.681   4.645   7.460 -0.6412  0.2157  2.2222
 3303SOL     OW21544   2.077   1.068   8.261 -0.4414  0.1818 -0.2964
 3303SOL    HW121545   2.138   1.020   8.205  0.2326  1.8929 -1.0156
 3303SOL    HW221546   2.088   1.021   8.344  0.7750  1.1198  0.0609
 3304SOL     OW21547   1.935   4.103   4.536  0.0268 -0.2028  0.5607
 3304SOL    HW121548   1.987   4.044   4.592  1.5179  0.3452 -0.2770
 3304SOL    HW221549   1.895   4.149   4.610 -0.6973 -1.5516  1.0172
 3305SOL     OW21550   2.262   1.160   9.389  0.2054  0.1660  0.3467
 3305SOL    HW121551   2.293   1.070   9.384  0.7884  0.3558  0.5668
 3305SOL    HW221552   2.226   1.160   9.478  1.7688  1.3859  0.9819
 3306SOL     OW21553   2.819   2.276  15.008 -0.8635  0.2767  0.0372
 3306SOL    HW121554   2.775   2.234  14.935 -1.7530  0.0821  0.6890
 3306SOL    HW221555   2.898   2.305  14.962 -0.6669 -0.1559  0.1059
 3307SOL     OW21556   4.039   4.223   2.803  0.6762  0.0743 -0.0267
 3307SOL    HW121557   4.019   4.288   2.870 -1.0682 -1.2030  0.7114
 3307SOL    HW221558   3.953   4.222   2.761  0.2313  0.5437  0.8735
 3308SOL     OW21559   1.304   3.193   4.078 -0.6033 -0.8929 -0.1832
 3308SOL    HW121560   1.259   3.175   3.995 -2.0895 -1.2335  0.6953
 3308SOL    HW221561   1.263   3.276   4.105 -2.3600 -1.1658 -1.9598
 3309SOL     OW21562   3.412   3.382   9.170 -0.1942 -0.2882  0.2106
 3309SOL    HW121563   3.325   3.415   9.193  1.8801  3.3668  2.7526
 3309SOL    HW221564   3.410   3.394   9.075 -1.4745  0.9715  0.4076
 3310SOL     OW21565   3.141   1.065   9.342 -0.2352  0.4117  0.2622
 3310SOL    HW121566   3.207   1.133   9.331 -0.5930  0.9638  1.4704
 3310SOL    HW221567   3.202   0.996   9.367  0.7429  0.8014 -1.0832
 3311SOL     OW21568   3.930   0.853   6.327 -0.2177  0.1542  0.2170
 3311SOL    HW121569   3.888   0.816   6.250 -1.8620 -1.5406  1.9264
 3311SOL    HW221570   3.990   0.781   6.345  0.0292 -0.1470 -1.8549
 3312SOL     OW21571   1.141   1.399   6.770  0.0626 -0.3938  0.2047
 3312SOL    HW121572   1.183   1.478   6.736  0.2952 -0.5178  0.2028
 3312SOL    HW221573   1.053   1.434   6.759 -0.3448 -1.2795  0.6848
 3313SOL     OW21574   3.685   2.342   2.543 -0.1719 -0.3397 -0.3010
 3313SOL    HW121575   3.694   2.267   2.601  3.2828  0.1308 -0.2376
 3313SOL    HW221576   3.764   2.339   2.490 -0.3239  1.2672 -0.6295
 3314SOL     OW21577   4.088   3.721   9.257  0.1024  0.0666  0.5293
 3314SOL    HW121578   4.016   3.659   9.243 -1.3306  1.9327 -0.2580
 3314SOL    HW221579   4.054   3.767   9.334  1.4550  0.1651  1.0731
 3315SOL     OW21580   3.022   0.116  10.790  0.4262 -0.1567 -0.2534
 3315SOL    HW121581   3.049   0.140  10.879 -2.8879 -1.0378  1.0072
 3315SOL    HW221582   3.028   0.196  10.739 -0.8609  0.2273  0.1982
 3316SOL     OW21583   0.027   2.071   8.500  0.9094  0.0380  0.0317
 3316SOL    HW121584   4.695   2.113   8.451  2.1288  1.5522 -0.4361
 3316SOL    HW221585   4.704   2.017   8.549 -0.0291 -0.0781 -1.2896
 3317SOL     OW21586   4.725   3.334   8.896  0.4421 -0.0487 -0.3868
 3317SOL    HW121587   0.055   3.277   8.862  0.2990  0.1927 -1.0864
 3317SOL    HW221588   0.011   3.325   8.987  1.8036 -2.3566 -1.0061
 3318SOL     OW21589   2.318   2.393   6.986  0.6191  0.0026 -0.1562
 3318SOL    HW121590   2.272   2.315   7.018  1.3999  0.0563  1.1039
 3318SOL    HW221591   2.382   2.399   7.057  0.7499  1.1037 -0.3752
 3319SOL     OW21592   1.425   3.615   0.295 -0.3363 -0.0393  0.1502
 3319SOL    HW121593   1.380   3.650   0.218  1.1026  2.0951  0.2903
 3319SOL    HW221594   1.498   3.566   0.258 -0.3851 -0.4649  0.6159
 3320SOL     OW21595   0.797   3.119   3.475  0.3284  0.0229  0.1060
 3320SOL    HW121596   0.887   3.144   3.452  0.4799  0.4681  1.1939
 3320SOL    HW221597   0.775   3.190   3.535 -2.1836 -1.6557  1.1533
 3321SOL     OW21598   4.498   4.554  17.734  0.0835 -0.0217  0.4427
 3321SOL    HW121599   4.433   4.585  17.671 -0.1930 -1.5355 -0.0313
 3321SOL    HW221600   4.455   4.533   0.062  2.5833 -1.5253  1.3489
 3322SOL     OW21601   1.194   2.818   8.076  0.1651 -0.5426 -0.1745
 3322SOL    HW121602   1.162   2.896   8.122  0.9879 -1.8735  2.6251
 3322SOL    HW221603   1.286   2.843   8.066 -0.7494  2.4412 -1.1774
 3323SOL     OW21604   3.892   2.300   2.355  0.2557 -1.0606 -0.1294
 3323SOL    HW121605   3.949   2.367   2.320 -1.3520 -0.0558 -0.8223
 3323SOL    HW221606   3.942   2.246   2.417  1.7640 -0.0920 -0.5333
 3324SOL     OW21607   0.356   3.985  14.890  0.1719 -0.1891  0.6773
 3324SOL    HW121608   0.417   4.038  14.942  1.4424 -0.9917  0.0024
 3324SOL    HW221609   0.266   4.005  14.918  0.3669  1.2342  0.3070
 3325SOL     OW21610   2.637   1.004   6.683 -0.1547  0.2748 -0.4762
 3325SOL    HW121611   2.680   0.922   6.703 -0.0411  0.7657  1.3230
 3325SOL    HW221612   2.696   1.038   6.616  0.9892 -0.5797  0.1116
 3326SOL     OW21613   3.135   1.266   1.700 -0.0220 -0.0725  0.4207
 3326SOL    HW121614   3.120   1.358   1.719 -0.6204 -0.5221  2.1183
 3326SOL    HW221615   3.120   1.227   1.786  0.1598  1.0337  0.9488
 3327SOL     OW21616   2.833   1.049   6.515 -0.0540  0.2580  0.2978
 3327SOL    HW121617   2.835   1.142   6.491 -0.1980  0.8389  2.5051
 3327SOL    HW221618   2.922   1.023   6.490 -1.1898 -1.5942 -1.8577
 3328SOL     OW21619   1.443   4.175  14.354  0.3272  0.1277  0.0707
 3328SOL    HW121620   1.489   4.222  14.285  1.7940 -3.3672 -1.3308
 3328SOL    HW221621   1.480   4.207  14.435 -0.2430  0.5402  0.1701
 3329SOL     OW21622   3.910   0.223   0.637  0.0195 -0.2193 -0.0563
 3329SOL    HW121623   3.881   0.296   0.691  0.3094  0.4474 -0.8036
 3329SOL    HW221624   4.002   0.219   0.665 -0.4739  1.6584  1.8593
 3330SOL     OW21625   0.182   3.850  10.365  0.3890 -0.6986 -0.0734
 3330SOL    HW121626   0.117   3.781  10.379 -0.1739  0.1178  1.2850
 3330SOL    HW221627   0.210   3.877  10.452 -0.1773 -2.7911  0.7736
 3331SOL     OW21628   3.479   3.585  15.647  0.1585 -0.4862  0.3529
 3331SOL    HW121629   3.399   3.635  15.631  1.2204  0.4696 -2.0224
 3331SOL    HW221630   3.514   3.634  15.722 -3.0045  1.3286  0.6351
 3332SOL     OW21631   1.167   1.407   3.925  0.2336 -0.2766 -0.1514
 3332SOL    HW121632   1.122   1.492   3.930  1.5736  0.4080  0.3878
 3332SOL    HW221633   1.229   1.425   3.854  0.4271 -0.1892  0.0354
 3333SOL     OW21634   4.038   3.323   2.393 -0.1818 -0.2469 -0.0381
 3333SOL    HW121635   4.058   3.416   2.397 -1.3953  0.1322 -2.5048
 3333SOL    HW221636   4.074   3.303   2.306 -0.5627 -0.7074 -0.0879
 3334SOL     OW21637   0.868   1.831   4.316  0.0030 -0.3327 -0.3558
 3334SOL    HW121638   0.825   1.886   4.381 -1.0045 -1.4760 -0.0596
 3334SOL    HW221639   0.803   1.763   4.299  1.8108 -2.1364 -0.0011
 3335SOL     OW21640   4.416   4.488   7.618 -0.4173 -0.0872  0.3239
 3335SOL    HW121641   4.362   4.422   7.661 -0.6237  0.1100  0.3681
 3335SOL    HW221642   4.346   4.524   7.564 -0.5700  0.0793  0.6292
 3336SOL     OW21643   0.956   3.103   9.380  0.5607 -0.4424 -0.1341
 3336SOL    HW121644   0.929   3.071   9.467 -0.4628 -1.6802 -0.8965
 3336SOL    HW221645   1.007   3.177   9.412 -0.6190  0.7633 -1.0412
 3337SOL     OW21646   2.460   1.793  16.282  0.0813  0.0786  0.8282
 3337SOL    HW121647   2.501   1.878  16.269  1.5999 -1.2121 -2.7273
 3337SOL    HW221648   2.434   1.796  16.374 -0.2422  2.9838  0.6128
 3338SOL     OW21649   0.340   0.296  10.452  0.2832 -0.5088 -0.0966
 3338SOL    HW121650   0.373   0.349  10.524  3.4079 -0.1258 -1.8101
 3338SOL    HW221651   0.367   0.356  10.383  2.2941 -3.0013 -1.4610
 3339SOL     OW21652   1.485   0.076   1.349 -0.3483 -0.6349  0.1568
 3339SOL    HW121653   1.416   0.111   1.406 -0.2589  1.7931 -1.2417
 3339SOL    HW221654   1.432   0.057   1.271 -1.5534 -0.2231  0.8632
 3340SOL     OW21655   0.651   3.029   9.750 -0.3741  0.4168  0.3404
 3340SOL    HW121656   0.629   3.122   9.738 -0.6554  0.1644 -1.0789
 3340SOL    HW221657   0.571   2.982   9.725  0.9860 -0.4401 -2.3272
 3341SOL     OW21658   0.228   4.449   7.333 -0.3849 -0.5003  0.3435
 3341SOL    HW121659   0.254   4.525   7.280  0.5135 -1.6420 -0.8671
 3341SOL    HW221660   0.165   4.504   7.380  0.8101  1.6527 -0.5556
 3342SOL     OW21661   4.234   0.645   8.418  0.3939 -0.5072  0.1424
 3342SOL    HW121662   4.163   0.581   8.421  0.1891 -0.2984 -0.3314
 3342SOL    HW221663   4.209   0.689   8.499 -2.4855  0.6483 -1.3721
 3343SOL     OW21664   1.010   0.302  14.119  0.1332 -0.4859 -0.3211
 3343SOL    HW121665   1.023   0.384  14.071 -1.8027 -0.1607 -0.2837
 3343SOL    HW221666   0.960   0.256  14.051 -1.8713 -1.3351  1.7214
 3344SOL     OW21667   4.351   3.968   4.142  0.1065 -0.5857  0.5998
 3344SOL    HW121668   4.353   3.913   4.220  1.1675  1.3650  1.9319
 3344SOL    HW221669   4.311   3.916   4.072  1.2977 -0.6251 -0.0537
 3345SOL     OW21670   2.936   3.679   6.397  0.2593  0.4775  0.2560
 3345SOL    HW121671   2.861   3.657   6.341  1.0239  2.3897 -1.5225
 3345SOL    HW221672   2.984   3.597   6.393 -1.3160 -0.4170 -0.2793
 3346SOL     OW21673   1.178   4.163   8.714 -0.3210 -0.0631  0.1476
 3346SOL    HW121674   1.160   4.070   8.711 -1.7963  0.2363 -0.2186
 3346SOL    HW221675   1.090   4.198   8.702  0.5434  1.5545 -1.6340
 3347SOL     OW21676   3.763   3.269  14.488  0.2780  0.0700 -0.1472
 3347SOL    HW121677   3.824   3.331  14.529  0.4544  0.5023 -1.0801
 3347SOL    HW221678   3.697   3.321  14.443  0.8744  0.2360 -0.8246
 3348SOL     OW21679   2.791   0.766   6.774  0.3646 -0.0432 -0.1986
 3348SOL    HW121680   2.797   0.780   6.868  1.7467  0.7587 -0.4082
 3348SOL    HW221681   2.876   0.803   6.751 -0.0884 -0.0939 -1.9679
 3349SOL     OW21682   3.193   1.601   6.380 -0.2579 -0.7824  0.2669
 3349SOL    HW121683   3.233   1.654   6.448  1.1392  0.7181 -1.7319
 3349SOL    HW221684   3.243   1.625   6.303 -0.3511 -0.1627  0.4014
 3350SOL     OW21685   3.336   1.770   6.572  0.1723 -0.6417 -0.1390
 3350SOL    HW121686   3.256   1.823   6.573 -0.4046 -1.5574  2.1673
 3350SOL    HW221687   3.394   1.820   6.629 -1.8596  0.4313  1.0123
 3351SOL     OW21688   4.090   0.369   0.972 -0.4132  0.2179 -0.3078
 3351SOL    HW121689   4.089   0.346   1.065  0.8228 -0.1545 -0.3743
 3351SOL    HW221690   4.128   0.292   0.930 -0.9399 -0.9049  1.2668
 3352SOL     OW21691   0.160   3.509  14.439  0.1222  0.3328 -0.6071
 3352SOL    HW121692   0.147   3.522  14.533  0.2896  2.2611 -0.8625
 3352SOL    HW221693   0.181   3.595  14.403  0.7558 -0.7958 -2.9240
 3353SOL     OW21694   1.799   3.106   2.025  0.3116  0.4067  0.1977
 3353SOL    HW121695   1.856   3.129   2.098  0.7752 -0.9073  0.2374
 3353SOL    HW221696   1.865   3.063   1.971 -1.0314  0.0530 -1.1765
 3354SOL     OW21697   2.365   2.506   5.706  0.1845  0.5931 -0.1899
 3354SOL    HW121698   2.408   2.591   5.714  2.2002 -0.3670 -0.6824
 3354SOL    HW221699   2.358   2.499   5.610 -1.1252  0.7485 -0.1056
 3355SOL     OW21700   0.511   4.254  12.326 -0.3388  0.1665 -0.5640
 3355SOL    HW121701   0.571   4.270  12.398 -2.3974  0.6796  1.0217
 3355SOL    HW221702   0.454   4.328  12.348 -3.3470 -2.3285  0.0460
 3356SOL     OW21703   3.446   1.745   0.137  0.1493 -0.0709 -0.7779
 3356SOL    HW121704   3.527   1.696   0.125  0.1312  0.0352 -1.3387
 3356SOL    HW221705   3.393   1.703   0.069 -0.2618 -1.3874  0.3568
 3357SOL     OW21706   3.768   2.875   2.686  0.4829 -0.0989 -0.3175
 3357SOL    HW121707   3.778   2.954   2.634 -1.6664  0.1146 -0.4164
 3357SOL    HW221708   3.825   2.893   2.761 -1.6897  1.2236  1.0119
 3358SOL     OW21709   3.325   2.642  16.734 -0.1555 -0.4615 -0.5603
 3358SOL    HW121710   3.275   2.571  16.694 -0.7926  0.6389 -1.6990
 3358SOL    HW221711   3.314   2.636  16.829  0.0800  0.4662 -0.4689
 3359SOL     OW21712   1.432   1.400   8.206  0.0833  0.5427 -0.2908
 3359SOL    HW121713   1.368   1.381   8.274 -0.8503  2.0553 -0.7428
 3359SOL    HW221714   1.437   1.319   8.154 -0.7953 -0.1406  0.6970
 3360SOL     OW21715   2.738   0.577   5.806 -0.0050  0.0542  0.1958
 3360SOL    HW121716   2.693   0.646   5.855 -1.9232 -0.0386 -1.4348
 3360SOL    HW221717   2.658   0.527   5.789  0.0486  0.1819 -0.4231
 3361SOL     OW21718   0.102   1.089   5.407  0.2856  0.4344  0.2483
 3361SOL    HW121719   0.171   1.154   5.399 -1.3511  2.2641  0.9233
 3361SOL    HW221720   0.041   1.140   5.461  0.5148  0.9529  0.0105
 3362SOL     OW21721   1.486   3.950   2.782 -0.6825 -0.3651 -0.1453
 3362SOL    HW121722   1.460   3.945   2.690 -1.1912  0.3099 -0.0374
 3362SOL    HW221723   1.532   4.034   2.776 -2.9121  0.9034  0.3268
 3363SOL     OW21724   2.880   2.795   5.721  0.0979 -0.2616 -0.5157
 3363SOL    HW121725   2.849   2.761   5.637 -0.4975 -0.8676 -0.0526
 3363SOL    HW221726   2.940   2.869   5.712 -2.5151  1.9545  0.3356
 3364SOL     OW21727   1.724   0.389   6.081  0.1688  0.1944  1.2764
 3364SOL    HW121728   1.726   0.297   6.052 -2.8998  0.4046  0.4354
 3364SOL    HW221729   1.814   0.419   6.070  0.3251 -0.6849  0.1854
 3365SOL     OW21730   0.936   3.976  12.051  0.1571  0.1136 -0.5173
 3365SOL    HW121731   0.947   3.987  12.146  1.0555 -1.1056 -0.4698
 3365SOL    HW221732   1.021   4.006  12.018 -0.5534  1.6711 -0.8999
 3366SOL     OW21733   1.633   1.793   9.336 -0.6078 -0.1015 -0.2062
 3366SOL    HW121734   1.653   1.793   9.243 -0.3044 -0.7893 -0.1395
 3366SOL    HW221735   1.607   1.884   9.349 -0.7288 -0.3492  1.3830
 3367SOL     OW21736   1.851   0.951   2.009  0.4322 -0.6619 -0.7913
 3367SOL    HW121737   1.822   0.885   2.072  0.8495 -0.4784 -0.4034
 3367SOL    HW221738   1.846   1.037   2.050 -2.6007 -2.3829  2.4960
 3368SOL     OW21739   0.145   0.274   2.650  0.7416  0.1609  0.2282
 3368SOL    HW121740   0.236   0.292   2.674  1.2974 -3.0179  0.5056
 3368SOL    HW221741   0.147   0.331   2.572 -0.8774 -2.2029 -1.5374
 3369SOL     OW21742   3.147   3.200  12.326  0.2775  0.2364  1.0720
 3369SOL    HW121743   3.054   3.184  12.310  0.1234  2.5850 -0.4442
 3369SOL    HW221744   3.132   3.224  12.417  1.3274  2.8897  0.5521
 3370SOL     OW21745   0.492   1.620   9.954  0.4120  0.4038  0.3731
 3370SOL    HW121746   0.417   1.613  10.013  1.5112 -1.4673  1.5781
 3370SOL    HW221747   0.490   1.529   9.925 -3.5281  0.3035  1.0656
 3371SOL     OW21748   4.734   0.139   2.136  0.3746 -0.2348 -0.1707
 3371SOL    HW121749   0.026   0.064   2.188  0.7565 -0.4226 -0.6773
 3371SOL    HW221750   0.067   0.153   2.075 -0.1302  2.0445 -0.2471
 3372SOL     OW21751   3.284   2.782   2.851  1.3770  0.1454 -0.3808
 3372SOL    HW121752   3.326   2.793   2.936 -1.1798 -2.4046  1.1989
 3372SOL    HW221753   3.363   2.762   2.801  1.2317 -0.5755 -0.3279
 3373SOL     OW21754   1.304   3.252   7.573 -0.3239 -0.3490 -0.0048
 3373SOL    HW121755   1.252   3.323   7.537  1.4965  1.5634  1.0990
 3373SOL    HW221756   1.254   3.207   7.641 -0.4094  2.2194  1.6274
 3374SOL     OW21757   4.192   4.451   9.204 -0.3620 -0.2197  0.8637
 3374SOL    HW121758   4.258   4.509   9.243  0.7351 -0.1372 -1.1232
 3374SOL    HW221759   4.121   4.515   9.211 -0.1700  0.1017 -0.0834
 3375SOL     OW21760   3.276   1.417  16.325 -0.9153  0.0306  0.1835
 3375SOL    HW121761   3.322   1.406  16.409 -0.0813  0.3755 -0.2356
 3375SOL    HW221762   3.187   1.406  16.356 -1.2862 -2.3859 -1.7569
 3376SOL     OW21763   1.730   1.739   8.129  0.2097  0.4046 -0.6691
 3376SOL    HW121764   1.704   1.700   8.045 -0.6897  0.1610 -0.2713
 3376SOL    HW221765   1.661   1.804   8.134  0.6060  0.8842 -1.4178
 3377SOL     OW21766   1.039   3.865   2.288  0.2338 -0.2396  0.0869
 3377SOL    HW121767   1.029   3.959   2.274  1.3677 -0.1494 -0.0838
 3377SOL    HW221768   1.122   3.841   2.249  0.8211  1.5247  0.2269
 3378SOL     OW21769   4.042   1.393  10.636  0.1246 -0.4383  0.5124
 3378SOL    HW121770   3.987   1.438  10.699  0.0567 -1.5068  1.2230
 3378SOL    HW221771   4.071   1.460  10.575 -1.7664 -1.6859 -1.7626
 3379SOL     OW21772   0.887   4.265  15.222 -0.6227  0.6237 -0.1323
 3379SOL    HW121773   0.861   4.220  15.141 -2.2117  0.5570  0.4192
 3379SOL    HW221774   0.806   4.255  15.271 -1.0952  0.0324 -1.0398
 3380SOL     OW21775   3.643   2.714   3.295 -0.7467 -0.0416 -0.0122
 3380SOL    HW121776   3.715   2.653   3.314 -1.0571  0.1756  1.9269
 3380SOL    HW221777   3.597   2.667   3.226  0.1779 -0.8359 -0.0944
 3381SOL     OW21778   3.627   0.754   2.292  0.2179 -0.1920 -0.2159
 3381SOL    HW121779   3.678   0.812   2.235  2.3052 -0.4318  1.3850
 3381SOL    HW221780   3.578   0.817   2.346 -0.7106 -0.2528 -1.0023
 3382SOL     OW21781   1.390   3.287   2.805  0.2189  0.1274  0.2321
 3382SOL    HW121782   1.413   3.323   2.890  2.0947 -3.5221  1.2516
 3382SOL    HW221783   1.328   3.224   2.841 -0.7639  0.8998 -0.0699
 3383SOL     OW21784   0.283   0.109   8.032  0.0299 -0.2769  0.3531
 3383SOL    HW121785   0.232   0.088   7.954 -2.8905  0.5159  2.0167
 3383SOL    HW221786   0.348   0.040   8.020 -0.4086 -0.0992 -3.0727
 3384SOL     OW21787   2.091   0.636  16.927 -0.0464  0.4208 -0.0176
 3384SOL    HW121788   2.063   0.590  17.006  0.1543 -2.1692 -1.4396
 3384SOL    HW221789   2.008   0.666  16.890  0.2126  2.1635  0.8534
 3385SOL     OW21790   2.119   3.862   5.675 -0.3475  0.1148 -0.5098
 3385SOL    HW121791   2.103   3.894   5.764 -0.5581 -0.4376 -0.3481
 3385SOL    HW221792   2.189   3.799   5.694  0.0241  0.4883 -0.6446
 3386SOL     OW21793   4.453   2.582   4.951  0.5817 -0.5951 -0.2402
 3386SOL    HW121794   4.426   2.518   5.016  1.2324  0.0551  0.6734
 3386SOL    HW221795   4.469   2.662   5.001  0.4711  0.6209 -2.1249
 3387SOL     OW21796   4.731   2.064   1.366  0.3222  0.5470  0.2898
 3387SOL    HW121797   0.038   2.095   1.288  1.7720 -2.0277  0.1229
 3387SOL    HW221798   0.066   2.058   1.427 -0.3890  1.1242  1.2018
 3388SOL     OW21799   0.870   0.783   2.371 -0.3105  0.3277  0.5073
 3388SOL    HW121800   0.927   0.837   2.317 -1.2791 -0.2566 -1.1159
 3388SOL    HW221801   0.915   0.709   2.413  2.7919  2.0229  0.1938
 3389SOL     OW21802   2.399   0.760   3.562  0.4828 -0.1427 -0.2401
 3389SOL    HW121803   2.357   0.752   3.648  0.8163  3.4266  0.2549
 3389SOL    HW221804   2.335   0.805   3.506  0.2828  2.7270  2.3095
 3390SOL     OW21805   2.116   0.606   4.000  0.1906 -0.1509  0.2562
 3390SOL    HW121806   2.178   0.578   3.933 -0.5712 -0.4382 -0.3319
 3390SOL    HW221807   2.177   0.635   4.068  1.0109  0.0708 -0.5768
 3391SOL     OW21808   4.677   3.841  14.492  0.4507  0.3363 -0.2873
 3391SOL    HW121809   4.650   3.927  14.525 -1.9090 -0.5872  0.0938
 3391SOL    HW221810   4.620   3.832  14.416  1.2953  0.4087 -0.9357
 3392SOL     OW21811   3.944   3.641   7.578 -0.1616 -0.0010  0.0756
 3392SOL    HW121812   3.944   3.558   7.626  1.8548  0.0964  0.2542
 3392SOL    HW221813   3.939   3.704   7.650 -0.5419 -0.4838  0.4670
 3393SOL     OW21814   2.481   0.873  17.149 -0.2990  0.2471  0.5713
 3393SOL    HW121815   2.463   0.960  17.186  1.0775  0.3305  1.0431
 3393SOL    HW221816   2.544   0.888  17.079 -0.7644  1.7572  0.4613
 3394SOL     OW21817   0.600   3.116   1.702 -0.3197 -0.0624  0.0124
 3394SOL    HW121818   0.579   3.135   1.794 -0.3869  1.1793 -0.2701
 3394SOL    HW221819   0.677   3.169   1.683 -1.1006  1.5025  1.1877
 3395SOL     OW21820   1.956   4.704   7.263 -0.0948 -0.1250 -0.1900
 3395SOL    HW121821   1.998   4.724   7.178  0.3740 -0.4619 -0.0361
 3395SOL    HW221822   2.026   4.727   7.324  0.5880  0.1123 -1.0426
 3396SOL     OW21823   4.445   0.560   6.964 -0.0111 -0.1238 -0.0797
 3396SOL    HW121824   4.475   0.607   7.042 -1.1334  0.3873  0.0356
 3396SOL    HW221825   4.521   0.579   6.909 -0.5424  0.3422 -0.6527
 3397SOL     OW21826   4.506   2.686   6.661 -0.4048 -0.4432 -0.2534
 3397SOL    HW121827   4.482   2.714   6.573  2.4410  0.2219 -0.8296
 3397SOL    HW221828   4.474   2.596   6.654 -0.0562 -0.9485  4.6285
 3398SOL     OW21829   3.233   4.466   7.214  0.0033 -0.1715  0.1681
 3398SOL    HW121830   3.214   4.509   7.297 -1.0866 -2.6219  1.1892
 3398SOL    HW221831   3.317   4.421   7.224 -1.0416 -1.8068  1.6182
 3399SOL     OW21832   2.985   0.919  17.385  0.2909  0.2179  0.2001
 3399SOL    HW121833   3.024   0.882  17.464  1.9435  3.2547  0.7834
 3399SOL    HW221834   2.895   0.930  17.416 -0.0712 -2.5151  0.1550
 3400SOL     OW21835   1.481   3.322   6.426 -0.0067  0.0613 -0.3995
 3400SOL    HW121836   1.487   3.282   6.339  2.7456  1.5168 -0.8398
 3400SOL    HW221837   1.499   3.413   6.405  0.4673  0.2585  0.8303
 3401SOL     OW21838   0.583   3.715   4.937 -0.1346 -0.2147 -0.0900
 3401SOL    HW121839   0.512   3.749   4.881  1.3671  0.6278 -1.4762
 3401SOL    HW221840   0.550   3.627   4.954 -1.0024 -0.2982 -2.1849
 3402SOL     OW21841   1.178   1.706   6.660 -0.0830  0.4506  0.0804
 3402SOL    HW121842   1.214   1.711   6.749  0.0893 -1.4397  0.1162
 3402SOL    HW221843   1.228   1.634   6.623  2.3956  1.8455  0.7054
 3403SOL     OW21844   3.623   2.816   8.090  0.0358  0.5068  0.4959
 3403SOL    HW121845   3.688   2.808   8.161  1.2121  0.5322 -0.5712
 3403SOL    HW221846   3.663   2.776   8.013 -0.7640  1.0663 -0.2026
 3404SOL     OW21847   1.151   0.134   9.816 -0.2608 -0.0732 -0.5872
 3404SOL    HW121848   1.117   0.181   9.740 -1.8495  0.2661  0.3273
 3404SOL    HW221849   1.110   0.190   9.883 -4.2939 -0.3919 -2.8003
 3405SOL     OW21850   1.185   0.275   0.287  0.4817  0.1834 -0.0401
 3405SOL    HW121851   1.113   0.229   0.242  0.4418 -0.1442  0.3589
 3405SOL    HW221852   1.238   0.311   0.217 -0.0115  0.6721 -0.1621
 3406SOL     OW21853   0.407   1.814  17.211 -0.1846 -0.2677 -0.1139
 3406SOL    HW121854   0.486   1.849  17.253  0.3763 -0.8040 -0.7058
 3406SOL    HW221855   0.371   1.746  17.268 -1.8122  0.1483 -0.6555
 3407SOL     OW21856   0.650   3.559   7.816 -0.1290 -0.2817 -0.1034
 3407SOL    HW121857   0.745   3.557   7.803 -0.1204  0.5763 -0.1380
 3407SOL    HW221858   0.623   3.486   7.759  1.2592 -0.3432 -0.6756
 3408SOL     OW21859   4.564   0.098   4.842  0.1539 -0.4993 -0.2915
 3408SOL    HW121860   4.509   0.047   4.782 -1.2656  1.6847 -0.8214
 3408SOL    HW221861   4.637   0.128   4.788  0.2833  2.7597  1.7212
 3409SOL     OW21862   1.782   0.030   5.128  0.3677 -0.3432  0.1679
 3409SOL    HW121863   1.823   0.106   5.168  1.6053  0.2532 -2.2314
 3409SOL    HW221864   1.776   4.716   5.206 -2.7768 -0.6862 -0.2765
 3410SOL     OW21865   4.377   0.236   7.409 -0.0679 -0.1780  0.2186
 3410SOL    HW121866   4.419   0.154   7.437  0.1447 -0.1236  0.0590
 3410SOL    HW221867   4.398   0.233   7.315 -1.0262 -2.4594  0.0858
 3411SOL     OW21868   1.396   0.611   5.011  0.2803  0.7628 -0.1975
 3411SOL    HW121869   1.354   0.672   4.951 -1.5758 -2.9184 -2.6595
 3411SOL    HW221870   1.442   0.555   4.950 -0.0286  1.4978 -1.1025
 3412SOL     OW21871   0.793   2.651   2.987 -0.4341 -0.1650 -0.2590
 3412SOL    HW121872   0.800   2.705   3.066  0.7952  1.6269 -1.5819
 3412SOL    HW221873   0.789   2.564   3.026  0.8636  0.2496  0.7836
 3413SOL     OW21874   3.132   2.681   9.495  0.3155 -0.3692 -0.1735
 3413SOL    HW121875   3.128   2.592   9.532 -0.5977 -0.7218 -1.1236
 3413SOL    HW221876   3.222   2.680   9.464  1.3267  2.5247  2.6641
 3414SOL     OW21877   4.301   2.139   3.677 -0.6109 -0.5102  0.1346
 3414SOL    HW121878   4.341   2.089   3.607  2.1398  1.0803  0.5558
 3414SOL    HW221879   4.383   2.166   3.720 -1.6526  1.5244  0.8323
 3415SOL     OW21880   1.461   0.601   1.700  0.2966  0.3155 -0.0215
 3415SOL    HW121881   1.453   0.599   1.604 -0.1821  0.8611  0.0052
 3415SOL    HW221882   1.527   0.670   1.692  0.9299 -0.6043 -2.8886
 3416SOL     OW21883   3.044   1.404   8.994 -0.0103  0.2092 -0.1182
 3416SOL    HW121884   3.042   1.320   9.040 -1.5827 -0.6152 -1.6873
 3416SOL    HW221885   2.951   1.424   8.984  0.2479  1.1549 -0.6594
 3417SOL     OW21886   3.580   3.862   6.966 -0.0278  0.4202 -0.0394
 3417SOL    HW121887   3.522   3.855   7.042  1.2280 -1.8526  0.7244
 3417SOL    HW221888   3.661   3.864   7.017 -0.5768 -1.3275  0.9168
 3418SOL     OW21889   3.754   4.062   2.900  0.4296  0.3165 -0.0078
 3418SOL    HW121890   3.664   4.040   2.877  0.5194  0.4103 -0.4567
 3418SOL    HW221891   3.793   4.012   2.827  0.8079  3.3032 -1.8430
 3419SOL     OW21892   4.649   4.615   7.258 -0.9993 -0.1137  0.4517
 3419SOL    HW121893   4.696   4.659   7.187 -0.7791 -2.7589 -1.0619
 3419SOL    HW221894   4.574   4.574   7.214 -1.0701 -1.0346  1.4267
 3420SOL     OW21895   0.471   0.608   2.596  0.5567  0.0961 -0.1108
 3420SOL    HW121896   0.468   0.685   2.541 -0.0035  0.6053  0.6371
 3420SOL    HW221897   0.559   0.614   2.633  0.4402  0.5560  0.0813
 3421SOL     OW21898   1.363   3.052   5.208  0.5124 -0.2789  0.4453
 3421SOL    HW121899   1.271   3.052   5.182  0.9564  1.0469 -1.1346
 3421SOL    HW221900   1.409   3.051   5.124  0.4117 -1.2731  0.4067
 3422SOL     OW21901   2.325   3.184   1.569  0.2221 -0.4916 -0.4495
 3422SOL    HW121902   2.323   3.270   1.528 -1.4899  0.1062  0.9069
 3422SOL    HW221903   2.415   3.161   1.543  0.2691  0.4616 -1.1540
 3423SOL     OW21904   2.971   4.600   8.924  0.4202  0.1998  0.4355
 3423SOL    HW121905   2.999   4.633   8.839  0.2175 -1.0345 -0.1220
 3423SOL    HW221906   2.875   4.593   8.923  0.3022  2.0429 -0.4143
 3424SOL     OW21907   0.944   2.212   4.864 -0.4878 -0.1236 -0.0594
 3424SOL    HW121908   0.964   2.241   4.953  0.5882 -0.4616 -0.1899
 3424SOL    HW221909   0.874   2.147   4.876 -0.7523  0.3110  0.8005
 3425SOL     OW21910   0.209   2.564   6.826 -0.0639 -0.5296 -0.0226
 3425SOL    HW121911   0.140   2.625   6.799  1.1101  0.0521 -1.6643
 3425SOL    HW221912   0.171   2.521   6.903  0.1015  1.8716  1.4061
 3426SOL     OW21913   2.556   0.539   8.748 -0.7519 -0.1054 -0.6053
 3426SOL    HW121914   2.500   0.600   8.795 -1.8801 -0.4213 -1.5511
 3426SOL    HW221915   2.504   0.461   8.769  1.4824 -0.5436  3.1997
 3427SOL     OW21916   2.707   2.070  15.748  0.6349 -0.4629 -0.5383
 3427SOL    HW121917   2.745   2.155  15.728 -1.4612  0.4977 -0.3885
 3427SOL    HW221918   2.640   2.057  15.681 -0.2547 -0.6663  0.3823
 3428SOL     OW21919   4.294   2.606   6.210 -0.1187 -0.0523 -0.0016
 3428SOL    HW121920   4.204   2.637   6.197 -0.7070 -1.1974  1.3240
 3428SOL    HW221921   4.317   2.557   6.130 -1.0624 -0.8018  0.1832
 3429SOL     OW21922   4.096   3.563   8.418 -0.4263 -0.2791 -0.0796
 3429SOL    HW121923   4.114   3.639   8.473 -1.2453  1.4218 -2.1247
 3429SOL    HW221924   4.147   3.498   8.466  0.5757  0.3058 -0.3649
 3430SOL     OW21925   2.528   3.077   5.356 -0.1475  0.3144  0.1083
 3430SOL    HW121926   2.499   3.006   5.299 -0.1691  1.0008 -0.7505
 3430SOL    HW221927   2.488   3.063   5.442  0.3729  1.1343  0.4827
 3431SOL     OW21928   4.358   2.457   8.344 -0.4034 -0.6422 -0.1314
 3431SOL    HW121929   4.295   2.399   8.300 -2.0410  0.5108  0.7145
 3431SOL    HW221930   4.437   2.432   8.296 -0.3913  1.2145 -1.0816
 3432SOL     OW21931   4.188   0.506   4.015  0.0955  0.4232  0.0329
 3432SOL    HW121932   4.255   0.517   3.948  0.6289  1.3800  0.7248
 3432SOL    HW221933   4.245   0.529   4.088 -0.3421  0.5520  0.3375
 3433SOL     OW21934   0.332   3.798  15.252 -0.0454 -0.2011 -0.0482
 3433SOL    HW121935   0.264   3.741  15.216 -1.2447  0.1943  1.5785
 3433SOL    HW221936   0.403   3.734  15.244 -0.5357 -0.9498  1.7313
 3434SOL     OW21937   4.622   1.124   3.177 -0.2772 -0.0956  0.4651
 3434SOL    HW121938   4.567   1.145   3.102 -0.1933 -2.3574 -0.2221
 3434SOL    HW221939   4.624   1.209   3.220 -1.5200 -0.7352  1.7711
 3435SOL     OW21940   4.724   2.375   8.788 -0.0586 -0.1064 -0.8033
 3435SOL    HW121941   4.636   2.342   8.770 -0.0528 -0.1866 -0.6865
 3435SOL    HW221942   0.026   2.292   8.812  2.4376  0.8549 -1.8351
 3436SOL     OW21943   4.105   1.361   6.877  0.0334 -0.4673  0.0393
 3436SOL    HW121944   4.181   1.415   6.897  0.7193 -0.3177 -2.9747
 3436SOL    HW221945   4.035   1.426   6.879 -1.6498 -2.2501 -1.0636
 3437SOL     OW21946   2.898   0.824  16.827 -0.0265  0.1355 -0.4245
 3437SOL    HW121947   2.893   0.837  16.921  1.8094 -2.5216  0.0512
 3437SOL    HW221948   2.812   0.784  16.820 -1.2485  2.8570 -0.9002
 3438SOL     OW21949   0.516   4.689  17.033  0.2205 -0.2505 -0.1583
 3438SOL    HW121950   0.511   4.607  16.985 -0.0798 -1.3445  1.7863
 3438SOL    HW221951   0.566   4.667  17.111  0.8560  0.1995 -0.4355
 3439SOL     OW21952   4.358   4.253   8.516 -0.3768  0.3379 -0.4955
 3439SOL    HW121953   4.276   4.298   8.537 -0.2596 -0.3277  1.4140
 3439SOL    HW221954   4.319   4.166   8.527  1.4598 -0.7388 -2.5238
 3440SOL     OW21955   0.395   3.238   8.509  0.4435 -0.3108 -0.5322
 3440SOL    HW121956   0.462   3.241   8.577  0.4681  0.0716 -0.5738
 3440SOL    HW221957   0.446   3.236   8.428  1.1321 -0.0534 -0.0964
 3441SOL     OW21958   1.419   0.050   3.438  0.4700  0.6048 -0.0162
 3441SOL    HW121959   1.398   0.089   3.354  0.3529 -0.3225 -0.4198
 3441SOL    HW221960   1.359   4.714   3.442  2.1271 -0.8257 -2.3848
 3442SOL     OW21961   2.432   2.004   6.382 -0.2922  1.0823 -0.1118
 3442SOL    HW121962   2.449   2.009   6.288  0.2920  1.7675  0.0304
 3442SOL    HW221963   2.428   2.098   6.397 -0.1613  1.2393 -1.0504
 3443SOL     OW21964   0.817   4.152  14.983  0.2715 -0.5421  0.2544
 3443SOL    HW121965   0.799   4.062  14.956 -0.9447 -0.5451  1.0537
 3443SOL    HW221966   0.806   4.204  14.903  3.4295  1.2251  0.9524
 3444SOL     OW21967   1.301   0.183   7.337  0.9531  0.3524 -0.1798
 3444SOL    HW121968   1.239   0.159   7.405 -0.5937 -0.1885 -1.7695
 3444SOL    HW221969   1.342   0.248   7.395  0.6601 -1.2027  1.7414
 3445SOL     OW21970   1.716   2.113   0.111  0.1342  0.4219  0.2728
 3445SOL    HW121971   1.795   2.124   0.058  1.5335  0.3986  2.3980
 3445SOL    HW221972   1.698   2.188   0.167  1.6398  0.0472  1.2403
 3446SOL     OW21973   3.565   1.642  13.060  0.0235 -0.2859  0.1848
 3446SOL    HW121974   3.480   1.659  13.021  0.0761  2.6337  1.3606
 3446SOL    HW221975   3.546   1.649  13.154 -0.4812  1.3192 -0.0458
 3447SOL     OW21976   3.756   3.635  10.111  0.0855  0.1526  0.8345
 3447SOL    HW121977   3.834   3.611  10.062 -0.7913 -0.2023 -0.3947
 3447SOL    HW221978   3.704   3.695  10.057  0.4643  0.8329  1.2328
 3448SOL     OW21979   3.986   3.068   7.053  0.5674 -0.1578 -0.7636
 3448SOL    HW121980   3.930   3.077   6.976 -0.6132 -1.7485 -0.0995
 3448SOL    HW221981   4.074   3.067   7.017  1.2955  1.7100  0.9562
 3449SOL     OW21982   4.023   1.302   8.502  0.1103  0.1761  0.2795
 3449SOL    HW121983   4.058   1.311   8.591 -1.8236 -1.3478  1.2124
 3449SOL    HW221984   4.091   1.250   8.461 -0.4680  0.2663 -0.7917
 3450SOL     OW21985   3.138   0.268   2.952 -0.1730  0.5139 -0.1470
 3450SOL    HW121986   3.138   0.206   2.880 -1.4070 -0.0207  0.3084
 3450SOL    HW221987   3.175   0.344   2.907  2.3791 -0.5810  0.0951
 3451SOL     OW21988   3.608   0.628   7.864  0.6138 -0.1214 -0.2128
 3451SOL    HW121989   3.514   0.615   7.855  0.6295 -0.3609 -0.0541
 3451SOL    HW221990   3.617   0.722   7.877 -1.6077  0.0048  0.3429
 3452SOL     OW21991   4.616   1.977  17.210  1.0135  0.6067 -0.3321
 3452SOL    HW121992   4.659   1.891  17.205 -3.5320 -1.6368 -1.4214
 3452SOL    HW221993   4.609   2.003  17.118  0.4057  0.0705 -0.4361
 3453SOL     OW21994   4.498   1.200   2.911  0.0832 -0.0874 -0.5995
 3453SOL    HW121995   4.427   1.218   2.849  0.2568 -1.1752 -1.1104
 3453SOL    HW221996   4.540   1.132   2.857 -0.8537 -0.6608 -0.6040
 3454SOL     OW21997   4.274   1.873   7.084  0.5754 -0.0122  0.1755
 3454SOL    HW121998   4.225   1.922   7.017  1.4894  0.1130 -0.4113
 3454SOL    HW221999   4.216   1.848   7.155 -0.1326 -2.3423 -1.2070
 3455SOL     OW22000   4.499   3.249   1.791  0.2498 -0.0949  0.1244
 3455SOL    HW122001   4.562   3.187   1.755 -1.2146 -1.6862  0.2982
 3455SOL    HW222002   4.445   3.190   1.844 -0.2938  0.9601  0.7531
 3456SOL     OW22003   0.929   1.950   9.666 -0.1903  0.2563 -0.6385
 3456SOL    HW122004   0.883   2.026   9.701  0.3649 -0.8152  2.4077
 3456SOL    HW222005   0.863   1.894   9.626  1.4627 -2.3328  0.2799
 3457SOL     OW22006   2.022   2.129  17.003 -0.3509  0.0796  0.5380
 3457SOL    HW122007   2.082   2.191  16.962  0.2100 -1.2167 -0.6152
 3457SOL    HW222008   2.076   2.084  17.067 -1.5745  0.1628  1.6328
 3458SOL     OW22009   1.884   4.253   6.525  0.0223 -0.1407  0.3515
 3458SOL    HW122010   1.867   4.274   6.433  0.1485  0.6346  0.5040
 3458SOL    HW222011   1.865   4.332   6.576 -1.0654 -0.7264  0.8479
 3459SOL     OW22012   2.040   4.422   8.009 -0.8242 -0.0568 -0.3117
 3459SOL    HW122013   2.115   4.394   8.061 -0.3089 -1.0706 -1.5991
 3459SOL    HW222014   1.974   4.363   8.044 -0.3031 -0.3686  0.1401
 3460SOL     OW22015   1.507   4.119  12.606 -0.5020 -0.0801 -0.6860
 3460SOL    HW122016   1.553   4.151  12.684 -1.7494 -0.4895  0.2203
 3460SOL    HW222017   1.518   4.190  12.542 -0.8020  0.7697  0.2070
 3461SOL     OW22018   3.964   2.628   4.064 -0.0489 -0.6444 -0.4942
 3461SOL    HW122019   3.950   2.678   3.984 -0.8953 -0.5104 -0.2623
 3461SOL    HW222020   3.997   2.695   4.125 -1.5026 -0.9477  0.6137
 3462SOL     OW22021   1.370   2.466   6.691  0.3499  0.1057 -0.1065
 3462SOL    HW122022   1.304   2.521   6.734 -0.0807 -1.0139  0.6794
 3462SOL    HW222023   1.437   2.490   6.755  0.4747  0.8901 -0.5404
 3463SOL     OW22024   2.955   4.682   5.782  0.3701  0.0835 -0.1430
 3463SOL    HW122025   2.905   0.014   5.823 -1.5821 -0.8778 -0.8631
 3463SOL    HW222026   2.982   4.624   5.852  1.1090  1.3753  0.6451
 3464SOL     OW22027   2.894   3.778   2.175 -0.1575  0.2313 -0.2819
 3464SOL    HW122028   2.935   3.791   2.261 -0.4032  2.2536 -0.4507
 3464SOL    HW222029   2.830   3.710   2.195  1.1134 -1.2129 -1.2181
 3465SOL     OW22030   0.145   3.511   2.824 -0.6779  0.0925  0.1790
 3465SOL    HW122031   0.078   3.454   2.863  0.5035 -0.5530  1.2596
 3465SOL    HW222032   0.096   3.568   2.765 -1.1131 -0.6116 -0.1530
 3466SOL     OW22033   2.020   1.567  12.245  0.2725 -0.3544  0.4584
 3466SOL    HW122034   2.100   1.593  12.290  0.7976  0.0909 -0.7297
 3466SOL    HW222035   2.029   1.472  12.246 -0.6765 -0.4642 -1.3867
 3467SOL     OW22036   2.034   0.304  10.415  0.7202 -0.4886 -0.3207
 3467SOL    HW122037   2.100   0.256  10.364  0.7593 -0.6876 -0.0836
 3467SOL    HW222038   2.089   0.334  10.488  0.1087  2.3436 -1.0189
 3468SOL     OW22039   2.234   2.034   4.470  0.2527 -0.3074 -0.1770
 3468SOL    HW122040   2.152   2.025   4.519 -1.4206  1.4540 -2.6559
 3468SOL    HW222041   2.203   2.051   4.381  2.4715 -0.7231 -1.0492
 3469SOL     OW22042   1.381   3.381   5.686 -0.8262  0.0019  0.0429
 3469SOL    HW122043   1.463   3.348   5.722  0.6304  1.7790 -1.6086
 3469SOL    HW222044   1.382   3.339   5.600  1.9631  0.3067 -0.0893
 3470SOL     OW22045   4.511   3.687   1.255  0.7898  0.1990 -0.6158
 3470SOL    HW122046   4.450   3.727   1.317  0.3715 -0.8772 -0.3252
 3470SOL    HW222047   4.600   3.707   1.281  0.2346  0.1095  1.3389
 3471SOL     OW22048   2.818   1.229   2.716  0.2517 -0.4360 -0.3754
 3471SOL    HW122049   2.766   1.307   2.696  0.3996 -0.3439 -0.3999
 3471SOL    HW222050   2.904   1.250   2.681  0.1545 -0.5100 -0.6585
 3472SOL     OW22051   0.355   3.573   2.576  0.0227 -0.3101 -0.1272
 3472SOL    HW122052   0.368   3.639   2.644 -0.5248 -0.0714 -0.2573
 3472SOL    HW222053   0.272   3.601   2.538  0.0502  1.7262  1.3326
 3473SOL     OW22054   2.363   0.147   5.221  0.1167  0.5323  0.3307
 3473SOL    HW122055   2.352   0.052   5.235  0.5183  0.5359  0.6652
 3473SOL    HW222056   2.381   0.145   5.127  1.3051  1.0697  0.5440
 3474SOL     OW22057   3.204   2.262   5.485 -0.1623 -0.0065  0.4526
 3474SOL    HW122058   3.187   2.175   5.523  0.6765  0.3791  1.7221
 3474SOL    HW222059   3.297   2.269   5.505 -0.5244  1.2521  1.7448
 3475SOL     OW22060   3.071   2.930   9.273  0.3124 -0.2950  0.1481
 3475SOL    HW122061   2.977   2.935   9.295 -0.3738 -0.6262 -2.7046
 3475SOL    HW222062   3.104   3.000   9.330  0.0885  0.2173 -0.3460
 3476SOL     OW22063   4.140   3.597  12.349 -0.1494 -0.4500 -0.4983
 3476SOL    HW122064   4.200   3.559  12.286 -0.3803  1.6449 -1.9679
 3476SOL    HW222065   4.106   3.675  12.306  0.5094  0.0120 -0.1803
 3477SOL     OW22066   1.708   0.722  13.482 -0.1354  0.4119 -0.0679
 3477SOL    HW122067   1.616   0.722  13.456 -0.5793 -0.6315  1.4783
 3477SOL    HW222068   1.708   0.682  13.569 -0.2912 -0.6517 -0.5669
 3478SOL     OW22069   1.320   1.794   2.596 -0.4658  0.4310 -0.0551
 3478SOL    HW122070   1.292   1.710   2.561  2.5901 -0.8923  0.7407
 3478SOL    HW222071   1.261   1.851   2.546 -1.4994  1.0183  1.8129
 3479SOL     OW22072   2.818   1.818   3.316 -0.4738  0.0224  0.0799
 3479SOL    HW122073   2.839   1.901   3.360  1.3707  0.3087 -1.3288
 3479SOL    HW222074   2.764   1.842   3.241 -0.2097  0.2263 -0.0448
 3480SOL     OW22075   0.643   0.872   2.250  0.2464 -0.2330 -0.4849
 3480SOL    HW122076   0.725   0.837   2.284  0.8562  0.9898 -0.6743
 3480SOL    HW222077   0.681   0.948   2.206  1.2444  0.0198  0.8221
 3481SOL     OW22078   0.589   2.935   5.051 -0.2882  0.3282 -0.0634
 3481SOL    HW122079   0.670   2.890   5.074 -1.6377 -1.8140  0.4433
 3481SOL    HW222080   0.602   2.950   4.957  1.2380  0.1755  0.1303
 3482SOL     OW22081   2.049   3.435   5.140 -0.1309 -0.1506  0.1011
 3482SOL    HW122082   2.017   3.477   5.060 -0.7539 -0.8335 -0.0099
 3482SOL    HW222083   1.972   3.384   5.164  0.3963 -1.5908 -1.2680
 3483SOL     OW22084   3.811   3.929   3.856  0.3436 -0.3321 -0.6385
 3483SOL    HW122085   3.716   3.936   3.855  0.5072  2.2879  1.8189
 3483SOL    HW222086   3.832   3.979   3.935  0.6984  0.0599 -0.9795
 3484SOL     OW22087   3.086   0.054  16.472 -0.1633 -0.3386  0.1041
 3484SOL    HW122088   3.029   0.106  16.528  0.9278 -0.2066  1.0883
 3484SOL    HW222089   3.102   0.113  16.398 -0.4022 -0.6629 -0.2019
 3485SOL     OW22090   3.620   0.801   3.324  0.4184 -0.6724  0.0952
 3485SOL    HW122091   3.633   0.855   3.402 -0.0154 -1.4519  0.7109
 3485SOL    HW222092   3.533   0.830   3.297  0.7124 -1.9275 -2.1916
 3486SOL     OW22093   1.216   1.982  17.643  0.2717  0.4406  0.4859
 3486SOL    HW122094   1.239   2.060  17.693  1.1518 -0.1029  0.9304
 3486SOL    HW222095   1.290   1.962  17.586 -0.1487  0.9110 -0.2190
 3487SOL     OW22096   1.197   0.256  17.405  0.5981 -0.2505  0.2191
 3487SOL    HW122097   1.212   0.299  17.321  0.0337  0.2992  0.4053
 3487SOL    HW222098   1.283   0.242  17.444  0.8976  2.5793  0.5737
 3488SOL     OW22099   4.332   0.718   5.466 -0.3744 -0.3108 -0.5190
 3488SOL    HW122100   4.370   0.667   5.538  1.1568  0.7417 -0.5995
 3488SOL    HW222101   4.362   0.664   5.394  0.1267  0.6942 -1.0607
 3489SOL     OW22102   4.082   2.793   5.111  0.6337  0.0618 -0.0344
 3489SOL    HW122103   4.136   2.870   5.127  1.0669 -0.1712 -0.4022
 3489SOL    HW222104   4.066   2.792   5.016 -0.6499  0.8559  0.1655
 3490SOL     OW22105   0.764   2.201   5.501 -0.2011  0.6833 -0.1565
 3490SOL    HW122106   0.766   2.271   5.436 -1.6278 -0.3020 -1.2636
 3490SOL    HW222107   0.758   2.248   5.584  1.0413  0.4945  0.0518
 3491SOL     OW22108   1.471   2.113  14.107  0.6126 -0.0070  0.5984
 3491SOL    HW122109   1.381   2.133  14.081  0.1700 -1.9426  0.5902
 3491SOL    HW222110   1.515   2.118  14.023 -1.2109  1.5058 -0.2566
 3492SOL     OW22111   3.477   2.435   9.852 -0.0063 -0.3544 -0.0774
 3492SOL    HW122112   3.556   2.396   9.814  0.6187  0.1316  0.7362
 3492SOL    HW222113   3.425   2.356   9.868  2.0399 -1.7252 -0.2652
 3493SOL     OW22114   3.781   0.584   3.311  0.4480 -0.1973  0.1141
 3493SOL    HW122115   3.771   0.554   3.221 -1.8512  2.0789 -0.3989
 3493SOL    HW222116   3.734   0.667   3.322  3.0246  1.5339 -1.8841
 3494SOL     OW22117   3.401   3.067  10.619  0.1772  0.1382  0.0776
 3494SOL    HW122118   3.434   3.049  10.531 -0.2922 -2.1220  0.3560
 3494SOL    HW222119   3.483   3.090  10.662 -0.4205  2.7286 -0.1642
 3495SOL     OW22120   1.415   3.059   2.056  0.4927 -0.1397 -0.3293
 3495SOL    HW122121   1.325   3.088   2.042 -0.2926 -2.6339 -0.4409
 3495SOL    HW222122   1.459   3.141   2.032  0.1476 -0.4457 -1.9967
 3496SOL     OW22123   0.556   2.001   1.235 -0.3484  0.2789  0.0120
 3496SOL    HW122124   0.567   1.907   1.226  0.0060  0.3888 -0.7218
 3496SOL    HW222125   0.625   2.011   1.302  0.6298  1.0031 -1.0977
 3497SOL     OW22126   3.118   2.508   8.467  0.1113 -0.0004  0.1515
 3497SOL    HW122127   3.181   2.567   8.509  1.0130  1.4879 -3.2696
 3497SOL    HW222128   3.063   2.488   8.543  1.1939 -1.7580  0.4796
 3498SOL     OW22129   3.299   3.044   7.864 -0.1805  0.7990 -0.6320
 3498SOL    HW122130   3.371   3.043   7.928 -0.1005  1.6601 -0.7190
 3498SOL    HW222131   3.320   3.122   7.814  0.7994 -0.3759 -2.0319
 3499SOL     OW22132   0.659   0.633   5.843 -0.4307  0.2046  0.2454
 3499SOL    HW122133   0.654   0.670   5.755  1.5081  1.3116  0.5785
 3499SOL    HW222134   0.697   0.711   5.885 -0.8312  1.8486 -2.4123
 3500SOL     OW22135   4.730   4.275   4.660 -0.2879  0.5311  0.2068
 3500SOL    HW122136   0.006   4.185   4.689  1.0867  1.1546  1.4132
 3500SOL    HW222137   4.656   4.258   4.602 -0.4849  2.7564 -0.1773
 3501SOL     OW22138   1.725   1.606  10.705  0.0117 -0.1632 -0.5542
 3501SOL    HW122139   1.759   1.667  10.639 -0.8977  1.5582  0.5778
 3501SOL    HW222140   1.632   1.628  10.699 -0.5889 -2.9810 -1.6416
 3502SOL     OW22141   0.051   2.547   5.589  0.5140  0.2867 -0.3667
 3502SOL    HW122142   0.018   2.517   5.673  0.5723 -1.7074 -1.0587
 3502SOL    HW222143   0.005   2.484   5.533 -0.7305 -0.2919  1.3325
 3503SOL     OW22144   1.378   2.717  12.638 -0.4143  0.1824 -0.1008
 3503SOL    HW122145   1.468   2.688  12.628 -1.3231 -2.5462 -0.2880
 3503SOL    HW222146   1.351   2.689  12.726 -0.3134 -1.1336 -0.4922
 3504SOL     OW22147   1.823   0.548  14.355  0.0055  0.1784 -0.0854
 3504SOL    HW122148   1.806   0.456  14.333  0.9536 -0.1377  0.5522
 3504SOL    HW222149   1.857   0.563  14.267  3.6072  0.2219  1.3360
 3505SOL     OW22150   4.137   4.416   6.311 -0.2351 -0.3043 -0.1728
 3505SOL    HW122151   4.134   4.512   6.305 -0.1801 -0.1811  1.5337
 3505SOL    HW222152   4.231   4.403   6.308 -0.3054 -0.8139 -0.1351
 3506SOL     OW22153   3.026   0.130   8.639  0.6090  0.0635  0.4479
 3506SOL    HW122154   3.036   0.039   8.611 -1.6971 -0.4622  1.3811
 3506SOL    HW222155   2.981   0.132   8.723 -0.2873 -1.6313 -0.0050
 3507SOL     OW22156   2.063   4.082   7.468 -0.5546 -0.3851 -0.6755
 3507SOL    HW122157   2.099   4.000   7.501 -0.2999 -0.4473 -1.1141
 3507SOL    HW222158   1.978   4.079   7.513 -0.6137  1.4931 -0.6267
 3508SOL     OW22159   2.674   3.440   8.173  0.2375 -0.1809  0.1833
 3508SOL    HW122160   2.754   3.389   8.158 -0.1356 -0.2124 -1.6901
 3508SOL    HW222161   2.663   3.466   8.081  0.0373 -0.8276  0.0273
 3509SOL     OW22162   1.236   2.992   9.147  0.2428  0.5872 -0.0261
 3509SOL    HW122163   1.264   3.001   9.238  0.5929  2.9314 -0.3792
 3509SOL    HW222164   1.192   2.906   9.143  2.2305 -0.5117  2.2129
 3510SOL     OW22165   3.735   4.367   4.647 -0.5813  0.0317  0.6230
 3510SOL    HW122166   3.740   4.328   4.559 -0.8845  3.2799 -0.8364
 3510SOL    HW222167   3.747   4.460   4.625 -1.9097 -0.3894 -1.9400
 3511SOL     OW22168   0.099   4.077   8.754  0.4023 -0.1108  0.2290
 3511SOL    HW122169   0.071   4.059   8.844  0.2419  0.4519  0.2904
 3511SOL    HW222170   0.017   4.081   8.705  0.1186  0.3566  0.7474
 3512SOL     OW22171   4.458   0.151   8.546  0.0879  0.6519  0.4207
 3512SOL    HW122172   4.512   0.071   8.546 -1.0440 -0.1214  1.4458
 3512SOL    HW222173   4.410   0.146   8.629 -0.2561  1.5815  0.2676
 3513SOL     OW22174   4.431   2.414   6.663 -0.5418  0.6388  0.2964
 3513SOL    HW122175   4.431   2.339   6.724  1.1314  0.6710  0.3369
 3513SOL    HW222176   4.442   2.376   6.576  0.0826 -0.9888  1.0675
 3514SOL     OW22177   4.165   4.723  13.798  0.2843 -0.0428 -0.4049
 3514SOL    HW122178   4.219   0.003  13.875  1.0906 -0.7256 -0.7975
 3514SOL    HW222179   4.235   4.676  13.751 -1.6543 -1.7417 -1.5897
 3515SOL     OW22180   0.672   1.445   3.598  0.2585 -0.2895  0.2826
 3515SOL    HW122181   0.580   1.422   3.583 -0.1764  1.4582  0.2897
 3515SOL    HW222182   0.684   1.529   3.554 -2.0839  0.7728  1.6790
 3516SOL     OW22183   2.773   1.449   1.993  0.2762 -0.0873 -0.2225
 3516SOL    HW122184   2.755   1.536   2.027 -0.2029 -0.9225  1.6554
 3516SOL    HW222185   2.852   1.429   2.044  1.1369 -0.7036 -1.8003
 3517SOL     OW22186   3.432   4.352   4.782 -0.3790 -0.0178 -0.0883
 3517SOL    HW122187   3.404   4.444   4.789 -1.2827 -0.5197  2.8252
 3517SOL    HW222188   3.515   4.341   4.828 -1.0697 -0.7626  0.9779
 3518SOL     OW22189   2.508   2.909  16.466  0.1022  0.1014 -0.2502
 3518SOL    HW122190   2.580   2.849  16.449 -0.2857  0.2348 -2.3377
 3518SOL    HW222191   2.547   2.996  16.455  0.0483  0.3895  1.8262
 3519SOL     OW22192   1.459   1.659  11.605  0.0843 -0.0672 -0.5936
 3519SOL    HW122193   1.538   1.613  11.579 -0.3560 -1.2795  0.2020
 3519SOL    HW222194   1.482   1.700  11.688 -0.5028 -1.9543  0.5012
 3520SOL     OW22195   2.538   2.553   7.813  0.4078  0.1614  0.0844
 3520SOL    HW122196   2.564   2.495   7.742  2.0742 -0.2598  1.0271
 3520SOL    HW222197   2.578   2.509   7.888  1.1262  0.4824 -0.1164
 3521SOL     OW22198   1.775   3.044   9.459  0.0837  0.3707  0.4811
 3521SOL    HW122199   1.808   3.123   9.501  0.4260  0.9968 -0.9737
 3521SOL    HW222200   1.846   3.017   9.401 -0.6765  1.4473 -0.9272
 3522SOL     OW22201   0.268   0.397   2.383  0.4254 -0.0036  0.2500
 3522SOL    HW122202   0.308   0.355   2.306  0.6648 -1.6268  1.2569
 3522SOL    HW222203   0.321   0.474   2.402 -1.2208  1.3203 -0.5540
 3523SOL     OW22204   1.120   4.733   3.632 -0.3762 -0.1969 -0.2222
 3523SOL    HW122205   1.198   4.681   3.650  1.5812  2.4767 -1.0778
 3523SOL    HW222206   1.064   4.667   3.591  0.9378 -2.0549  0.9474
 3524SOL     OW22207   0.504   1.820  12.018  0.2222 -0.1688 -0.7715
 3524SOL    HW122208   0.571   1.753  12.031 -0.8369 -1.1309 -0.3531
 3524SOL    HW222209   0.550   1.900  11.990  0.4625  0.3683  1.1749
 3525SOL     OW22210   3.973   4.025   0.349  0.1671 -0.2659 -0.0369
 3525SOL    HW122211   3.907   3.956   0.346 -0.9540  0.7879  0.1146
 3525SOL    HW222212   3.968   4.036   0.444 -2.2380  0.5508 -0.2536
 3526SOL     OW22213   0.945   3.744   7.904 -0.9773  0.6179 -0.0071
 3526SOL    HW122214   0.938   3.823   7.958 -0.1103  0.6651  0.0411
 3526SOL    HW222215   0.974   3.789   7.824 -0.5015  3.4319  1.7178
 3527SOL     OW22216   4.100   1.384   3.604  0.1055  0.4364 -0.6580
 3527SOL    HW122217   4.070   1.468   3.639 -0.4448  0.1265 -0.3875
 3527SOL    HW222218   4.167   1.419   3.546  0.3780 -1.1860 -1.3066
 3528SOL     OW22219   4.721   1.260   7.947  0.1635 -0.1667  0.5190
 3528SOL    HW122220   0.062   1.268   7.896  0.4488  0.0050  1.0029
 3528SOL    HW222221   4.666   1.328   7.907 -0.0405 -0.1985  0.7413
 3529SOL     OW22222   2.200   2.653  11.109  0.4074  0.0943  0.2007
 3529SOL    HW122223   2.287   2.686  11.134 -0.1716  2.9357 -1.4954
 3529SOL    HW222224   2.188   2.586  11.176  1.2027 -0.6955 -0.4456
 3530SOL     OW22225   4.632   2.020   4.995 -0.2797 -0.8806 -0.2465
 3530SOL    HW122226   4.698   1.985   5.055  0.0193 -0.3725 -0.2834
 3530SOL    HW222227   4.693   2.070   4.942 -0.6635 -2.6622 -2.3511
 3531SOL     OW22228   2.384   1.560   6.053 -0.6212 -0.1582 -0.4413
 3531SOL    HW122229   2.428   1.640   6.026 -1.5108  0.4382 -0.1442
 3531SOL    HW222230   2.399   1.573   6.147  1.7078 -0.7079 -0.7580
 3532SOL     OW22231   2.677   0.257   2.143  0.2009  0.2271  0.3683
 3532SOL    HW122232   2.684   0.162   2.137  2.1630  0.2703  1.9086
 3532SOL    HW222233   2.685   0.273   2.237 -1.9921  0.6844  0.4683
 3533SOL     OW22234   4.120   0.785   7.851  0.1723  0.0101  0.0133
 3533SOL    HW122235   4.105   0.725   7.925  0.8472 -0.5653 -0.3154
 3533SOL    HW222236   4.210   0.764   7.829  0.1616 -1.8889  1.7703
 3534SOL     OW22237   2.499   0.554  12.541  0.7610  0.6262 -0.1954
 3534SOL    HW122238   2.540   0.574  12.625 -1.0043  1.1460  0.5412
 3534SOL    HW222239   2.570   0.591  12.489  0.0061  3.4372  0.7625
 3535SOL     OW22240   3.163   0.148   5.602  0.5804  0.0963 -0.1560
 3535SOL    HW122241   3.229   0.209   5.635 -0.7170 -0.1667  2.9516
 3535SOL    HW222242   3.186   0.070   5.652 -0.0257 -0.5215 -0.8464
 3536SOL     OW22243   2.520   0.930   2.680 -0.8464  0.1671 -0.1142
 3536SOL    HW122244   2.457   0.859   2.669  0.9246 -1.7198  2.2717
 3536SOL    HW222245   2.490   0.977   2.758  1.7990  0.1351  0.8939
 3537SOL     OW22246   4.137   4.126   2.170  0.8136  0.3301 -0.1558
 3537SOL    HW122247   4.169   4.059   2.230 -2.1398 -3.0775 -2.4311
 3537SOL    HW222248   4.062   4.085   2.128  0.2767 -0.0094  1.1105
 3538SOL     OW22249   0.759   1.262   7.058  0.1265 -0.2294 -0.2828
 3538SOL    HW122250   0.740   1.171   7.083 -1.0072 -0.2097 -1.0680
 3538SOL    HW222251   0.804   1.245   6.975 -1.5695 -0.9367 -1.0690
 3539SOL     OW22252   4.028   1.603   8.498 -0.1189 -0.3598  0.1660
 3539SOL    HW122253   3.970   1.590   8.573 -0.4298 -0.4006 -0.0835
 3539SOL    HW222254   4.049   1.512   8.479  1.7752  1.0243 -4.3660
 3540SOL     OW22255   3.102   3.985   3.130 -0.2507  0.2147  0.2458
 3540SOL    HW122256   3.032   4.045   3.104 -0.5292  0.0505  0.6171
 3540SOL    HW222257   3.051   3.909   3.159  1.3264 -0.9463 -0.0227
 3541SOL     OW22258   0.310   2.937   7.958 -0.5480  0.3795  0.4241
 3541SOL    HW122259   0.336   2.921   8.049 -3.1479  0.6094  1.2169
 3541SOL    HW222260   0.272   2.853   7.931  1.3135 -0.2869 -0.1315
 3542SOL     OW22261   4.106   1.960   6.878  0.1445  0.2182 -0.0278
 3542SOL    HW122262   4.038   2.007   6.926 -0.6361 -2.2639  1.3418
 3542SOL    HW222263   4.136   2.012   6.804 -0.4501  1.6469  0.7458
 3543SOL     OW22264   3.724   0.870   6.102 -0.1818 -0.1942  0.1015
 3543SOL    HW122265   3.673   0.947   6.079  0.6889  0.4769  0.4430
 3543SOL    HW222266   3.664   0.795   6.105  2.0482 -1.8992  2.0681
 3544SOL     OW22267   4.089   3.091   5.135 -0.0813 -0.3128  0.8415
 3544SOL    HW122268   4.158   3.145   5.172 -0.1483  0.5877 -0.3398
 3544SOL    HW222269   4.014   3.140   5.168  1.5765  2.4685  0.4613
 3545SOL     OW22270   0.031   0.475  10.393  0.2073  0.4009  0.4749
 3545SOL    HW122271   4.695   0.478  10.453 -0.5709 -0.3103 -0.4706
 3545SOL    HW222272   0.107   0.485  10.450  0.2836 -0.8685  0.5904
 3546SOL     OW22273   2.323   1.463   7.315  0.1513 -0.0460  0.1825
 3546SOL    HW122274   2.263   1.517   7.366  3.7048  2.2127  2.0192
 3546SOL    HW222275   2.404   1.485   7.360 -0.3872  0.3644  0.9458
 3547SOL     OW22276   2.883   0.867  17.119 -0.5894  0.1966 -0.0430
 3547SOL    HW122277   2.871   0.775  17.142 -0.0505  0.7386  2.3366
 3547SOL    HW222278   2.894   0.899  17.208  1.0997  1.9843 -0.8869
 3548SOL     OW22279   2.923   2.828   9.601  0.0809 -0.4384  0.7192
 3548SOL    HW122280   3.006   2.804   9.560 -0.2907 -2.3945  1.1563
 3548SOL    HW222281   2.882   2.744   9.618  0.6346 -0.5428  1.5515
 3549SOL     OW22282   3.078   0.062   4.967  0.1752 -0.4398  0.0478
 3549SOL    HW122283   3.162   0.034   5.004 -0.1370  0.8961  1.7238
 3549SOL    HW222284   3.017   4.736   5.001 -0.8288  0.2567 -0.4269
 3550SOL     OW22285   3.622   0.346   8.461 -0.7331 -0.1447 -0.2077
 3550SOL    HW122286   3.577   0.398   8.394 -1.6974  0.0808  0.6207
 3550SOL    HW222287   3.665   0.288   8.398 -1.2439 -2.4347  1.5374
 3551SOL     OW22288   2.286   2.303   9.016 -0.7618 -0.2172  0.4291
 3551SOL    HW122289   2.281   2.372   8.950  0.4798  0.1844  0.7541
 3551SOL    HW222290   2.313   2.358   9.090 -0.6545 -0.0948  0.3010
 3552SOL     OW22291   1.983   3.946   3.446 -0.1571 -0.5047  0.4730
 3552SOL    HW122292   2.040   3.910   3.378  0.8222 -0.3855  1.2360
 3552SOL    HW222293   1.924   4.005   3.400  0.9624  0.2472 -0.0120
 3553SOL     OW22294   3.780   0.802   1.773 -0.2966  0.0502 -0.0453
 3553SOL    HW122295   3.725   0.869   1.814  2.3437  1.7632  0.6868
 3553SOL    HW222296   3.863   0.809   1.820  0.0838 -5.0821  0.0692
 3554SOL     OW22297   2.519   0.663   2.355 -0.4484 -1.0616  0.1041
 3554SOL    HW122298   2.532   0.614   2.274  0.9875 -4.4394  2.3752
 3554SOL    HW222299   2.461   0.730   2.319  2.7121  2.4306  1.3948
 3555SOL     OW22300   0.587   4.170   3.454  0.2291  0.0546  0.1549
 3555SOL    HW122301   0.532   4.225   3.398 -0.2502 -1.8043 -1.1629
 3555SOL    HW222302   0.537   4.170   3.536  0.5807  1.8183  0.3796
 3556SOL     OW22303   1.387   4.024   7.556 -0.0713  0.1091  0.1335
 3556SOL    HW122304   1.340   4.005   7.637 -1.1347 -0.8937 -0.7160
 3556SOL    HW222305   1.403   4.118   7.557 -0.5995  0.1656  2.3530
 3557SOL     OW22306   2.673   1.402   5.842 -0.1347  0.3663 -0.5770
 3557SOL    HW122307   2.705   1.375   5.928 -3.7011 -0.1128  0.5831
 3557SOL    HW222308   2.647   1.323   5.794  0.2979 -0.3676  0.4120
 3558SOL     OW22309   1.444   2.739   3.039  0.7968  0.1229  0.2573
 3558SOL    HW122310   1.395   2.705   3.114 -1.6388 -0.2400 -1.4643
 3558SOL    HW222311   1.412   2.683   2.968 -1.3894  0.0006  1.3199
 3559SOL     OW22312   1.642   3.330   1.392  0.0657  0.2184 -0.0211
 3559SOL    HW122313   1.567   3.273   1.410 -0.9478  1.0050 -1.6706
 3559SOL    HW222314   1.628   3.396   1.460  2.3334 -0.6800  1.3007
 3560SOL     OW22315   4.623   1.507  13.087 -0.3821 -0.5626  0.4421
 3560SOL    HW122316   4.713   1.502  13.055 -0.4084 -1.0718  0.4423
 3560SOL    HW222317   4.637   1.548  13.172 -3.1750  0.8606  0.2106
 3561SOL     OW22318   3.542   3.722  15.877  0.2994 -0.1772 -0.1021
 3561SOL    HW122319   3.492   3.768  15.945  2.6144 -0.1444  1.5886
 3561SOL    HW222320   3.605   3.792  15.858 -2.3419  1.7746 -1.7173
 3562SOL     OW22321   2.183   3.401   0.770  0.2158  0.1844 -0.1655
 3562SOL    HW122322   2.244   3.349   0.823  0.2200  0.9256  0.5639
 3562SOL    HW222323   2.122   3.435   0.836  0.5261  1.1503 -0.3760
 3563SOL     OW22324   0.562   3.629   8.713 -0.1454  0.4690 -0.6424
 3563SOL    HW122325   0.592   3.715   8.684  1.2080 -0.6999 -2.6969
 3563SOL    HW222326   0.470   3.648   8.730 -0.1309 -0.9448  1.0468
 3564SOL     OW22327   1.286   3.305   6.813 -0.2412 -0.0241  0.2032
 3564SOL    HW122328   1.284   3.365   6.738  2.3527 -0.4191 -0.1659
 3564SOL    HW222329   1.357   3.246   6.787  0.4066  0.8208  0.0557
 3565SOL     OW22330   4.551   4.297   2.293  0.0847 -0.4430 -0.1542
 3565SOL    HW122331   4.460   4.322   2.274  0.3913  0.2969 -0.6615
 3565SOL    HW222332   4.555   4.202   2.284 -0.7622 -0.6140  1.4144
 3566SOL     OW22333   2.719   1.689   2.129 -0.1904  0.0540  0.2670
 3566SOL    HW122334   2.668   1.687   2.210 -2.0928  0.3449 -0.9180
 3566SOL    HW222335   2.663   1.743   2.073  0.6404 -1.6757 -2.2226
 3567SOL     OW22336   0.241   2.941  12.084  0.1057  0.2317  0.0040
 3567SOL    HW122337   0.200   2.865  12.044 -0.0279  0.4764 -0.3270
 3567SOL    HW222338   0.205   2.926  12.172  2.3100  2.0329  1.2188
 3568SOL     OW22339   4.628   1.658   9.648  0.0626  1.0044  0.0630
 3568SOL    HW122340   4.686   1.639   9.721  1.0284  1.2711 -0.6338
 3568SOL    HW222341   4.550   1.612   9.677  0.9661  0.0711  0.9713
 3569SOL     OW22342   0.647   2.950   2.366  0.8997 -0.1902  0.0235
 3569SOL    HW122343   0.646   2.953   2.270 -1.4513  1.7210  0.0984
 3569SOL    HW222344   0.648   3.042   2.393 -0.6209 -0.8186  2.1885
 3570SOL     OW22345   1.030   0.952   8.865 -0.2591  0.4570  0.0621
 3570SOL    HW122346   1.057   1.044   8.857 -3.6042  1.2548 -1.6317
 3570SOL    HW222347   0.935   0.956   8.862 -0.2960  0.1660  0.8437
 3571SOL     OW22348   2.957   2.453   6.673  0.8403 -0.1315 -0.1355
 3571SOL    HW122349   2.955   2.379   6.612 -0.8368 -0.3380  0.1882
 3571SOL    HW222350   3.027   2.432   6.735  2.1201  0.3757 -1.3751
 3572SOL     OW22351   1.864   3.188  13.885 -0.4514  0.3990  0.3109
 3572SOL    HW122352   1.928   3.233  13.940 -0.1762 -1.6123  1.6419
 3572SOL    HW222353   1.872   3.099  13.919 -1.2327  1.1330  2.4062
 3573SOL     OW22354   0.246   0.564   0.764 -0.1069 -0.3728  0.0493
 3573SOL    HW122355   0.328   0.566   0.716  1.7811 -0.5893  3.2353
 3573SOL    HW222356   0.239   0.657   0.785  0.9869 -0.2120 -0.2961
 3574SOL     OW22357   1.370   4.719   9.050  0.2327 -0.1290 -0.6353
 3574SOL    HW122358   1.340   4.672   8.972 -1.1647  1.3336 -0.9573
 3574SOL    HW222359   1.364   0.069   9.017 -1.2942 -0.4429 -1.1975
 3575SOL     OW22360   2.543   0.769  16.271  0.0167  0.1528  0.0493
 3575SOL    HW122361   2.541   0.824  16.193  0.8506 -0.4629 -0.3943
 3575SOL    HW222362   2.574   0.686  16.235 -0.4823 -0.3017  0.6509
 3576SOL     OW22363   0.698   2.581   6.857  0.3232  0.6129  0.3425
 3576SOL    HW122364   0.651   2.602   6.938  0.9469 -0.6656  1.0358
 3576SOL    HW222365   0.712   2.487   6.864 -0.7153  0.5440  1.4094
 3577SOL     OW22366   1.268   0.848   5.310 -0.4996  0.3613  0.0453
 3577SOL    HW122367   1.232   0.821   5.226 -0.9569  2.0808 -0.3130
 3577SOL    HW222368   1.193   0.865   5.367 -0.0888  0.3710  0.5887
 3578SOL     OW22369   4.439   1.972   5.183  0.6523  0.7308  0.0967
 3578SOL    HW122370   4.487   1.983   5.101 -2.0850 -1.5532 -1.8123
 3578SOL    HW222371   4.358   2.014   5.156  1.3341  2.0198  0.0421
 3579SOL     OW22372   4.440   4.074  14.274 -0.0399  0.1959  0.5701
 3579SOL    HW122373   4.467   3.983  14.284 -0.6706  0.0946  1.3913
 3579SOL    HW222374   4.432   4.107  14.363 -0.3636 -1.4238  1.1333
 3580SOL     OW22375   1.329   1.238   5.669  0.5411  0.9198  0.0164
 3580SOL    HW122376   1.233   1.233   5.671  0.5340  0.1045 -1.6967
 3580SOL    HW222377   1.333   1.267   5.577 -0.9800 -0.2990 -0.4427
 3581SOL     OW22378   1.124   2.121   6.946  0.3247 -0.9605 -0.1506
 3581SOL    HW122379   1.054   2.126   7.010  0.3950 -1.4408 -0.0376
 3581SOL    HW222380   1.187   2.063   6.988  0.6227  0.1918  0.9962
 3582SOL     OW22381   2.956   1.398   5.352 -0.8297 -0.7618 -0.6858
 3582SOL    HW122382   2.910   1.467   5.305 -0.6673  0.0153  0.3067
 3582SOL    HW222383   2.951   1.422   5.444  3.9041  0.6238 -0.7903
 3583SOL     OW22384   4.405   1.375   7.607  0.1405  0.1782 -0.0420
 3583SOL    HW122385   4.369   1.287   7.598  1.1688 -0.3362  0.8038
 3583SOL    HW222386   4.359   1.409   7.684  1.4826 -1.4408  1.4786
 3584SOL     OW22387   4.144   3.367   7.636  0.3493  0.0546  0.1594
 3584SOL    HW122388   4.083   3.399   7.702 -1.4165 -1.4136 -0.7678
 3584SOL    HW222389   4.215   3.429   7.653  0.6442 -0.0570 -0.6741
 3585SOL     OW22390   1.187   1.442   2.302  0.3863 -0.3534 -0.4733
 3585SOL    HW122391   1.209   1.490   2.382  1.6352 -0.4664 -0.7431
 3585SOL    HW222392   1.092   1.439   2.312  0.5292  0.5986  1.2054
 3586SOL     OW22393   2.598   3.048   0.544 -0.4513 -0.4898  0.0090
 3586SOL    HW122394   2.619   2.957   0.562 -0.1221 -0.8812 -2.3474
 3586SOL    HW222395   2.509   3.062   0.575 -0.3342  0.4448 -0.0830
 3587SOL     OW22396   1.189   4.447   8.018 -0.0093 -0.2177 -0.4198
 3587SOL    HW122397   1.100   4.459   7.984  0.8639  1.2203 -2.2220
 3587SOL    HW222398   1.230   4.404   7.943  2.3436 -1.6903  1.7011
 3588SOL     OW22399   0.196   0.091   6.782  0.9540  0.0134 -0.6026
 3588SOL    HW122400   0.138   0.129   6.716  3.6284  2.6219 -1.4698
 3588SOL    HW222401   0.244   0.018   6.743 -2.1445 -0.3933 -3.6429
 3589SOL     OW22402   3.609   3.843   9.966  0.4890  0.1812 -0.1351
 3589SOL    HW122403   3.529   3.862  10.014 -0.7940 -0.2569 -2.1122
 3589SOL    HW222404   3.574   3.811   9.883 -0.0319  1.5773 -0.4446
 3590SOL     OW22405   1.125   1.444   6.380 -0.1374  0.1667  0.4266
 3590SOL    HW122406   1.171   1.457   6.297 -2.1595 -1.8772 -1.0106
 3590SOL    HW222407   1.183   1.489   6.441  4.6101 -5.5398  0.2326
 3591SOL     OW22408   3.269   4.087  16.321  1.0759  0.0166 -0.5020
 3591SOL    HW122409   3.270   4.176  16.356  1.4879 -0.9632  1.9262
 3591SOL    HW222410   3.180   4.074  16.353  0.5803  1.8264 -1.1246
 3592SOL     OW22411   1.624   3.928   7.777 -0.7113  0.3527 -0.0103
 3592SOL    HW122412   1.530   3.937   7.764 -0.6638  0.6382 -0.1445
 3592SOL    HW222413   1.667   3.937   7.692 -0.3488  0.6376  0.2005
 3593SOL     OW22414   0.688   2.719   6.620  0.0948 -0.3738 -0.3970
 3593SOL    HW122415   0.699   2.696   6.712  0.6347  3.3705  0.5086
 3593SOL    HW222416   0.643   2.804   6.627 -1.8519 -1.4127 -0.3992
 3594SOL     OW22417   2.376   0.183   6.882 -0.5804 -0.0731 -0.8109
 3594SOL    HW122418   2.354   0.158   6.793 -1.2849  1.4620 -1.0638
 3594SOL    HW222419   2.465   0.219   6.878 -0.8852  1.0049  2.1676
 3595SOL     OW22420   2.162   1.329   7.548 -0.6258  0.7403 -0.8293
 3595SOL    HW122421   2.186   1.325   7.455 -0.2654 -0.3741 -0.6799
 3595SOL    HW222422   2.069   1.349   7.536 -0.9753 -0.1716  0.4539
 3596SOL     OW22423   3.320   3.913   6.398 -0.3883  0.1719 -0.0555
 3596SOL    HW122424   3.225   3.914   6.385 -0.1769  1.7694 -1.5336
 3596SOL    HW222425   3.336   3.857   6.322 -1.8970 -1.2359  0.6733
 3597SOL     OW22426   0.570   1.757   6.886  0.0213 -0.4290 -0.2913
 3597SOL    HW122427   0.584   1.690   6.954  1.5293  0.3993  0.1999
 3597SOL    HW222428   0.494   1.790   6.934  0.6163 -1.0547  1.0847
 3598SOL     OW22429   0.019   2.221   4.525  0.4044  0.4407  0.6840
 3598SOL    HW122430   4.672   2.181   4.520  0.8091 -0.1295 -1.6033
 3598SOL    HW222431   0.004   2.292   4.463 -1.1348 -0.2387  0.2800
 3599SOL     OW22432   1.114   0.586   1.940 -0.3054 -0.2612 -0.3380
 3599SOL    HW122433   1.072   0.672   1.934 -1.1062 -0.7144 -1.3684
 3599SOL    HW222434   1.129   0.560   1.849 -0.6342 -2.4571  0.2262
 3600SOL     OW22435   0.708   2.486   8.614  0.1893  0.0275 -0.6578
 3600SOL    HW122436   0.786   2.522   8.571  0.0073 -1.1549 -1.9489
 3600SOL    HW222437   0.632   2.518   8.566  1.8703  3.1239 -1.2771
 3601SOL     OW22438   2.772   1.595   3.978  0.3530  0.3673  0.1699
 3601SOL    HW122439   2.844   1.633   4.028  0.1972  1.1375 -0.1916
 3601SOL    HW222440   2.803   1.586   3.888 -2.8411  2.3726 -1.1500
 3602SOL     OW22441   3.330   1.578   8.278  0.3303 -0.1731 -0.1921
 3602SOL    HW122442   3.364   1.513   8.216 -1.7105  0.0883 -1.6090
 3602SOL    HW222443   3.404   1.590   8.337 -2.2820  1.0259  2.8073
 3603SOL     OW22444   4.734   4.461   9.877 -0.8839  0.6496 -0.0626
 3603SOL    HW122445   4.656   4.414   9.907 -1.9064  3.0027  0.9933
 3603SOL    HW222446   4.733   4.536   9.938 -0.4838 -0.0922  0.8592
 3604SOL     OW22447   1.623   1.451   9.136 -0.1462  0.5207 -0.4663
 3604SOL    HW122448   1.678   1.414   9.066  2.0285 -0.8652  1.9863
 3604SOL    HW222449   1.578   1.519   9.086 -0.9506  0.1670 -0.2184
 3605SOL     OW22450   3.899   2.288   4.318 -0.3269  0.3737  0.5565
 3605SOL    HW122451   3.832   2.220   4.309  0.4334 -0.3017 -0.0470
 3605SOL    HW222452   3.953   2.273   4.240 -0.9793 -0.1347  0.1945
 3606SOL     OW22453   2.994   3.033  15.908 -0.3526  0.7739  0.2127
 3606SOL    HW122454   2.978   3.089  15.984  0.9136 -1.6635  2.2650
 3606SOL    HW222455   2.906   3.019  15.872 -1.8835 -0.2890  4.3617
 3607SOL     OW22456   2.606   0.648   8.479 -0.1044 -0.0878  0.1545
 3607SOL    HW122457   2.579   0.581   8.417  2.9066  0.1674 -1.4227
 3607SOL    HW222458   2.577   0.608   8.562 -0.2719 -0.9431 -0.3188
 3608SOL     OW22459   1.733   1.981  14.433  0.5645 -0.1799 -0.4811
 3608SOL    HW122460   1.774   2.043  14.492  0.6453 -1.7568  1.1065
 3608SOL    HW222461   1.650   2.023  14.411 -0.1324 -0.5684  1.4285
 3609SOL     OW22462   1.352   3.804   6.441  0.4090 -0.4576 -0.5420
 3609SOL    HW122463   1.443   3.774   6.441  1.3374  2.3010 -1.0512
 3609SOL    HW222464   1.305   3.747   6.381 -2.7486 -1.6455  3.0411
 3610SOL     OW22465   3.738   1.005   2.757  0.0147 -0.0181  0.2680
 3610SOL    HW122466   3.821   1.040   2.726  0.4575  0.1173  1.5816
 3610SOL    HW222467   3.698   1.077   2.807  1.0101  2.2094 -2.1581
 3611SOL     OW22468   0.440   1.270   1.743  0.8747  0.1730  0.2507
 3611SOL    HW122469   0.488   1.352   1.733  0.2834  0.5527  0.5533
 3611SOL    HW222470   0.463   1.248   1.833 -3.2990 -1.1818  0.9408
 3612SOL     OW22471   3.591   2.458  15.396 -0.3602  0.2917 -0.1417
 3612SOL    HW122472   3.636   2.540  15.376  0.9730 -0.3516  0.1655
 3612SOL    HW222473   3.624   2.440  15.484  1.5041  1.8390 -0.5110
 3613SOL     OW22474   3.598   1.215   8.577 -0.3796  0.1303 -0.0585
 3613SOL    HW122475   3.648   1.243   8.654  2.2923  1.3539 -2.2433
 3613SOL    HW222476   3.514   1.260   8.585 -0.6711 -0.6347  1.0955
 3614SOL     OW22477   4.044   4.337  15.217  0.4953  0.1206  0.6502
 3614SOL    HW122478   4.082   4.411  15.170 -1.1061 -1.4052 -3.0834
 3614SOL    HW222479   4.122   4.285  15.235  0.5335  0.6095  1.9055
 3615SOL     OW22480   2.373   0.791   4.807  0.2289  0.0143  0.0092
 3615SOL    HW122481   2.449   0.793   4.865  0.6087  1.3713 -0.5339
 3615SOL    HW222482   2.397   0.718   4.749  1.0097 -0.0493  0.4090
 3616SOL     OW22483   4.022   1.091   6.177 -0.1353 -0.0045  0.3211
 3616SOL    HW122484   4.007   1.005   6.216  1.7082 -0.1195  0.7765
 3616SOL    HW222485   4.013   1.071   6.084 -1.5330 -0.2355  0.5055
 3617SOL     OW22486   3.261   4.345   6.336  0.3252 -1.1465 -0.1141
 3617SOL    HW122487   3.310   4.411   6.286 -0.5825 -0.0071  0.4906
 3617SOL    HW222488   3.334   4.297   6.376 -1.1457 -1.3408  2.3467
 3618SOL     OW22489   3.463   1.768   4.099 -0.4195  0.1693 -0.6273
 3618SOL    HW122490   3.473   1.752   4.193  0.8545  1.0568 -0.6034
 3618SOL    HW222491   3.504   1.691   4.058 -0.4382 -0.2106  0.0686
 3619SOL     OW22492   1.126   3.379   9.447  0.3645 -0.4468 -0.3439
 3619SOL    HW122493   1.138   3.370   9.353  2.1558 -0.4822 -0.1072
 3619SOL    HW222494   1.211   3.407   9.480  1.3350  0.5806 -3.8366
 3620SOL     OW22495   1.325   1.202   6.248 -0.2158 -0.3023 -0.0815
 3620SOL    HW122496   1.252   1.212   6.188 -0.4791 -0.4257  0.2184
 3620SOL    HW222497   1.273   1.165   6.319 -2.9013 -1.5914 -2.7621
 3621SOL     OW22498   3.677   3.452  15.928  0.3034  0.1995 -0.2790
 3621SOL    HW122499   3.646   3.542  15.914  0.6381  0.4282  0.4493
 3621SOL    HW222500   3.621   3.400  15.870 -0.7683  0.5549  0.4441
 3622SOL     OW22501   0.703   4.266  15.747 -0.1735  0.0937 -1.3462
 3622SOL    HW122502   0.765   4.239  15.679 -0.4652 -0.3772 -1.4249
 3622SOL    HW222503   0.625   4.275  15.691  1.0671  1.1987 -2.9159
 3623SOL     OW22504   4.198   1.223   7.336 -0.3959  0.8266  0.0039
 3623SOL    HW122505   4.242   1.171   7.404 -0.0597  3.0633  1.5029
 3623SOL    HW222506   4.150   1.286   7.389  0.0671  1.1004  0.0990
 3624SOL     OW22507   2.387   4.469  10.700 -0.1920  0.1058 -0.7869
 3624SOL    HW122508   2.334   4.539  10.663 -2.0082 -1.4792 -1.1429
 3624SOL    HW222509   2.477   4.495  10.677  1.1186 -3.1639  0.5489
 3625SOL     OW22510   2.766   1.742   8.235  0.1798  0.4512 -0.6375
 3625SOL    HW122511   2.774   1.833   8.265 -1.0588 -0.4333  2.3635
 3625SOL    HW222512   2.836   1.733   8.170  2.8382 -1.1972  2.4984
 3626SOL     OW22513   0.576   4.124   8.660  0.4996  0.3260 -0.4294
 3626SOL    HW122514   0.525   4.195   8.621  0.3037 -0.4741 -1.6470
 3626SOL    HW222515   0.627   4.190   8.706  1.9640 -1.5225  0.6059
 3627SOL     OW22516   0.839   1.175   4.982  0.3280  0.2660  0.2419
 3627SOL    HW122517   0.753   1.155   4.945  0.7305 -0.0770 -0.5024
 3627SOL    HW222518   0.835   1.269   5.003  0.2161 -0.1069  1.8574
 3628SOL     OW22519   0.522   0.841   0.518 -0.2338  0.0163  0.2120
 3628SOL    HW122520   0.509   0.931   0.487 -2.3153 -0.2848  0.2114
 3628SOL    HW222521   0.532   0.801   0.431  0.3986  0.5435  0.0337
 3629SOL     OW22522   0.386   1.048   6.023  0.8468 -0.0439 -0.2959
 3629SOL    HW122523   0.366   1.102   6.100 -1.5059  0.0922 -1.0018
 3629SOL    HW222524   0.328   0.977   6.050  1.2758 -1.1495 -2.3582
 3630SOL     OW22525   2.354   4.362   4.251  0.5288 -0.0675 -0.1451
 3630SOL    HW122526   2.368   4.394   4.340  1.9850  1.1629 -0.8247
 3630SOL    HW222527   2.435   4.317   4.229 -1.0422 -2.9725 -0.0385
 3631SOL     OW22528   4.334   4.096   1.959  0.0353 -0.1982  0.0403
 3631SOL    HW122529   4.350   4.166   1.896  0.5734 -0.2137  0.1549
 3631SOL    HW222530   4.263   4.134   2.011  1.8368 -1.2403  3.2819
 3632SOL     OW22531   2.841   4.426   7.323 -0.0639 -0.3895 -0.2439
 3632SOL    HW122532   2.826   4.334   7.345 -1.5136 -0.0955  0.0029
 3632SOL    HW222533   2.817   4.474   7.402  0.0834 -0.4575 -0.1585
 3633SOL     OW22534   2.716   2.452  10.006 -0.3380  0.3007 -0.0426
 3633SOL    HW122535   2.663   2.383   9.965 -1.6479  0.3151  1.6433
 3633SOL    HW222536   2.670   2.467  10.088 -0.6767  1.4857 -0.4553
 3634SOL     OW22537   1.082   3.940   5.920  0.3342  0.2353 -0.2990
 3634SOL    HW122538   1.047   4.028   5.907  1.2532  0.6943  0.3561
 3634SOL    HW222539   1.126   3.943   6.005 -0.4265  1.9804  0.0334
 3635SOL     OW22540   2.411   2.683  10.070 -0.1552  0.3006  0.1310
 3635SOL    HW122541   2.450   2.634  10.143 -0.4950 -0.8289 -0.4471
 3635SOL    HW222542   2.363   2.617  10.020  0.1073  1.1297 -1.1915
 3636SOL     OW22543   0.415   0.923   2.384  0.5852 -0.6448  0.6387
 3636SOL    HW122544   0.425   1.000   2.441 -4.8867 -0.4509  1.3373
 3636SOL    HW222545   0.502   0.920   2.345 -0.1348  0.2175 -1.0592
 3637SOL     OW22546   3.050   4.448   2.166  0.7943 -0.0728  0.8423
 3637SOL    HW122547   2.960   4.421   2.151  0.7949  0.6218 -0.4277
 3637SOL    HW222548   3.070   4.504   2.091 -2.9944  0.9448  0.5785
 3638SOL     OW22549   2.355   3.031   2.455 -0.9920 -0.3951  1.0179
 3638SOL    HW122550   2.328   2.964   2.518  0.0264 -2.5739 -0.9050
 3638SOL    HW222551   2.381   2.974   2.383  0.1432  0.6569  0.5971
 3639SOL     OW22552   3.267   2.516   9.273  0.3067  0.5621 -0.0099
 3639SOL    HW122553   3.295   2.476   9.191 -1.8157  0.5273 -0.7328
 3639SOL    HW222554   3.339   2.568   9.308  0.2205  0.3762  0.4506
 3640SOL     OW22555   2.947   2.112  14.421 -0.2201 -0.3792  0.2474
 3640SOL    HW122556   2.897   2.173  14.368 -1.6543 -2.7246 -1.1145
 3640SOL    HW222557   3.038   2.142  14.411  0.0639 -1.4745 -0.4591
 3641SOL     OW22558   3.797   4.690   2.635  0.1629  0.0135  0.2721
 3641SOL    HW122559   3.775   0.036   2.597 -0.5070 -0.4333 -0.3516
 3641SOL    HW222560   3.713   4.644   2.627  0.6322 -0.2369 -3.4267
 3642SOL     OW22561   3.072   0.907   8.443  0.8118  0.0668  0.0673
 3642SOL    HW122562   3.134   0.835   8.450 -1.2928 -1.6423  0.9286
 3642SOL    HW222563   2.999   0.846   8.438 -0.0516  1.0337  0.8144
 3643SOL     OW22564   3.945   4.124   1.617 -0.1102  0.3281 -0.1685
 3643SOL    HW122565   3.978   4.214   1.623 -1.5047  0.8651 -0.5954
 3643SOL    HW222566   3.853   4.146   1.632  0.1671  1.2458  0.1903
 3644SOL     OW22567   0.109   1.904   8.820  0.3002  0.2756  0.2496
 3644SOL    HW122568   0.050   1.846   8.771  1.0470 -2.0860  2.1301
 3644SOL    HW222569   0.183   1.905   8.760  1.6235 -0.5569  1.8656
 3645SOL     OW22570   4.620   0.537   8.067  0.2321  0.8328 -0.8629
 3645SOL    HW122571   4.528   0.559   8.049 -0.3107  0.3840  1.4142
 3645SOL    HW222572   4.614   0.520   8.161 -1.4929  2.1019 -0.7526
 3646SOL     OW22573   2.399   0.576   7.058  0.2229 -0.4159  0.1290
 3646SOL    HW122574   2.484   0.549   7.024  1.1012  1.6354  0.6722
 3646SOL    HW222575   2.439   0.653   7.098  2.2392 -2.0699  1.2792
 3647SOL     OW22576   0.648   1.349   8.253  0.4381  0.6207  0.3622
 3647SOL    HW122577   0.726   1.296   8.270 -2.2026 -3.6096 -0.7227
 3647SOL    HW222578   0.683   1.383   8.170  0.8626  4.4872  2.1440
 3648SOL     OW22579   2.862   1.984   5.126 -0.5384  0.3435 -0.3678
 3648SOL    HW122580   2.892   1.909   5.177 -0.4882  0.0745 -0.7919
 3648SOL    HW222581   2.778   1.947   5.101 -1.7287  1.9369  1.3132
 3649SOL     OW22582   3.571   1.046   2.186  0.3145 -0.1348  0.1864
 3649SOL    HW122583   3.495   1.103   2.172  0.5938  1.0911  3.6281
 3649SOL    HW222584   3.646   1.094   2.151  1.3446 -0.0984  2.4069
 3650SOL     OW22585   4.601   1.373   3.296  0.0010 -0.1863  0.1193
 3650SOL    HW122586   4.599   1.357   3.390  0.2762  0.4813  0.2437
 3650SOL    HW222587   4.608   1.469   3.296  0.5199 -0.2153 -2.1660
 3651SOL     OW22588   4.398   3.851  10.473 -0.0823  0.4760  0.0457
 3651SOL    HW122589   4.378   3.769  10.517 -0.0417  1.1704  1.3478
 3651SOL    HW222590   4.320   3.858  10.418 -0.3239  1.6561  0.5438
 3652SOL     OW22591   1.723   2.104  17.131  0.3665  0.2815 -0.0945
 3652SOL    HW122592   1.760   2.134  17.048  2.0721  1.9542  1.2764
 3652SOL    HW222593   1.796   2.122  17.189 -0.7637 -1.4357  1.8531
 3653SOL     OW22594   2.768   1.128   3.712  0.0802  0.3554  0.1643
 3653SOL    HW122595   2.696   1.158   3.657  1.3335  2.0620 -0.5365
 3653SOL    HW222596   2.739   1.176   3.790  1.0808  0.5156  0.4399
 3654SOL     OW22597   4.277   4.019   7.494  0.0376 -0.0844 -0.1696
 3654SOL    HW122598   4.369   4.012   7.520 -0.4239 -1.8777  0.9581
 3654SOL    HW222599   4.265   3.934   7.452 -2.3685 -0.1329  0.6454
 3655SOL     OW22600   0.046   1.665   8.964 -0.2344  0.6286  0.3389
 3655SOL    HW122601   0.053   1.754   8.930 -1.0417  0.2413 -0.8358
 3655SOL    HW222602   0.069   1.676   9.056 -2.0411  1.2705  0.7200
 3656SOL     OW22603   4.580   2.080   5.372  0.3853  1.0229  0.5549
 3656SOL    HW122604   4.557   2.023   5.445 -2.6928 -1.2212 -2.1708
 3656SOL    HW222605   4.528   2.034   5.306 -1.5888  1.4462  1.8337
 3657SOL     OW22606   3.281   2.943  13.007  0.3142 -0.3520 -0.3313
 3657SOL    HW122607   3.354   2.975  13.060  1.5347  0.7575 -2.6897
 3657SOL    HW222608   3.333   2.893  12.944 -0.9354  0.2084 -1.8135
 3658SOL     OW22609   4.050   0.432   8.402 -0.1898 -0.4121  0.1858
 3658SOL    HW122610   3.963   0.471   8.403 -0.2031 -0.5509  4.9575
 3658SOL    HW222611   4.060   0.388   8.317  0.9858  1.6464 -0.7569
 3659SOL     OW22612   1.183   3.628   6.300 -0.2319  0.5732  0.2623
 3659SOL    HW122613   1.180   3.564   6.229  0.3681  0.8195  0.0208
 3659SOL    HW222614   1.096   3.615   6.338  0.0683 -0.9833  0.4092
 3660SOL     OW22615   1.581   4.411  14.202 -0.1652 -0.1787  0.0507
 3660SOL    HW122616   1.596   4.441  14.291  0.0703 -0.2762  0.0433
 3660SOL    HW222617   1.551   4.493  14.163  0.1679 -0.6753 -1.2685
 3661SOL     OW22618   1.542   3.028   7.374 -0.3990 -0.3679 -0.4802
 3661SOL    HW122619   1.616   3.047   7.432 -1.3319  2.4022 -0.1692
 3661SOL    HW222620   1.536   3.109   7.322  0.8322 -0.3953 -0.6634
 3662SOL     OW22621   4.670   2.333   3.267 -1.0226 -0.4782  0.3786
 3662SOL    HW122622   4.598   2.391   3.239 -0.0373  0.3855 -0.3779
 3662SOL    HW222623   4.647   2.244   3.242 -1.3096  0.3728 -2.4871
 3663SOL     OW22624   4.667   1.748   5.771 -0.3695  0.1519  0.1146
 3663SOL    HW122625   4.722   1.673   5.793  0.4488  0.7984  0.2685
 3663SOL    HW222626   4.580   1.709   5.771 -0.4711  0.3788  0.2330
 3664SOL     OW22627   1.048   3.433  10.689 -0.1773 -0.1427 -0.2374
 3664SOL    HW122628   1.077   3.347  10.721 -0.7993  0.0411  0.8353
 3664SOL    HW222629   0.973   3.451  10.745 -0.9411  0.5358 -1.4824
 3665SOL     OW22630   0.131   2.978   8.503  0.0053  0.2614 -0.0473
 3665SOL    HW122631   0.109   2.984   8.596  2.7846  0.2034  0.6163
 3665SOL    HW222632   0.067   3.035   8.460 -1.3737 -0.8605  0.5258
 3666SOL     OW22633   4.389   0.582   5.243 -0.4094  0.5545 -0.0365
 3666SOL    HW122634   4.475   0.558   5.208 -0.5694  0.0666 -0.0937
 3666SOL    HW222635   4.348   0.607   5.160  1.4420 -0.6813 -1.3256
 3667SOL     OW22636   2.213   0.001   8.314  0.0447 -0.1322  0.0677
 3667SOL    HW122637   2.194   4.723   8.222 -0.7679  0.8369  0.0584
 3667SOL    HW222638   2.306   4.717   8.318  0.4598  1.7719  1.4882
 3668SOL     OW22639   3.849   3.977   6.017 -0.5753  0.6091  0.2725
 3668SOL    HW122640   3.793   4.017   6.084 -0.0887  1.0708  0.4115
 3668SOL    HW222641   3.801   3.989   5.935  0.3671 -0.8540 -0.4815
 3669SOL     OW22642   2.476   2.529  11.569 -0.0251  0.4831 -0.7893
 3669SOL    HW122643   2.505   2.590  11.501  1.4775  0.4544 -0.1593
 3669SOL    HW222644   2.490   2.577  11.651  1.5001 -0.0602 -0.7279
 3670SOL     OW22645   3.902   0.993   8.925  0.1586 -0.7685  0.0049
 3670SOL    HW122646   3.892   0.908   8.968 -1.2531 -1.2650 -1.2629
 3670SOL    HW222647   3.957   1.043   8.985 -1.0143  1.9097 -1.1665
 3671SOL     OW22648   2.530   2.953   1.142 -0.4196  0.2831  0.1458
 3671SOL    HW122649   2.535   2.902   1.222 -2.6979  2.4136  1.6555
 3671SOL    HW222650   2.571   3.033   1.175 -1.8615  0.5312  1.3574
 3672SOL     OW22651   0.677   2.975   3.278  0.2547 -0.1786 -0.1324
 3672SOL    HW122652   0.741   2.980   3.207  1.7513  1.4140  1.3291
 3672SOL    HW222653   0.713   3.018   3.355 -2.1717 -1.5020  1.7168
 3673SOL     OW22654   2.570   2.634   9.553  0.3746  0.5174  0.2849
 3673SOL    HW122655   2.657   2.597   9.570 -0.3502 -1.1012  0.4220
 3673SOL    HW222656   2.550   2.663   9.643  1.5898  0.0275  0.7141
 3674SOL     OW22657   0.693   1.859   5.320 -0.0898 -0.2553  0.4608
 3674SOL    HW122658   0.768   1.862   5.379  0.1177 -1.9322  0.2785
 3674SOL    HW222659   0.650   1.776   5.341  0.8316 -1.1999 -1.3911
 3675SOL     OW22660   1.712   4.495   3.555 -0.1857 -0.3207 -0.6773
 3675SOL    HW122661   1.705   4.546   3.475 -1.7268 -1.5451 -1.3201
 3675SOL    HW222662   1.743   4.567   3.611 -2.2398 -1.4967  1.9772
 3676SOL     OW22663   0.632   2.629   5.652  0.0583  0.5802 -0.5284
 3676SOL    HW122664   0.692   2.568   5.694 -0.2877  1.2649  0.9568
 3676SOL    HW222665   0.552   2.578   5.641  0.0931  0.2448  0.8473
 3677SOL     OW22666   2.882   2.000  12.749  0.3989  0.8501 -0.1429
 3677SOL    HW122667   2.847   2.062  12.685 -2.5323 -1.3327 -0.6559
 3677SOL    HW222668   2.800   1.952  12.758  1.3862 -0.4666  1.8026
 3678SOL     OW22669   2.819   1.452   7.124  0.0682 -0.8890  0.2043
 3678SOL    HW122670   2.789   1.418   7.039  2.5627 -2.7844  0.0553
 3678SOL    HW222671   2.902   1.407   7.141  1.7038  2.1316  0.1407
 3679SOL     OW22672   2.025   3.328   6.432 -0.6814  0.5198  0.6843
 3679SOL    HW122673   2.091   3.260   6.444  0.7301  1.7171 -0.1847
 3679SOL    HW222674   2.070   3.411   6.454 -1.2776  1.1093 -0.3304
 3680SOL     OW22675   0.289   1.605   3.623  0.1547  0.5442  0.6104
 3680SOL    HW122676   0.311   1.514   3.604  1.6983  1.3368 -1.3179
 3680SOL    HW222677   0.200   1.597   3.658  0.2980  2.2606  1.3979
 3681SOL     OW22678   4.608   2.862  12.056  0.0427  0.3067 -0.0702
 3681SOL    HW122679   4.681   2.818  12.014  1.4878  1.4797  1.2206
 3681SOL    HW222680   4.567   2.778  12.076 -1.7915  1.3080  0.3396
 3682SOL     OW22681   3.374   2.184   0.074 -0.4416  0.3210  0.1292
 3682SOL    HW122682   3.416   2.270   0.065  0.2327 -0.1493 -1.3407
 3682SOL    HW222683   3.386   2.144  17.742  3.5485 -1.1763  1.3747
 3683SOL     OW22684   4.182   4.028   6.258  0.3778 -0.2730  0.4553
 3683SOL    HW122685   4.176   3.980   6.341  0.6178  2.4733  2.0819
 3683SOL    HW222686   4.266   4.075   6.262 -0.2224  0.8821 -0.4914
 3684SOL     OW22687   2.363   1.647   4.214  0.2522 -0.0596 -0.0137
 3684SOL    HW122688   2.368   1.734   4.174 -0.0988  0.2653  0.6569
 3684SOL    HW222689   2.455   1.627   4.230 -0.4864 -1.6430  2.2833
 3685SOL     OW22690   2.165   3.073  15.744 -0.5999  0.1802 -0.3763
 3685SOL    HW122691   2.203   3.062  15.656 -2.0112 -0.3765 -0.9130
 3685SOL    HW222692   2.096   3.139  15.734  0.2358  1.0731 -0.2442
 3686SOL     OW22693   1.607   2.580   4.411 -0.0686  0.0537 -0.0824
 3686SOL    HW122694   1.686   2.628   4.438 -0.9441  1.9572 -0.8965
 3686SOL    HW222695   1.636   2.536   4.331 -1.4930  1.2710 -1.2621
 3687SOL     OW22696   2.801   3.206  10.072 -0.4354  0.1283  0.6417
 3687SOL    HW122697   2.861   3.143  10.112  1.3788  0.7507 -1.0641
 3687SOL    HW222698   2.852   3.285  10.053 -1.2396  0.6603  0.6778
 3688SOL     OW22699   2.798   4.297   3.795  0.1826  0.1039  0.0841
 3688SOL    HW122700   2.847   4.306   3.713  0.5984  2.1251  0.5550
 3688SOL    HW222701   2.706   4.287   3.769  0.4656 -0.1490 -0.8156
 3689SOL     OW22702   1.722   0.907   7.672  0.0907 -0.4046 -0.1523
 3689SOL    HW122703   1.759   0.821   7.694 -1.4442 -1.3194 -1.1401
 3689SOL    HW222704   1.658   0.886   7.604 -1.1147  0.2695  0.7872
 3690SOL     OW22705   1.695   1.305   8.195  1.0493 -0.0769  0.2309
 3690SOL    HW122706   1.742   1.374   8.148 -2.3528  3.1946  1.5850
 3690SOL    HW222707   1.609   1.346   8.204  0.8670 -0.8412  1.8621
 3691SOL     OW22708   2.493   1.646   6.291 -1.0021  0.2850  0.0738
 3691SOL    HW122709   2.574   1.677   6.332 -0.3267 -0.9225 -0.3668
 3691SOL    HW222710   2.427   1.664   6.359 -0.0495  1.9272  0.5611
 3692SOL     OW22711   2.779   4.726   2.174  0.1368 -0.1786 -0.1076
 3692SOL    HW122712   2.731   4.737   2.256 -0.4681 -0.7221 -0.3808
 3692SOL    HW222713   2.756   4.636   2.150 -1.7439 -0.0363  1.1687
 3693SOL     OW22714   0.458   3.165   8.932 -0.4660 -0.4312 -0.5380
 3693SOL    HW122715   0.552   3.151   8.940  0.1060  2.4101 -2.3545
 3693SOL    HW222716   0.454   3.245   8.984  0.5810 -0.7388  0.0169
 3694SOL     OW22717   2.043   4.474  17.191  0.0149 -0.3823 -0.2116
 3694SOL    HW122718   1.986   4.404  17.221 -1.9468  0.6076 -1.6279
 3694SOL    HW222719   2.020   4.538  17.259 -1.9903 -0.4253 -0.8566
 3695SOL     OW22720   3.023   0.908   4.365 -0.5300  0.0483  0.0228
 3695SOL    HW122721   3.075   0.929   4.442 -0.5102 -1.0125  0.2986
 3695SOL    HW222722   2.945   0.863   4.397 -0.9745  2.0073  1.7376
 3696SOL     OW22723   1.466   0.175   2.336 -0.1217 -0.4878  0.0683
 3696SOL    HW122724   1.429   0.237   2.398 -1.6006  1.6792 -2.9463
 3696SOL    HW222725   1.454   0.095   2.387  0.0869  0.2579  1.2901
 3697SOL     OW22726   1.898   4.441  16.304 -0.0770  0.5530  0.2640
 3697SOL    HW122727   1.828   4.490  16.260 -1.5187 -0.9230  0.9191
 3697SOL    HW222728   1.905   4.495  16.383 -1.0669  0.3520  0.4900
 3698SOL     OW22729   4.630   2.738   9.486  0.3161 -0.1265 -0.4398
 3698SOL    HW122730   4.677   2.746   9.403 -1.6897 -0.2433 -1.5750
 3698SOL    HW222731   4.565   2.673   9.461 -0.2746  0.0914  0.5196
 3699SOL     OW22732   4.288   0.176  15.387  0.0934  0.1421  0.2215
 3699SOL    HW122733   4.325   0.201  15.302 -0.2173  3.3547  1.0100
 3699SOL    HW222734   4.250   0.263  15.400  0.2420  0.3385 -0.6542
 3700SOL     OW22735   3.847   4.518  15.451 -0.1675  0.5671  0.9639
 3700SOL    HW122736   3.866   4.543  15.542  0.0392  0.6858  0.8876
 3700SOL    HW222737   3.758   4.484  15.462 -0.4662  0.9001 -0.5015
 3701SOL     OW22738   3.303   3.064  10.111  0.1744 -0.0494 -0.1604
 3701SOL    HW122739   3.302   3.151  10.071 -1.6069  1.1656  2.4831
 3701SOL    HW222740   3.374   3.084  10.173 -0.3106  1.8795 -0.2189
 3702SOL     OW22741   3.999   3.715   3.843 -0.0075 -0.4165 -0.4402
 3702SOL    HW122742   3.984   3.637   3.789  0.9561 -0.3651 -0.7831
 3702SOL    HW222743   3.920   3.769   3.839 -0.2327 -0.7462 -0.4297
 3703SOL     OW22744   0.357   1.888   4.267 -0.0488 -0.6291  0.0747
 3703SOL    HW122745   0.309   1.945   4.207 -0.9733 -0.3775  1.0442
 3703SOL    HW222746   0.447   1.906   4.241  0.0385 -3.6824 -1.6252
 3704SOL     OW22747   0.728   0.414   7.256 -0.3911 -0.4021 -0.3342
 3704SOL    HW122748   0.790   0.442   7.189 -1.2877 -1.3794 -1.5699
 3704SOL    HW222749   0.671   0.491   7.262  1.5701  0.9701  0.8424
 3705SOL     OW22750   3.414   4.677   7.825  0.6526  0.1728 -0.2735
 3705SOL    HW122751   3.323   4.668   7.853  1.0462 -1.3470  0.5172
 3705SOL    HW222752   3.422   4.625   7.745 -0.7067  0.3480 -0.5130
 3706SOL     OW22753   1.732   2.703   9.033 -0.3141 -0.3629 -0.2202
 3706SOL    HW122754   1.699   2.793   9.022 -0.2082 -0.2738  0.2002
 3706SOL    HW222755   1.784   2.705   9.113 -0.1297 -1.5210 -0.3100
 3707SOL     OW22756   3.156   1.452   8.762  0.9448  0.2806 -0.3066
 3707SOL    HW122757   3.075   1.488   8.726  0.1280  0.0770  1.3337
 3707SOL    HW222758   3.129   1.436   8.852  2.5735  0.3409  0.1987
 3708SOL     OW22759   3.234   0.828   4.113  1.0823 -0.2813 -0.4648
 3708SOL    HW122760   3.207   0.845   4.203 -1.2264  0.0819 -1.2076
 3708SOL    HW222761   3.150   0.806   4.072  0.0046  1.4534  0.8377
 3709SOL     OW22762   1.153   3.222   1.632 -0.2768 -0.3654  0.1117
 3709SOL    HW122763   1.200   3.241   1.714 -1.2098  0.1104  0.5289
 3709SOL    HW222764   1.231   3.180   1.594 -0.5131 -0.1928 -0.5560
 3710SOL     OW22765   1.800   1.430  11.879  0.3239 -0.0751 -0.2806
 3710SOL    HW122766   1.817   1.380  11.959 -1.1687  0.0107  0.1028
 3710SOL    HW222767   1.837   1.371  11.813 -1.3016 -0.1808 -1.0996
 3711SOL     OW22768   0.585   1.151   9.582  0.3048 -0.3759  0.2779
 3711SOL    HW122769   0.492   1.156   9.559  0.2881 -0.4367  0.3301
 3711SOL    HW222770   0.614   1.101   9.505  1.6461 -2.0735  1.8709
 3712SOL     OW22771   3.268   2.236   7.227 -0.3908  0.3536 -0.3551
 3712SOL    HW122772   3.180   2.198   7.219  0.6149 -1.9718 -0.2550
 3712SOL    HW222773   3.318   2.158   7.204  0.0881  0.3768  0.6194
 3713SOL     OW22774   1.835   3.997   7.279 -0.4779 -0.2635 -0.3698
 3713SOL    HW122775   1.895   4.049   7.225 -1.7133  1.2307 -0.2764
 3713SOL    HW222776   1.787   3.950   7.211 -1.1702  0.0760 -0.1158
 3714SOL     OW22777   1.058   1.938   3.537  0.3991  0.1983  0.2661
 3714SOL    HW122778   0.973   1.894   3.539  0.4596  0.0835  0.2659
 3714SOL    HW222779   1.039   2.010   3.477  2.2640  0.7592  0.3572
 3715SOL     OW22780   4.180   0.521   4.548  0.4803  0.1865 -0.3847
 3715SOL    HW122781   4.125   0.501   4.623 -2.0113  0.1442 -2.2051
 3715SOL    HW222782   4.118   0.498   4.479 -1.5027 -2.0964  2.1917
 3716SOL     OW22783   0.056   1.794   6.842  0.0708 -0.6454  0.2001
 3716SOL    HW122784   0.039   1.788   6.936  1.3918  1.0516  0.5432
 3716SOL    HW222785   0.105   1.876   6.847 -1.3482  0.0741  2.3520
 3717SOL     OW22786   1.584   3.087   1.749  0.2849  0.2313  0.1204
 3717SOL    HW122787   1.550   3.128   1.828  1.8805  1.8644 -0.0322
 3717SOL    HW222788   1.500   3.083   1.703  0.8380 -0.4942 -0.8438
 3718SOL     OW22789   3.920   2.225  12.679 -0.3409 -0.1758 -0.1356
 3718SOL    HW122790   3.959   2.264  12.757 -0.6314  0.3146 -0.2345
 3718SOL    HW222791   3.843   2.181  12.715  0.3832  0.8315  2.5980
 3719SOL     OW22792   3.272   0.805   5.325 -0.3822 -0.3584 -0.4757
 3719SOL    HW122793   3.242   0.888   5.288  2.4838  1.2275  0.8249
 3719SOL    HW222794   3.235   0.747   5.259  1.0536 -1.1264 -0.6003
 3720SOL     OW22795   0.850   4.492   2.384  0.2629 -0.0692  0.1886
 3720SOL    HW122796   0.936   4.466   2.416 -0.2051  0.8938  2.1932
 3720SOL    HW222797   0.801   4.509   2.464 -0.7874 -0.2500 -0.4153
 3721SOL     OW22798   3.554   2.721   2.807  0.1234  0.2409  0.2777
 3721SOL    HW122799   3.627   2.760   2.760 -2.3282  3.0650 -1.2349
 3721SOL    HW222800   3.565   2.773   2.887  0.3706 -0.5759  0.7685
 3722SOL     OW22801   0.443   1.014  10.915  0.4074 -0.0529  0.1928
 3722SOL    HW122802   0.378   0.962  10.868 -1.6377  1.8957  0.9125
 3722SOL    HW222803   0.384   1.052  10.979 -0.1332 -0.1531 -0.2475
 3723SOL     OW22804   4.078   4.715  10.219 -0.4825  0.3588  0.1375
 3723SOL    HW122805   4.148   4.669  10.173 -0.9658 -0.5021  0.2522
 3723SOL    HW222806   4.050   0.020  10.139  0.0315  0.6598  0.1249
 3724SOL     OW22807   4.334   0.271   2.336  0.9484  0.5458  0.3848
 3724SOL    HW122808   4.382   0.232   2.408 -1.8643 -1.6883  1.0554
 3724SOL    HW222809   4.373   0.227   2.261 -0.1232  1.3606 -0.6649
 3725SOL     OW22810   2.338   3.967   8.997  0.4445 -0.0251  0.0201
 3725SOL    HW122811   2.350   3.982   9.091 -0.4630 -2.0199  0.4560
 3725SOL    HW222812   2.244   3.948   8.992  0.5124  0.1522 -1.8723
 3726SOL     OW22813   2.980   1.681  16.349  0.1412  0.0205 -0.3825
 3726SOL    HW122814   3.020   1.630  16.419 -0.3638 -0.8381 -0.7250
 3726SOL    HW222815   2.886   1.675  16.366  0.3114  0.7830  0.7723
 3727SOL     OW22816   2.654   2.531  12.106 -0.0113 -0.5337 -0.4031
 3727SOL    HW122817   2.643   2.563  12.195 -2.2004 -2.7460  0.1343
 3727SOL    HW222818   2.654   2.436  12.121  0.9501 -0.3951  0.4323
 3728SOL     OW22819   3.635   2.762   4.732 -0.0427  0.3519  0.8086
 3728SOL    HW122820   3.720   2.732   4.699 -0.9408 -0.1307 -1.1035
 3728SOL    HW222821   3.631   2.708   4.811 -3.2145 -1.4918 -0.6455
 3729SOL     OW22822   2.434   4.433   4.979  0.4245  0.1317 -0.2812
 3729SOL    HW122823   2.413   4.440   5.072  2.7004  0.3122  0.2122
 3729SOL    HW222824   2.399   4.519   4.958 -0.8463 -0.2075  0.4182
 3730SOL     OW22825   3.600   2.068   6.160 -0.4761 -0.3373 -0.6144
 3730SOL    HW122826   3.539   2.041   6.092 -1.9235  0.1318  0.5147
 3730SOL    HW222827   3.537   2.066   6.232  2.4078  0.6106  1.9240
 3731SOL     OW22828   3.644   0.607   4.470 -0.0923 -0.1062 -0.3292
 3731SOL    HW122829   3.603   0.611   4.556  0.9247  1.9187  0.0401
 3731SOL    HW222830   3.580   0.664   4.428  0.3274  0.3124 -0.4026
 3732SOL     OW22831   4.611   0.668  14.423  0.0369 -0.5855 -0.0518
 3732SOL    HW122832   4.627   0.588  14.373  1.9227  0.4053 -1.0345
 3732SOL    HW222833   4.516   0.670  14.416  0.1107 -1.7554 -1.3706
 3733SOL     OW22834   1.527   1.665   6.090  0.0376 -0.1922  0.4431
 3733SOL    HW122835   1.541   1.710   6.006  3.0770  1.0304  1.5945
 3733SOL    HW222836   1.613   1.658   6.132  0.5672 -1.2859 -0.8142
 3734SOL     OW22837   2.856   0.019   7.259 -0.2116 -0.0572 -0.1881
 3734SOL    HW122838   2.903   4.681   7.227 -2.0815 -1.3144  0.0849
 3734SOL    HW222839   2.877   0.093   7.202  1.1524  0.0962  0.4871
 3735SOL     OW22840   3.840   2.799   3.032  0.8030  0.6061  0.0679
 3735SOL    HW122841   3.746   2.816   3.025  1.0179  0.9126 -2.0175
 3735SOL    HW222842   3.868   2.866   3.094  2.3266  0.8461 -0.8639
 3736SOL     OW22843   2.037   4.185  17.510  0.3157 -0.0510 -0.1032
 3736SOL    HW122844   2.116   4.236  17.491  0.8261 -1.8733 -2.9008
 3736SOL    HW222845   2.000   4.198  17.423  0.7683 -2.6018 -0.6844
 3737SOL     OW22846   0.731   0.002   6.518  0.4475  0.2641  0.2529
 3737SOL    HW122847   0.661   4.696   6.472 -1.8733  2.2171  1.8945
 3737SOL    HW222848   0.800   4.706   6.462  1.2962  0.3363  1.2510
 3738SOL     OW22849   0.143   0.418  15.093  1.0104  0.0035 -0.1118
 3738SOL    HW122850   0.142   0.443  15.186 -1.4488  2.1982 -0.7118
 3738SOL    HW222851   0.099   0.494  15.054  1.9485 -0.7826 -2.6764
 3739SOL     OW22852   0.920   2.858   8.663  0.2895  0.3488 -0.1720
 3739SOL    HW122853   0.916   2.911   8.583  1.0337 -0.4284 -0.7203
 3739SOL    HW222854   0.942   2.929   8.724  1.2971  0.7641 -1.0166
 3740SOL     OW22855   1.030   2.315   2.838  0.1392  0.2505  0.2924
 3740SOL    HW122856   1.071   2.353   2.760 -0.2301  2.8441  1.3732
 3740SOL    HW222857   0.937   2.332   2.820 -0.0797 -2.6065 -1.3075
 3741SOL     OW22858   2.013   3.686   5.453 -0.2861 -0.0688 -0.3271
 3741SOL    HW122859   2.038   3.749   5.520 -2.1170 -0.0669  0.3562
 3741SOL    HW222860   1.919   3.703   5.447  0.1551  2.0331 -1.4970
 3742SOL     OW22861   3.347   2.796   9.374 -0.4383  0.3769  0.3934
 3742SOL    HW122862   3.374   2.884   9.401  0.1267  0.6580 -1.1284
 3742SOL    HW222863   3.274   2.820   9.316  0.0312 -1.6084 -1.0009
 3743SOL     OW22864   1.092   0.923   5.523 -0.2217 -0.7279  0.1446
 3743SOL    HW122865   1.135   0.984   5.584  1.4983 -2.4007  0.6227
 3743SOL    HW222866   1.071   0.859   5.591 -0.0717  0.0434  0.9282
 3744SOL     OW22867   0.571   4.266   2.086  0.2956  0.5494  0.3289
 3744SOL    HW122868   0.595   4.179   2.056 -1.1066 -0.6345  2.6859
 3744SOL    HW222869   0.513   4.289   2.013 -1.7424  1.7742  2.3386
 3745SOL     OW22870   4.434   4.672  14.526 -0.6267 -0.3525  0.7328
 3745SOL    HW122871   4.507   4.669  14.589  0.3785 -0.0903 -0.4201
 3745SOL    HW222872   4.355   4.677  14.580  0.7221  0.6189  2.6111
 3746SOL     OW22873   0.646   1.442  13.077 -0.0343 -0.6687 -0.0933
 3746SOL    HW122874   0.663   1.434  12.983  2.1870 -2.9334  0.4951
 3746SOL    HW222875   0.551   1.439  13.088  0.0309 -1.0484  0.3676
 3747SOL     OW22876   1.372   4.461  13.700 -0.0756  0.1249 -0.1898
 3747SOL    HW122877   1.298   4.407  13.729 -0.1879  0.5157  0.2564
 3747SOL    HW222878   1.376   4.522  13.774  1.0138 -2.0489  1.5608
 3748SOL     OW22879   2.573   1.357   8.594  0.3860  0.9423  0.0487
 3748SOL    HW122880   2.583   1.418   8.521 -0.4606 -0.7428 -1.4599
 3748SOL    HW222881   2.481   1.331   8.587  0.7495 -0.3021 -0.1098
 3749SOL     OW22882   4.564   3.151   4.456  0.0053 -0.0070 -0.1308
 3749SOL    HW122883   4.545   3.058   4.467 -3.5207  0.4297 -2.4283
 3749SOL    HW222884   4.495   3.176   4.394  0.5412  1.1496 -0.2612
 3750SOL     OW22885   0.226   2.395   8.290  0.5047 -0.4438 -0.2316
 3750SOL    HW122886   0.306   2.410   8.240  0.0424 -3.1720 -1.7813
 3750SOL    HW222887   0.154   2.361   8.238  0.2384  0.1155 -0.2288
 3751SOL     OW22888   4.264   1.325   6.499 -0.1496  0.3775  0.3726
 3751SOL    HW122889   4.323   1.334   6.424 -1.3350 -0.8600 -0.7012
 3751SOL    HW222890   4.209   1.401   6.480  0.3325  0.4665 -0.6904
 3752SOL     OW22891   4.281   4.265   3.597 -0.4988  0.1986 -0.3170
 3752SOL    HW122892   4.309   4.256   3.688 -1.9249 -0.7654  0.0292
 3752SOL    HW222893   4.357   4.239   3.545 -1.3921 -1.2527 -0.9391
 3753SOL     OW22894   1.575   1.161  13.309  0.1522 -0.3475  0.3120
 3753SOL    HW122895   1.588   1.091  13.372 -0.9589 -0.3032  0.5835
 3753SOL    HW222896   1.565   1.235  13.370  1.5513  0.2141 -0.1351
 3754SOL     OW22897   4.602   1.618  14.228 -0.5350 -0.1106 -0.1077
 3754SOL    HW122898   4.555   1.688  14.273  0.2818  0.2633  0.1633
 3754SOL    HW222899   4.547   1.547  14.263  0.0836  0.9641  3.0047
 3755SOL     OW22900   2.780   4.519   7.564  1.1052 -0.2002  0.3612
 3755SOL    HW122901   2.727   4.591   7.528 -0.9362 -0.4920  2.8000
 3755SOL    HW222902   2.711   4.468   7.605  1.2242  0.0031  0.8183
 3756SOL     OW22903   0.939   0.487   7.434 -0.1429  0.3469 -0.3290
 3756SOL    HW122904   0.861   0.450   7.393 -0.9661  1.3705  0.3268
 3756SOL    HW222905   0.947   0.437   7.516 -1.6543  2.0835  0.8607
 3757SOL     OW22906   1.815   2.928   1.810  0.2146 -0.1543 -0.4861
 3757SOL    HW122907   1.728   2.967   1.809  1.6034  3.0489  2.3027
 3757SOL    HW222908   1.791   2.844   1.771 -0.2044  0.4048 -1.4355
 3758SOL     OW22909   1.863   2.168   9.156  0.6183 -0.0219 -0.1171
 3758SOL    HW122910   1.950   2.175   9.195  0.4294 -1.6836  0.6336
 3758SOL    HW222911   1.816   2.230   9.211  0.0253 -0.6012  0.0399
 3759SOL     OW22912   0.815   4.363   0.099 -0.2987  0.3928  0.4635
 3759SOL    HW122913   0.720   4.370   0.108 -0.6338 -2.8376 -0.3926
 3759SOL    HW222914   0.840   4.449   0.133  0.6603 -0.1511  1.1490
 3760SOL     OW22915   0.771   1.878   7.226  0.2370 -0.1704  0.4120
 3760SOL    HW122916   0.750   1.963   7.187  0.8758  0.7411  2.0690
 3760SOL    HW222917   0.862   1.875   7.198  0.3437  0.9459  0.6609
 3761SOL     OW22918   3.230   2.680   1.380 -0.5261  0.0679 -0.2406
 3761SOL    HW122919   3.313   2.647   1.414 -0.6019  1.6455  1.5181
 3761SOL    HW222920   3.247   2.773   1.398  0.2279 -0.4694  1.9096
 3762SOL     OW22921   2.026   1.615   6.553 -0.8353  0.4391 -0.0736
 3762SOL    HW122922   1.980   1.553   6.610  2.5196 -1.3509  0.6879
 3762SOL    HW222923   2.047   1.565   6.474 -1.0479 -1.4022  1.0466
 3763SOL     OW22924   3.485   2.333   5.488  0.2899  0.2233  0.2278
 3763SOL    HW122925   3.568   2.329   5.536 -0.8444 -0.5635  2.0846
 3763SOL    HW222926   3.483   2.421   5.451 -0.1640 -0.6186 -1.8001
 3764SOL     OW22927   1.178   3.811   5.719 -0.8458  0.3603  0.4283
 3764SOL    HW122928   1.210   3.743   5.778  2.6820  0.5273 -1.3158
 3764SOL    HW222929   1.153   3.881   5.780  0.2285  0.5567  0.6433
 3765SOL     OW22930   1.395   1.103   1.596 -0.7450  0.1759 -0.3499
 3765SOL    HW122931   1.421   1.195   1.590  0.5734 -0.3508 -2.7558
 3765SOL    HW222932   1.426   1.065   1.514  0.5586  0.7590 -0.1156
 3766SOL     OW22933   0.630   3.653   6.041 -0.2649 -0.2422  0.4325
 3766SOL    HW122934   0.657   3.692   5.957  0.4300 -0.7658  0.4084
 3766SOL    HW222935   0.617   3.737   6.085 -1.8335 -0.9058  1.2188
 3767SOL     OW22936   0.203   0.481   1.588 -0.4431  0.3409 -0.0533
 3767SOL    HW122937   0.126   0.500   1.640 -1.5033 -2.6164 -0.5487
 3767SOL    HW222938   0.170   0.485   1.498  0.7401  0.1340 -0.4996
 3768SOL     OW22939   3.095   2.914  11.340  0.3126  0.3592  0.5243
 3768SOL    HW122940   3.066   2.952  11.423  0.4465  0.2822  0.6070
 3768SOL    HW222941   3.019   2.857  11.332  1.1386 -0.5397 -0.9252
 3769SOL     OW22942   0.222   3.992   5.892 -0.1128  0.0248 -0.0411
 3769SOL    HW122943   0.274   4.026   5.965 -0.3683 -0.3407  0.3118
 3769SOL    HW222944   0.223   3.898   5.908  2.2277 -0.2618 -1.9489
 3770SOL     OW22945   4.603   1.431   7.800  0.0336  0.4741 -0.0740
 3770SOL    HW122946   4.555   1.445   7.718  0.5255  0.5684 -0.3478
 3770SOL    HW222947   4.569   1.492   7.865  0.0672  0.2876  0.1182
 3771SOL     OW22948   3.806   1.335   3.977  0.0963 -0.3551  0.1780
 3771SOL    HW122949   3.763   1.253   4.001 -1.0128  0.8342  2.2683
 3771SOL    HW222950   3.868   1.342   4.050  0.0706  2.6492 -0.0750
 3772SOL     OW22951   0.428   0.392  16.799 -0.8210 -0.8822  0.0271
 3772SOL    HW122952   0.359   0.358  16.743  0.1780 -3.0671  0.1369
 3772SOL    HW222953   0.478   0.312  16.814 -0.2853 -0.7535 -1.0441
 3773SOL     OW22954   4.669   3.635  13.327 -0.6153 -0.5260 -1.0715
 3773SOL    HW122955   0.016   3.606  13.357 -1.1943 -0.4022  0.7241
 3773SOL    HW222956   4.705   3.704  13.271 -0.6229  0.3483 -0.0019
 3774SOL     OW22957   0.158   4.352   7.676 -0.4480 -0.1315  0.6768
 3774SOL    HW122958   0.143   4.403   7.756  1.6372 -1.1848  1.7256
 3774SOL    HW222959   0.087   4.387   7.622  0.4472  1.1394  0.3025
 3775SOL     OW22960   3.948   3.567   2.658 -0.3576 -0.5511  0.3064
 3775SOL    HW122961   3.870   3.513   2.646 -0.4303 -0.0433 -1.5556
 3775SOL    HW222962   3.975   3.585   2.568  1.4837  2.1880  1.4106
 3776SOL     OW22963   2.432   1.279   2.833  0.3053 -0.2590 -0.5573
 3776SOL    HW122964   2.403   1.277   2.742  1.5752  0.7017 -0.9743
 3776SOL    HW222965   2.414   1.191   2.868 -1.7784 -0.2959 -1.7404
 3777SOL     OW22966   3.486   3.165  12.342  0.0227 -0.0141  0.3733
 3777SOL    HW122967   3.392   3.180  12.325  0.1828  1.2069  0.5817
 3777SOL    HW222968   3.501   3.188  12.433  0.4833 -0.8548  0.5111
 3778SOL     OW22969   0.497   0.004   9.305 -0.4839  0.5467 -0.1493
 3778SOL    HW122970   0.469   4.658   9.338 -0.3882  0.0217 -1.4406
 3778SOL    HW222971   0.578   4.719   9.260 -0.0189  3.0536 -0.7031
 3779SOL     OW22972   4.338   0.242   5.209  0.0695  0.6044 -0.7222
 3779SOL    HW122973   4.415   0.285   5.172  0.5496 -0.4613 -0.9434
 3779SOL    HW222974   4.312   0.291   5.287  2.3267  2.0126 -0.8376
 3780SOL     OW22975   1.131   2.627  15.687  0.1644  0.0124  0.3392
 3780SOL    HW122976   1.185   2.696  15.726 -0.9180  0.0800  1.7119
 3780SOL    HW222977   1.188   2.554  15.713  1.1723 -0.2403 -2.5006
 3781SOL     OW22978   1.769   0.988   3.462  0.1745  0.6306 -0.0742
 3781SOL    HW122979   1.690   1.043   3.457  0.9165  1.7694  0.6251
 3781SOL    HW222980   1.803   1.030   3.541  0.3367 -0.1813  0.2806
 3782SOL     OW22981   1.749   3.460   4.729  0.1758 -0.2080  0.3174
 3782SOL    HW122982   1.654   3.460   4.737  0.3297 -2.7062  2.0019
 3782SOL    HW222983   1.770   3.541   4.777  2.6991 -1.7729  1.8979
 3783SOL     OW22984   1.800   3.052   5.846 -0.0197 -0.2698  0.1360
 3783SOL    HW122985   1.845   3.093   5.771  0.2751  2.6991  1.9488
 3783SOL    HW222986   1.856   2.977   5.864  0.0716 -0.1496  0.3452
 3784SOL     OW22987   4.048   3.355   4.336 -0.4729  0.2746  0.0159
 3784SOL    HW122988   3.966   3.323   4.296  0.7165 -0.2815 -1.9804
 3784SOL    HW222989   4.069   3.276   4.384 -0.2771  0.7609  0.7280
 3785SOL     OW22990   0.956   1.596   8.213  0.0143  0.2547 -0.3167
 3785SOL    HW122991   0.952   1.607   8.118  2.0021  0.2259 -0.4037
 3785SOL    HW222992   0.869   1.622   8.244 -0.0596 -1.2854  0.7640
 3786SOL     OW22993   3.048   1.678  10.761 -0.2744 -0.1068 -0.4579
 3786SOL    HW122994   3.042   1.722  10.676  0.8204  1.0329  0.0512
 3786SOL    HW222995   3.116   1.724  10.812  0.2427  0.9581 -2.0937
 3787SOL     OW22996   2.919   3.534   7.001  0.1558  0.1753 -0.0343
 3787SOL    HW122997   2.944   3.625   6.992  4.8583 -1.1005  0.1762
 3787SOL    HW222998   2.985   3.498   7.060 -0.4134 -0.8417 -0.0063
 3788SOL     OW22999   2.902   1.589   7.436  0.5182 -0.6965  0.5157
 3788SOL    HW123000   2.978   1.588   7.493  1.2303  0.2647 -0.4020
 3788SOL    HW223001   2.940   1.593   7.348 -1.6795 -1.0087 -0.4478
 3789SOL     OW23002   2.913   2.544   3.660 -0.3001 -0.3816 -0.5166
 3789SOL    HW123003   2.964   2.507   3.589  1.7095 -0.5100  1.0090
 3789SOL    HW223004   2.932   2.494   3.739 -1.4091  1.0499  0.6715
 3790SOL     OW23005   1.624   3.558   2.481 -0.3586  0.4321  0.3850
 3790SOL    HW123006   1.640   3.579   2.573  2.2814  1.5945 -0.3410
 3790SOL    HW223007   1.710   3.570   2.440 -0.6671  3.9590  0.7692
 3791SOL     OW23008   1.937   1.793  12.891 -0.1379  0.1500 -0.0035
 3791SOL    HW123009   1.852   1.751  12.902  0.0486  0.3921  2.3835
 3791SOL    HW223010   1.910   1.885  12.883  1.4263  0.7545  1.7048
 3792SOL     OW23011   3.245   0.171   2.025 -0.1503 -0.3641 -0.3396
 3792SOL    HW123012   3.233   0.116   1.947  1.1855  0.9085 -1.4494
 3792SOL    HW223013   3.278   0.256   1.996  1.6931 -0.4741  1.4315
 3793SOL     OW23014   0.678   0.802   0.729 -0.3016 -0.0524  0.1443
 3793SOL    HW123015   0.713   0.715   0.710  2.3104  0.8115  0.8597
 3793SOL    HW223016   0.624   0.818   0.652  0.3208 -0.6036 -0.4088
 3794SOL     OW23017   0.264   0.347   3.744 -0.0598 -0.0606  0.1006
 3794SOL    HW123018   0.270   0.259   3.781  2.5521 -0.2120 -0.6401
 3794SOL    HW223019   0.204   0.384   3.809  0.0472  1.5945 -0.7322
 3795SOL     OW23020   3.309   2.156   3.601 -0.6344  0.3621 -0.3213
 3795SOL    HW123021   3.345   2.244   3.590 -1.7123  1.3092  3.8033
 3795SOL    HW223022   3.388   2.107   3.625 -1.6780 -1.3436 -0.3647
 3796SOL     OW23023   2.421   2.447   3.959  0.6244  0.3323 -0.2267
 3796SOL    HW123024   2.476   2.381   3.916  1.5611  1.4299 -0.6889
 3796SOL    HW223025   2.491   2.503   3.992  0.6631  0.5190 -0.6321
 3797SOL     OW23026   2.222   1.648   8.709  0.5383 -0.1364 -0.2869
 3797SOL    HW123027   2.137   1.624   8.673  0.1778  0.9324 -0.1565
 3797SOL    HW223028   2.251   1.566   8.749  2.8764  0.5953 -0.4841
 3798SOL     OW23029   0.865   3.489  13.308  0.0033 -0.0868  0.4044
 3798SOL    HW123030   0.772   3.488  13.332 -0.2003  0.6336 -0.3447
 3798SOL    HW223031   0.896   3.564  13.358  1.3414  0.2892 -1.0102
 3799SOL     OW23032   0.868   1.048  12.291  0.6475 -0.3368 -0.1022
 3799SOL    HW123033   0.774   1.039  12.306  0.6766 -0.0921  0.2134
 3799SOL    HW223034   0.880   1.007  12.205 -2.1308  0.0596 -0.6779
 3800SOL     OW23035   4.080   2.531   2.759 -0.4413 -1.0895 -0.3790
 3800SOL    HW123036   4.079   2.565   2.848  1.5276 -0.6085 -0.5286
 3800SOL    HW223037   3.999   2.481   2.750  0.1421 -2.0478 -0.2931
 3801SOL     OW23038   3.112   1.989  11.848 -0.1372 -0.1006 -0.9437
 3801SOL    HW123039   3.190   1.933  11.851  0.2355  0.5153  1.0764
 3801SOL    HW223040   3.114   2.008  11.754 -1.2449  1.0776 -0.7345
 3802SOL     OW23041   2.447   0.140   1.403 -0.0100 -0.1502 -1.0096
 3802SOL    HW123042   2.373   0.197   1.386  0.3348 -0.3385 -3.1449
 3802SOL    HW223043   2.417   0.058   1.363 -0.9905 -1.2281  1.9101
 3803SOL     OW23044   0.278   0.913   1.645 -0.4668  0.5887  0.6919
 3803SOL    HW123045   0.211   0.877   1.586 -0.5093 -0.9634  1.7111
 3803SOL    HW223046   0.359   0.902   1.595  0.3400  0.0151  2.1291
 3804SOL     OW23047   2.166   4.629  13.434 -0.0294 -0.3423  0.3064
 3804SOL    HW123048   2.167   4.646  13.340  0.7548  2.1060  0.7783
 3804SOL    HW223049   2.073   4.634  13.454 -0.0442 -0.3084  0.2278
 3805SOL     OW23050   0.443   0.195   7.621  0.2223 -0.2837 -0.5157
 3805SOL    HW123051   0.415   0.250   7.695 -1.9351 -0.7577 -0.9727
 3805SOL    HW223052   0.437   0.106   7.656 -0.8431  0.8300  2.1789
 3806SOL     OW23053   2.259   2.741   8.185  0.3982 -0.1687 -0.1484
 3806SOL    HW123054   2.195   2.680   8.222 -0.1409  1.8245  2.2253
 3806SOL    HW223055   2.223   2.750   8.097  0.1079 -2.4177 -0.2687
 3807SOL     OW23056   0.675   4.371  13.187 -0.0610 -0.1494  0.2636
 3807SOL    HW123057   0.650   4.417  13.267  3.0333  0.6325  0.7858
 3807SOL    HW223058   0.628   4.425  13.124  1.5927  0.0985 -0.7380
 3808SOL     OW23059   4.108   1.921   2.718  0.3915 -0.2220  0.0056
 3808SOL    HW123060   4.107   1.864   2.795  3.3022 -0.2979 -0.0127
 3808SOL    HW223061   4.041   1.883   2.662  0.9420 -2.2702  0.7388
 3809SOL     OW23062   2.327   3.364   5.184  0.0153  0.0551  0.0071
 3809SOL    HW123063   2.238   3.396   5.167 -0.4789 -0.6126  1.3453
 3809SOL    HW223064   2.312   3.331   5.272  0.5773  0.1462  0.1385
 3810SOL     OW23065   2.196   2.393  16.519 -0.2016  0.2289 -0.7012
 3810SOL    HW123066   2.242   2.326  16.468 -1.4312 -0.0256 -1.4635
 3810SOL    HW223067   2.111   2.382  16.476 -0.4041 -1.8297  0.2398
 3811SOL     OW23068   1.009   3.823   9.655  1.0431  0.8909  0.2184
 3811SOL    HW123069   1.006   3.728   9.662  0.2712  0.8486 -0.7264
 3811SOL    HW223070   1.050   3.841   9.740 -1.0565 -0.2606  1.4622
 3812SOL     OW23071   0.091   1.042  13.837  0.3312 -0.4974 -0.7606
 3812SOL    HW123072   0.161   1.027  13.773  2.8255  0.7233  1.6800
 3812SOL    HW223073   0.076   0.954  13.870  0.1253 -0.1484  0.0795
 3813SOL     OW23074   0.054   1.281  16.488  0.3725 -0.3792  0.0856
 3813SOL    HW123075   0.101   1.220  16.545  1.8970  2.0084  1.3604
 3813SOL    HW223076   4.712   1.230  16.477 -1.8591  2.9522  1.1550
 3814SOL     OW23077   3.440   2.663   4.549 -0.3544  0.3036 -0.2371
 3814SOL    HW123078   3.482   2.713   4.619 -2.4478  0.2202  1.0942
 3814SOL    HW223079   3.501   2.592   4.530 -2.1807 -1.5863  0.9324
 3815SOL     OW23080   4.086   0.429   5.918 -0.3068  0.0034 -0.7341
 3815SOL    HW123081   4.077   0.336   5.897  3.0037 -0.5755  0.4041
 3815SOL    HW223082   4.072   0.421   6.013  0.8997 -2.9317 -0.7932
 3816SOL     OW23083   4.218   2.614  15.640  0.1125 -0.0618  0.0206
 3816SOL    HW123084   4.299   2.628  15.687 -0.3181  0.6603  0.5406
 3816SOL    HW223085   4.187   2.704  15.631  0.9527 -0.1095 -3.5180
 3817SOL     OW23086   3.213   0.673   5.987  0.3075 -0.4353 -0.5704
 3817SOL    HW123087   3.208   0.587   5.946  0.0845 -1.1506  0.9509
 3817SOL    HW223088   3.275   0.715   5.928  2.3275 -0.9116  1.1864
 3818SOL     OW23089   2.280   0.403  17.598  0.3684  0.0559  0.0469
 3818SOL    HW123090   2.348   0.433  17.659  0.0460  0.0184  0.4175
 3818SOL    HW223091   2.239   0.326  17.638  2.4827 -1.0119  0.1945
 3819SOL     OW23092   4.350   0.800   4.327 -0.1923 -0.2228  0.0993
 3819SOL    HW123093   4.335   0.709   4.300  3.8228 -0.7196 -0.5685
 3819SOL    HW223094   4.439   0.817   4.294  0.0561 -0.7160  0.5094
 3820SOL     OW23095   0.480   2.264   1.585 -0.0498  0.4446  0.4979
 3820SOL    HW123096   0.562   2.240   1.541 -0.5438  0.1488 -0.2674
 3820SOL    HW223097   0.489   2.359   1.584 -0.1611  0.4564  0.7703
 3821SOL     OW23098   0.262   2.012  11.048  0.1182 -0.5790 -0.3704
 3821SOL    HW123099   0.202   2.083  11.025  1.1839  0.7174  0.8530
 3821SOL    HW223100   0.235   1.941  10.991 -2.2624  0.0718 -0.0633
 3822SOL     OW23101   4.418   0.869  10.504  0.1432  0.1258 -0.5727
 3822SOL    HW123102   4.509   0.845  10.485  0.1883  0.9202 -1.3519
 3822SOL    HW223103   4.419   0.956  10.545  1.5506 -0.1251 -0.0835
 3823SOL     OW23104   4.547   4.639   6.139  0.1199 -0.0016  0.1412
 3823SOL    HW123105   4.517   4.693   6.066  1.8411 -0.7109 -1.1141
 3823SOL    HW223106   4.593   4.572   6.088 -0.7145 -1.0691  0.7999
 3824SOL     OW23107   3.383   0.325   5.610 -0.5306 -0.1105  0.3998
 3824SOL    HW123108   3.457   0.362   5.562 -1.4408 -0.0272 -0.9422
 3824SOL    HW223109   3.312   0.387   5.592  2.0602  2.9655  0.8039
 3825SOL     OW23110   3.628   0.352   7.901  0.4883  0.0238  0.1941
 3825SOL    HW123111   3.685   0.335   7.826 -0.1300  2.2785 -0.7979
 3825SOL    HW223112   3.620   0.447   7.888  3.6619  0.4655  1.3239
 3826SOL     OW23113   0.686   3.777   5.813  0.4899  0.5273 -0.3891
 3826SOL    HW123114   0.750   3.845   5.797 -1.4498  2.7505  1.2645
 3826SOL    HW223115   0.727   3.708   5.761  0.5246 -0.3650  0.7997
 3827SOL     OW23116   4.706   2.457   7.547 -0.2501 -0.2411 -0.1471
 3827SOL    HW123117   0.057   2.463   7.577 -0.6398 -2.2728  1.3934
 3827SOL    HW223118   4.660   2.470   7.630  1.5788  0.5235  0.7351
 3828SOL     OW23119   4.460   0.986   9.176 -0.3278 -0.5812 -0.5120
 3828SOL    HW123120   4.498   1.068   9.207 -0.7980 -0.2261 -0.8723
 3828SOL    HW223121   4.404   1.022   9.107 -0.3842 -0.7513 -0.5536
 3829SOL     OW23122   2.888   2.737  10.140  0.3611 -0.2110 -0.1646
 3829SOL    HW123123   2.974   2.765  10.172  0.6060 -0.6145 -0.4806
 3829SOL    HW223124   2.885   2.802  10.070 -1.7956 -0.8020 -0.6104
 3830SOL     OW23125   4.059   2.463   8.299 -0.1647 -0.3249  0.1014
 3830SOL    HW123126   3.997   2.478   8.370 -1.4822  0.2872 -1.1709
 3830SOL    HW223127   4.070   2.555   8.276  0.2954  0.2612  2.6831
 3831SOL     OW23128   3.825   3.351  11.131  0.2329 -0.1464  0.2563
 3831SOL    HW123129   3.747   3.324  11.082  0.4923 -2.3748  1.0484
 3831SOL    HW223130   3.890   3.288  11.101 -0.2145 -0.5915  0.2115
 3832SOL     OW23131   1.351   1.213   6.794  0.5140 -0.3036 -0.3302
 3832SOL    HW123132   1.389   1.221   6.882  2.3212 -1.9081 -0.9720
 3832SOL    HW223133   1.267   1.259   6.796  0.5585 -0.2514  0.5317
 3833SOL     OW23134   3.597   1.956   1.327  0.4277  0.7445 -0.2467
 3833SOL    HW123135   3.680   1.909   1.338  0.1570  0.1439 -0.7694
 3833SOL    HW223136   3.621   2.039   1.368  2.7318  0.4405 -0.9312
 3834SOL     OW23137   2.421   2.851   7.703  0.2683 -0.1462  0.7062
 3834SOL    HW123138   2.356   2.903   7.655  1.4089  0.9707  0.3903
 3834SOL    HW223139   2.407   2.765   7.662 -0.2756 -0.1691  0.9394
 3835SOL     OW23140   2.714   2.983   2.416  0.2953  0.2784 -0.0910
 3835SOL    HW123141   2.687   2.973   2.507 -0.0800 -1.7335 -0.4327
 3835SOL    HW223142   2.723   3.078   2.422 -0.7733  0.4080 -0.7065
 3836SOL     OW23143   0.668   3.857   8.637 -0.1435  0.2028  0.1980
 3836SOL    HW123144   0.720   3.862   8.556  1.4433  0.0000  1.2111
 3836SOL    HW223145   0.619   3.939   8.649  1.6091  1.2879 -0.0299
 3837SOL     OW23146   1.671   1.202   3.269 -0.5482  0.5752  0.2830
 3837SOL    HW123147   1.689   1.221   3.177 -2.1098 -1.8384 -0.5345
 3837SOL    HW223148   1.579   1.229   3.264 -0.5452  0.6347  0.5489
 3838SOL     OW23149   2.432   2.810  12.294  0.5754  0.3249  0.1817
 3838SOL    HW123150   2.432   2.864  12.373 -0.0376  0.5700  0.0167
 3838SOL    HW223151   2.507   2.751  12.298  0.3261 -0.2144 -3.6363
 3839SOL     OW23152   0.990   2.445   3.833 -0.2530  0.1883  0.3655
 3839SOL    HW123153   0.934   2.399   3.771  1.1745  0.4790 -1.1406
 3839SOL    HW223154   1.029   2.507   3.771  0.6416 -0.5956  0.1615
 3840SOL     OW23155   4.712   3.521   4.020  0.0341  0.4396  0.6850
 3840SOL    HW123156   4.620   3.534   3.998  0.2660 -1.3124 -1.3772
 3840SOL    HW223157   4.703   3.550   4.110  0.7594  0.5907  0.7141
 3841SOL     OW23158   0.804   2.840  13.193 -0.3165  0.3936  0.5262
 3841SOL    HW123159   0.719   2.812  13.161  0.4061 -0.2847 -0.7849
 3841SOL    HW223160   0.832   2.893  13.119 -1.9913 -1.8996 -1.7306
 3842SOL     OW23161   3.503   0.096   5.475  0.4588 -0.2155  0.0280
 3842SOL    HW123162   3.583   0.130   5.516  0.2622 -1.5763  1.5649
 3842SOL    HW223163   3.439   0.114   5.544 -0.2883  1.0893 -1.0025
 3843SOL     OW23164   0.467   1.361   7.787 -0.1008  0.5660  0.0388
 3843SOL    HW123165   0.421   1.370   7.703  1.1203 -0.5337 -0.7628
 3843SOL    HW223166   0.479   1.450   7.820 -1.2358  0.6885  0.1181
 3844SOL     OW23167   0.043   2.273   3.953 -0.3274 -0.3416  0.1020
 3844SOL    HW123168   0.064   2.351   3.902  1.6089 -1.0468 -0.1878
 3844SOL    HW223169   0.134   2.242   3.958 -1.1260 -2.8149 -0.7571
 3845SOL     OW23170   0.553   0.863   1.484  0.5043 -0.7344  0.5513
 3845SOL    HW123171   0.635   0.816   1.499  1.2298  0.2645 -0.2647
 3845SOL    HW223172   0.580   0.938   1.432  0.0529  0.0237  1.4051
 3846SOL     OW23173   4.283   4.468   2.040 -0.3330 -0.4060  0.5063
 3846SOL    HW123174   4.199   4.514   2.047  0.2773  0.6276  1.1125
 3846SOL    HW223175   4.350   4.510   2.095  1.1574 -2.4799  0.2772
 3847SOL     OW23176   0.319   2.200   1.808  0.1893  0.2811 -0.7540
 3847SOL    HW123177   0.308   2.281   1.858 -0.7311  0.4846 -1.2873
 3847SOL    HW223178   0.359   2.246   1.734  1.0102  0.3976 -0.2469
 3848SOL     OW23179   3.533   2.486   0.936 -0.2758 -0.0071  0.2138
 3848SOL    HW123180   3.545   2.392   0.924  0.9892  0.8442 -5.0784
 3848SOL    HW223181   3.531   2.485   1.032  0.8482 -0.2935  0.2355
 3849SOL     OW23182   2.979   2.414  16.314 -0.2493 -0.3049 -0.3903
 3849SOL    HW123183   2.949   2.392  16.226 -0.5569 -0.1989 -0.3139
 3849SOL    HW223184   2.901   2.445  16.360  1.4171  1.4405  1.2894
 3850SOL     OW23185   2.156   1.238  10.301 -0.0229 -0.2560  0.7223
 3850SOL    HW123186   2.200   1.321  10.280  0.6046 -0.5342  0.9135
 3850SOL    HW223187   2.109   1.265  10.380  1.0117 -1.0926  1.6197
 3851SOL     OW23188   4.346   1.518  12.487  0.4156  0.1996 -0.3660
 3851SOL    HW123189   4.376   1.607  12.469  1.2311 -0.4144 -1.9824
 3851SOL    HW223190   4.402   1.497  12.562 -0.2722  2.1020  0.7002
 3852SOL     OW23191   3.513   2.578   6.750  0.0173 -0.0824 -0.5639
 3852SOL    HW123192   3.436   2.612   6.703 -2.5784 -2.1161  2.1825
 3852SOL    HW223193   3.585   2.618   6.701 -0.9859 -0.2394 -2.1736
 3853SOL     OW23194   3.218   3.523  14.368 -0.3286 -0.0139 -0.0935
 3853SOL    HW123195   3.234   3.465  14.294 -0.5697 -0.5109  0.2453
 3853SOL    HW223196   3.206   3.445  14.423 -1.2847 -0.4311 -0.8792
 3854SOL     OW23197   3.724   4.620   0.839  0.3998  0.4828 -0.1132
 3854SOL    HW123198   3.676   4.702   0.849  1.7611  1.3829 -1.0065
 3854SOL    HW223199   3.668   4.580   0.772  1.7877 -0.2362 -0.8570
 3855SOL     OW23200   0.950   0.339   8.672  0.6395  0.0774 -0.2971
 3855SOL    HW123201   0.904   0.371   8.595 -1.1736  0.6766  1.0269
 3855SOL    HW223202   1.035   0.307   8.640  0.2547 -2.4959  1.2194
 3856SOL     OW23203   1.629   0.480  13.633  0.2799 -0.4973  0.2123
 3856SOL    HW123204   1.585   0.523  13.706 -0.4196  1.1194 -1.1391
 3856SOL    HW223205   1.549   0.436  13.603  0.2977 -1.5153  1.6814
 3857SOL     OW23206   4.065   4.508   0.130 -0.4572 -0.7931  0.1264
 3857SOL    HW123207   4.047   4.563   0.206  1.4349  0.5710 -0.4265
 3857SOL    HW223208   4.098   4.568   0.063 -0.5108  1.2525  1.9371
 3858SOL     OW23209   3.239   4.115   6.145 -0.2710 -0.2898 -0.1999
 3858SOL    HW123210   3.177   4.065   6.197  0.1237 -1.3733 -0.7483
 3858SOL    HW223211   3.235   4.202   6.184 -0.1721 -1.2559  1.9307
 3859SOL     OW23212   0.702   3.427  11.427  0.4564  0.0512  0.3420
 3859SOL    HW123213   0.627   3.402  11.482 -0.0064  1.9397  0.5629
 3859SOL    HW223214   0.767   3.436  11.497 -0.4263  1.8997  0.9216
 3860SOL     OW23215   2.719   2.346   8.260  0.3200 -0.3680  0.3180
 3860SOL    HW123216   2.674   2.356   8.344 -1.3147 -2.3424 -0.3231
 3860SOL    HW223217   2.800   2.398   8.264  0.7563 -1.1959  2.4260
 3861SOL     OW23218   2.798   3.117  12.498  0.1099 -0.0802  0.4805
 3861SOL    HW123219   2.739   3.050  12.532  0.2042  0.2173  1.2151
 3861SOL    HW223220   2.819   3.171  12.574  0.5908  0.0887  0.2305
 3862SOL     OW23221   0.862   4.694   5.129  0.1548  0.1191  0.3896
 3862SOL    HW123222   0.780   4.670   5.173 -0.9570 -0.5145 -1.9944
 3862SOL    HW223223   0.838   0.037   5.087  0.7624 -0.4053 -1.0041
 3863SOL     OW23224   1.193   0.090  14.092  0.4325 -0.0450  0.3718
 3863SOL    HW123225   1.263   0.145  14.126 -1.0987  1.8768  0.4292
 3863SOL    HW223226   1.123   0.156  14.095  2.0130  1.6235  0.7757
 3864SOL     OW23227   4.685   3.007   9.499  0.0238 -0.5353  0.3598
 3864SOL    HW123228   4.659   2.915   9.494  0.9615 -0.7413 -0.9676
 3864SOL    HW223229   4.648   3.038   9.416  0.0412 -0.0658  0.5316
 3865SOL     OW23230   4.577   0.421   7.247 -0.1862  0.5202  0.2319
 3865SOL    HW123231   4.639   0.423   7.320 -0.5324  4.8327  0.3903
 3865SOL    HW223232   4.594   0.337   7.204 -0.2061 -0.0036  1.2528
 3866SOL     OW23233   1.887   0.564   5.336 -0.4120  0.0786  0.2211
 3866SOL    HW123234   1.874   0.649   5.293  1.4796  0.1980 -0.1040
 3866SOL    HW223235   1.805   0.523   5.311 -1.5406  2.4156  0.0934
 3867SOL     OW23236   0.587   3.044  15.234 -0.3484 -0.1834 -0.0220
 3867SOL    HW123237   0.576   3.135  15.262 -1.4226 -0.0480 -0.8665
 3867SOL    HW223238   0.677   3.044  15.199 -0.0617  3.0071  0.6914
 3868SOL     OW23239   0.993   0.878   1.007  0.0056 -0.2412  0.8073
 3868SOL    HW123240   0.930   0.808   1.021 -1.1993  0.9093  1.2264
 3868SOL    HW223241   1.077   0.835   1.024 -1.4078 -2.6279  1.6273
 3869SOL     OW23242   3.983   1.443   2.750  0.5974 -0.1626 -0.0811
 3869SOL    HW123243   3.934   1.506   2.802 -2.1543 -1.5003 -1.0369
 3869SOL    HW223244   4.018   1.396   2.826  0.8330  0.3039  0.1002
 3870SOL     OW23245   2.397   1.441  15.336 -0.4712 -0.3567  0.5685
 3870SOL    HW123246   2.450   1.442  15.256  0.1632  1.7620  1.0267
 3870SOL    HW223247   2.462   1.487  15.390  0.2650 -2.2734  1.3195
 3871SOL     OW23248   4.040   1.774   5.024 -0.1079  0.8431 -0.1197
 3871SOL    HW123249   4.019   1.851   5.076  2.2358 -0.0130  2.1255
 3871SOL    HW223250   4.092   1.828   4.964 -2.1475  1.1253 -1.6206
 3872SOL     OW23251   1.218   2.087   8.004 -0.2771 -0.1914  0.2319
 3872SOL    HW123252   1.272   2.162   8.033  0.7529 -0.5171 -0.8449
 3872SOL    HW223253   1.290   2.025   8.017 -0.0359 -0.4841 -2.5844
 3873SOL     OW23254   1.836   3.132  14.696 -0.5393  0.4349  0.4249
 3873SOL    HW123255   1.807   3.221  14.719 -0.8092  0.1592  1.1728
 3873SOL    HW223256   1.757   3.080  14.708 -1.1413  1.3800  0.6238
 3874SOL     OW23257   4.349   3.668   9.197 -0.3509 -0.0456 -0.0005
 3874SOL    HW123258   4.256   3.683   9.213 -0.3985  0.8357 -1.0964
 3874SOL    HW223259   4.389   3.655   9.283 -0.8595  2.2805  0.5881
 3875SOL     OW23260   3.328   3.895   3.020 -0.1468  0.0434 -0.0576
 3875SOL    HW123261   3.389   3.917   3.091  0.0793 -0.0937 -0.2114
 3875SOL    HW223262   3.255   3.942   3.061 -1.8855 -0.5438 -2.5204
 3876SOL     OW23263   2.563   1.392   5.208  0.6781  0.0995  0.6594
 3876SOL    HW123264   2.607   1.308   5.193  0.0319  0.1698 -1.5600
 3876SOL    HW223265   2.564   1.386   5.304  0.1356 -1.9215  0.5371
 3877SOL     OW23266   1.011   4.321   2.559  0.2927  0.1083  0.3103
 3877SOL    HW123267   1.091   4.300   2.510 -0.0747 -1.3912  0.3505
 3877SOL    HW223268   1.038   4.395   2.612 -0.4682  1.7026 -1.5248
 3878SOL     OW23269   0.020   4.341   0.639 -0.1742  0.1607 -0.1645
 3878SOL    HW123270   0.032   4.257   0.683  0.5784  0.4978  0.2875
 3878SOL    HW223271   4.729   4.325   0.550 -1.0324  0.8885 -0.0040
 3879SOL     OW23272   2.288   2.811   2.999 -0.4033 -0.0301  0.4181
 3879SOL    HW123273   2.332   2.857   2.927 -0.5432 -1.9794 -0.9072
 3879SOL    HW223274   2.198   2.811   2.969 -0.4160  1.0850  0.4708
 3880SOL     OW23275   3.615   1.496   1.850 -0.4394  0.0314 -0.3364
 3880SOL    HW123276   3.681   1.432   1.825 -2.2976 -1.3616 -1.6212
 3880SOL    HW223277   3.656   1.573   1.810  1.0984 -1.2880 -1.2821
 3881SOL     OW23278   0.648   1.368   5.191  0.1340 -0.7123 -0.4772
 3881SOL    HW123279   0.675   1.407   5.274 -1.0095  1.7196 -1.2707
 3881SOL    HW223280   0.664   1.275   5.207  0.4985 -0.4239  0.8201
 3882SOL     OW23281   1.226   4.073  12.045  0.1220 -0.4638 -0.3638
 3882SOL    HW123282   1.270   4.137  12.101  1.3770  0.0115 -1.9168
 3882SOL    HW223283   1.249   4.110  11.961  0.4811 -2.5826 -1.1930
 3883SOL     OW23284   0.430   4.439  17.598 -0.0337  0.3785  0.2201
 3883SOL    HW123285   0.520   4.455  17.569 -0.6956  1.2627 -1.4028
 3883SOL    HW223286   0.438   4.434  17.693 -0.7648 -0.8607  0.2096
 3884SOL     OW23287   0.025   1.239   3.968  0.5019  0.3570 -0.2317
 3884SOL    HW123288   0.051   1.276   3.884 -0.2106  0.7973 -0.2552
 3884SOL    HW223289   4.725   1.157   3.939 -0.6990  0.9864 -0.3734
 3885SOL     OW23290   1.720   0.028   1.961 -0.3880  0.3309 -0.2765
 3885SOL    HW123291   1.712   0.120   1.936 -0.6907  0.8770  1.8148
 3885SOL    HW223292   1.712   0.040   2.056 -2.3529 -2.4911 -0.1089
 3886SOL     OW23293   2.726   2.823   3.273  0.2698  0.3668  0.6268
 3886SOL    HW123294   2.640   2.783   3.254  0.7729 -0.0349 -0.8428
 3886SOL    HW223295   2.726   2.799   3.365  0.6635  0.1998  0.5837
 3887SOL     OW23296   4.097   0.081  13.147 -0.5154 -0.2714  0.7496
 3887SOL    HW123297   4.144   0.013  13.196  0.0137  0.9313  1.8971
 3887SOL    HW223298   4.170   0.107  13.091 -1.5049 -1.0906 -0.9149
 3888SOL     OW23299   0.516   3.521  10.550 -0.7671 -0.3288 -0.0677
 3888SOL    HW123300   0.499   3.500  10.458  1.4256 -0.8032 -0.3615
 3888SOL    HW223301   0.514   3.617  10.549  1.0584 -0.2805  0.5327
 3889SOL     OW23302   0.547   3.643  16.004 -0.1846 -0.2533  0.5287
 3889SOL    HW123303   0.564   3.701  16.078  1.1758  2.0100 -1.5487
 3889SOL    HW223304   0.459   3.609  16.016 -0.5851  1.0840  1.4431
 3890SOL     OW23305   0.903   3.723  13.697 -0.4741  0.1343 -0.3874
 3890SOL    HW123306   0.998   3.720  13.712 -0.5937  1.4711  0.6016
 3890SOL    HW223307   0.880   3.631  13.709  1.0534 -0.2351 -0.2304
 3891SOL     OW23308   0.930   1.040   8.529 -0.0350 -0.5502 -0.1412
 3891SOL    HW123309   1.003   0.992   8.489 -0.2050 -2.2670  1.5865
 3891SOL    HW223310   0.984   1.112   8.562 -0.5141  0.7168 -2.1630
 3892SOL     OW23311   1.226   1.383   2.915  0.5513  0.5913  0.6114
 3892SOL    HW123312   1.138   1.376   2.952  0.5279  0.6795  0.5723
 3892SOL    HW223313   1.230   1.297   2.872  1.0396  1.6710 -1.5284
 3893SOL     OW23314   1.583   2.959  10.799  0.2392 -0.2884  0.1793
 3893SOL    HW123315   1.640   3.027  10.834 -2.1133  1.5390  0.4644
 3893SOL    HW223316   1.601   2.883  10.854 -0.3068 -2.3059 -2.4165
 3894SOL     OW23317   3.595   2.426   4.486 -0.2820 -0.5786  0.5717
 3894SOL    HW123318   3.559   2.404   4.400 -0.2364  0.0286  0.3954
 3894SOL    HW223319   3.650   2.348   4.492 -1.7274 -1.5500  1.0871
 3895SOL     OW23320   3.497   0.581   8.333  0.2060  0.0640  0.1472
 3895SOL    HW123321   3.536   0.641   8.270 -0.5042 -0.5968 -0.9133
 3895SOL    HW223322   3.481   0.636   8.410 -1.8726  1.0038 -0.9595
 3896SOL     OW23323   3.143   2.235  15.201 -0.0030  0.4303  0.2173
 3896SOL    HW123324   3.119   2.249  15.110  1.8443  2.0498 -0.0001
 3896SOL    HW223325   3.218   2.293  15.214 -0.2629  0.5748  1.0607
 3897SOL     OW23326   4.230   2.881   9.175 -0.3229 -0.3183  0.0584
 3897SOL    HW123327   4.182   2.828   9.111 -1.4668  1.3330 -0.4560
 3897SOL    HW223328   4.172   2.875   9.250 -0.5072  0.9209  0.0175
 3898SOL     OW23329   3.809   2.837  11.416  0.4591  0.0564  0.1436
 3898SOL    HW123330   3.812   2.892  11.495  0.8345  1.6672 -0.9945
 3898SOL    HW223331   3.759   2.894  11.357  1.3359  1.0588  0.3657
 3899SOL     OW23332   3.205   0.864  16.299 -0.2225  0.2679  0.0401
 3899SOL    HW123333   3.218   0.913  16.218 -4.0844  1.4506  0.1597
 3899SOL    HW223334   3.191   0.943  16.351 -2.3518  1.2549 -2.0384
 3900SOL     OW23335   1.803   2.110   6.533  0.7389  0.6274  0.2450
 3900SOL    HW123336   1.843   2.138   6.451 -1.2508  1.5701 -0.3940
 3900SOL    HW223337   1.827   2.017   6.541  2.5494  1.2566  2.1721
 3901SOL     OW23338   0.992   2.215   6.110  0.1082  0.0085 -0.4100
 3901SOL    HW123339   1.063   2.226   6.174  0.9517  0.8254 -1.4952
 3901SOL    HW223340   1.050   2.197   6.037 -0.4349 -0.8344 -0.6236
 3902SOL     OW23341   0.850   2.111   5.905 -0.5125  0.5789 -0.5247
 3902SOL    HW123342   0.766   2.155   5.893  0.0064  1.9426  0.8372
 3902SOL    HW223343   0.879   2.142   5.991 -1.4782 -3.3062  1.2265
 3903SOL     OW23344   2.376   3.464  11.345 -0.7489  0.2574 -0.0272
 3903SOL    HW123345   2.308   3.524  11.313  0.5632  0.1230 -3.0776
 3903SOL    HW223346   2.408   3.430  11.261  0.6801  0.3231  0.4968
 3904SOL     OW23347   1.190   3.513   7.537 -0.2920 -0.3088 -0.1139
 3904SOL    HW123348   1.112   3.552   7.577 -1.2980 -1.9030 -0.5404
 3904SOL    HW223349   1.259   3.577   7.523 -1.4970  0.3914 -2.8129
 3905SOL     OW23350   4.276   0.827  16.787 -0.0556  0.8662  0.5349
 3905SOL    HW123351   4.209   0.813  16.720  1.6713 -1.8653 -0.6205
 3905SOL    HW223352   4.224   0.869  16.855  1.4784 -1.2831  3.0159
 3906SOL     OW23353   0.903   1.698  14.050 -0.2624  0.2653  0.1861
 3906SOL    HW123354   0.941   1.681  14.136  0.3670  0.8396  0.0192
 3906SOL    HW223355   0.846   1.621  14.052  0.9757 -0.7159 -1.3138
 3907SOL     OW23356   1.845   3.552   9.609 -0.0017  0.0286  0.2127
 3907SOL    HW123357   1.835   3.632   9.661  1.0610 -0.6012  1.3891
 3907SOL    HW223358   1.801   3.577   9.528 -0.9849  1.0108  1.0534
 3908SOL     OW23359   2.372   3.885   7.740 -0.1690  0.8839 -0.1152
 3908SOL    HW123360   2.374   3.933   7.658  0.8597 -0.1445 -0.6886
 3908SOL    HW223361   2.330   3.805   7.708  0.2897  0.7196 -0.3068
 3909SOL     OW23362   0.932   1.563   6.843  0.4206 -0.0741 -0.5964
 3909SOL    HW123363   0.891   1.639   6.886 -0.6519 -1.9858  1.7989
 3909SOL    HW223364   0.896   1.561   6.755  1.1838 -2.7821 -0.8204
 3910SOL     OW23365   4.043   2.361   4.076  0.1833 -0.4695 -0.7010
 3910SOL    HW123366   4.010   2.332   3.991  0.4405  2.0249 -1.6472
 3910SOL    HW223367   4.003   2.448   4.073 -1.5499 -1.1962  1.3400
 3911SOL     OW23368   1.334   3.024   4.328  0.2111 -0.5188 -0.7317
 3911SOL    HW123369   1.344   3.083   4.253 -0.0938 -0.5922 -0.8267
 3911SOL    HW223370   1.240   3.008   4.322 -0.0224  0.4546  0.4193
 3912SOL     OW23371   2.963   2.236   5.096 -0.1262 -0.0814  0.3078
 3912SOL    HW123372   2.876   2.261   5.126 -0.6845  0.9488 -2.1647
 3912SOL    HW223373   2.945   2.143   5.082  0.6951 -0.3378  0.9259
 3913SOL     OW23374   1.693   1.950  12.614  0.3158 -0.3371  0.2002
 3913SOL    HW123375   1.714   1.974  12.704  2.7884 -0.5257 -0.3258
 3913SOL    HW223376   1.748   1.873  12.602  2.2104  1.0925 -0.1493
 3914SOL     OW23377   0.965   2.630  13.316 -0.5371 -0.0468  0.1049
 3914SOL    HW123378   0.917   2.699  13.271  1.2128  1.2950  0.3059
 3914SOL    HW223379   0.896   2.576  13.354 -1.3762  1.0181  0.0975
 3915SOL     OW23380   3.139   2.049   5.838 -0.4185  0.3731  0.1063
 3915SOL    HW123381   3.060   2.059   5.785 -1.1885 -0.2492  1.1548
 3915SOL    HW223382   3.135   1.959   5.871  0.2889 -0.4127 -1.8905
 3916SOL     OW23383   3.326   3.919   9.234  0.2318  0.3410 -0.6122
 3916SOL    HW123384   3.398   3.979   9.215  0.9527 -1.2756 -3.0270
 3916SOL    HW223385   3.375   3.844   9.270 -1.3118 -0.1445  0.5091
 3917SOL     OW23386   2.181   3.697   5.171 -0.0313 -0.3234 -0.3729
 3917SOL    HW123387   2.133   3.625   5.211  1.2358 -0.6461  0.5686
 3917SOL    HW223388   2.135   3.708   5.087  0.3215  1.4226 -0.3454
 3918SOL     OW23389   3.511   3.465   4.940 -0.1290  0.0123 -0.2602
 3918SOL    HW123390   3.602   3.442   4.962  0.2176  0.6475 -1.0176
 3918SOL    HW223391   3.474   3.456   5.028 -0.4141 -0.5528 -0.4365
 3919SOL     OW23392   3.546   3.133   2.667 -0.2273  0.4071  0.3224
 3919SOL    HW123393   3.567   3.195   2.598  1.3704  1.3773  1.6738
 3919SOL    HW223394   3.625   3.135   2.722  2.0677  0.4710 -3.0211
 3920SOL     OW23395   3.186   1.047   4.576 -0.1189 -0.0023 -0.0263
 3920SOL    HW123396   3.223   1.120   4.527  0.9847  0.4704  1.5134
 3920SOL    HW223397   3.251   1.031   4.644  0.3283  1.6205 -0.0716
 3921SOL     OW23398   1.051   3.636   2.779 -0.0099  0.0842 -0.1657
 3921SOL    HW123399   1.033   3.727   2.802  0.6342 -0.1272  1.1770
 3921SOL    HW223400   1.051   3.594   2.865 -1.1622 -3.8165 -2.0806
 3922SOL     OW23401   3.100   4.078   1.853 -0.0605 -0.8766  0.6508
 3922SOL    HW123402   3.115   4.172   1.843 -1.0917 -0.8347 -0.4780
 3922SOL    HW223403   3.125   4.064   1.944 -0.2289  2.4851  1.2182
 3923SOL     OW23404   1.555   3.461  10.139  0.5238 -0.2964 -0.6245
 3923SOL    HW123405   1.575   3.384  10.086  1.5730  0.3203 -1.1261
 3923SOL    HW223406   1.570   3.432  10.229 -1.2202  1.2683  0.1644
 3924SOL     OW23407   0.877   3.900   7.045  0.2577 -0.3255  0.2734
 3924SOL    HW123408   0.937   3.870   6.976 -2.5889 -0.6413 -2.0724
 3924SOL    HW223409   0.828   3.964   6.993  0.4487 -0.4446 -0.0519
 3925SOL     OW23410   3.045   2.255   3.577  0.4677 -0.2188  0.2384
 3925SOL    HW123411   3.123   2.199   3.580 -0.6797 -1.8914 -1.1994
 3925SOL    HW223412   3.086   2.339   3.556 -1.0532  0.0229 -1.7663
 3926SOL     OW23413   3.843   4.413   5.517  0.1667 -0.2099  0.5069
 3926SOL    HW123414   3.854   4.506   5.535  1.7730 -0.3715  0.4090
 3926SOL    HW223415   3.900   4.400   5.440 -1.5664 -1.8855 -0.5001
 3927SOL     OW23416   2.312   1.699   3.126  0.0935  0.0658  0.8070
 3927SOL    HW123417   2.296   1.612   3.089  0.6276  1.5569 -2.8256
 3927SOL    HW223418   2.301   1.680   3.220  0.5535  0.4503  0.9373
 3928SOL     OW23419   2.785   2.358   7.406 -0.1145 -0.0848 -0.2615
 3928SOL    HW123420   2.764   2.301   7.332 -0.1943 -0.0612 -0.2572
 3928SOL    HW223421   2.874   2.327   7.423 -0.4345 -1.1687 -0.5034
 3929SOL     OW23422   4.461   0.252   3.639 -1.0100  0.0539 -0.3636
 3929SOL    HW123423   4.433   0.343   3.639  1.3097  0.7606  0.2239
 3929SOL    HW223424   4.553   0.262   3.616 -1.0583  0.3815 -0.4121
 3930SOL     OW23425   3.087   1.985   3.840 -0.2513  0.0504 -0.3254
 3930SOL    HW123426   3.139   2.005   3.918  0.6949  1.8850 -1.4162
 3930SOL    HW223427   3.084   1.890   3.848 -0.5354  0.0342 -0.6254
 3931SOL     OW23428   3.208   4.266   7.034  0.6553 -0.4150  0.5555
 3931SOL    HW123429   3.178   4.336   7.091 -3.0707  1.1885 -3.3132
 3931SOL    HW223430   3.249   4.319   6.964  0.2925  0.6006  1.1173
 3932SOL     OW23431   1.579   3.853   4.704 -0.3152 -0.3063  0.3540
 3932SOL    HW123432   1.559   3.946   4.718  0.6310  0.1451 -1.2323
 3932SOL    HW223433   1.567   3.852   4.609 -0.6975  0.9807  0.3847
 3933SOL     OW23434   1.392   0.631   7.641 -0.2701 -0.4695 -0.1268
 3933SOL    HW123435   1.413   0.548   7.599 -1.0449 -0.1303 -1.1640
 3933SOL    HW223436   1.299   0.627   7.621 -1.0408 -2.3688  3.8464
 3934SOL     OW23437   2.037   0.050   2.982  0.0363  0.2506  0.0613
 3934SOL    HW123438   2.050   0.104   3.060 -1.0777  1.0858 -0.3436
 3934SOL    HW223439   2.079   0.108   2.919 -1.7247  3.1274  1.5395
 3935SOL     OW23440   1.269   0.443   3.725  0.4922 -1.1557 -0.4631
 3935SOL    HW123441   1.293   0.531   3.697  0.5866 -0.8957  0.4390
 3935SOL    HW223442   1.229   0.409   3.645  0.9092  0.9392 -1.5672
 3936SOL     OW23443   1.170   0.031   6.040  0.1504  0.4933  0.0174
 3936SOL    HW123444   1.210   4.724   5.966 -1.5056 -1.9715  0.6771
 3936SOL    HW223445   1.250   0.083   6.047 -0.1161  0.8316  0.5469
 3937SOL     OW23446   3.425   3.860   8.257 -0.0197  0.2202  0.2668
 3937SOL    HW123447   3.483   3.799   8.212 -0.2456 -0.3710  0.7808
 3937SOL    HW223448   3.445   3.841   8.348 -3.0223  0.6531  1.0400
 3938SOL     OW23449   2.645   2.358   7.632 -0.1495 -0.0926 -0.0989
 3938SOL    HW123450   2.597   2.276   7.645 -2.0348  1.2304  1.2415
 3938SOL    HW223451   2.680   2.336   7.546 -0.4256  2.4942 -0.8519
 3939SOL     OW23452   2.302   1.972   4.936 -0.2733 -0.1814  0.5214
 3939SOL    HW123453   2.249   1.908   4.888  0.2151 -0.0200 -0.2303
 3939SOL    HW223454   2.249   2.010   5.006 -0.4486  0.8041 -0.1474
 3940SOL     OW23455   2.941   3.544  17.486  0.7994  0.5425 -0.2183
 3940SOL    HW123456   2.930   3.569  17.577  2.8008  2.3824 -0.4841
 3940SOL    HW223457   2.939   3.621  17.429  2.3119  0.9488  0.2733
 3941SOL     OW23458   3.503   0.647   4.687  0.3656 -0.3692 -0.3809
 3941SOL    HW123459   3.479   0.726   4.735  0.4632 -0.8613  0.4770
 3941SOL    HW223460   3.454   0.573   4.723  1.7239 -0.0218  2.2005
 3942SOL     OW23461   2.787   4.387  10.825 -0.3414  0.1958 -0.3686
 3942SOL    HW123462   2.732   4.449  10.777  0.5502 -0.3745 -2.1039
 3942SOL    HW223463   2.719   4.320  10.831 -2.1347  1.9985 -0.5015
 3943SOL     OW23464   2.928   1.614  11.377  0.0398 -0.9381  0.0080
 3943SOL    HW123465   3.016   1.628  11.412 -0.5243 -0.5901  1.2732
 3943SOL    HW223466   2.939   1.519  11.370 -1.5733 -1.2827  2.2850
 3944SOL     OW23467   1.848   3.293   2.653 -0.1513  0.4331  0.0558
 3944SOL    HW123468   1.763   3.270   2.616 -0.7980  0.0579  1.8227
 3944SOL    HW223469   1.821   3.349   2.725 -2.2889  2.4254 -2.3375
 3945SOL     OW23470   0.273   1.481   6.947 -0.1110  0.5272 -0.8272
 3945SOL    HW123471   0.300   1.419   7.015  1.4675  1.4825 -0.5910
 3945SOL    HW223472   0.271   1.566   6.992  3.6500 -0.5660  1.4114
 3946SOL     OW23473   0.465   0.483   5.986  0.2250  0.3292  0.2600
 3946SOL    HW123474   0.412   0.456   5.911 -0.8150  0.1012  1.0915
 3946SOL    HW223475   0.539   0.532   5.947  1.2562 -2.6373 -1.5134
 3947SOL     OW23476   4.679   0.094   5.105 -0.0559  0.0945  0.7245
 3947SOL    HW123477   4.617   0.095   5.032 -0.0827  0.2789  0.7518
 3947SOL    HW223478   4.675   4.737   5.099  0.0964  0.1534 -0.4544
 3948SOL     OW23479   0.682   2.122  11.506  0.5928  0.0981  0.1761
 3948SOL    HW123480   0.657   2.063  11.577 -2.8982 -1.3988 -2.2879
 3948SOL    HW223481   0.685   2.056  11.436  1.8028 -0.4092  0.7175
 3949SOL     OW23482   2.271   3.269   4.429  0.0447  0.2200  0.2814
 3949SOL    HW123483   2.229   3.352   4.408  1.1063  1.3292  2.4535
 3949SOL    HW223484   2.347   3.301   4.479 -0.7584 -0.3862  1.8759
 3950SOL     OW23485   3.299   4.587   8.781  0.2408 -0.2779  0.4034
 3950SOL    HW123486   3.331   4.537   8.856  0.8293 -1.4132 -0.6058
 3950SOL    HW223487   3.309   4.674   8.820  3.0501  0.0012 -0.8987
 3951SOL     OW23488   4.417   3.613   4.003  0.1126 -0.7232  0.3500
 3951SOL    HW123489   4.396   3.624   4.096 -1.1385 -1.3504  0.1410
 3951SOL    HW223490   4.347   3.672   3.975 -0.5333 -1.5407  0.2288
 3952SOL     OW23491   0.538   1.631   7.823 -0.2544  0.7123  0.3195
 3952SOL    HW123492   0.556   1.687   7.747  0.3386  0.8418  0.5562
 3952SOL    HW223493   0.497   1.702   7.872  0.4413 -0.2940  2.3500
 3953SOL     OW23494   0.805   1.842   8.052  0.2318 -0.0195 -0.3649
 3953SOL    HW123495   0.783   1.909   7.988 -0.3037  1.5561  1.4738
 3953SOL    HW223496   0.873   1.793   8.006  0.0554  0.5622 -1.2388
 3954SOL     OW23497   1.454   4.719  14.424  0.1135 -0.6244  0.1184
 3954SOL    HW123498   1.440   4.628  14.450 -0.6171 -0.6548 -0.3792
 3954SOL    HW223499   1.446   0.030  14.505 -0.8493  1.4500 -1.2576
 3955SOL     OW23500   3.464   1.303   3.329  0.0770 -0.5115 -0.1893
 3955SOL    HW123501   3.391   1.348   3.287  1.2065  2.8446  1.4889
 3955SOL    HW223502   3.473   1.220   3.281  1.3402 -0.7547  0.4743
 3956SOL     OW23503   4.594   0.836  12.447  0.2882 -0.0285  0.2558
 3956SOL    HW123504   4.515   0.852  12.395 -1.2253 -0.8034  2.3330
 3956SOL    HW223505   4.558   0.780  12.515 -0.8493 -1.6837 -1.6928
 3957SOL     OW23506   3.761   4.225   9.293 -0.8532 -0.3018 -0.3647
 3957SOL    HW123507   3.721   4.182   9.369 -0.9374 -1.2258 -0.9265
 3957SOL    HW223508   3.849   4.234   9.328 -0.2779 -1.2713 -1.5726
 3958SOL     OW23509   2.331   1.323   4.325 -0.6526 -0.6702 -0.6002
 3958SOL    HW123510   2.382   1.320   4.244 -0.4041  0.0637 -0.4660
 3958SOL    HW223511   2.256   1.377   4.302  0.9963  1.3606 -1.2274
 3959SOL     OW23512   1.498   2.072   4.657  0.0835  0.2433  0.3827
 3959SOL    HW123513   1.503   2.002   4.723  1.5685  1.8265  1.9528
 3959SOL    HW223514   1.535   2.151   4.696  1.7063  0.3185 -1.3054
 3960SOL     OW23515   0.971   4.531   3.498 -0.4988 -0.3377 -0.1738
 3960SOL    HW123516   1.006   4.442   3.487  0.9701  0.2812 -0.5083
 3960SOL    HW223517   0.904   4.525   3.431 -1.2462  1.9185  0.3995
 3961SOL     OW23518   2.738   0.894   5.887 -0.9465  0.0088  0.5346
 3961SOL    HW123519   2.748   0.959   5.956  0.7416  0.6411 -0.3082
 3961SOL    HW223520   2.751   0.815   5.939 -0.5799  0.3378  0.9391
 3962SOL     OW23521   1.031   1.670   3.414  0.1105 -0.3083  0.1966
 3962SOL    HW123522   1.041   1.724   3.336  3.3767 -3.9573 -1.8954
 3962SOL    HW223523   1.058   1.732   3.482 -2.0839  1.8620 -0.9350
 3963SOL     OW23524   2.145   0.234   2.784  0.2707  0.7578  0.1521
 3963SOL    HW123525   2.162   0.328   2.789  0.5621  0.8519 -2.7530
 3963SOL    HW223526   2.185   0.213   2.699 -1.5128  0.5737 -0.6294
 3964SOL     OW23527   3.084   3.380   2.899  0.2529 -0.5659 -0.0112
 3964SOL    HW123528   3.096   3.323   2.975 -2.3831  0.8903  1.4934
 3964SOL    HW223529   3.146   3.349   2.833  1.5502  1.3028  0.3322
 3965SOL     OW23530   1.483   0.052   8.718 -0.1631  0.3135  0.0225
 3965SOL    HW123531   1.571   0.073   8.748  0.1314 -1.6997  0.5716
 3965SOL    HW223532   1.508   4.721   8.658  1.4465  1.6461 -0.8857
 3966SOL     OW23533   3.372   4.487  10.748 -0.0599 -0.0538 -0.0055
 3966SOL    HW123534   3.296   4.525  10.703  0.1242 -0.7963 -0.9381
 3966SOL    HW223535   3.337   4.476  10.837  0.2139 -0.3819  0.0605
 3967SOL     OW23536   0.974   4.043   4.766 -0.2051 -0.3861 -0.2684
 3967SOL    HW123537   1.051   3.992   4.792  0.8046  0.8692 -0.8081
 3967SOL    HW223538   0.899   3.983   4.768  0.3333 -0.9636  2.2947
 3968SOL     OW23539   3.279   2.164   9.581 -0.3087  0.2558  0.4961
 3968SOL    HW123540   3.202   2.219   9.600 -0.8016 -0.0433 -0.6232
 3968SOL    HW223541   3.263   2.137   9.490 -2.5958  2.0541  0.3410
 3969SOL     OW23542   2.961   3.091   4.504  0.2273 -0.1111  0.3602
 3969SOL    HW123543   2.946   3.185   4.515 -2.7277 -0.7350  1.5828
 3969SOL    HW223544   2.903   3.062   4.434 -0.1031 -0.7740  0.9150
 3970SOL     OW23545   3.112   2.703  11.605 -0.4043  0.1472 -0.5772
 3970SOL    HW123546   3.143   2.783  11.646 -2.3331  1.6608 -2.0716
 3970SOL    HW223547   3.060   2.675  11.681  1.6730  1.4790  1.3194
 3971SOL     OW23548   4.548   1.165  16.467  0.0082  0.4661 -0.0076
 3971SOL    HW123549   4.530   1.095  16.404  1.7338 -1.4983  1.6774
 3971SOL    HW223550   4.500   1.135  16.544  0.8722 -1.4387 -0.2130
 3972SOL     OW23551   4.087   0.993  15.082 -0.3651  0.4086 -0.3092
 3972SOL    HW123552   4.128   0.910  15.059  1.2594  1.3013 -0.6390
 3972SOL    HW223553   4.151   1.060  15.057  1.3701 -2.6918 -4.3013
 3973SOL     OW23554   4.306   4.344   1.769  0.6272  0.1444  0.0459
 3973SOL    HW123555   4.303   4.410   1.700  0.0631 -0.2071 -0.2708
 3973SOL    HW223556   4.311   4.393   1.851  0.6385  0.7502 -0.3165
 3974SOL     OW23557   4.313   2.708   3.927  0.0810  0.4405 -0.1312
 3974SOL    HW123558   4.284   2.786   3.878 -1.4454  0.3319  0.6108
 3974SOL    HW223559   4.355   2.738   4.007  0.2439 -1.5497  0.5196
 3975SOL     OW23560   1.714   4.483   8.334 -0.6556  0.1043  0.2002
 3975SOL    HW123561   1.807   4.494   8.353 -1.0688  0.2109  2.1824
 3975SOL    HW223562   1.681   4.543   8.400  1.0364  1.1842  0.0607
 3976SOL     OW23563   0.748   3.546   8.882  0.1679  0.3988 -0.3405
 3976SOL    HW123564   0.818   3.546   8.817  0.4465 -0.5852 -0.0476
 3976SOL    HW223565   0.670   3.569   8.832  0.3656  0.2454 -0.7192
 3977SOL     OW23566   4.649   0.454   2.580 -0.0076 -0.0852  0.0095
 3977SOL    HW123567   4.704   0.460   2.502 -0.3280 -0.8788 -0.2772
 3977SOL    HW223568   4.678   0.370   2.616  3.4167  0.8013 -0.6661
 3978SOL     OW23569   4.209   2.718   6.943 -0.4313 -0.2928 -0.7430
 3978SOL    HW123570   4.217   2.810   6.969 -0.0691 -0.7851  0.8363
 3978SOL    HW223571   4.134   2.689   6.995  1.4386 -1.9562  0.9998
 3979SOL     OW23572   3.676   3.244   5.125 -0.4163 -0.1160 -0.3037
 3979SOL    HW123573   3.748   3.245   5.188 -0.5988 -0.1949 -0.0949
 3979SOL    HW223574   3.727   3.213   5.049  1.3071  1.1318  0.3436
 3980SOL     OW23575   1.801   3.848   3.874  0.0094  0.0211 -0.0493
 3980SOL    HW123576   1.853   3.890   3.943 -1.6609  0.6059  0.8463
 3980SOL    HW223577   1.866   3.833   3.805 -0.3187 -1.6788  0.0196
 3981SOL     OW23578   0.553   3.573   7.541 -0.4173  0.1828  0.9983
 3981SOL    HW123579   0.643   3.602   7.551  0.2004 -1.2691 -0.3268
 3981SOL    HW223580   0.547   3.498   7.481 -0.4037  0.3830  0.7435
 3982SOL     OW23581   3.990   0.778   5.154 -0.2570  0.5869 -0.2368
 3982SOL    HW123582   4.023   0.702   5.106  0.2928 -0.3941  1.6604
 3982SOL    HW223583   4.069   0.808   5.200 -0.5981 -0.4604  1.0572
 3983SOL     OW23584   4.533   4.113   0.493  0.2349  0.2412 -0.3642
 3983SOL    HW123585   4.603   4.166   0.456 -0.0615 -0.5788 -2.0947
 3983SOL    HW223586   4.462   4.172   0.519  0.5956  0.6506 -0.3207
 3984SOL     OW23587   2.273   1.846  10.059 -0.7709  0.0644 -0.1050
 3984SOL    HW123588   2.260   1.821  10.151 -0.1585 -0.9387 -0.2867
 3984SOL    HW223589   2.193   1.896  10.044  0.5874  2.4833  0.6394
 3985SOL     OW23590   0.506   1.464   5.594  0.0838  0.4635  0.3277
 3985SOL    HW123591   0.538   1.483   5.506 -1.9978 -2.1136 -0.9861
 3985SOL    HW223592   0.447   1.391   5.578  0.7498 -0.1418  0.6234
 3986SOL     OW23593   1.402   1.732   3.293 -0.0632 -0.2522 -0.0403
 3986SOL    HW123594   1.356   1.675   3.232  2.2210 -1.1031 -0.9773
 3986SOL    HW223595   1.437   1.792   3.227  1.9832 -1.9563 -0.5162
 3987SOL     OW23596   1.978   1.156  16.452  0.1095  0.4664 -0.0015
 3987SOL    HW123597   2.006   1.235  16.499 -0.5816 -0.1620  1.4657
 3987SOL    HW223598   1.969   1.098  16.527 -0.1559  1.6270  0.8735
 3988SOL     OW23599   3.968   2.321   6.397 -0.2322  0.0816 -0.2599
 3988SOL    HW123600   3.903   2.257   6.426  1.2357 -1.5067 -0.4566
 3988SOL    HW223601   4.047   2.269   6.416  0.9730  0.6970 -3.5179
 3989SOL     OW23602   0.475   2.365   7.749 -0.4260 -0.3685 -0.6514
 3989SOL    HW123603   0.570   2.370   7.737 -0.1741  0.7938  1.7144
 3989SOL    HW223604   0.454   2.286   7.700 -0.6502 -0.0591 -1.0504
 3990SOL     OW23605   2.960   2.432   6.367  0.0738 -0.2628  0.0207
 3990SOL    HW123606   2.974   2.440   6.273 -3.2899 -0.6312 -0.4948
 3990SOL    HW223607   2.924   2.516   6.393  1.8415  0.7241 -0.7690
 3991SOL     OW23608   3.765   2.688  16.977 -0.9279 -0.2738  0.7025
 3991SOL    HW123609   3.740   2.712  16.888  0.6464 -2.8797 -0.4493
 3991SOL    HW223610   3.849   2.649  16.954 -0.7362  0.7035 -0.2539
 3992SOL     OW23611   2.758   4.404   3.016 -0.5139  0.7419  0.0517
 3992SOL    HW123612   2.761   4.452   2.933  0.6224 -0.6467 -0.7213
 3992SOL    HW223613   2.667   4.430   3.028 -1.5768 -2.1075 -1.8095
 3993SOL     OW23614   1.844   3.363   3.631 -0.3410  0.1112 -0.1610
 3993SOL    HW123615   1.806   3.444   3.663 -0.5953 -1.3196  3.0888
 3993SOL    HW223616   1.775   3.297   3.641  1.0230 -1.1359  0.9137
 3994SOL     OW23617   0.167   2.655  10.967  0.0694  0.0631 -0.7079
 3994SOL    HW123618   0.249   2.701  10.986  0.4917 -0.9486 -0.0725
 3994SOL    HW223619   0.109   2.696  11.031  1.0541  0.7713 -0.2577
 3995SOL     OW23620   3.335   1.442  12.655 -0.0830 -0.1185 -0.1655
 3995SOL    HW123621   3.374   1.418  12.739  1.6428 -0.9089 -1.1936
 3995SOL    HW223622   3.242   1.444  12.679 -0.2891 -2.8404 -0.6877
 3996SOL     OW23623   3.734   2.709   4.418 -0.0622 -0.3673  0.1091
 3996SOL    HW123624   3.800   2.643   4.438 -0.5433 -1.5671 -2.2917
 3996SOL    HW223625   3.681   2.666   4.351 -1.8116 -1.6464  2.2679
 3997SOL     OW23626   4.476   3.922   5.134 -0.2719  0.1284 -0.1834
 3997SOL    HW123627   4.492   3.834   5.100 -2.5405 -0.1916 -0.4289
 3997SOL    HW223628   4.494   3.972   5.054  2.3286 -1.0027 -0.3018
 3998SOL     OW23629   1.531   1.356  11.801 -0.3666 -0.5475 -0.1486
 3998SOL    HW123630   1.615   1.383  11.840 -1.2135 -0.4133  1.5550
 3998SOL    HW223631   1.531   1.414  11.725  4.1804  0.0818  0.3289
 3999SOL     OW23632   4.366   2.860   3.494 -0.0140 -0.0895 -0.5286
 3999SOL    HW123633   4.366   2.907   3.578 -2.0428  0.1483 -0.6637
 3999SOL    HW223634   4.312   2.782   3.507  4.4230 -2.8765  1.3709
 4000SOL     OW23635   1.482   3.664  11.633 -0.8388 -0.2645  0.0080
 4000SOL    HW123636   1.536   3.616  11.571  2.5810  0.0258  2.8032
 4000SOL    HW223637   1.418   3.699  11.571  1.0420  0.9167 -1.2496
 4001SOL     OW23638   0.511   2.266  14.766  0.5029  0.0927 -0.0184
 4001SOL    HW123639   0.540   2.175  14.760 -0.4775 -0.2221  0.0176
 4001SOL    HW223640   0.492   2.275  14.860 -2.6718 -1.5340 -0.5254
 4002SOL     OW23641   1.526   1.558  10.045 -0.1089 -0.0568 -0.2469
 4002SOL    HW123642   1.611   1.549  10.003  0.5816  0.2284  1.0727
 4002SOL    HW223643   1.492   1.632   9.994 -1.5801  0.0825  0.8993
 4003SOL     OW23644   0.080   0.883   8.262 -0.1084  0.5385  0.0440
 4003SOL    HW123645   0.041   0.850   8.343  2.9556 -2.2612  0.3521
 4003SOL    HW223646   0.156   0.827   8.245 -1.2827 -1.0423 -0.0665
 4004SOL     OW23647   1.855   0.134   6.431  0.2284 -0.3022  0.2871
 4004SOL    HW123648   1.777   0.094   6.470  0.1937  1.7837  2.3405
 4004SOL    HW223649   1.819   0.215   6.394  0.2110  0.0031  0.9688
 4005SOL     OW23650   0.696   4.246   2.827  0.9783  0.1034 -0.0078
 4005SOL    HW123651   0.658   4.334   2.828 -0.0578 -0.3469  1.0081
 4005SOL    HW223652   0.698   4.227   2.921 -0.2467  0.2219  0.0487
 4006SOL     OW23653   2.243   4.215   8.766  0.1736  0.1199  0.5189
 4006SOL    HW123654   2.300   4.215   8.689  1.2201 -0.9415  1.2909
 4006SOL    HW223655   2.205   4.127   8.762  1.2228 -0.3270  0.2828
 4007SOL     OW23656   2.200   0.266   1.371  0.2691  0.2581  0.4793
 4007SOL    HW123657   2.115   0.270   1.327 -0.0895  0.8148  1.2213
 4007SOL    HW223658   2.175   0.235   1.458  2.0085 -0.5213  0.6964
 4008SOL     OW23659   3.905   4.343   2.189  0.2093  0.4928  0.4374
 4008SOL    HW123660   3.890   4.303   2.103 -1.3744  1.4159  0.2980
 4008SOL    HW223661   3.948   4.425   2.165 -2.1201  2.2440  2.3144
 4009SOL     OW23662   2.865   2.630   2.044 -0.2621  0.0989  0.0457
 4009SOL    HW123663   2.847   2.688   2.118 -1.1236 -1.6241  1.1678
 4009SOL    HW223664   2.961   2.636   2.039 -0.1814  0.0034  1.5207
 4010SOL     OW23665   2.796   2.312  11.267 -0.7431 -0.3092  0.5073
 4010SOL    HW123666   2.835   2.326  11.353 -0.9562 -0.8476  0.6914
 4010SOL    HW223667   2.738   2.242  11.298 -0.9826  0.2465  1.3121
 4011SOL     OW23668   4.623   1.455   8.868 -0.2171  0.0798  0.3526
 4011SOL    HW123669   4.682   1.518   8.909  2.3896 -1.4671 -0.9761
 4011SOL    HW223670   4.608   1.484   8.778 -1.6738 -1.4189  0.0956
 4012SOL     OW23671   4.297   3.222   3.036  0.3217  0.1953  0.4306
 4012SOL    HW123672   4.274   3.197   2.946  1.9679  1.4148 -0.3162
 4012SOL    HW223673   4.348   3.302   3.034 -1.2181  1.1131 -2.2522
 4013SOL     OW23674   1.294   1.591   7.389 -0.4742 -0.0544 -0.4234
 4013SOL    HW123675   1.264   1.531   7.322  0.9424  0.7307 -1.7733
 4013SOL    HW223676   1.388   1.593   7.371 -0.3260  1.2574  0.4186
 4014SOL     OW23677   4.516   1.507   3.787  0.3196  0.0416 -0.5856
 4014SOL    HW123678   4.536   1.414   3.792  0.7251  0.0716 -1.6513
 4014SOL    HW223679   4.500   1.527   3.879 -0.5402  0.8350 -0.9151
 4015SOL     OW23680   4.090   4.273   6.943  0.3593 -0.3313  0.4446
 4015SOL    HW123681   4.073   4.260   6.850 -2.0294  0.4713  0.7614
 4015SOL    HW223682   4.180   4.306   6.942  0.0183  0.5896  0.1498
 4016SOL     OW23683   4.432   1.799   6.720  0.1921 -0.7654 -0.2620
 4016SOL    HW123684   4.402   1.882   6.756  0.5254  0.4981 -2.9060
 4016SOL    HW223685   4.350   1.759   6.691  0.2288 -1.0633  0.0487
 4017SOL     OW23686   0.030   3.758   1.323  0.1147  0.1098  0.3687
 4017SOL    HW123687   0.022   3.849   1.295 -2.6782 -0.1161  0.4670
 4017SOL    HW223688   0.012   3.761   1.417  1.2562  1.0852  0.5640
 4018SOL     OW23689   2.277   2.392  10.663 -0.1791  0.1857 -0.1219
 4018SOL    HW123690   2.261   2.453  10.735  1.3782 -2.3975  2.3785
 4018SOL    HW223691   2.371   2.377  10.672 -0.1468  0.6681  0.3595
 4019SOL     OW23692   0.279   2.871   6.578 -0.4885 -0.1118  0.4781
 4019SOL    HW123693   0.320   2.786   6.565  1.0738  0.6606  0.3692
 4019SOL    HW223694   0.201   2.837   6.622 -1.0037  2.4074  1.5551
 4020SOL     OW23695   0.758   2.139   7.097  0.5667 -0.0499  0.5500
 4020SOL    HW123696   0.685   2.167   7.152 -0.1925  1.6421 -1.3279
 4020SOL    HW223697   0.754   2.208   7.031  1.2159  1.0763  1.6900
 4021SOL     OW23698   3.298   3.799  16.333 -0.3810  0.2059 -0.1947
 4021SOL    HW123699   3.225   3.745  16.303  0.7264 -0.7543 -1.1682
 4021SOL    HW223700   3.265   3.889  16.327  2.3343  1.2837  1.0339
 4022SOL     OW23701   1.678   2.097   8.129 -0.4989  0.1543  0.3352
 4022SOL    HW123702   1.773   2.087   8.135 -0.6764 -1.4538  0.3233
 4022SOL    HW223703   1.643   2.070   8.214  1.3366  1.5399  1.5367
 4023SOL     OW23704   1.056   0.495   1.288 -0.5603 -0.0451  0.1288
 4023SOL    HW123705   1.083   0.555   1.358 -2.1091  0.2652  0.4732
 4023SOL    HW223706   0.993   0.448   1.343 -0.0412 -0.9253 -0.0425
 4024SOL     OW23707   4.355   0.610   7.971 -0.1951  0.2102 -0.1160
 4024SOL    HW123708   4.285   0.585   8.030 -1.4331 -3.0702 -2.9514
 4024SOL    HW223709   4.361   0.703   7.994  0.6694 -0.0414  0.6629
 4025SOL     OW23710   4.195   1.711   6.651  0.1568 -0.1054  0.6946
 4025SOL    HW123711   4.166   1.633   6.603  0.6913  0.6025 -0.7966
 4025SOL    HW223712   4.113   1.758   6.638  0.8549 -0.1494 -3.8522
 4026SOL     OW23713   1.589   4.432   4.436 -0.0254  0.1650  0.4369
 4026SOL    HW123714   1.595   4.409   4.528 -1.2984 -1.5622  0.0803
 4026SOL    HW223715   1.500   4.403   4.416 -0.5170  2.7731 -1.2330
 4027SOL     OW23716   1.306   4.587  10.034 -0.2750 -0.2573 -0.3023
 4027SOL    HW123717   1.393   4.550  10.050 -0.5082 -1.0251 -0.7765
 4027SOL    HW223718   1.335   4.678  10.030  3.0765 -1.3019 -0.2883
 4028SOL     OW23719   1.506   0.274  11.456  0.0141  0.0696 -0.5284
 4028SOL    HW123720   1.564   0.224  11.398 -0.4954 -0.8300 -0.2446
 4028SOL    HW223721   1.571   0.287  11.525 -0.1002 -0.3362 -0.3438
 4029SOL     OW23722   2.605   1.979   0.458  0.4767  0.0743 -0.2992
 4029SOL    HW123723   2.559   1.922   0.519  0.5183 -0.1070 -0.4394
 4029SOL    HW223724   2.697   1.966   0.483  0.5567 -2.4830 -1.9633
 4030SOL     OW23725   1.226   1.783   4.832  0.3994 -0.2867 -0.4466
 4030SOL    HW123726   1.319   1.772   4.810  0.8105 -1.0957  1.6836
 4030SOL    HW223727   1.192   1.784   4.742  1.1780  0.6151 -0.7306
 4031SOL     OW23728   1.856   0.908   5.593  0.5247  0.4773 -0.1550
 4031SOL    HW123729   1.907   0.944   5.666  1.6717 -0.1605 -0.6488
 4031SOL    HW223730   1.826   0.980   5.539  0.0571 -0.3426 -0.9862
 4032SOL     OW23731   2.795   0.137  14.236  0.0630 -0.4424  0.7590
 4032SOL    HW123732   2.865   0.187  14.195 -1.2494  1.0393  0.3041
 4032SOL    HW223733   2.758   0.097  14.158 -1.8021 -1.5051  2.1669
 4033SOL     OW23734   2.692   2.952   3.036  0.4630  0.3028  0.2658
 4033SOL    HW123735   2.704   2.927   3.127  2.0542 -2.3395 -0.6659
 4033SOL    HW223736   2.778   2.992   3.025  0.9795 -0.9333 -0.1799
 4034SOL     OW23737   2.766   1.406   9.840 -0.5594  0.0498  0.6947
 4034SOL    HW123738   2.706   1.463   9.888 -0.7570 -0.9286  1.6095
 4034SOL    HW223739   2.730   1.413   9.752 -0.2608  2.1857  0.7361
 4035SOL     OW23740   1.527   2.942  14.063  0.1659 -0.3554  0.0878
 4035SOL    HW123741   1.556   3.025  14.027  1.3250 -0.1404  1.4885
 4035SOL    HW223742   1.455   2.954  14.125 -0.2271  1.4945 -0.7515
 4036SOL     OW23743   0.122   0.387  16.318  0.5851 -0.2697  0.2221
 4036SOL    HW123744   0.169   0.451  16.265  0.1453 -1.3356 -1.5000
 4036SOL    HW223745   0.034   0.412  16.290  0.8423  0.0739 -0.2958
 4037SOL     OW23746   2.117   0.761   3.735 -0.4337  0.3122 -0.2869
 4037SOL    HW123747   2.195   0.736   3.785 -1.0345  0.3221  0.6561
 4037SOL    HW223748   2.085   0.831   3.792  2.2450  0.7152  0.6969
 4038SOL     OW23749   0.902   1.969   5.116 -0.7104  0.0715  0.0632
 4038SOL    HW123750   0.831   1.906   5.109 -0.2741 -0.4672  0.5755
 4038SOL    HW223751   0.971   1.929   5.064 -1.9774 -2.6369  0.4969
 4039SOL     OW23752   3.487   2.344   4.213 -0.5412  0.0932  0.4947
 4039SOL    HW123753   3.448   2.265   4.175 -0.0048 -0.0923  0.3315
 4039SOL    HW223754   3.490   2.402   4.136 -0.8728 -0.1733  0.2825
 4040SOL     OW23755   2.249   0.255   4.112 -0.2994 -0.1488  0.0313
 4040SOL    HW123756   2.273   0.323   4.050 -0.6063  0.7350  0.8799
 4040SOL    HW223757   2.283   0.300   4.189 -0.0991  2.6588 -1.7167
 4041SOL     OW23758   2.780   4.181   0.875 -0.1273  0.5382 -0.2768
 4041SOL    HW123759   2.723   4.250   0.840 -1.4588 -0.9812 -1.0998
 4041SOL    HW223760   2.717   4.109   0.872  2.7797 -2.0623  0.7697
 4042SOL     OW23761   2.033   0.796   3.235 -0.2571  0.4666  0.1284
 4042SOL    HW123762   2.025   0.813   3.329 -1.8651 -0.0617  0.0806
 4042SOL    HW223763   1.942   0.799   3.205 -0.0828 -3.1621 -0.7309
 4043SOL     OW23764   0.661   1.594  10.391  0.1857 -0.0213  0.4680
 4043SOL    HW123765   0.678   1.506  10.424  2.0587 -0.3785 -1.4570
 4043SOL    HW223766   0.627   1.639  10.468  0.0171 -0.5092  0.6751
 4044SOL     OW23767   2.719   0.062   5.517  0.1073  0.0535  0.1476
 4044SOL    HW123768   2.753   0.100   5.599 -0.8893 -0.9966  1.0457
 4044SOL    HW223769   2.669   0.137   5.483 -1.2905 -1.3245 -0.8243
 4045SOL     OW23770   1.350   3.574   9.035 -0.1625  0.4624 -0.0972
 4045SOL    HW123771   1.387   3.596   8.950 -2.0413 -3.1839 -1.8586
 4045SOL    HW223772   1.270   3.624   9.044 -0.0481  0.9348 -1.7373
 4046SOL     OW23773   1.662   2.575   8.754 -0.1463  0.3746 -0.4834
 4046SOL    HW123774   1.570   2.593   8.736 -0.1761  0.1520 -0.5551
 4046SOL    HW223775   1.679   2.641   8.821 -1.6973  0.6644 -0.3743
 4047SOL     OW23776   3.060   0.786  17.620 -1.0187 -0.0756  0.1951
 4047SOL    HW123777   2.997   0.789  17.692  0.5972 -1.7899  1.6723
 4047SOL    HW223778   3.132   0.814  17.676 -0.0538  1.3483 -1.7640
 4048SOL     OW23779   1.619   3.254  17.118  0.1353 -0.0360 -0.2260
 4048SOL    HW123780   1.678   3.230  17.046  1.7538 -1.2983  1.5366
 4048SOL    HW223781   1.527   3.240  17.093  0.4374 -0.7460 -0.9179
 4049SOL     OW23782   1.245   2.813   7.774  0.3028  0.3343 -0.2566
 4049SOL    HW123783   1.222   2.754   7.702  3.8626 -1.5473  0.1267
 4049SOL    HW223784   1.338   2.793   7.783  0.3568  1.0031  0.6738
 4050SOL     OW23785   3.827   1.694   1.772 -0.3881  0.1068 -0.2196
 4050SOL    HW123786   3.868   1.608   1.758  0.9542  0.7367 -0.1494
 4050SOL    HW223787   3.894   1.745   1.818 -0.3325 -1.6269  1.6228
 4051SOL     OW23788   1.402   2.585  16.657  0.5139  0.6231 -0.4215
 4051SOL    HW123789   1.473   2.650  16.658  0.4079  0.7454 -0.8608
 4051SOL    HW223790   1.443   2.516  16.709  0.3075  0.8879  0.0885
 4052SOL     OW23791   1.485   1.603   5.176  0.0351 -0.1381 -0.0457
 4052SOL    HW123792   1.531   1.604   5.259 -3.6477  1.0819  1.9734
 4052SOL    HW223793   1.406   1.557   5.207 -0.2206  0.1805 -0.2185
 4053SOL     OW23794   4.262   4.112   0.782 -0.0605 -0.9777 -0.0776
 4053SOL    HW123795   4.225   4.112   0.870  0.7997 -2.1240  0.2949
 4053SOL    HW223796   4.191   4.078   0.728 -0.1061  1.3220 -1.4568
 4054SOL     OW23797   0.181   0.089  10.537 -0.3629  0.6054  0.1902
 4054SOL    HW123798   0.232   0.160  10.497 -1.7585 -0.0213 -2.7175
 4054SOL    HW223799   0.214   0.075  10.626  0.4475 -0.2341 -0.2447
 4055SOL     OW23800   3.033   3.502   8.320  1.1348 -0.9279 -0.3771
 4055SOL    HW123801   3.098   3.470   8.257  1.3762 -0.5855 -0.3016
 4055SOL    HW223802   3.055   3.595   8.317 -2.3958 -0.0617  0.7989
 4056SOL     OW23803   0.158   3.553   7.664 -0.1402 -1.0184  0.7006
 4056SOL    HW123804   0.175   3.638   7.704 -0.7798 -0.4958 -0.1266
 4056SOL    HW223805   0.221   3.497   7.709  0.5149 -0.5235  0.3894
 4057SOL     OW23806   1.040   2.093   8.701 -0.4220  0.8968 -0.4110
 4057SOL    HW123807   0.964   2.086   8.759  1.4740  0.2606  1.9761
 4057SOL    HW223808   1.107   2.132   8.757 -1.4454 -2.0799  2.8424
 4058SOL     OW23809   1.827   2.828   8.482 -0.4107 -0.3386 -0.0850
 4058SOL    HW123810   1.881   2.847   8.406 -2.2533  2.3281 -0.7176
 4058SOL    HW223811   1.880   2.859   8.556  2.2198 -0.0959 -2.0891
 4059SOL     OW23812   3.874   1.620   4.129  0.2591  0.0331  0.3853
 4059SOL    HW123813   3.846   1.541   4.176  3.3071  0.3752  2.8090
 4059SOL    HW223814   3.959   1.596   4.091 -0.0042  0.7675 -0.6485
 4060SOL     OW23815   3.943   2.772  11.711  0.5644 -0.3343  0.3696
 4060SOL    HW123816   3.870   2.822  11.746 -1.0229 -2.6795  0.4194
 4060SOL    HW223817   4.007   2.839  11.686 -1.3686  1.8688  1.3383
 4061SOL     OW23818   4.604   2.885  11.553  0.1494  0.2972  0.2150
 4061SOL    HW123819   4.605   2.977  11.579  1.2522  0.4812 -0.4720
 4061SOL    HW223820   4.682   2.852  11.598 -0.5032 -1.2951  0.1641
 4062SOL     OW23821   0.006   4.344   9.315  0.3369  0.2904 -0.1364
 4062SOL    HW123822   0.025   4.252   9.335 -1.9832 -0.1698 -0.0715
 4062SOL    HW223823   4.703   4.376   9.395 -1.8819 -3.3049  0.1286
 4063SOL     OW23824   1.006   3.871   7.413 -0.4375  0.0347 -0.2046
 4063SOL    HW123825   0.957   3.936   7.363 -1.0505 -1.0815 -1.0527
 4063SOL    HW223826   1.036   3.815   7.341  0.8079  1.4034 -0.7482
 4064SOL     OW23827   2.822   0.700   9.607  0.2511 -0.2318  0.1182
 4064SOL    HW123828   2.808   0.666   9.695  0.4434  0.5474  0.4483
 4064SOL    HW223829   2.749   0.762   9.607  0.0353 -0.4729  2.3960
 4065SOL     OW23830   2.345   2.618   7.596  0.5489  0.3004  0.0243
 4065SOL    HW123831   2.407   2.590   7.664 -0.0837  1.1531  0.9331
 4065SOL    HW223832   2.390   2.609   7.511  1.5555 -0.2826  0.6134
 4066SOL     OW23833   2.116   0.949  13.326  0.0167 -0.1092 -0.1320
 4066SOL    HW123834   2.102   1.026  13.382  0.7631 -0.5119  0.6156
 4066SOL    HW223835   2.032   0.902  13.322 -0.2504  0.4135 -0.5697
 4067SOL     OW23836   1.268   0.220  11.365 -0.9193  0.1752  0.4430
 4067SOL    HW123837   1.219   0.253  11.440 -1.4534  0.2142  0.0764
 4067SOL    HW223838   1.359   0.228  11.393 -0.0175  0.6596 -2.6214
 4068SOL     OW23839   2.139   1.880  15.102  0.4877  0.1373 -0.4890
 4068SOL    HW123840   2.095   1.798  15.125  0.8170 -0.3361 -1.5471
 4068SOL    HW223841   2.119   1.876  15.008 -0.7802 -1.2105 -0.1757
 4069SOL     OW23842   1.132   2.894   7.383  0.4840  0.3765  0.5083
 4069SOL    HW123843   1.212   2.841   7.386 -0.6744 -1.2777  1.5359
 4069SOL    HW223844   1.179   2.974   7.357  1.5912 -0.2486  0.5565
 4070SOL     OW23845   4.360   0.156   3.403  0.3137  0.1000 -0.1282
 4070SOL    HW123846   4.395   0.198   3.482 -0.2926 -1.6521  1.0782
 4070SOL    HW223847   4.269   0.159   3.431 -0.6244  2.2827 -3.3895
 4071SOL     OW23848   4.110   2.966   2.579  0.2224 -0.0981  0.0564
 4071SOL    HW123849   4.148   2.972   2.492 -0.8229 -1.7428 -0.5140
 4071SOL    HW223850   4.065   2.882   2.566 -0.1594  0.1460 -0.1803
 4072SOL     OW23851   1.099   3.206  16.182 -0.0232  0.2906 -0.1831
 4072SOL    HW123852   1.155   3.283  16.179 -0.7248  0.7909 -0.4652
 4072SOL    HW223853   1.040   3.211  16.107 -1.7492 -1.0177  1.1001
 4073SOL     OW23854   3.139   0.871  10.044 -0.3118  0.7849 -0.2680
 4073SOL    HW123855   3.160   0.797  10.100  0.1786  0.1310 -1.3208
 4073SOL    HW223856   3.094   0.825   9.973 -0.9695 -1.7096  1.7770
 4074SOL     OW23857   3.773   1.579  11.896  0.6522 -0.6401  0.1527
 4074SOL    HW123858   3.704   1.513  11.894  1.5352 -1.6168  2.5784
 4074SOL    HW223859   3.855   1.536  11.919  1.1391 -0.3281 -0.9426
 4075SOL     OW23860   3.022   1.396   2.631 -0.1541 -0.3727 -0.0709
 4075SOL    HW123861   3.087   1.438   2.575 -0.5124  1.0876  0.5933
 4075SOL    HW223862   2.942   1.441   2.603 -0.8762 -1.4111  0.3170
 4076SOL     OW23863   1.523   2.731  15.294  0.1012  0.6045  0.2272
 4076SOL    HW123864   1.478   2.737  15.378 -1.5732 -1.1626 -0.5577
 4076SOL    HW223865   1.613   2.711  15.320  0.0975  0.9848  0.5456
 4077SOL     OW23866   0.978   2.471   9.008 -0.2014 -0.0378 -0.1527
 4077SOL    HW123867   0.978   2.506   8.919  0.6651  2.9903  1.0286
 4077SOL    HW223868   0.926   2.542   9.045 -3.1883 -1.0500 -2.3935
 4078SOL     OW23869   3.736   3.029   1.025 -0.2849  0.4105  0.4101
 4078SOL    HW123870   3.710   3.082   1.100  1.1496  0.6476  0.7462
 4078SOL    HW223871   3.767   3.097   0.965  0.3881 -0.3235 -0.0861
 4079SOL     OW23872   0.766   4.159   4.222  0.6037  0.0856 -0.3090
 4079SOL    HW123873   0.783   4.114   4.305 -0.3545  0.3347  0.0333
 4079SOL    HW223874   0.683   4.208   4.230 -0.3198 -1.5863  0.3272
 4080SOL     OW23875   4.273   4.728   8.174 -0.2662 -0.6157 -0.1461
 4080SOL    HW123876   4.284   4.665   8.245 -0.0898 -2.4973 -1.8343
 4080SOL    HW223877   4.337   0.055   8.202 -0.2573 -0.3955 -0.6789
 4081SOL     OW23878   4.202   0.668   7.006  0.8205  0.0415  0.7181
 4081SOL    HW123879   4.291   0.634   7.003  0.7089 -0.0516 -1.6351
 4081SOL    HW223880   4.181   0.627   7.090 -2.2484  0.5328  0.2035
 4082SOL     OW23881   3.137   1.545   7.546 -0.0827  0.0222  0.3032
 4082SOL    HW123882   3.224   1.533   7.508  0.4281  1.7026  0.9667
 4082SOL    HW223883   3.149   1.600   7.623  1.5303 -1.1853  0.9114
 4083SOL     OW23884   4.119   2.846   0.476  0.0513  1.1498 -0.1969
 4083SOL    HW123885   4.028   2.815   0.480  0.5390 -0.0766  1.4451
 4083SOL    HW223886   4.110   2.875   0.385 -3.3443  2.1322  0.4486
 4084SOL     OW23887   0.115   2.145  17.745  0.1274  0.6697  0.0830
 4084SOL    HW123888   0.161   2.227  17.725  0.7134  0.0411 -1.1570
 4084SOL    HW223889   0.108   2.111  17.655  0.1428 -1.5265  0.9254
 4085SOL     OW23890   0.352   0.217   3.024  0.4172 -0.5297 -0.5901
 4085SOL    HW123891   0.346   0.241   3.117 -0.8484 -1.8780 -0.3166
 4085SOL    HW223892   0.266   0.239   2.990  1.0840  0.3752 -1.6565
 4086SOL     OW23893   3.639   1.218   1.391  0.2444  0.3373  0.3948
 4086SOL    HW123894   3.558   1.265   1.373 -0.2877 -0.5846  0.4145
 4086SOL    HW223895   3.698   1.285   1.354 -0.3575  0.0952 -1.0133
 4087SOL     OW23896   2.505   1.244   9.393 -0.1731 -0.6632  0.4457
 4087SOL    HW123897   2.513   1.240   9.489 -1.0161  2.5002  0.6489
 4087SOL    HW223898   2.416   1.215   9.375 -0.0368  0.2936 -1.6985
 4088SOL     OW23899   1.086   2.542  11.369 -0.0567 -0.4675 -0.5208
 4088SOL    HW123900   0.995   2.516  11.384 -0.3700  0.7001 -0.4401
 4088SOL    HW223901   1.115   2.452  11.352 -2.3734 -1.2301 -0.5352
 4089SOL     OW23902   3.783   1.828   7.936  0.4528  0.0242  0.6555
 4089SOL    HW123903   3.704   1.875   7.966 -0.3653 -2.8829  3.0264
 4089SOL    HW223904   3.847   1.852   8.003 -0.2690  2.2539  0.5598
 4090SOL     OW23905   4.062   0.430   5.284  0.2067 -0.2558 -0.3526
 4090SOL    HW123906   4.119   0.484   5.228  3.3370 -2.3636  0.7626
 4090SOL    HW223907   3.977   0.460   5.253  0.0743 -0.8373 -0.5612
 4091SOL     OW23908   1.104   0.479  11.313 -0.6159 -0.5492 -0.1960
 4091SOL    HW123909   1.175   0.416  11.300 -0.4004 -0.4876  0.6957
 4091SOL    HW223910   1.029   0.422  11.298 -1.3133  0.0965  0.8343
 4092SOL     OW23911   0.739   0.048   7.765  0.3682 -0.4331  0.4521
 4092SOL    HW123912   0.719   0.131   7.809  0.3663  0.1611 -0.6579
 4092SOL    HW223913   0.649   0.032   7.736  0.4938 -0.2856 -0.0222
 4093SOL     OW23914   2.256   0.037   6.674  0.0757 -0.0361  0.0679
 4093SOL    HW123915   2.190   4.708   6.684 -1.9409  1.6657 -1.6726
 4093SOL    HW223916   2.228   0.075   6.591  0.5420 -0.0373 -0.0947
 4094SOL     OW23917   2.120   3.290   8.532  0.0714  0.6962 -0.3772
 4094SOL    HW123918   2.192   3.353   8.527 -0.4779  1.2817 -1.0006
 4094SOL    HW223919   2.144   3.230   8.461 -0.4344  1.0640 -0.8534
 4095SOL     OW23920   4.328   2.725   4.740 -0.1377 -0.5658  0.1746
 4095SOL    HW123921   4.368   2.678   4.814  1.5795  1.6020  0.6394
 4095SOL    HW223922   4.408   2.757   4.698 -1.1571  0.4946 -0.9312
 4096SOL     OW23923   3.738   0.316   9.376 -0.1025  0.0633 -0.0602
 4096SOL    HW123924   3.650   0.286   9.354  0.2845  0.7899 -2.5625
 4096SOL    HW223925   3.745   0.393   9.320  0.2893  0.6489  0.7788
 4097SOL     OW23926   0.177   4.263  14.568  0.0832  0.3981  0.0801
 4097SOL    HW123927   0.094   4.299  14.537  1.1931  2.4283 -0.5552
 4097SOL    HW223928   0.240   4.316  14.519 -0.1629  2.1254  1.6558
 4098SOL     OW23929   1.909   2.029   7.796  0.1132  0.1418  0.1783
 4098SOL    HW123930   1.964   2.022   7.874 -0.4396  0.2293  0.5732
 4098SOL    HW223931   1.977   2.034   7.729  1.7157  0.0185  1.8026
 4099SOL     OW23932   0.090   3.983   3.638 -0.1490  0.1475  0.0966
 4099SOL    HW123933   0.137   4.031   3.570 -1.9351  0.9150 -0.5973
 4099SOL    HW223934   0.085   3.900   3.592  1.3976  1.0873 -1.7199
 4100SOL     OW23935   1.273   0.509   2.124  0.1992  0.5145 -0.5443
 4100SOL    HW123936   1.214   0.538   2.054 -0.2850 -0.2005 -0.4321
 4100SOL    HW223937   1.292   0.420   2.096 -0.0396  0.8185 -1.7009
 4101SOL     OW23938   2.241   1.658  10.904  0.1879 -0.2115 -0.3862
 4101SOL    HW123939   2.207   1.662  10.993  0.1408 -2.9683 -0.2883
 4101SOL    HW223940   2.155   1.671  10.862 -0.1386  1.8828  0.9243
 4102SOL     OW23941   3.040   1.240   5.155 -0.1685 -0.2374  0.5995
 4102SOL    HW123942   3.056   1.198   5.240  0.4529 -0.8272  0.2000
 4102SOL    HW223943   2.969   1.301   5.175 -1.5244 -1.0993 -1.5963
 4103SOL     OW23944   0.242   4.534   4.744 -0.2777  0.1061 -0.5982
 4103SOL    HW123945   0.198   4.613   4.711  0.9536  0.9598 -0.2049
 4103SOL    HW223946   0.254   4.477   4.669 -2.1185 -0.2439 -0.6449
 4104SOL     OW23947   4.636   2.709   3.504 -0.7308  0.2919 -0.1027
 4104SOL    HW123948   4.579   2.786   3.504  0.0070  0.8351  1.2748
 4104SOL    HW223949   4.595   2.655   3.572  2.0581 -1.3532  0.2753
 4105SOL     OW23950   1.269   4.374  14.961 -0.0059  0.0450  0.1033
 4105SOL    HW123951   1.282   4.419  14.877 -1.9990 -0.3719 -0.4288
 4105SOL    HW223952   1.336   4.417  15.015 -0.0237 -1.3852  1.2564
 4106SOL     OW23953   2.102   0.380   5.837 -0.1778 -0.5962 -0.3536
 4106SOL    HW123954   2.175   0.319   5.834 -0.2453 -0.7794  1.7162
 4106SOL    HW223955   2.090   0.401   5.744 -0.4096  0.0999 -0.1715
 4107SOL     OW23956   0.833   3.028  17.310 -0.6598 -0.0739  0.2112
 4107SOL    HW123957   0.739   3.033  17.289 -0.0923  1.3183 -2.0041
 4107SOL    HW223958   0.858   2.945  17.270  1.1567  1.2558 -1.3684
 4108SOL     OW23959   1.818   2.896   5.055 -0.1340 -0.5008 -0.2263
 4108SOL    HW123960   1.886   2.943   5.103  1.2191 -0.7714 -1.9053
 4108SOL    HW223961   1.769   2.847   5.122  0.2960 -2.0302 -1.0332
 4109SOL     OW23962   4.278   1.079   6.903 -0.2106  0.1943  0.3135
 4109SOL    HW123963   4.239   1.164   6.883  1.2027  0.7707  0.0054
 4109SOL    HW223964   4.355   1.117   6.946  0.6894 -2.4407  1.0618
 4110SOL     OW23965   1.513   0.576   3.321  0.0342 -0.1653 -0.1746
 4110SOL    HW123966   1.511   0.543   3.411  1.7284  2.3711  0.7875
 4110SOL    HW223967   1.536   0.500   3.268 -2.2755  0.0746 -1.5273
 4111SOL     OW23968   4.400   3.838   0.833 -0.3406  0.0677 -0.3614
 4111SOL    HW123969   4.374   3.915   0.782  0.0881 -1.3565 -2.7370
 4111SOL    HW223970   4.471   3.878   0.883 -0.6528  0.9638 -0.6351
 4112SOL     OW23971   0.851   0.364   2.065 -0.4510 -0.3834 -0.4968
 4112SOL    HW123972   0.916   0.332   2.003  1.3417  2.4806 -0.1050
 4112SOL    HW223973   0.779   0.387   2.006  0.7489  2.1961 -0.9765
 4113SOL     OW23974   0.396   2.792  10.896 -0.4784 -0.1120 -0.2463
 4113SOL    HW123975   0.415   2.801  10.990 -0.8978  1.5714 -0.3250
 4113SOL    HW223976   0.387   2.880  10.859  1.2165  0.1849  0.0241
 4114SOL     OW23977   4.085   3.257   8.102  0.1325 -0.1683  0.2847
 4114SOL    HW123978   4.098   3.176   8.053  1.3742  1.5888 -2.2754
 4114SOL    HW223979   4.164   3.303   8.075 -0.3454 -0.8954 -2.3169
 4115SOL     OW23980   0.069   1.387   4.239  0.1254 -0.6929  0.4291
 4115SOL    HW123981   0.090   1.322   4.172 -2.4217 -1.2791  0.2049
 4115SOL    HW223982   0.062   1.343   4.323 -0.7430 -1.6799 -0.1621
 4116SOL     OW23983   1.486   1.963   4.960 -0.2783  0.1862 -0.3584
 4116SOL    HW123984   1.441   2.046   4.946  1.3503  1.4508  1.8535
 4116SOL    HW223985   1.571   2.004   4.978  0.1156  0.1141 -2.0403
 4117SOL     OW23986   3.354   1.147   5.067  0.2052  0.0945  0.3764
 4117SOL    HW123987   3.434   1.102   5.094  0.1509 -0.1114  0.1981
 4117SOL    HW223988   3.344   1.218   5.130  0.0662  0.1290  0.3146
 4118SOL     OW23989   3.667   0.686  12.135 -0.3711  0.2550  0.9973
 4118SOL    HW123990   3.716   0.636  12.200 -2.6644 -2.1396  0.8761
 4118SOL    HW223991   3.580   0.655  12.160  0.6035 -2.1051  1.4485
 4119SOL     OW23992   2.135   3.632  13.663  0.6303  0.5183  0.0755
 4119SOL    HW123993   2.060   3.590  13.620 -1.1199  1.6682  1.9757
 4119SOL    HW223994   2.117   3.616  13.756  1.2237  0.0784  0.1129
 4120SOL     OW23995   0.540   4.489   1.300 -0.4959  0.4373  0.1947
 4120SOL    HW123996   0.530   4.483   1.395 -0.8004 -2.0530  0.0175
 4120SOL    HW223997   0.477   4.425   1.268  1.6801 -1.8827  0.4847
 4121SOL     OW23998   3.531   0.465   6.001 -0.3400 -0.0338  0.2516
 4121SOL    HW123999   3.535   0.376   6.037 -0.4045  0.0644  0.4983
 4121SOL    HW224000   3.617   0.470   5.958 -0.4101  0.6103  0.1933
 4122SOL     OW24001   1.896   1.629   9.182  0.1743 -0.8394  0.2909
 4122SOL    HW124002   1.883   1.720   9.158 -1.4354 -1.5950 -1.7143
 4122SOL    HW224003   1.811   1.585   9.188  0.1825 -0.9910 -0.6769
 4123SOL     OW24004   4.508   0.312   4.578  0.2770 -0.3038 -0.3804
 4123SOL    HW124005   4.572   0.322   4.649  1.1051 -1.8349 -0.9055
 4123SOL    HW224006   4.420   0.330   4.611  0.1345 -0.7298 -0.5258
 4124SOL     OW24007   2.232   4.608  15.250 -0.4155  0.1524  0.2792
 4124SOL    HW124008   2.249   4.526  15.204 -3.3276 -0.3561  0.1177
 4124SOL    HW224009   2.204   4.586  15.338  0.7121  1.9796  1.0894
 4125SOL     OW24010   4.460   0.145   9.228 -0.5626  0.1287 -0.4393
 4125SOL    HW124011   4.393   0.191   9.177 -0.1633  0.8732 -0.2924
 4125SOL    HW224012   4.412   0.125   9.309  2.1174  1.0921  1.3534
 4126SOL     OW24013   0.698   4.263   2.328  0.8716  0.3004 -0.0753
 4126SOL    HW124014   0.644   4.284   2.252  0.4377  1.7979  0.6489
 4126SOL    HW224015   0.734   4.350   2.344 -1.6549  1.1210  1.0318
 4127SOL     OW24016   2.429   3.715   5.069 -0.3468 -0.4424  0.1326
 4127SOL    HW124017   2.463   3.627   5.082 -0.2888 -0.3402  0.6900
 4127SOL    HW224018   2.348   3.721   5.118  0.4029 -0.2430  1.3550
 4128SOL     OW24019   3.305   3.305  10.004  0.4257  0.6106 -0.1234
 4128SOL    HW124020   3.301   3.401  10.001  1.0545  0.6981  1.6870
 4128SOL    HW224021   3.282   3.276   9.916  0.7922 -0.5742  0.1786
 4129SOL     OW24022   0.501   4.646   4.770 -0.0337 -0.6352  0.1239
 4129SOL    HW124023   0.486   4.551   4.774 -1.4906 -0.4701 -1.4109
 4129SOL    HW224024   0.488   4.668   4.862 -2.4085  1.0840 -0.6424
 4130SOL     OW24025   0.762   3.296   3.672  0.1304  0.2032  0.4079
 4130SOL    HW124026   0.813   3.272   3.750  0.8088 -2.4364 -0.8226
 4130SOL    HW224027   0.768   3.391   3.682 -0.5649  0.2533  0.3234
 4131SOL     OW24028   2.545   4.198   1.735 -0.3350 -0.5673 -0.3135
 4131SOL    HW124029   2.562   4.126   1.795  0.5218 -1.9615 -2.2208
 4131SOL    HW224030   2.476   4.164   1.678 -0.4177 -0.3703 -0.3328
 4132SOL     OW24031   3.007   2.589   7.011 -0.6886  0.2621  0.2038
 4132SOL    HW124032   2.994   2.565   7.103  1.4509 -0.8416  0.2171
 4132SOL    HW224033   3.064   2.665   7.025 -1.5165  0.7693  0.8583
 4133SOL     OW24034   4.696   2.527   1.173  0.3643 -0.4621 -0.0892
 4133SOL    HW124035   4.702   2.431   1.168  0.0483 -0.5035  0.3039
 4133SOL    HW224036   4.627   2.553   1.112  0.9322 -1.5513 -1.2051
 4134SOL     OW24037   0.786   4.656   3.958  0.0244  0.3864 -0.4588
 4134SOL    HW124038   0.748   4.737   3.925 -0.0861  0.7579  0.5914
 4134SOL    HW224039   0.880   4.673   3.950  0.1270 -0.6581 -1.5789
 4135SOL     OW24040   2.385   1.934  13.297 -0.0024 -0.0901 -0.4407
 4135SOL    HW124041   2.377   2.027  13.321 -2.2478 -0.5452  0.4931
 4135SOL    HW224042   2.295   1.901  13.290  0.5456 -1.9235  1.3725
 4136SOL     OW24043   1.017   1.775   3.160  0.1064 -0.0840  0.0543
 4136SOL    HW124044   0.930   1.815   3.149 -0.1908 -0.5966  0.5503
 4136SOL    HW224045   1.063   1.816   3.087 -0.8487 -0.0840 -0.5596
 4137SOL     OW24046   2.511   2.906   9.149 -0.9217 -0.2395  0.1682
 4137SOL    HW124047   2.580   2.840   9.142  0.7992  1.5523  0.1023
 4137SOL    HW224048   2.513   2.927   9.243  0.8783 -1.5121  0.4066
 4138SOL     OW24049   3.674   1.697   8.333  0.1392  0.2730 -0.0962
 4138SOL    HW124050   3.647   1.647   8.410  1.1807 -2.0679 -1.2447
 4138SOL    HW224051   3.650   1.647   8.255 -0.6228 -1.2101  1.0753
 4139SOL     OW24052   1.020   3.817  16.680  0.4060 -0.1281  0.0357
 4139SOL    HW124053   0.947   3.771  16.722  0.3753 -0.2952 -0.1974
 4139SOL    HW224054   1.077   3.838  16.753 -0.4809 -0.1622  0.7416
 4140SOL     OW24055   3.842   1.042   1.208  0.0943  0.0836  0.1768
 4140SOL    HW124056   3.787   1.014   1.281  0.7792 -3.1753 -0.5249
 4140SOL    HW224057   3.926   1.056   1.252  0.5939 -0.0009 -0.7459
 4141SOL     OW24058   3.996   2.935  17.079 -0.1291 -0.4846 -0.6040
 4141SOL    HW124059   3.978   2.851  17.037 -0.8122 -2.4083  3.5119
 4141SOL    HW224060   3.917   2.985  17.059 -0.6245 -0.9302  0.2488
 4142SOL     OW24061   1.296   4.574  15.342 -0.1105  0.3879 -0.3113
 4142SOL    HW124062   1.219   4.592  15.395  0.0295  4.2228 -1.4675
 4142SOL    HW224063   1.259   4.514  15.277 -0.9010  0.6600 -0.1046
 4143SOL     OW24064   0.502   3.474   5.018 -0.8134  0.5880  0.2299
 4143SOL    HW124065   0.439   3.455   5.088  1.0816  1.0268  2.0613
 4143SOL    HW224066   0.510   3.391   4.971  1.6823  0.1149  1.4555
 4144SOL     OW24067   0.525   1.689   5.935  0.2087  0.1344  0.2061
 4144SOL    HW124068   0.615   1.670   5.909 -0.9431 -1.5463 -2.5632
 4144SOL    HW224069   0.481   1.694   5.850  0.6554  0.4228 -0.0131
 4145SOL     OW24070   3.481   2.283   9.395 -0.0044 -0.1885  0.1802
 4145SOL    HW124071   3.509   2.246   9.479  1.4192  0.7645  0.1219
 4145SOL    HW224072   3.442   2.365   9.427 -0.7849  0.1495 -1.6500
 4146SOL     OW24073   4.627   4.362   6.183 -0.8084 -0.0418 -0.6963
 4146SOL    HW124074   4.604   4.300   6.114  0.3792  0.5840 -1.6759
 4146SOL    HW224075   4.715   4.330   6.200 -0.9395  0.0946  0.2191
 4147SOL     OW24076   2.622   2.260  12.205  0.0254 -0.3917  0.2044
 4147SOL    HW124077   2.627   2.175  12.162 -2.1439 -0.4084 -0.0228
 4147SOL    HW224078   2.584   2.223  12.285  1.4976  0.3005  1.2291
 4148SOL     OW24079   0.248   3.038   2.899 -0.7082 -0.0826  0.0263
 4148SOL    HW124080   0.329   3.078   2.931 -0.6715  0.6647 -1.0036
 4148SOL    HW224081   0.292   2.986   2.831  0.8157  2.5770 -1.0367
 4149SOL     OW24082   0.461   0.067  12.151  0.0710 -0.1924 -0.0027
 4149SOL    HW124083   0.374   0.082  12.115 -0.0059  0.8726  0.6196
 4149SOL    HW224084   0.486   4.724  12.107 -0.2371 -1.1757  1.6542
 4150SOL     OW24085   0.954   0.661   4.719 -0.0644 -0.1139  0.1204
 4150SOL    HW124086   0.880   0.695   4.769 -0.9683  1.6281 -2.3949
 4150SOL    HW224087   0.978   0.575   4.754  1.5819  0.7745  1.1997
 4151SOL     OW24088   1.931   2.099   9.723  0.0283 -0.3247  0.3676
 4151SOL    HW124089   1.894   2.102   9.812 -1.5570  1.3281 -0.3408
 4151SOL    HW224090   1.882   2.022   9.693  1.9699 -1.2278 -0.4442
 4152SOL     OW24091   0.048   2.695   9.845  0.2074  0.2822  1.0252
 4152SOL    HW124092   0.131   2.689   9.892  0.4352  4.4815  1.2167
 4152SOL    HW224093   4.727   2.653   9.907 -0.2841  1.1272  1.1265
 4153SOL     OW24094   3.969   0.333   9.529 -0.0244  0.1907  0.4087
 4153SOL    HW124095   3.969   0.417   9.483  1.5014 -1.4187 -2.5073
 4153SOL    HW224096   3.885   0.297   9.498  0.2685 -0.6097  0.5425
 4154SOL     OW24097   3.909   3.642   7.149 -0.0746  0.5467  0.1701
 4154SOL    HW124098   3.973   3.600   7.090  0.8955  1.1649  0.7902
 4154SOL    HW224099   3.862   3.561   7.170  0.3220  0.3384  0.2627
 4155SOL     OW24100   3.920   3.977  14.363  0.0120 -0.5971  0.0302
 4155SOL    HW124101   4.011   3.948  14.355  0.2033 -0.3583  1.2576
 4155SOL    HW224102   3.902   3.988  14.270 -1.1304 -0.7510  0.2356
 4156SOL     OW24103   2.838   0.448   9.014  0.0428 -0.1932 -0.0005
 4156SOL    HW124104   2.843   0.472   8.922  2.1652  1.2280  0.5119
 4156SOL    HW224105   2.760   0.496   9.044  0.2354  0.1076  0.0176
 4157SOL     OW24106   2.729   2.300   2.361 -0.4340  0.0998 -0.9210
 4157SOL    HW124107   2.767   2.219   2.327  2.2632  0.5064  1.1090
 4157SOL    HW224108   2.697   2.346   2.284 -0.6234  2.8142  0.7905
 4158SOL     OW24109   3.758   0.168   4.799 -0.0748 -0.7179 -0.4519
 4158SOL    HW124110   3.779   0.082   4.835 -1.1180 -0.3423  1.0359
 4158SOL    HW224111   3.678   0.136   4.759  0.6868 -0.4982 -2.1542
 4159SOL     OW24112   4.689   4.033   6.210  0.7070 -0.2416  0.1589
 4159SOL    HW124113   4.699   3.945   6.172  1.1605 -0.4802  0.8191
 4159SOL    HW224114   4.683   4.018   6.305  1.6781  1.3034  0.4692
 4160SOL     OW24115   2.501   3.179   4.600 -0.5269 -0.0573 -0.4153
 4160SOL    HW124116   2.595   3.164   4.590 -0.3558  0.2691  0.7123
 4160SOL    HW224117   2.459   3.093   4.610 -0.4121 -0.3377 -2.3901
 4161SOL     OW24118   1.876   0.995   7.128 -0.1507  0.5162  0.0848
 4161SOL    HW124119   1.945   0.943   7.168  0.3491  1.0401 -0.0971
 4161SOL    HW224120   1.823   0.928   7.084  2.1664 -0.6294 -0.9538
 4162SOL     OW24121   1.966   3.451   7.279  0.1972  0.2976 -0.6098
 4162SOL    HW124122   1.911   3.376   7.301  1.1454 -0.1480  0.2592
 4162SOL    HW224123   1.937   3.466   7.189  0.3485  1.1896 -0.5113
 4163SOL     OW24124   1.261   1.732   4.536 -0.0986 -0.2798 -0.1971
 4163SOL    HW124125   1.308   1.807   4.500  1.0247 -0.7584  0.2874
 4163SOL    HW224126   1.192   1.725   4.470 -1.1013  2.0767  0.5903
 4164SOL     OW24127   0.550   1.075   8.691 -0.2873  0.1421  0.0382
 4164SOL    HW124128   0.591   1.028   8.619 -0.4625 -3.4286  2.2609
 4164SOL    HW224129   0.636   1.100   8.727  0.1676 -0.1752 -0.8317
 4165SOL     OW24130   4.584   1.547  12.636 -0.0796  0.0407 -0.4417
 4165SOL    HW124131   4.580   1.466  12.687 -2.1518  1.3367  1.4438
 4165SOL    HW224132   4.595   1.607  12.710 -0.7710 -0.1638 -0.1728
 4166SOL     OW24133   2.171   1.080   8.961 -0.2548  0.3792 -0.8521
 4166SOL    HW124134   2.131   1.164   8.986  0.2506  0.5963 -0.7633
 4166SOL    HW224135   2.264   1.100   8.971 -0.3627  0.4907 -0.0331
 4167SOL     OW24136   1.680   3.933   5.665 -0.0947  0.1171  0.4762
 4167SOL    HW124137   1.682   3.939   5.760 -0.7607 -1.9505  0.6122
 4167SOL    HW224138   1.594   3.972   5.649 -1.0275 -2.0290  0.2566
 4168SOL     OW24139   4.207   0.916   5.261  0.0355  0.3679  0.4553
 4168SOL    HW124140   4.285   0.861   5.263 -0.8811 -1.0114 -1.8586
 4168SOL    HW224141   4.240   1.003   5.281 -1.9175  0.8918  1.4101
 4169SOL     OW24142   1.198   0.653  10.708 -0.2533  0.4417 -0.2712
 4169SOL    HW124143   1.204   0.664  10.613 -2.0178  1.3984 -0.2710
 4169SOL    HW224144   1.249   0.715  10.760  0.3817  0.1393 -0.5427
 4170SOL     OW24145   2.944   3.445   8.879 -0.1885  0.7078 -0.0245
 4170SOL    HW124146   2.969   3.520   8.824  0.9302  0.2882 -0.0874
 4170SOL    HW224147   2.884   3.401   8.819 -0.0039 -0.6819  0.8027
 4171SOL     OW24148   1.796   0.044  12.806  0.6261 -0.6093  0.8046
 4171SOL    HW124149   1.749   0.041  12.723  2.7236  0.7360 -0.4162
 4171SOL    HW224150   1.870   4.724  12.799  0.3292 -1.2280  3.0067
 4172SOL     OW24151   1.753   0.692   5.943  0.1785 -0.2664  0.3221
 4172SOL    HW124152   1.774   0.693   5.850  1.1710 -0.6609  0.5441
 4172SOL    HW224153   1.841   0.686   5.980  0.4328  1.5745 -0.0103
 4173SOL     OW24154   1.826   4.119   6.780 -0.3722  0.6044 -0.0077
 4173SOL    HW124155   1.804   4.187   6.845 -0.0251 -2.5822  3.4689
 4173SOL    HW224156   1.861   4.168   6.706  1.8772  0.7767  1.1420
 4174SOL     OW24157   3.468   4.736   8.600  0.3109  0.2217  0.7569
 4174SOL    HW124158   3.393   4.686   8.632  0.2403 -0.5493 -0.6163
 4174SOL    HW224159   3.491   4.695   8.517  0.7624 -0.7882  1.3765
 4175SOL     OW24160   3.070   0.612   8.668  0.0454  0.3432  0.1636
 4175SOL    HW124161   2.996   0.614   8.729  1.6496 -0.5757  2.1308
 4175SOL    HW224162   3.085   0.520   8.644  1.6332  0.8466 -0.7822
 4176SOL     OW24163   3.938   3.717   1.942 -0.2894  0.0347  0.3610
 4176SOL    HW124164   4.030   3.691   1.943 -0.0449  0.8771 -0.1526
 4176SOL    HW224165   3.940   3.799   1.992 -0.2533 -0.2831  0.8846
 4177SOL     OW24166   4.185   3.976   1.558 -0.1191  0.3123  0.5318
 4177SOL    HW124167   4.099   4.007   1.587 -1.1976  1.4093 -3.9632
 4177SOL    HW224168   4.146   3.942   1.478  0.8115 -0.1466  0.2705
 4178SOL     OW24169   4.719   0.138   0.818  1.0321  0.3763 -0.4369
 4178SOL    HW124170   0.019   0.225   0.822  1.5808  0.2039 -1.8601
 4178SOL    HW224171   0.060   0.086   0.806  1.6258  1.4948 -1.2668
 4179SOL     OW24172   3.249   4.404   2.364 -0.1076 -0.1663 -0.5033
 4179SOL    HW124173   3.212   4.322   2.399  0.3417 -0.4880 -0.7812
 4179SOL    HW224174   3.176   4.447   2.320 -0.9354 -0.7947  0.2601
 4180SOL     OW24175   3.035   0.318   6.625 -0.1732  0.0277  0.3054
 4180SOL    HW124176   3.126   0.295   6.608 -0.5994 -1.0857 -0.4100
 4180SOL    HW224177   3.046   0.312   6.720 -0.4373 -1.3155  0.2493
 4181SOL     OW24178   2.979   2.673   4.700 -0.2472 -0.0584  0.3260
 4181SOL    HW124179   2.891   2.656   4.734  0.1758 -2.6587  0.1207
 4181SOL    HW224180   2.985   2.620   4.620 -0.5806  0.9974 -0.3853
 4182SOL     OW24181   2.271   4.548   6.410  0.1582 -0.4497  0.2793
 4182SOL    HW124182   2.356   4.536   6.452  1.2199  1.6832 -1.2622
 4182SOL    HW224183   2.269   4.643   6.399  0.9108 -0.3229  1.3144
 4183SOL     OW24184   0.011   3.414  11.541  0.0966 -0.6612  0.2786
 4183SOL    HW124185   4.680   3.350  11.539  0.0056 -0.5564  0.1695
 4183SOL    HW224186   0.029   3.414  11.447 -0.0681  2.5325  0.2459
 4184SOL     OW24187   2.263   2.714   1.588  0.2778 -0.2092 -0.2615
 4184SOL    HW124188   2.297   2.659   1.518  2.8775  1.1557 -0.0752
 4184SOL    HW224189   2.245   2.647   1.655  1.4938 -0.2950 -0.0157
 4185SOL     OW24190   3.469   3.693  15.288  0.1974  0.2357 -0.2052
 4185SOL    HW124191   3.427   3.772  15.322  1.8579 -0.0046  2.4304
 4185SOL    HW224192   3.549   3.731  15.250  1.2702  0.7286  2.5084
 4186SOL     OW24193   3.640   4.266   4.939  0.2747 -0.2299  0.4304
 4186SOL    HW124194   3.639   4.200   4.869  0.0037 -1.2753  1.4203
 4186SOL    HW224195   3.728   4.243   4.969  0.5074  0.9793  0.6792
 4187SOL     OW24196   3.232   2.140   1.868 -0.0833 -0.1786 -0.7084
 4187SOL    HW124197   3.280   2.096   1.937  0.8657  2.6439  0.4473
 4187SOL    HW224198   3.277   2.225   1.861  0.5482 -0.4331  0.4002
 4188SOL     OW24199   1.161   3.001  15.168  0.0505  0.2827 -0.0688
 4188SOL    HW124200   1.159   3.041  15.081  0.2067 -1.5889 -0.9368
 4188SOL    HW224201   1.237   2.945  15.155  0.9397  1.4273  0.2199
 4189SOL     OW24202   4.614   2.880   4.490  0.2310  0.8553  0.0143
 4189SOL    HW124203   4.663   2.887   4.571 -1.2070  0.8585  0.8798
 4189SOL    HW224204   4.685   2.879   4.426  1.5877 -4.1581  1.5746
 4190SOL     OW24205   0.748   2.674   2.348  0.4592  0.6294 -0.4319
 4190SOL    HW124206   0.827   2.689   2.297  0.9562  0.1559  0.1933
 4190SOL    HW224207   0.701   2.755   2.329 -1.1472 -0.4190 -0.9866
 4191SOL     OW24208   1.201   2.409   7.009 -0.5551 -0.1728  0.3117
 4191SOL    HW124209   1.121   2.398   6.957  0.4605  0.2396 -1.3239
 4191SOL    HW224210   1.231   2.493   6.974 -1.3844  0.5020  1.2469
 4192SOL     OW24211   3.039   0.847   6.735 -0.4925  0.2856  0.2030
 4192SOL    HW124212   3.123   0.844   6.690  0.5087 -1.4767  2.1953
 4192SOL    HW224213   3.069   0.880   6.820  0.1235 -0.4954  0.2892
 4193SOL     OW24214   0.127   1.527   5.815 -0.0307  0.1556 -0.2164
 4193SOL    HW124215   0.186   1.600   5.797  1.5983 -1.3029 -0.7344
 4193SOL    HW224216   0.180   1.458   5.774 -0.5587  0.3422 -1.2041
 4194SOL     OW24217   1.463   3.379  15.390  0.5560  0.1690 -0.3803
 4194SOL    HW124218   1.558   3.368  15.392  0.6662  1.2131  0.5130
 4194SOL    HW224219   1.429   3.290  15.400  1.5829 -0.1589  0.2469
 4195SOL     OW24220   1.751   1.832   0.896  0.4919 -0.1298 -0.4367
 4195SOL    HW124221   1.814   1.786   0.952 -0.4237 -0.7072  0.1213
 4195SOL    HW224222   1.708   1.891   0.959  1.0267  0.6242 -0.7801
 4196SOL     OW24223   2.733   0.742   0.264 -0.2582 -0.4337  0.2226
 4196SOL    HW124224   2.725   0.804   0.336  1.2595  0.7319 -0.6168
 4196SOL    HW224225   2.793   0.791   0.207  0.6420 -0.6070  1.0326
 4197SOL     OW24226   3.302   1.821   8.415 -0.3504 -0.0445 -0.3503
 4197SOL    HW124227   3.329   1.749   8.358  1.0107 -0.4084  0.7608
 4197SOL    HW224228   3.247   1.767   8.472 -0.0772 -1.0092 -0.9985
 4198SOL     OW24229   3.892   3.940   9.002  0.2133  0.2711  0.0026
 4198SOL    HW124230   3.856   3.928   9.090 -2.5707 -1.9429 -1.4246
 4198SOL    HW224231   3.982   3.908   9.009  0.2276 -0.3723 -2.9558
 4199SOL     OW24232   4.732   4.013   8.981  0.2692  0.2136 -0.4575
 4199SOL    HW124233   0.004   4.063   9.062  0.0252  0.3838 -0.5253
 4199SOL    HW224234   4.665   3.954   9.014  1.2904 -1.1684 -0.8799
 4200SOL     OW24235   1.896   0.131   6.106 -0.3740 -0.3026 -0.5032
 4200SOL    HW124236   1.919   0.066   6.172 -1.9833 -2.6676 -2.2844
 4200SOL    HW224237   1.976   0.184   6.103 -1.4788  1.3618 -1.1723
 4201SOL     OW24238   0.372   1.294  15.878  0.3075 -0.2789  0.2407
 4201SOL    HW124239   0.397   1.383  15.853  0.9624 -0.6833 -0.5241
 4201SOL    HW224240   0.301   1.306  15.941  0.5637 -1.2799  0.7146
 4202SOL     OW24241   2.674   0.637  13.898 -0.0156 -0.2989 -0.0985
 4202SOL    HW124242   2.579   0.641  13.912  0.1275 -0.2658  0.9071
 4202SOL    HW224243   2.705   0.562  13.949 -3.0474 -0.9314  0.8057
 4203SOL     OW24244   4.344   3.333   9.966 -0.1170  0.2088 -0.1107
 4203SOL    HW124245   4.350   3.255  10.020 -1.5193  0.6270  0.6610
 4203SOL    HW224246   4.267   3.301   9.918 -0.4230 -0.8244  1.0651
 4204SOL     OW24247   0.593   0.350   3.656 -0.5430  0.5374 -0.0147
 4204SOL    HW124248   0.532   0.288   3.616  0.0656  0.5962 -1.0247
 4204SOL    HW224249   0.674   0.300   3.661 -0.5368  0.7614  2.0958
 4205SOL     OW24250   4.737   3.255   4.018  0.4186 -0.1912 -0.0809
 4205SOL    HW124251   4.738   3.350   4.027 -0.8142 -0.1530 -0.3736
 4205SOL    HW224252   0.007   3.231   4.111  1.0385  0.0514 -0.0799
 4206SOL     OW24253   1.767   0.436  15.163 -0.2175  0.1865 -0.7091
 4206SOL    HW124254   1.836   0.446  15.097  0.6962 -0.1179  0.2072
 4206SOL    HW224255   1.699   0.496  15.134  0.6648  0.5739 -1.9848
 4207SOL     OW24256   0.938   2.759   2.148 -0.6217 -0.4588  0.4455
 4207SOL    HW124257   1.028   2.785   2.169 -0.4704  2.0522 -3.1171
 4207SOL    HW224258   0.940   2.693   2.079  1.9151  2.3800 -2.2548
 4208SOL     OW24259   2.338   0.212   5.761  0.0718  0.1855  0.3241
 4208SOL    HW124260   2.356   0.159   5.683 -0.0493 -0.0052  0.4257
 4208SOL    HW224261   2.376   0.294   5.730  0.7461  0.1220  0.9766
 4209SOL     OW24262   4.686   0.595   8.372  0.0989 -0.0803  0.4157
 4209SOL    HW124263   0.031   0.555   8.353  1.0756  0.5289  3.5274
 4209SOL    HW224264   4.662   0.551   8.453 -1.0191 -0.3302 -0.0476
 4210SOL     OW24265   4.497   1.618   6.132 -0.8237  0.4267  0.5987
 4210SOL    HW124266   4.420   1.645   6.083 -1.0209  0.0212  0.6901
 4210SOL    HW224267   4.544   1.556   6.077 -2.0248  1.2069 -1.3055
 4211SOL     OW24268   0.694   2.255   8.883 -0.0227 -0.0764 -0.1147
 4211SOL    HW124269   0.635   2.322   8.918 -2.4956 -2.1623 -0.2928
 4211SOL    HW224270   0.627   2.202   8.841 -1.4810  1.6600  0.0284
 4212SOL     OW24271   0.228   1.988  17.098  0.1717  0.1286 -0.0449
 4212SOL    HW124272   0.297   1.945  17.148  0.2327 -0.5754 -0.7251
 4212SOL    HW224273   0.158   1.928  17.124 -1.1689  1.0965 -1.4298
 4213SOL     OW24274   4.564   0.407   6.170 -0.8358 -0.2811  0.2872
 4213SOL    HW124275   4.549   0.446   6.084 -0.8975 -0.6396  0.1375
 4213SOL    HW224276   4.642   0.455   6.198  0.0982 -0.5922 -1.7828
 4214SOL     OW24277   1.368   2.524   4.085 -0.1413 -0.1299  0.1729
 4214SOL    HW124278   1.318   2.455   4.041  1.2356 -1.6090  0.9514
 4214SOL    HW224279   1.456   2.519   4.048  0.0901 -0.1000  0.7185
 4215SOL     OW24280   4.128   1.744   4.417 -0.4172 -0.3487 -0.1234
 4215SOL    HW124281   4.079   1.802   4.358 -2.6474 -3.0729 -0.9336
 4215SOL    HW224282   4.080   1.743   4.500 -0.7074  1.3149 -0.2634
 4216SOL     OW24283   1.772   0.939   4.593 -0.6311  0.1460 -0.2873
 4216SOL    HW124284   1.796   0.863   4.540  1.8747 -0.3993  1.5916
 4216SOL    HW224285   1.754   1.005   4.526 -0.0226 -0.2221 -0.8091
 4217SOL     OW24286   3.691   0.161  12.804 -0.4456  0.1424 -0.2346
 4217SOL    HW124287   3.708   0.091  12.868  1.7065  0.5445 -0.3755
 4217SOL    HW224288   3.648   0.109  12.735 -2.0668  0.9738  0.1446
 4218SOL     OW24289   1.293   1.514   8.911  0.6162 -0.0859 -0.0890
 4218SOL    HW124290   1.381   1.549   8.923  0.1628  0.1963  2.5370
 4218SOL    HW224291   1.241   1.576   8.962  1.5594 -0.6199  1.5374
 4219SOL     OW24292   1.458   0.628  13.838  0.6209 -0.2825  0.9016
 4219SOL    HW124293   1.474   0.560  13.902 -2.2706 -2.0534 -0.2624
 4219SOL    HW224294   1.493   0.710  13.874  0.3476  0.0438  0.4336
 4220SOL     OW24295   4.084   2.798   4.846 -0.0827  0.3081  0.1462
 4220SOL    HW124296   4.163   2.783   4.794 -0.5251 -1.8894  0.1065
 4220SOL    HW224297   4.027   2.735   4.803  0.1810 -0.8235  1.4602
 4221SOL     OW24298   2.015   4.325  11.401  0.8223  0.1159  0.0862
 4221SOL    HW124299   2.083   4.305  11.337  2.2883  0.1349  1.6354
 4221SOL    HW224300   2.030   4.247  11.455 -1.0746 -1.2085 -1.2947
 4222SOL     OW24301   4.227   2.277   7.004  0.4498 -0.6033 -0.2262
 4222SOL    HW124302   4.290   2.347   6.986 -0.0502  0.4589  2.2257
 4222SOL    HW224303   4.140   2.313   6.986 -0.0343 -0.9651  1.4187
 4223SOL     OW24304   0.598   1.972   4.164 -0.2834  0.3936  0.6630
 4223SOL    HW124305   0.605   2.022   4.082 -1.1397 -1.0315 -0.2841
 4223SOL    HW224306   0.664   2.010   4.222  0.2763 -0.6247  0.6991
 4224SOL     OW24307   4.478   2.273   8.719 -0.2430 -0.7386  0.1237
 4224SOL    HW124308   4.442   2.185   8.728 -0.0198 -0.7240  1.1325
 4224SOL    HW224309   4.415   2.317   8.662 -1.0523  1.4219  2.6794
 4225SOL     OW24310   2.645   3.604   9.452 -0.4913 -0.5390  0.1643
 4225SOL    HW124311   2.605   3.555   9.524 -0.5650  0.3611  0.7286
 4225SOL    HW224312   2.659   3.687   9.496  1.3933 -1.3232  1.0575
 4226SOL     OW24313   2.786   0.847   8.942  0.6335 -0.2026 -1.0186
 4226SOL    HW124314   2.757   0.929   8.902 -0.5213 -0.6019 -1.0046
 4226SOL    HW224315   2.851   0.886   9.002  0.3201 -2.0998  0.5578
 4227SOL     OW24316   4.335   2.419   5.367  0.2399 -0.1335  0.3933
 4227SOL    HW124317   4.396   2.386   5.433  0.4337  0.4088  0.4801
 4227SOL    HW224318   4.270   2.350   5.356 -1.1670  0.9736  1.7341
 4228SOL     OW24319   2.858   2.895   9.927  0.2793  0.8080  0.3614
 4228SOL    HW124320   2.879   2.961   9.860 -1.1900 -0.8188 -1.6904
 4228SOL    HW224321   2.767   2.876   9.904  0.6234  0.2597 -0.5405
 4229SOL     OW24322   4.310   1.485   5.389 -0.6794 -0.4306 -0.4564
 4229SOL    HW124323   4.382   1.528   5.343 -0.9587  0.6553  0.1249
 4229SOL    HW224324   4.254   1.460   5.316 -1.4645  0.5476 -0.1840
 4230SOL     OW24325   1.236   0.472   4.223  0.0441 -0.1411 -0.3073
 4230SOL    HW124326   1.285   0.416   4.162 -0.3948 -1.2239  0.3311
 4230SOL    HW224327   1.271   0.551   4.183 -1.2174 -1.0201 -3.2111
 4231SOL     OW24328   2.136   1.969   7.306 -0.3031  0.4895  0.1179
 4231SOL    HW124329   2.215   2.017   7.283 -0.8190  1.1212 -0.3118
 4231SOL    HW224330   2.156   1.882   7.270 -2.0198 -0.0754  0.5304
 4232SOL     OW24331   4.157   3.121   0.768  0.1619  0.2146  0.2643
 4232SOL    HW124332   4.104   3.141   0.845  0.1323  2.4743 -0.3492
 4232SOL    HW224333   4.172   3.211   0.739  2.1376 -0.4009 -0.6819
 4233SOL     OW24334   2.046   1.595   3.642  0.1937  0.4749 -0.6126
 4233SOL    HW124335   2.119   1.649   3.671 -0.1773  0.3712  0.5041
 4233SOL    HW224336   1.974   1.660   3.643 -1.3681 -1.2999  1.4230
 4234SOL     OW24337   1.456   2.512  13.172  0.2827  0.6897  0.7597
 4234SOL    HW124338   1.382   2.565  13.203  0.8795  1.6719  0.5264
 4234SOL    HW224339   1.435   2.428  13.212 -0.9757  0.6870  0.1153
 4235SOL     OW24340   3.853   4.335   0.227  0.0835  0.3012  0.3493
 4235SOL    HW124341   3.779   4.374   0.180  0.7269  0.9252 -0.1443
 4235SOL    HW224342   3.908   4.412   0.216  2.0879 -1.5757 -2.8160
 4236SOL     OW24343   2.200   0.294   9.931 -0.0441 -0.2340 -0.5892
 4236SOL    HW124344   2.291   0.273   9.950  0.4264  1.4054 -1.0596
 4236SOL    HW224345   2.202   0.245   9.848  0.6153 -0.1207 -0.6409
 4237SOL     OW24346   2.143   0.077   9.358 -0.6649 -0.1303  0.1622
 4237SOL    HW124347   2.076   0.016   9.388 -1.5637 -0.4441 -2.5118
 4237SOL    HW224348   2.164   0.039   9.273 -0.8989  1.9638 -0.8315
 4238SOL     OW24349   2.248   2.770   1.293  0.5199 -0.1039 -0.3573
 4238SOL    HW124350   2.314   2.820   1.340  0.0007  2.1024 -1.9454
 4238SOL    HW224351   2.192   2.750   1.368  1.3518  2.2228  0.8563
 4239SOL     OW24352   1.836   1.440   9.651 -0.3155 -0.1675  0.8459
 4239SOL    HW124353   1.785   1.376   9.701  1.6026 -3.0517 -0.8165
 4239SOL    HW224354   1.796   1.432   9.564 -1.7264 -0.3098  1.5149
 4240SOL     OW24355   0.939   1.884   8.360  0.2910  0.0768 -0.3990
 4240SOL    HW124356   1.023   1.926   8.340  1.5867 -0.6334  3.5999
 4240SOL    HW224357   0.980   1.801   8.385 -0.7183 -0.1745  0.3996
 4241SOL     OW24358   4.302   0.060   3.789  0.2127  0.2928  0.2622
 4241SOL    HW124359   4.371   0.107   3.743  0.1644  0.6630  0.5631
 4241SOL    HW224360   4.256   0.127   3.841 -0.7067  0.0613 -0.2446
 4242SOL     OW24361   4.583   1.321   3.544 -0.1994 -0.3465  0.5213
 4242SOL    HW124362   4.674   1.299   3.561  0.3009  1.3220  0.0295
 4242SOL    HW224363   4.548   1.290   3.627 -1.5669  1.8826  0.7847
 4243SOL     OW24364   1.531   2.438  10.396 -0.4622 -0.2318  0.2326
 4243SOL    HW124365   1.552   2.528  10.369  1.2397 -1.0480 -1.1682
 4243SOL    HW224366   1.526   2.444  10.492 -0.2511 -1.9972  0.3500
 4244SOL     OW24367   4.036   4.334   7.589 -0.2534 -0.1014 -0.6302
 4244SOL    HW124368   4.018   4.342   7.683  0.2879 -2.0989 -0.3583
 4244SOL    HW224369   3.990   4.252   7.572  1.0059 -1.5742  3.1034
 4245SOL     OW24370   4.056   2.799   9.361 -0.5152  0.6963  0.1008
 4245SOL    HW124371   4.060   2.704   9.374  4.1201  1.1191  1.7830
 4245SOL    HW224372   3.965   2.821   9.381 -0.7513 -0.9058  0.7883
 4246SOL     OW24373   1.994   4.374   7.653 -0.2524 -0.2008 -0.1456
 4246SOL    HW124374   2.027   4.401   7.739  0.0533  0.3232 -0.4338
 4246SOL    HW224375   1.919   4.428   7.631 -0.1512 -0.6904 -1.6923
 4247SOL     OW24376   0.539   1.667  11.179  0.0984  0.9975 -0.0092
 4247SOL    HW124377   0.595   1.590  11.177  0.7144  1.4262  0.9065
 4247SOL    HW224378   0.534   1.700  11.089 -1.5858  1.0132  0.0886
 4248SOL     OW24379   3.455   2.051   4.156 -0.4063 -0.2384 -0.1096
 4248SOL    HW124380   3.473   1.959   4.172  0.8277 -0.2631 -1.6487
 4248SOL    HW224381   3.359   2.052   4.166 -0.1950  1.5203  1.6512
 4249SOL     OW24382   3.764   2.379   9.685  0.0337 -0.3677  0.6182
 4249SOL    HW124383   3.859   2.388   9.695  0.0790 -0.6853  0.4849
 4249SOL    HW224384   3.745   2.435   9.610 -0.9159  0.0371  1.1605
 4250SOL     OW24385   1.849   2.683   7.923 -0.1940 -0.4848 -0.0679
 4250SOL    HW124386   1.811   2.758   7.969 -0.1348  0.7174 -1.9764
 4250SOL    HW224387   1.882   2.631   7.996 -1.2633 -2.1458 -0.7596
 4251SOL     OW24388   1.759   0.759   2.160 -0.1088  0.0705 -0.0933
 4251SOL    HW124389   1.835   0.701   2.166 -0.1766  0.0480  0.5220
 4251SOL    HW224390   1.691   0.694   2.140 -0.2614  0.2164 -0.0497
 4252SOL     OW24391   0.316   0.274   4.157  0.6595  0.4556  1.4179
 4252SOL    HW124392   0.389   0.285   4.218  0.8520 -0.4095  1.3355
 4252SOL    HW224393   0.320   0.180   4.143 -0.3935  0.8938 -1.7927
 4253SOL     OW24394   2.653   4.105   6.236  0.4084  0.0616  0.1372
 4253SOL    HW124395   2.578   4.081   6.182 -0.5657  0.7545  1.1726
 4253SOL    HW224396   2.677   4.197   6.223  1.8853 -0.3402 -0.0456
 4254SOL     OW24397   4.070   1.416   3.174  0.0082  0.9982  0.0752
 4254SOL    HW124398   4.082   1.453   3.261  0.0691  1.4193 -0.1085
 4254SOL    HW224399   4.155   1.378   3.153  0.4500  0.8243  2.2004
 4255SOL     OW24400   4.243   4.466  14.058  0.3008 -0.5004 -0.1498
 4255SOL    HW124401   4.321   4.459  14.114 -1.7964 -1.4566  2.6802
 4255SOL    HW224402   4.280   4.434  13.976 -0.9943 -2.2198 -0.0633
 4256SOL     OW24403   0.492   2.087   2.791 -0.4523  0.8101 -0.2519
 4256SOL    HW124404   0.462   2.032   2.718 -0.4154  0.9796 -0.3931
 4256SOL    HW224405   0.439   2.162   2.766 -2.0932 -0.5626 -0.9425
 4257SOL     OW24406   4.538   2.144   8.381  0.0888 -0.3515 -0.0281
 4257SOL    HW124407   4.533   2.173   8.290 -1.2571 -1.9048 -0.4376
 4257SOL    HW224408   4.445   2.130   8.398 -0.4352  1.2367 -1.5816
 4258SOL     OW24409   0.670   2.856   8.413 -0.4706  0.0444 -0.3234
 4258SOL    HW124410   0.723   2.926   8.451 -0.2895 -0.4102  0.2629
 4258SOL    HW224411   0.591   2.891   8.453  1.7330  0.5459  3.5622
 4259SOL     OW24412   2.684   2.649   8.490 -0.7586  0.1659 -0.4013
 4259SOL    HW124413   2.637   2.697   8.422 -0.0171  1.4328 -0.0171
 4259SOL    HW224414   2.761   2.704   8.503 -0.2745 -0.6526  0.1938
 4260SOL     OW24415   0.165   0.423   0.278  0.2890 -0.6931 -0.5276
 4260SOL    HW124416   0.198   0.476   0.205 -0.5948  0.6691  0.0536
 4260SOL    HW224417   0.092   0.374   0.240 -3.0881  2.5061  1.7923
 4261SOL     OW24418   2.648   0.884   2.157  0.2392  0.2775  0.4676
 4261SOL    HW124419   2.677   0.937   2.082 -0.3166  0.5108  0.4160
 4261SOL    HW224420   2.552   0.894   2.159  0.2601  0.6202 -0.0219
 4262SOL     OW24421   3.222   2.234  13.048  0.1626 -0.0666  0.1653
 4262SOL    HW124422   3.205   2.197  12.961  0.7244 -0.7918  0.3655
 4262SOL    HW224423   3.133   2.262  13.068 -0.4508 -0.7978 -1.5234
 4263SOL     OW24424   3.164   2.884   1.693  0.2784  0.3798 -0.7225
 4263SOL    HW124425   3.094   2.836   1.649  0.1982 -0.3073  0.1487
 4263SOL    HW224426   3.204   2.813   1.743  1.8095  1.2903 -0.6439
 4264SOL     OW24427   0.064   4.044   1.447 -0.0421  0.4515  0.3285
 4264SOL    HW124428   0.087   4.129   1.484  0.5367 -0.0988  1.2160
 4264SOL    HW224429   0.028   4.002   1.525  2.3728  1.5710  2.0546
 4265SOL     OW24430   1.980   3.010  15.442  0.2285  0.9517 -0.5040
 4265SOL    HW124431   2.067   3.051  15.441  0.9270 -0.3851  3.3521
 4265SOL    HW224432   1.950   3.030  15.353 -2.2283  1.6016  0.4758
 4266SOL     OW24433   3.794   0.344   7.673 -0.3061 -0.1518  0.7124
 4266SOL    HW124434   3.799   0.308   7.584 -1.5147  0.9867  0.1990
 4266SOL    HW224435   3.876   0.394   7.678 -1.5132  1.7954  0.9312
 4267SOL     OW24436   1.822   4.264   5.955  0.5815  0.0888 -0.0756
 4267SOL    HW124437   1.746   4.315   5.926 -0.2928  1.0103  3.9189
 4267SOL    HW224438   1.798   4.236   6.043 -0.6103  0.2887 -0.3346
 4268SOL     OW24439   1.250   4.244   8.205 -0.0051  0.2751 -0.5192
 4268SOL    HW124440   1.231   4.309   8.138 -0.3887 -1.6025 -2.2244
 4268SOL    HW224441   1.332   4.279   8.242 -1.4304  2.3819  0.6490
 4269SOL     OW24442   3.248   2.915  11.004 -0.0340  0.0298  0.5503
 4269SOL    HW124443   3.337   2.889  11.028 -0.4710  0.2637  2.3795
 4269SOL    HW224444   3.223   2.843  10.946 -0.1704  0.1306  0.4836
 4270SOL     OW24445   4.686   1.107  10.616  0.5270  0.0143 -0.2035
 4270SOL    HW124446   4.590   1.112  10.619  0.5661  0.2163  0.8728
 4270SOL    HW224447   4.701   1.032  10.675 -1.0897 -0.4367 -0.3559
 4271SOL     OW24448   3.787   2.490   7.961 -0.3150 -0.4075  0.0626
 4271SOL    HW124449   3.839   2.464   7.885 -3.0955  0.3788 -2.1110
 4271SOL    HW224450   3.798   2.584   7.953  1.0016 -0.6694 -1.1351
 4272SOL     OW24451   2.015   2.417  10.027  0.1310  0.1140 -0.5890
 4272SOL    HW124452   2.079   2.369   9.975  0.2950 -0.4036  0.0922
 4272SOL    HW224453   2.069   2.496  10.032  3.3470 -2.0511 -1.2610
 4273SOL     OW24454   4.032   0.000   2.487  0.1944  0.2704  0.1191
 4273SOL    HW124455   3.963   4.680   2.515  2.3866 -1.9175  0.8366
 4273SOL    HW224456   3.987   0.084   2.475 -2.7714 -1.0152  2.4785
 4274SOL     OW24457   0.469   1.280  10.752 -0.0691  0.3818 -0.6171
 4274SOL    HW124458   0.462   1.195  10.794  0.2098 -0.2815 -1.9239
 4274SOL    HW224459   0.417   1.337  10.809 -1.1253 -1.5366  0.3375
 4275SOL     OW24460   2.617   1.492  15.151  0.3857  0.1588  0.1594
 4275SOL    HW124461   2.612   1.578  15.192  0.1431 -0.4938  1.4948
 4275SOL    HW224462   2.646   1.530  15.068 -0.8613  0.3640 -0.1864
 4276SOL     OW24463   3.036   0.807   6.369 -0.1579 -0.1291  0.4006
 4276SOL    HW124464   3.117   0.821   6.418  0.1058 -1.6055  0.3681
 4276SOL    HW224465   3.057   0.861   6.292  0.4676 -1.2334 -0.2036
 4277SOL     OW24466   0.684   1.441  10.947  0.2395  0.1902 -0.4524
 4277SOL    HW124467   0.708   1.374  11.011  0.4968  0.7770  0.0640
 4277SOL    HW224468   0.628   1.387  10.890 -0.2583  0.4016 -0.1688
 4278SOL     OW24469   0.751   1.475   7.582  0.4325  0.0733 -0.2785
 4278SOL    HW124470   0.772   1.409   7.649  0.2986 -1.5745 -1.8498
 4278SOL    HW224471   0.759   1.416   7.507  3.6923  0.6146 -0.3710
 4279SOL     OW24472   2.473   0.021   4.689 -0.3514 -0.2962  0.0278
 4279SOL    HW124473   2.480   4.687   4.628  2.0043 -1.2475  1.4290
 4279SOL    HW224474   2.413   0.081   4.645  0.7545  1.3206  0.7191
 4280SOL     OW24475   2.291   2.257   0.664 -0.1093  0.1506  0.9194
 4280SOL    HW124476   2.386   2.273   0.670 -0.7326  2.7980  3.6759
 4280SOL    HW224477   2.270   2.288   0.752  1.7471 -3.2838  2.5584
 4281SOL     OW24478   2.718   2.998  13.410  0.0489 -0.0971 -0.2038
 4281SOL    HW124479   2.810   2.977  13.395  0.3842 -0.4738  2.3782
 4281SOL    HW224480   2.734   3.063  13.478 -2.4682 -0.3059  0.5927
 4282SOL     OW24481   3.350   1.553   5.003  0.1714  1.0922 -0.3019
 4282SOL    HW124482   3.366   1.608   5.079  1.2453  0.6290 -0.1905
 4282SOL    HW224483   3.331   1.475   5.054  0.3424  1.3154  0.1007
 4283SOL     OW24484   3.549   1.290  15.957 -0.2276  0.0690  0.3302
 4283SOL    HW124485   3.629   1.326  15.995  0.1426 -0.3633 -0.0401
 4283SOL    HW224486   3.578   1.199  15.952  1.9425  0.7485  0.7366
 4284SOL     OW24487   2.873   0.478   2.933 -0.1988  0.3518 -0.1783
 4284SOL    HW124488   2.959   0.520   2.937 -0.7764  1.3948  1.7278
 4284SOL    HW224489   2.834   0.534   2.866 -0.7057 -0.0047 -0.1780
 4285SOL     OW24490   2.872   1.943   9.762  0.2996 -0.3438  0.0677
 4285SOL    HW124491   2.851   1.970   9.673  1.1367 -0.2593 -0.0974
 4285SOL    HW224492   2.920   1.861   9.752  2.3932  0.7430  1.3494
 4286SOL     OW24493   0.727   2.668   3.257 -0.5230  0.4652 -0.2852
 4286SOL    HW124494   0.676   2.741   3.292 -1.1343 -0.2014  0.2289
 4286SOL    HW224495   0.729   2.619   3.339  1.3245 -0.2677 -0.7829
 4287SOL     OW24496   3.365   3.144   1.256  0.5913 -0.2570  0.6276
 4287SOL    HW124497   3.364   3.103   1.342  0.4116  0.2574  0.8683
 4287SOL    HW224498   3.375   3.063   1.204 -2.7678 -0.2740  0.0342
 4288SOL     OW24499   3.779   0.222   3.042  0.1994  0.2661 -0.0827
 4288SOL    HW124500   3.824   0.217   3.126 -1.7619 -0.3248  0.9157
 4288SOL    HW224501   3.835   0.165   2.988 -1.5649 -0.3551 -1.2359
 4289SOL     OW24502   0.004   0.301   9.277 -0.0567  0.2340  0.4946
 4289SOL    HW124503   4.649   0.291   9.291 -0.3562  1.9965 -0.2703
 4289SOL    HW224504   0.052   0.273   9.355  1.5416 -0.9382 -0.9092
 4290SOL     OW24505   1.241   4.613   0.782 -0.6235  0.2082 -0.6545
 4290SOL    HW124506   1.328   4.623   0.742  0.1244 -0.3412  0.8032
 4290SOL    HW224507   1.238   4.694   0.833  0.5690 -1.0192  1.3836
 4291SOL     OW24508   1.750   1.248   3.800 -0.0589 -0.2824 -0.3254
 4291SOL    HW124509   1.667   1.242   3.847  0.1963  3.4454  0.6076
 4291SOL    HW224510   1.777   1.330   3.841  0.6961 -0.9942  0.6125
 4292SOL     OW24511   2.829   0.830   7.051  0.3806  0.9880  0.0235
 4292SOL    HW124512   2.922   0.844   7.067  1.1671 -1.7594 -2.0031
 4292SOL    HW224513   2.791   0.918   7.049 -3.2057 -0.6191 -1.9217
 4293SOL     OW24514   1.726   1.290   8.917  0.1144  0.0468  0.0975
 4293SOL    HW124515   1.757   1.279   8.826 -2.6264  1.0516 -0.9542
 4293SOL    HW224516   1.700   1.203   8.947  3.4449 -0.5020  1.3780
 4294SOL     OW24517   0.234   4.124   3.464  0.2205 -0.4644 -0.4850
 4294SOL    HW124518   0.253   4.075   3.384  0.8875  0.7311 -1.0756
 4294SOL    HW224519   0.175   4.195   3.436 -1.1651 -1.1032  0.8283
 4295SOL     OW24520   3.359   1.310   4.804 -0.1011 -0.2704  0.0962
 4295SOL    HW124521   3.439   1.257   4.808  0.0137  0.0324  1.4454
 4295SOL    HW224522   3.316   1.275   4.881 -0.6482 -2.1768 -1.0660
 4296SOL     OW24523   0.913   1.278   4.536 -0.1063 -0.2846  0.3213
 4296SOL    HW124524   0.934   1.214   4.604 -0.5934 -0.0235  0.7220
 4296SOL    HW224525   0.876   1.220   4.470 -0.5321 -1.0834  1.2555
 4297SOL     OW24526   1.801   0.723  16.841 -0.4843  0.1878 -0.2582
 4297SOL    HW124527   1.763   0.756  16.759 -2.1877  1.6703  1.1194
 4297SOL    HW224528   1.782   0.786  16.910 -0.5023 -1.2877  1.0940
 4298SOL     OW24529   3.293   1.341  15.874  0.3364  0.0049  0.1574
 4298SOL    HW124530   3.387   1.347  15.891  0.5848 -3.1074 -0.0961
 4298SOL    HW224531   3.290   1.401  15.800  1.2835  0.9962  0.9278
 4299SOL     OW24532   1.377   4.053   9.788 -0.2324  0.1263  0.1397
 4299SOL    HW124533   1.393   4.094   9.873  0.7624 -0.9089  0.4414
 4299SOL    HW224534   1.360   4.128   9.731  0.1091  1.3091  1.6078
 4300SOL     OW24535   3.331   0.940   4.764 -0.0906 -0.5885  0.5254
 4300SOL    HW124536   3.258   0.937   4.826 -1.0592 -0.9345 -0.6371
 4300SOL    HW224537   3.393   0.903   4.827  0.9190  0.9938  0.4736
 4301SOL     OW24538   1.490   0.507   1.436 -0.2493  0.1214 -0.2703
 4301SOL    HW124539   1.548   0.470   1.369 -0.6278 -2.5491  0.8736
 4301SOL    HW224540   1.481   0.425   1.484  0.5412 -0.7936 -1.7008
 4302SOL     OW24541   0.254   4.177  11.492 -0.4292  0.1716 -0.0882
 4302SOL    HW124542   0.291   4.223  11.416  1.1410 -0.1828  0.4698
 4302SOL    HW224543   0.312   4.101  11.503  1.3368  1.3530 -1.1274
 4303SOL     OW24544   1.446   4.669   2.166 -0.2339 -0.2122 -0.2065
 4303SOL    HW124545   1.451   4.622   2.083  0.9360 -0.9454  0.2870
 4303SOL    HW224546   1.477   4.604   2.229  0.6048  0.7385  0.3646
 4304SOL     OW24547   2.832   4.061   2.227  0.3898 -0.3932 -0.5510
 4304SOL    HW124548   2.748   4.064   2.273  0.3824 -0.7238 -0.5438
 4304SOL    HW224549   2.841   3.970   2.199  0.0095  0.0929 -2.2865
 4305SOL     OW24550   1.538   2.148  17.585  0.2224  0.0774  0.1389
 4305SOL    HW124551   1.478   2.174  17.515 -0.7552  1.5032  1.4944
 4305SOL    HW224552   1.593   2.223  17.609  1.5886 -1.2506  1.1938
 4306SOL     OW24553   0.436   4.678  11.149  0.4331  0.2737 -0.3082
 4306SOL    HW124554   0.414   4.634  11.231 -0.1132  1.7229  0.3310
 4306SOL    HW224555   0.531   4.670  11.153  0.3838  0.7561  2.0205
 4307SOL     OW24556   2.847   3.062   8.272  0.2037  0.3601 -0.4294
 4307SOL    HW124557   2.932   3.067   8.315  0.7167  0.2184 -1.4163
 4307SOL    HW224558   2.851   3.128   8.202 -0.4698  2.7015  1.7507
 4308SOL     OW24559   2.438   2.983   7.078 -0.0063 -0.0074  0.5723
 4308SOL    HW124560   2.477   2.979   6.990  1.4620  0.9945  1.1652
 4308SOL    HW224561   2.344   2.974   7.067  0.2064  0.2970 -1.6362
 4309SOL     OW24562   0.714   0.746   2.618 -0.7791  0.0811 -0.1639
 4309SOL    HW124563   0.788   0.723   2.675 -1.2110  0.4005  0.5180
 4309SOL    HW224564   0.753   0.729   2.532  2.5562 -0.6317  1.4562
 4310SOL     OW24565   2.015   3.390  13.221 -0.1689  0.2842 -0.2090
 4310SOL    HW124566   2.019   3.457  13.153 -0.9676  1.2367  0.6892
 4310SOL    HW224567   1.948   3.329  13.190  0.5771 -0.9470  0.5476
 4311SOL     OW24568   3.086   3.646   2.640  0.3381 -0.4344 -0.4170
 4311SOL    HW124569   3.179   3.625   2.630  0.7305  1.0589  0.1407
 4311SOL    HW224570   3.074   3.613   2.729 -2.6212  1.4005 -0.1514
 4312SOL     OW24571   1.036   0.477   7.992  0.1297 -0.0084 -0.6272
 4312SOL    HW124572   1.000   0.391   8.013  0.0393 -0.1707 -1.4603
 4312SOL    HW224573   1.083   0.457   7.912 -0.0964  0.0161 -0.7669
 4313SOL     OW24574   3.719   3.681   8.850 -0.0747  0.0714 -0.4006
 4313SOL    HW124575   3.705   3.633   8.931 -2.0664 -1.3575 -1.5840
 4313SOL    HW224576   3.758   3.615   8.793  0.4332 -0.4003  0.4887
 4314SOL     OW24577   4.549   0.867   1.447  0.1548  0.6252  0.0486
 4314SOL    HW124578   4.640   0.878   1.421 -0.1219  1.7298 -0.4465
 4314SOL    HW224579   4.549   0.787   1.500 -1.0779 -0.0463 -0.9386
 4315SOL     OW24580   1.389   2.304  13.318  0.6219  0.1808  0.4088
 4315SOL    HW124581   1.401   2.372  13.383  0.6156  0.6222 -0.0536
 4315SOL    HW224582   1.405   2.219  13.359 -1.5905 -0.3551  0.1381
 4316SOL     OW24583   0.424   3.782   9.478  0.0489 -0.0408 -0.5540
 4316SOL    HW124584   0.412   3.876   9.464 -0.2504 -0.3320 -2.2908
 4316SOL    HW224585   0.438   3.779   9.573  0.2544 -1.4183 -0.6217
 4317SOL     OW24586   0.373   4.677   2.988 -0.0212  0.1492  0.0260
 4317SOL    HW124587   0.391   0.030   3.008 -2.0632  0.6565 -0.5234
 4317SOL    HW224588   0.334   4.690   2.902 -3.2934  1.9859  1.7928
 4318SOL     OW24589   0.586   3.801   7.201 -0.2591 -0.5883  0.0618
 4318SOL    HW124590   0.657   3.844   7.154 -1.1741 -0.7594 -1.4620
 4318SOL    HW224591   0.592   3.840   7.288  0.3142 -1.0242  0.2179
 4319SOL     OW24592   0.897   4.006   9.512  0.0588  0.5568 -0.3589
 4319SOL    HW124593   0.965   4.072   9.505  0.9957 -0.4002 -0.3911
 4319SOL    HW224594   0.950   3.931   9.540 -0.9764 -0.7480 -1.8406
 4320SOL     OW24595   2.091   2.665   5.257 -0.6709 -0.3818  0.1888
 4320SOL    HW124596   2.164   2.673   5.196 -0.0984 -0.5026  0.8596
 4320SOL    HW224597   2.116   2.575   5.276  2.5491  0.7872  1.4164
 4321SOL     OW24598   3.983   4.129   6.691 -0.0505  0.5114  0.4820
 4321SOL    HW124599   3.986   4.170   6.605 -0.1553 -0.4068  0.0472
 4321SOL    HW224600   3.964   4.037   6.674 -1.8050  0.5224  2.3800
 4322SOL     OW24601   4.454   3.669   4.992  0.0390 -0.2599  0.0890
 4322SOL    HW124602   4.530   3.622   5.026 -0.0713  0.5226  1.3950
 4322SOL    HW224603   4.430   3.622   4.911 -0.1774 -0.8158  0.4726
 4323SOL     OW24604   0.026   3.705   9.066 -0.6047  0.0523  0.3807
 4323SOL    HW124605   4.735   3.770   9.129 -1.8193  0.0352 -0.1756
 4323SOL    HW224606   0.110   3.669   9.095 -1.7679 -2.2254  0.9704
 4324SOL     OW24607   0.159   2.385  14.662  0.4226  0.4623 -0.1317
 4324SOL    HW124608   0.171   2.290  14.673  2.6837  0.6772 -0.7382
 4324SOL    HW224609   0.065   2.387  14.644  0.7845  2.3687 -1.7204
 4325SOL     OW24610   0.791   2.727   0.347 -0.9124 -0.4953 -0.0335
 4325SOL    HW124611   0.800   2.634   0.328  1.0241  0.4833 -3.9917
 4325SOL    HW224612   0.715   2.727   0.405 -1.7031 -1.9901 -1.0625
 4326SOL     OW24613   2.572   2.215   8.047  0.6963 -0.5659  0.3639
 4326SOL    HW124614   2.556   2.152   8.117  0.9085  0.5413  1.4014
 4326SOL    HW224615   2.630   2.279   8.088  0.3733  1.1022 -1.8017
 4327SOL     OW24616   1.330   3.106   5.730 -0.0352 -1.0454  0.1008
 4327SOL    HW124617   1.316   3.051   5.807 -1.6447 -0.4800  0.2187
 4327SOL    HW224618   1.375   3.183   5.766 -2.9885  1.0537 -0.7237
 4328SOL     OW24619   2.044   3.852   7.622  0.3842  0.0820  0.4349
 4328SOL    HW124620   1.979   3.792   7.586  0.7494 -0.8480  1.3342
 4328SOL    HW224621   2.114   3.798   7.659  0.3198 -0.1077  0.2762
 4329SOL     OW24622   0.608   1.681   2.619  0.2754 -0.8469 -0.0986
 4329SOL    HW124623   0.576   1.591   2.607  0.1264 -1.0547  1.7194
 4329SOL    HW224624   0.665   1.672   2.695  0.5423  0.3366 -0.1692
 4330SOL     OW24625   2.766   4.656   6.836 -0.9451  0.4606  0.4541
 4330SOL    HW124626   2.684   4.685   6.794 -1.6142 -1.1006  0.6719
 4330SOL    HW224627   2.726   4.615   6.913 -0.6871 -1.4392 -0.4146
 4331SOL     OW24628   3.873   1.210  10.531 -0.1369  0.5320 -0.1946
 4331SOL    HW124629   3.826   1.190  10.612  1.5006  1.6521  1.0454
 4331SOL    HW224630   3.936   1.273  10.568  0.9755 -0.6704 -0.0498
 4332SOL     OW24631   1.929   1.103   6.480 -0.4065  0.0125  0.0634
 4332SOL    HW124632   1.881   1.112   6.398 -0.0956 -0.8144 -0.2083
 4332SOL    HW224633   1.884   1.179   6.518 -0.0962  0.4077 -0.3691
 4333SOL     OW24634   2.412   2.202   5.577  0.0999  0.0453 -0.0968
 4333SOL    HW124635   2.319   2.179   5.571  0.3595 -0.7783 -1.1037
 4333SOL    HW224636   2.408   2.291   5.541 -1.0249 -0.7189 -1.8943
 4334SOL     OW24637   1.571   2.866   5.260 -0.4395  0.0102 -0.1044
 4334SOL    HW124638   1.545   2.916   5.337  1.4990  1.7697 -0.5928
 4334SOL    HW224639   1.532   2.923   5.193 -2.6208  0.9242  1.9338
 4335SOL     OW24640   0.818   4.686   0.800  0.5166 -0.4331 -0.1621
 4335SOL    HW124641   0.878   4.612   0.793  1.1318 -0.0495  1.0387
 4335SOL    HW224642   0.864   0.014   0.748  0.1975 -0.4454 -0.4625
 4336SOL     OW24643   4.699   2.175  10.476 -0.2474 -0.3667  0.5757
 4336SOL    HW124644   4.737   2.179  10.564 -1.5976 -1.6611  1.2198
 4336SOL    HW224645   4.671   2.084  10.489 -0.6758 -0.4082 -0.7502
 4337SOL     OW24646   3.286   0.634   2.301  0.5936 -0.3311 -0.0812
 4337SOL    HW124647   3.292   0.693   2.226 -0.6094  0.0137  0.1000
 4337SOL    HW224648   3.206   0.584   2.284  0.0673 -0.3927  2.5059
 4338SOL     OW24649   2.034   1.599   7.026 -0.2776 -0.2710  0.0285
 4338SOL    HW124650   2.018   1.553   7.108  1.6475 -3.5279 -1.4347
 4338SOL    HW224651   2.064   1.529   6.968  0.8064 -0.7334  1.1559
 4339SOL     OW24652   0.601   4.356   0.711  0.1931 -0.1270  0.9927
 4339SOL    HW124653   0.644   4.358   0.625  2.2097  0.8266  2.0132
 4339SOL    HW224654   0.664   4.316   0.771 -0.4477 -0.1568  1.6409
 4340SOL     OW24655   0.471   0.776   1.130  0.2720 -0.2686 -0.2527
 4340SOL    HW124656   0.496   0.852   1.078  1.5017 -0.2606  0.3396
 4340SOL    HW224657   0.498   0.708   1.069 -0.2927  1.2773 -2.2438
 4341SOL     OW24658   0.828   1.216  13.133 -0.4548 -0.4109  0.1012
 4341SOL    HW124659   0.753   1.270  13.111 -1.4095 -2.8038 -2.5149
 4341SOL    HW224660   0.896   1.283  13.132  0.0724 -0.9647 -1.2578
 4342SOL     OW24661   3.731   3.331   8.491  0.2954  0.0201 -0.5799
 4342SOL    HW124662   3.775   3.264   8.544  1.9241  2.3262  0.9789
 4342SOL    HW224663   3.730   3.286   8.406 -0.7708 -0.6025 -0.2356
 4343SOL     OW24664   3.232   2.074   6.335  0.3716 -0.3317  0.1180
 4343SOL    HW124665   3.176   2.031   6.270  1.3618 -0.1932 -0.8478
 4343SOL    HW224666   3.241   2.159   6.293 -2.3707  1.6052  3.5253
 4344SOL     OW24667   2.236   1.825   6.188 -0.1398  0.2882  0.5267
 4344SOL    HW124668   2.297   1.815   6.114 -0.1673 -1.1930  0.7026
 4344SOL    HW224669   2.184   1.900   6.161  0.4612  0.6163  0.2708
 4345SOL     OW24670   1.934   2.831   4.312 -0.0176  0.1701  0.8050
 4345SOL    HW124671   1.922   2.754   4.257  1.9866 -0.0528  0.6523
 4345SOL    HW224672   1.954   2.897   4.244 -1.3176  0.1099  0.3768
 4346SOL     OW24673   0.222   3.266   8.199  0.5682  0.0421  0.5908
 4346SOL    HW124674   0.284   3.310   8.140 -0.6017  1.7379  0.6045
 4346SOL    HW224675   0.271   3.273   8.280  0.5718 -1.7370  0.7409
 4347SOL     OW24676   1.576   0.155   3.942  0.1070 -0.0397 -0.0656
 4347SOL    HW124677   1.565   0.083   3.880  1.0417  1.5794 -2.1033
 4347SOL    HW224678   1.660   0.125   3.976 -0.5223 -0.4468  1.1059
 4348SOL     OW24679   1.165   0.358   7.735  0.2205 -0.0421 -0.6396
 4348SOL    HW124680   1.188   0.265   7.742 -0.8354 -0.3188 -0.8046
 4348SOL    HW224681   1.084   0.352   7.684 -2.0264 -1.7083  3.1351
 4349SOL     OW24682   2.369   0.853   2.258  0.4107 -0.1555  0.5907
 4349SOL    HW124683   2.319   0.895   2.188 -0.9104  0.8503  2.1436
 4349SOL    HW224684   2.316   0.856   2.338  0.5086  1.5104  0.5889
 4350SOL     OW24685   3.565   1.179   7.905 -0.5988 -0.1012  0.6379
 4350SOL    HW124686   3.597   1.099   7.863 -0.2828  0.2852  0.1265
 4350SOL    HW224687   3.552   1.227   7.823 -1.4693 -1.1743  0.1607
 4351SOL     OW24688   2.479   2.230   3.506  0.0784 -0.4197 -0.1928
 4351SOL    HW124689   2.547   2.295   3.523  0.6878 -0.9491 -0.5763
 4351SOL    HW224690   2.407   2.276   3.547  1.6129  0.3007  1.6907
 4352SOL     OW24691   1.044   4.128  16.925 -0.3103 -0.2687 -0.5337
 4352SOL    HW124692   1.026   4.140  17.018  1.1063  1.0817 -0.4331
 4352SOL    HW224693   1.117   4.068  16.935  0.2576  0.3818 -0.7995
 4353SOL     OW24694   2.662   3.442   4.701 -0.0688 -0.1062  0.4570
 4353SOL    HW124695   2.639   3.456   4.793  0.4757 -0.5945  0.6627
 4353SOL    HW224696   2.579   3.443   4.653  0.4300 -1.3805 -0.4366
 4354SOL     OW24697   0.471   4.174  16.038  0.2337  0.1483  0.3257
 4354SOL    HW124698   0.380   4.203  16.051 -0.4716 -1.8348 -0.2273
 4354SOL    HW224699   0.474   4.099  16.096  1.5805 -0.7427 -0.9181
 4355SOL     OW24700   4.270   1.999   5.624 -0.4688  0.4419 -0.0886
 4355SOL    HW124701   4.191   2.007   5.677 -0.4076  2.3698 -0.2952
 4355SOL    HW224702   4.321   2.064   5.672 -1.1689  1.8792 -1.3002
 4356SOL     OW24703   1.657   2.332   9.310 -0.4194  0.2301 -0.2634
 4356SOL    HW124704   1.648   2.408   9.252  0.9046 -0.9102 -1.9960
 4356SOL    HW224705   1.664   2.377   9.394 -0.0816  0.4225 -0.3930
 4357SOL     OW24706   2.311   2.653   6.879  0.2754  0.0563  0.5107
 4357SOL    HW124707   2.326   2.695   6.964 -0.0426 -1.5401  1.3494
 4357SOL    HW224708   2.302   2.564   6.913  0.3739 -0.4218 -0.7051
 4358SOL     OW24709   3.271   3.574   6.647 -0.1767  0.7462 -0.5690
 4358SOL    HW124710   3.304   3.663   6.659  2.7163 -0.5341  1.2132
 4358SOL    HW224711   3.176   3.587   6.645 -0.4702 -1.3023  0.1511
 4359SOL     OW24712   3.700   0.510   7.004  0.0595  0.3246 -0.0849
 4359SOL    HW124713   3.711   0.603   6.987  1.9665  0.4134  1.5961
 4359SOL    HW224714   3.756   0.463   6.942 -1.1523  1.5828 -2.0977
 4360SOL     OW24715   1.778   2.065  13.641 -0.2569  0.2194  0.1344
 4360SOL    HW124716   1.805   2.006  13.571 -1.5441  0.8299 -0.8767
 4360SOL    HW224717   1.808   2.147  13.602 -0.9401  0.2990 -0.2191
 4361SOL     OW24718   0.372   1.638   0.608 -0.3759  0.1090 -0.0274
 4361SOL    HW124719   0.424   1.565   0.574  1.1293 -0.5592  3.6722
 4361SOL    HW224720   0.358   1.683   0.525  0.6526  1.3583  0.4673
 4362SOL     OW24721   2.020   2.073   4.716  0.0930 -0.1052 -0.0496
 4362SOL    HW124722   2.016   1.992   4.666  0.3970 -0.3006  0.2420
 4362SOL    HW224723   2.039   2.031   4.800  2.1116 -0.1523 -0.5226
 4363SOL     OW24724   0.777   2.766  12.811 -0.6980 -0.4244  1.0122
 4363SOL    HW124725   0.771   2.681  12.854  0.7908 -0.9595  0.1494
 4363SOL    HW224726   0.835   2.813  12.871 -2.8859  2.9604  0.4959
 4364SOL     OW24727   0.840   3.902  13.892 -0.3818 -0.3236 -0.6134
 4364SOL    HW124728   0.811   3.845  13.821 -0.4757 -0.4194 -0.4994
 4364SOL    HW224729   0.894   3.964  13.844 -0.3932  1.5648  1.8150
 4365SOL     OW24730   1.237   0.928   7.283 -0.5388 -0.0541 -0.0852
 4365SOL    HW124731   1.149   0.957   7.307  0.0892  0.9815  1.0016
 4365SOL    HW224732   1.293   0.972   7.348 -1.3326  1.3286 -0.3284
 4366SOL     OW24733   1.158   3.221   5.984  0.2690 -0.0264  0.0787
 4366SOL    HW124734   1.081   3.221   5.927  0.8139  2.0404 -0.6276
 4366SOL    HW224735   1.199   3.141   5.951 -0.8735 -0.5790 -0.0236
 4367SOL     OW24736   0.658   3.623   1.503 -0.3802 -0.2652  0.0303
 4367SOL    HW124737   0.564   3.627   1.519 -0.0092  2.3209  1.5017
 4367SOL    HW224738   0.686   3.602   1.593  0.7628 -0.6196 -0.4076
 4368SOL     OW24739   0.180   0.054   3.381 -0.3428 -0.2695 -0.6230
 4368SOL    HW124740   0.175   0.149   3.369 -0.7409 -0.5024 -2.3393
 4368SOL    HW224741   0.134   0.041   3.463  1.7515  0.3667  0.6376
 4369SOL     OW24742   3.632   3.250  10.993  0.2405  0.7403  0.5585
 4369SOL    HW124743   3.658   3.168  10.952  0.7471  1.4820 -0.6054
 4369SOL    HW224744   3.604   3.296  10.914  1.0329  2.4024  1.2401
 4370SOL     OW24745   2.752   0.937   9.413  0.0235 -0.3729  0.0537
 4370SOL    HW124746   2.679   0.875   9.405 -0.1552 -0.3508  1.4385
 4370SOL    HW224747   2.821   0.883   9.376  1.8116  1.5948  0.4821
 4371SOL     OW24748   2.734   0.229  11.758  0.1431 -0.3669  0.2761
 4371SOL    HW124749   2.708   0.259  11.845  0.4546 -2.1183  0.9584
 4371SOL    HW224750   2.823   0.209  11.786 -0.9172 -1.3396  2.8526
 4372SOL     OW24751   4.572   3.137   9.739 -0.0426 -0.0744  0.0742
 4372SOL    HW124752   4.618   3.074   9.794 -0.9124 -1.3534 -0.6760
 4372SOL    HW224753   4.588   3.097   9.654  0.4673  0.4473 -0.0816
 4373SOL     OW24754   3.298   2.030   4.591  0.8644 -0.8803  0.4754
 4373SOL    HW124755   3.241   2.045   4.666  0.3322  0.4246 -0.1941
 4373SOL    HW224756   3.236   2.006   4.522 -0.3417  0.1851  1.1933
 4374SOL     OW24757   3.098   0.143   4.083 -0.2702 -0.2150 -0.3360
 4374SOL    HW124758   3.079   0.216   4.141  1.2305 -0.9745  1.0991
 4374SOL    HW224759   3.020   0.142   4.027 -0.2816  2.2171 -0.3605
 4375SOL     OW24760   3.181   4.417   5.798  0.3681  0.6324  0.9142
 4375SOL    HW124761   3.218   4.330   5.784  1.2901  1.2201 -0.2693
 4375SOL    HW224762   3.226   4.450   5.876  1.3952 -0.5368  0.8172
 4376SOL     OW24763   3.790   2.813   9.443  0.5758  0.1823  0.3935
 4376SOL    HW124764   3.766   2.810   9.536  0.1088 -0.8685  0.2403
 4376SOL    HW224765   3.789   2.907   9.425 -0.8425 -0.4501 -2.8588
 4377SOL     OW24766   2.589   4.194  10.849 -0.4778  0.5035 -0.5391
 4377SOL    HW124767   2.657   4.130  10.870  0.9499  2.7082  1.3389
 4377SOL    HW224768   2.523   4.139  10.805 -1.3059 -1.0078  2.5828
 4378SOL     OW24769   2.197   2.387  13.267 -0.1382  0.2120 -0.6016
 4378SOL    HW124770   2.197   2.432  13.182  0.4142 -1.7992 -1.6875
 4378SOL    HW224771   2.139   2.449  13.310  0.2960 -0.3657  0.8060
 4379SOL     OW24772   2.347   0.597   9.539  0.2721 -0.4514  0.6722
 4379SOL    HW124773   2.434   0.563   9.520  0.4145  1.2301 -1.7504
 4379SOL    HW224774   2.292   0.519   9.530 -0.0388 -0.1450 -0.1184
 4380SOL     OW24775   3.881   1.045   7.469 -0.1655 -0.0646 -0.3438
 4380SOL    HW124776   3.893   1.138   7.487  1.5541 -0.2919 -0.3207
 4380SOL    HW224777   3.966   1.013   7.499  0.3160  0.1845 -1.4166
 4381SOL     OW24778   1.285   1.490   7.067  0.0597 -0.1418  0.0057
 4381SOL    HW124779   1.325   1.403   7.068  0.7374  0.1646 -0.2230
 4381SOL    HW224780   1.192   1.468   7.074 -0.0332 -0.2757 -1.6141
 4382SOL     OW24781   4.250   1.144   8.474 -0.1502 -0.0756  0.0899
 4382SOL    HW124782   4.342   1.149   8.448  0.0592 -0.1971  0.8081
 4382SOL    HW224783   4.234   1.050   8.482  2.8412 -0.6292 -0.3893
 4383SOL     OW24784   3.699   3.375   3.964 -0.1197  0.1271 -0.3730
 4383SOL    HW124785   3.655   3.408   4.042 -1.8393 -1.2489 -0.7773
 4383SOL    HW224786   3.692   3.452   3.908  0.7911  0.4456 -0.0620
 4384SOL     OW24787   1.613   4.117   8.387 -0.7576 -0.3725  0.1317
 4384SOL    HW124788   1.565   4.185   8.339  1.4039  1.8803  1.1396
 4384SOL    HW224789   1.538   4.085   8.437 -0.5224 -0.3265  0.5155
 4385SOL     OW24790   4.078   2.874   8.701 -0.1274 -0.1356 -0.0856
 4385SOL    HW124791   4.123   2.842   8.623  0.3088  1.2434 -0.4063
 4385SOL    HW224792   4.148   2.911   8.755 -0.7356 -0.1245  0.6896
 4386SOL     OW24793   2.486   1.523   9.510 -0.4019  0.4465  0.2288
 4386SOL    HW124794   2.465   1.457   9.443  3.2198 -0.6287  0.1683
 4386SOL    HW224795   2.575   1.509   9.541  0.4460 -0.9813 -2.8371
 4387SOL     OW24796   1.887   4.204   5.294  0.4726  0.3938  0.0300
 4387SOL    HW124797   1.907   4.121   5.338 -0.9668  0.8758  1.6082
 4387SOL    HW224798   1.880   4.258   5.373 -1.1621  0.0531  0.1140
 4388SOL     OW24799   3.087   3.021  17.525 -0.0523 -0.8348  0.2640
 4388SOL    HW124800   3.028   3.096  17.529  2.3737  1.1583 -1.2738
 4388SOL    HW224801   3.070   2.980  17.440 -0.9700 -0.2316  0.1586
 4389SOL     OW24802   2.299   1.915   5.441  0.4443 -0.3905  0.4286
 4389SOL    HW124803   2.261   1.895   5.355  0.4500  0.8746  0.1275
 4389SOL    HW224804   2.281   1.851   5.509  1.9321 -2.3756 -1.0341
 4390SOL     OW24805   1.417   3.128   3.270 -0.2477 -0.2398 -0.2440
 4390SOL    HW124806   1.430   3.120   3.176  0.7408  0.0552 -0.1340
 4390SOL    HW224807   1.449   3.216   3.289 -1.1315 -0.2612  1.3487
 4391SOL     OW24808   2.443   3.695   0.734 -0.3503 -0.3213  0.0031
 4391SOL    HW124809   2.398   3.719   0.815  0.0043  1.3386 -0.2803
 4391SOL    HW224810   2.426   3.776   0.684 -0.8662 -0.3301  0.1695
 4392SOL     OW24811   0.641   1.380  12.825  0.0306 -0.1891 -0.5301
 4392SOL    HW124812   0.567   1.436  12.803 -0.3783 -1.2271 -1.7392
 4392SOL    HW224813   0.649   1.326  12.747  0.2192 -0.0642 -0.5957
 4393SOL     OW24814   2.103   3.140   2.179  0.3079  0.6706  0.2721
 4393SOL    HW124815   2.123   3.115   2.270  1.1621 -0.7197 -0.2999
 4393SOL    HW224816   2.122   3.059   2.133 -1.6907  0.1192  0.4552
 4394SOL     OW24817   0.672   4.514  10.151 -0.1736  0.3570  0.3132
 4394SOL    HW124818   0.668   4.525  10.246 -0.2836  0.2132  0.3251
 4394SOL    HW224819   0.581   4.532  10.126 -0.3404  0.0226  0.6773
 4395SOL     OW24820   3.316   1.795   7.106  0.1199 -0.2144 -0.0925
 4395SOL    HW124821   3.341   1.880   7.143  2.1339 -1.7744  2.1037
 4395SOL    HW224822   3.223   1.813   7.094 -0.0663 -0.5487  0.8166
 4396SOL     OW24823   2.369   4.384  15.186 -0.2448  0.2346 -0.5427
 4396SOL    HW124824   2.448   4.394  15.238 -1.3852  0.1508  1.2200
 4396SOL    HW224825   2.333   4.311  15.237 -1.8488  0.9221 -0.6883
 4397SOL     OW24826   2.020   3.283   9.811 -0.5265  0.4766  0.2980
 4397SOL    HW124827   2.021   3.210   9.872 -0.8594  1.5213  1.5347
 4397SOL    HW224828   2.010   3.361   9.865  0.9669  1.7452 -1.2711
 4398SOL     OW24829   4.095   2.774   4.410  0.7844  0.1705 -0.0741
 4398SOL    HW124830   4.031   2.774   4.481  0.9802  0.2303  0.1028
 4398SOL    HW224831   4.154   2.705   4.440 -0.6514 -1.4896 -1.0601
 4399SOL     OW24832   0.744   2.285   6.814 -0.2174  0.1590  0.1253
 4399SOL    HW124833   0.660   2.260   6.775 -1.4822 -0.0908  3.0489
 4399SOL    HW224834   0.810   2.231   6.771  1.1867  1.6282  0.4306
 4400SOL     OW24835   1.138   3.250   9.745  0.0825  0.2958 -0.3327
 4400SOL    HW124836   1.108   3.296   9.667 -0.6126  1.7110  0.7736
 4400SOL    HW224837   1.170   3.327   9.791 -0.3443  0.5158 -0.4045
 4401SOL     OW24838   2.803   4.714  10.761  0.1479 -0.0325  0.2384
 4401SOL    HW124839   2.789   4.714  10.856  2.8798  1.1746  0.6353
 4401SOL    HW224840   2.883   0.027  10.763 -0.6951  1.2773 -0.8428
 4402SOL     OW24841   3.588   2.526  14.346  0.0870 -0.0198  0.4524
 4402SOL    HW124842   3.653   2.546  14.414  0.4860 -0.1907  0.1214
 4402SOL    HW224843   3.651   2.505  14.277  0.7808 -1.3870  1.4955
 4403SOL     OW24844   0.827   0.908   8.262  0.5185  0.2538  0.0873
 4403SOL    HW124845   0.923   0.904   8.260  0.5191  1.1099 -2.4681
 4403SOL    HW224846   0.819   0.969   8.188  2.4657  1.2840  0.7115
 4404SOL     OW24847   2.510   3.977  12.642  0.1863 -0.2920  0.1279
 4404SOL    HW124848   2.519   4.042  12.711 -0.1447 -1.3216  1.1461
 4404SOL    HW224849   2.594   3.986  12.596 -0.3238  1.4226 -0.4228
 4405SOL     OW24850   0.550   0.127   6.193  0.0587  0.2195  0.2287
 4405SOL    HW124851   0.505   0.171   6.121  0.5305 -0.5303 -0.5150
 4405SOL    HW224852   0.640   0.154   6.179  0.4764 -0.7741  0.9836
 4406SOL     OW24853   0.736   3.392   7.088 -0.0087 -0.0816 -0.6923
 4406SOL    HW124854   0.670   3.349   7.034 -0.8311 -3.7043  3.2250
 4406SOL    HW224855   0.779   3.444   7.020  0.9934  0.2771  0.2109
 4407SOL     OW24856   4.403   2.078   0.754  0.0961  0.1180  0.1512
 4407SOL    HW124857   4.396   2.166   0.717  2.9637  0.6784  0.8830
 4407SOL    HW224858   4.434   2.020   0.684 -1.4813  0.2801 -0.6829
 4408SOL     OW24859   0.958   1.502   2.640  0.1921  0.6461  0.1494
 4408SOL    HW124860   0.906   1.425   2.663  0.7233 -0.1541 -1.3261
 4408SOL    HW224861   0.955   1.550   2.723  1.1560  0.3682  0.3437
 4409SOL     OW24862   2.348   1.254   7.081 -0.7262 -0.2843  0.1299
 4409SOL    HW124863   2.335   1.203   7.001  0.1275 -1.1306  0.5253
 4409SOL    HW224864   2.360   1.342   7.046  2.5386 -0.9309 -0.4117
 4410SOL     OW24865   0.214   0.364   8.096 -0.1138 -0.3418  0.1795
 4410SOL    HW124866   0.125   0.367   8.060  0.5905 -1.5226 -1.6291
 4410SOL    HW224867   0.229   0.270   8.103  1.8439 -0.0451 -0.2618
 4411SOL     OW24868   0.116   4.533  12.600 -0.4565 -0.2550 -0.2037
 4411SOL    HW124869   0.034   4.485  12.611 -1.1571  0.8604 -0.4597
 4411SOL    HW224870   0.096   4.600  12.534  1.2009 -1.2690 -1.7354
 4412SOL     OW24871   0.184   3.797   6.382 -0.0011  0.1456  0.9326
 4412SOL    HW124872   0.260   3.764   6.334 -1.2146 -1.3569  0.0452
 4412SOL    HW224873   0.111   3.786   6.321  1.1151 -0.3381 -0.3234
 4413SOL     OW24874   1.788   0.450  12.824 -0.0742  0.8072 -0.1404
 4413SOL    HW124875   1.751   0.507  12.757  1.0000 -0.1229 -1.4969
 4413SOL    HW224876   1.735   0.375  12.799 -0.0244 -0.1912  2.6805
 4414SOL     OW24877   0.616   3.377   1.922  0.4405 -0.1438  0.1624
 4414SOL    HW124878   0.663   3.294   1.932 -0.9881 -0.7333  1.8951
 4414SOL    HW224879   0.598   3.412   2.009  3.0528  1.5606  0.0216
 4415SOL     OW24880   3.030   0.558   6.879 -0.4169 -0.5226 -0.4614
 4415SOL    HW124881   3.104   0.506   6.849  0.0639 -0.2254  0.2144
 4415SOL    HW224882   3.070   0.636   6.916 -0.5278 -0.9849  0.6266
 4416SOL     OW24883   4.570   1.583   8.043 -0.0932 -0.2350 -0.3907
 4416SOL    HW124884   4.492   1.587   8.098  0.6851  1.0136  0.6391
 4416SOL    HW224885   4.619   1.536   8.110  0.5476  2.0571  0.7526
 4417SOL     OW24886   4.096   2.107   7.347 -0.3052 -0.8590 -0.3464
 4417SOL    HW124887   4.101   2.090   7.441 -1.5154  0.7570  0.0072
 4417SOL    HW224888   4.128   2.197   7.338 -1.3939 -0.2908  1.4387
 4418SOL     OW24889   1.907   0.910   9.087  0.7642  0.3070 -0.4402
 4418SOL    HW124890   1.930   0.926   9.179  1.1426 -0.9914 -0.3185
 4418SOL    HW224891   1.992   0.928   9.048  1.0738 -0.3067 -0.0578
 4419SOL     OW24892   3.617   3.039   4.194  0.1701  0.1032 -0.2351
 4419SOL    HW124893   3.537   3.031   4.142  1.6295 -2.6523 -2.0419
 4419SOL    HW224894   3.568   3.043   4.277 -1.9946 -0.7658 -1.4730
 4420SOL     OW24895   0.992   4.262   0.450  0.3329 -0.3365 -0.1782
 4420SOL    HW124896   0.999   4.203   0.375  1.9732  1.2235 -1.2405
 4420SOL    HW224897   1.046   4.337   0.426  2.0189 -1.5412 -0.1778
 4421SOL     OW24898   3.326   2.220   2.592  0.0017 -0.6401  0.1907
 4421SOL    HW124899   3.296   2.284   2.657 -2.1168  1.2879 -2.6236
 4421SOL    HW224900   3.261   2.240   2.523 -0.2275 -0.3273  0.4960
 4422SOL     OW24901   2.665   0.421   1.178 -0.6305 -0.1781  0.3381
 4422SOL    HW124902   2.705   0.417   1.265  0.6206  1.7132 -0.1718
 4422SOL    HW224903   2.659   0.327   1.159  0.8438 -0.3642  0.7962
 4423SOL     OW24904   2.048   3.039  14.171 -0.6346 -0.0469  0.2446
 4423SOL    HW124905   2.046   3.133  14.154  1.0641 -0.3912 -1.9236
 4423SOL    HW224906   2.007   2.999  14.094  0.1766  0.1291 -0.2820
 4424SOL     OW24907   4.420   1.590  16.619 -0.1035  0.7807 -0.0067
 4424SOL    HW124908   4.463   1.631  16.544  2.1702  1.7674  1.8414
 4424SOL    HW224909   4.332   1.621  16.602  0.3976  0.8253 -2.4614
 4425SOL     OW24910   0.131   0.355   7.616 -0.5541 -0.5710  0.0139
 4425SOL    HW124911   0.081   0.396   7.545  0.0419 -2.8597 -1.7225
 4425SOL    HW224912   0.210   0.408   7.614 -0.0870 -1.2180  1.8832
 4426SOL     OW24913   0.680   4.487   1.631  0.0701 -0.1498  0.0305
 4426SOL    HW124914   0.720   4.404   1.655 -1.2438 -0.9830 -0.6519
 4426SOL    HW224915   0.741   4.513   1.562 -1.5800  1.3745 -0.8540
 4427SOL     OW24916   0.823   2.566   9.890 -0.3714  0.1776 -0.0997
 4427SOL    HW124917   0.780   2.607   9.815  0.4778 -0.2101 -0.7973
 4427SOL    HW224918   0.910   2.606   9.888  0.7941 -2.4344 -0.6581
 4428SOL     OW24919   0.935   4.012   5.207 -0.5649 -0.2839  0.0282
 4428SOL    HW124920   1.021   3.992   5.170 -0.3075 -0.1080  0.5273
 4428SOL    HW224921   0.917   4.097   5.165  1.2195  0.2338  0.3064
 4429SOL     OW24922   2.244   3.972   6.635  0.3225  0.2455 -0.4762
 4429SOL    HW124923   2.235   4.063   6.665 -0.2991 -0.6621  2.1197
 4429SOL    HW224924   2.173   3.959   6.573 -0.7665  1.4528  0.5121
 4430SOL     OW24925   2.207   2.049   9.030 -0.4175 -0.3400  0.2495
 4430SOL    HW124926   2.231   2.141   9.032  1.1680 -0.7379 -0.0982
 4430SOL    HW224927   2.130   2.049   8.973 -0.0555 -2.5523 -0.2607
 4431SOL     OW24928   1.027   3.376   7.746  0.6419  0.4882 -0.1031
 4431SOL    HW124929   1.031   3.379   7.651  0.2800  3.5698 -0.0216
 4431SOL    HW224930   1.043   3.283   7.761 -1.8398 -0.0250 -0.5918
 4432SOL     OW24931   1.404   1.515  15.397 -0.1955  0.3773 -0.0760
 4432SOL    HW124932   1.422   1.540  15.307  0.5737 -2.3508 -0.6667
 4432SOL    HW224933   1.430   1.424  15.406 -0.6578  0.1128 -1.5063
 4433SOL     OW24934   2.713   1.982   9.274 -0.6059 -0.2106 -0.3786
 4433SOL    HW124935   2.618   1.997   9.273 -0.5448 -0.2050 -3.5146
 4433SOL    HW224936   2.735   2.028   9.193 -0.8533 -1.6556 -1.2654
 4434SOL     OW24937   4.082   3.772   6.843  0.3165  0.0508  0.0326
 4434SOL    HW124938   4.107   3.852   6.889  1.5134  0.3069 -1.0523
 4434SOL    HW224939   4.160   3.748   6.793  0.2284  0.5094 -0.3332
 4435SOL     OW24940   4.357   0.096   9.477  0.7062 -0.6055  0.8578
 4435SOL    HW124941   4.283   0.036   9.466 -1.7998  2.5558  0.3892
 4435SOL    HW224942   4.427   0.037   9.504 -0.8293 -1.9998  1.8177
 4436SOL     OW24943   4.727   0.245  10.806  0.4942 -0.0313  0.2744
 4436SOL    HW124944   4.688   0.190  10.738 -2.1272  1.6769  0.4000
 4436SOL    HW224945   0.045   0.185  10.854 -1.7215 -2.0758  0.3465
 4437SOL     OW24946   1.022   3.369   5.021 -0.0221  0.2578 -0.0212
 4437SOL    HW124947   0.954   3.405   4.965 -0.0097  0.0251 -0.1867
 4437SOL    HW224948   0.981   3.282   5.019 -0.3524  0.3933  0.8760
 4438SOL     OW24949   0.109   3.665   1.592  0.1674  0.2459 -0.5484
 4438SOL    HW124950   0.129   3.586   1.642 -0.9073  1.0020  1.0616
 4438SOL    HW224951   0.058   3.712   1.658 -0.1833  0.4123 -0.9362
 4439SOL     OW24952   1.891   3.422   7.007 -0.2813  0.0743  0.0761
 4439SOL    HW124953   1.826   3.381   6.951 -0.0310 -0.9763  0.5623
 4439SOL    HW224954   1.933   3.477   6.941 -0.4775  0.5380  0.3301
 4440SOL     OW24955   4.600   3.079  14.502  0.2112 -0.0973 -0.2728
 4440SOL    HW124956   4.614   3.174  14.502 -3.5517  0.4672 -0.9961
 4440SOL    HW224957   4.526   3.073  14.441  1.3052  0.7393 -1.6816
 4441SOL     OW24958   1.214   4.114  14.853  0.0061 -0.6280  0.1371
 4441SOL    HW124959   1.236   4.043  14.913 -1.7136  1.5080  3.3117
 4441SOL    HW224960   1.217   4.192  14.909  1.5480 -1.7805  1.6628
 4442SOL     OW24961   2.357   4.477   9.353 -0.4802 -0.1310 -0.3668
 4442SOL    HW124962   2.393   4.469   9.264  1.7365  0.2768  0.4989
 4442SOL    HW224963   2.357   4.571   9.372  1.5080  0.0680 -1.3581
 4443SOL     OW24964   1.861   0.932   0.536 -0.2384  0.4223  0.1785
 4443SOL    HW124965   1.915   0.853   0.529 -1.4350 -0.4627  1.0343
 4443SOL    HW224966   1.806   0.907   0.461 -0.6391  0.3450  0.5007
 4444SOL     OW24967   0.415   1.931   3.911 -0.0385 -0.3299 -0.5838
 4444SOL    HW124968   0.337   1.884   3.942  0.2943 -0.9809 -0.7447
 4444SOL    HW224969   0.386   2.020   3.929 -0.6322 -0.8345  0.9819
 4445SOL     OW24970   1.662   0.812   6.647 -0.3367  0.0297 -0.1214
 4445SOL    HW124971   1.651   0.729   6.602 -0.7109 -0.8026  1.5040
 4445SOL    HW224972   1.613   0.866   6.585 -0.5661  1.9045  1.6627
 4446SOL     OW24973   4.021   4.562   2.033  0.6051 -0.1159  0.6149
 4446SOL    HW124974   4.010   4.580   1.940  0.5112  2.5098  1.1447
 4446SOL    HW224975   3.961   4.622   2.077  0.0887 -0.1302 -0.0756
 4447SOL     OW24976   2.784   0.657   2.745 -0.2620  0.2329 -0.1886
 4447SOL    HW124977   2.789   0.747   2.711  1.4596 -0.0138 -0.5726
 4447SOL    HW224978   2.757   0.609   2.667  1.4173  0.5131 -0.9254
 4448SOL     OW24979   3.226   1.780   1.982 -0.1941 -0.1193  0.0738
 4448SOL    HW124980   3.154   1.752   2.038  0.6339 -3.1063 -0.3556
 4448SOL    HW224981   3.302   1.729   2.011  0.8142  1.5114  0.3368
 4449SOL     OW24982   3.279   1.975   7.558 -0.0437  0.4162 -0.3598
 4449SOL    HW124983   3.240   1.994   7.472  0.6825  0.8322 -0.5932
 4449SOL    HW224984   3.243   2.043   7.615  0.3772 -0.8297  1.3942
 4450SOL     OW24985   2.035   0.933   5.824  0.1669  0.1010  0.2605
 4450SOL    HW124986   2.082   0.853   5.803 -0.4121 -0.3221  0.5968
 4450SOL    HW224987   2.092   1.001   5.788  2.0714 -2.2251 -1.1132
 4451SOL     OW24988   2.746   3.704   3.311 -0.4253  0.2637 -0.1549
 4451SOL    HW124989   2.831   3.745   3.296 -0.6556  0.4147 -1.0026
 4451SOL    HW224990   2.771   3.629   3.365 -0.6168  0.3722  0.0861
 4452SOL     OW24991   3.180   2.361   4.845 -0.1700 -0.5456  0.3723
 4452SOL    HW124992   3.198   2.416   4.768 -0.3291 -0.7193  0.2108
 4452SOL    HW224993   3.244   2.398   4.906  0.2654 -0.4500 -0.1398
 4453SOL     OW24994   4.096   1.987  10.194 -0.1520 -0.3653 -0.2856
 4453SOL    HW124995   4.089   1.893  10.179 -0.7590 -0.3715  0.0294
 4453SOL    HW224996   4.014   2.016  10.153 -0.3208  1.6129  1.4656
 4454SOL     OW24997   1.110   0.267   4.361  0.4267  0.1887 -0.1515
 4454SOL    HW124998   1.143   0.350   4.328  0.8242 -0.1992 -0.7353
 4454SOL    HW224999   1.193   0.218   4.365 -0.2245 -0.6637  2.4703
 4455SOL     OW25000   0.100   1.219   6.638  0.2241  0.0282  0.5995
 4455SOL    HW125001   0.051   1.187   6.714 -1.8604 -0.1702 -0.8104
 4455SOL    HW225002   0.181   1.240   6.684  0.1969  0.1092  0.6093
 4456SOL     OW25003   3.900   2.653   5.259  0.2154 -0.4941 -0.0601
 4456SOL    HW125004   3.957   2.713   5.211  1.0162 -1.6851 -0.6053
 4456SOL    HW225005   3.939   2.568   5.238 -1.0807 -1.3386  0.9205
 4457SOL     OW25006   1.713   0.165   2.209 -0.1232 -0.5153  0.1081
 4457SOL    HW125007   1.620   0.164   2.231  0.4980  0.6030  2.7782
 4457SOL    HW225008   1.741   0.159   2.300 -2.8933 -0.0216  0.9910
 4458SOL     OW25009   1.237   1.209   9.087 -0.2892 -0.9902  0.3809
 4458SOL    HW125010   1.190   1.153   9.148 -0.5134  0.7020  1.7607
 4458SOL    HW225011   1.252   1.285   9.143 -0.0462 -1.7210  1.2982
 4459SOL     OW25012   1.875   2.715   9.297  0.4793 -0.1915  0.1679
 4459SOL    HW125013   1.831   2.635   9.325  0.9696 -0.6512 -0.3789
 4459SOL    HW225014   1.868   2.765   9.378  2.5586  0.3686  0.0013
 4460SOL     OW25015   1.956   2.498   8.121  0.1505 -0.1165 -0.0924
 4460SOL    HW125016   1.873   2.451   8.110 -0.7931  1.4100  0.4065
 4460SOL    HW225017   1.981   2.452   8.201  2.4081 -0.3419 -0.9265
 4461SOL     OW25018   3.239   3.200   0.761 -0.2703  0.5566  0.1128
 4461SOL    HW125019   3.154   3.233   0.733 -1.9903 -2.9150  1.2116
 4461SOL    HW225020   3.265   3.272   0.819 -1.1385  2.5396 -1.9930
 4462SOL     OW25021   2.342   3.349   3.399 -0.3376  0.5431  0.2427
 4462SOL    HW125022   2.336   3.426   3.342 -1.0566  1.3605  1.4237
 4462SOL    HW225023   2.252   3.342   3.431 -0.4425 -1.2422 -0.4509
 4463SOL     OW25024   1.531   0.984   7.000 -0.3134  0.0166 -0.3800
 4463SOL    HW125025   1.562   0.898   6.970 -0.6252 -0.6592  1.2014
 4463SOL    HW225026   1.539   0.966   7.094  0.8702  2.1300 -0.0693
 4464SOL     OW25027   0.741   2.691   5.361 -0.3295 -0.0901 -0.1537
 4464SOL    HW125028   0.681   2.669   5.432 -2.8637  2.1213 -1.6445
 4464SOL    HW225029   0.824   2.650   5.385 -0.1223  1.0650  1.1061
 4465SOL     OW25030   1.582   3.250   2.614 -0.0081  0.2017 -0.0690
 4465SOL    HW125031   1.526   3.243   2.692 -2.2971  1.5153 -1.5764
 4465SOL    HW225032   1.522   3.240   2.540  2.2916 -1.7743 -1.6611
 4466SOL     OW25033   0.777   0.673   8.141 -0.1528 -0.2135  0.3107
 4466SOL    HW125034   0.813   0.754   8.176 -3.2512  1.3400 -0.1418
 4466SOL    HW225035   0.810   0.672   8.051  1.0368  1.0279  0.7399
 4467SOL     OW25036   0.571   2.974  17.257 -0.3585  0.3020 -0.1603
 4467SOL    HW125037   0.507   2.964  17.328  1.7773 -0.8155  1.6066
 4467SOL    HW225038   0.511   2.966  17.183  1.3904  0.6285 -1.6191
 4468SOL     OW25039   3.257   4.447   3.704  0.0722 -0.1693  0.2438
 4468SOL    HW125040   3.340   4.488   3.680  1.3282 -2.7650  0.1025
 4468SOL    HW225041   3.194   4.519   3.704 -0.9167 -1.0340 -0.0808
 4469SOL     OW25042   2.869   3.409   4.476  0.3464 -0.2271  0.2994
 4469SOL    HW125043   2.777   3.418   4.451  0.5897  4.2441  0.9343
 4469SOL    HW225044   2.912   3.463   4.410 -0.4580 -1.5712 -1.3317
 4470SOL     OW25045   3.526   3.064  13.859  0.4044 -0.5349 -0.0545
 4470SOL    HW125046   3.433   3.082  13.874  0.7262  0.4926  0.6580
 4470SOL    HW225047   3.561   3.127  13.921 -0.9844 -1.6879  1.9102
 4471SOL     OW25048   1.315   3.544  10.763  0.4634 -0.6343  0.2478
 4471SOL    HW125049   1.233   3.527  10.716 -0.4668 -0.6685  1.8686
 4471SOL    HW225050   1.370   3.539  10.684  0.7965 -0.6946  0.4837
 4472SOL     OW25051   2.401   2.831   9.703  0.2334  0.2501 -0.3618
 4472SOL    HW125052   2.340   2.890   9.748 -1.4552 -1.2029 -0.7194
 4472SOL    HW225053   2.344   2.808   9.629 -0.2916 -0.7347  0.3478
 4473SOL     OW25054   0.716   3.786  10.410  0.3620 -0.0402 -0.4933
 4473SOL    HW125055   0.768   3.858  10.444 -1.4837  0.3254  1.5902
 4473SOL    HW225056   0.670   3.747  10.485 -0.1181  1.1203 -0.1852
 4474SOL     OW25057   0.678   3.769   9.035 -0.5939 -0.8777  0.2987
 4474SOL    HW125058   0.700   3.690   8.985  1.2979 -0.7915  1.0023
 4474SOL    HW225059   0.628   3.733   9.107 -2.6791  0.5770 -0.3948
 4475SOL     OW25060   3.481   0.897  12.319 -0.2725 -0.0277  0.1996
 4475SOL    HW125061   3.505   0.908  12.227  2.0090 -1.3649  0.6364
 4475SOL    HW225062   3.568   0.913  12.355 -0.4736  0.7367  0.3413
 4476SOL     OW25063   1.716   3.937   7.520  0.1589  0.2938 -0.0474
 4476SOL    HW125064   1.750   3.948   7.431 -0.8128 -2.9413 -0.7952
 4476SOL    HW225065   1.753   4.014   7.563 -1.7655  0.5091  1.1869
 4477SOL     OW25066   4.014   0.712   3.260  0.3462 -0.1825  0.1435
 4477SOL    HW125067   3.939   0.653   3.268 -0.4677  0.8389  0.0445
 4477SOL    HW225068   3.974   0.798   3.254  0.1393 -0.1359  2.3041
 4478SOL     OW25069   2.954   2.333   4.300 -0.0237 -0.5343  0.2507
 4478SOL    HW125070   2.908   2.296   4.225  0.6653  0.6216 -0.7560
 4478SOL    HW225071   3.033   2.355   4.251 -0.5996  0.9504 -0.0056
 4479SOL     OW25072   1.526   1.019   5.471 -0.6812  0.9827 -0.6621
 4479SOL    HW125073   1.460   1.070   5.424 -1.1532  1.0236  0.0435
 4479SOL    HW225074   1.552   0.955   5.405  0.3877  1.6477 -0.8871
 4480SOL     OW25075   1.606   3.478  11.935  0.0234 -0.3542  0.0068
 4480SOL    HW125076   1.651   3.449  11.856 -1.6486 -2.7962 -0.0590
 4480SOL    HW225077   1.592   3.391  11.974  0.4311 -0.7831 -0.7963
 4481SOL     OW25078   0.310   0.334   4.884  0.3338 -0.0177  0.1838
 4481SOL    HW125079   0.358   0.287   4.953  0.0747  1.1564  1.1601
 4481SOL    HW225080   0.379   0.370   4.829  0.2388 -0.9424 -0.5390
 4482SOL     OW25081   2.726   1.166   2.010 -0.1732 -0.2873 -0.2244
 4482SOL    HW125082   2.800   1.149   2.068 -1.1482 -1.2827  0.7315
 4482SOL    HW225083   2.759   1.249   1.976 -0.4585  0.0926  0.4115
 4483SOL     OW25084   1.465   1.639   2.793 -0.2227 -0.1689 -0.5122
 4483SOL    HW125085   1.543   1.690   2.769  0.3499 -0.3913  0.8688
 4483SOL    HW225086   1.399   1.686   2.743 -1.2292  2.0141  2.8415
 4484SOL     OW25087   3.386   3.823   3.625 -0.3883 -0.0226  0.2576
 4484SOL    HW125088   3.462   3.772   3.652  0.4088  1.1841  0.3071
 4484SOL    HW225089   3.420   3.911   3.608  0.0849 -0.3987 -0.7787
 4485SOL     OW25090   0.970   2.229   8.076  0.2323  0.5037  0.3325
 4485SOL    HW125091   0.958   2.275   7.994  3.7978  0.8262  0.0062
 4485SOL    HW225092   1.036   2.165   8.050 -1.6078 -0.4769 -1.9669
 4486SOL     OW25093   4.180   3.348   8.565  0.3380 -0.1781 -0.6898
 4486SOL    HW125094   4.179   3.280   8.497 -0.3987  0.0700 -0.9264
 4486SOL    HW225095   4.196   3.298   8.645  1.2596 -0.6797 -1.1800
 4487SOL     OW25096   2.179   3.086   4.853 -0.6763  0.1460 -0.1143
 4487SOL    HW125097   2.087   3.059   4.860 -1.1218  1.7823  0.2170
 4487SOL    HW225098   2.202   3.051   4.767 -0.1935 -1.5302  0.6901
 4488SOL     OW25099   1.773   0.542   7.275 -0.7035  0.1559  0.3626
 4488SOL    HW125100   1.742   0.609   7.214  3.5614  1.4612 -0.3356
 4488SOL    HW225101   1.827   0.595   7.333  2.8375 -3.2236  0.1572
 4489SOL     OW25102   1.718   2.578  13.590 -0.0786 -0.0488  0.5551
 4489SOL    HW125103   1.750   2.659  13.630  1.3461 -0.5553  0.4354
 4489SOL    HW225104   1.628   2.610  13.589 -0.1226 -0.3110 -3.1678
 4490SOL     OW25105   2.380   0.599  16.984 -0.4892 -0.2061  0.6813
 4490SOL    HW125106   2.291   0.629  16.964 -0.2114 -1.4624 -2.4217
 4490SOL    HW225107   2.441   0.644  16.926  0.6954 -0.9129  1.3601
 4491SOL     OW25108   2.982   0.414  10.954  0.7439  0.1792  0.0476
 4491SOL    HW125109   3.018   0.421  10.866 -2.9901 -0.7125 -1.5739
 4491SOL    HW225110   3.003   0.501  10.987  1.0295  0.7440 -1.5975
 4492SOL     OW25111   1.151   0.695  16.429 -1.1250 -0.3700  0.4502
 4492SOL    HW125112   1.184   0.623  16.483 -1.7869 -1.2206 -0.2879
 4492SOL    HW225113   1.164   0.761  16.498  1.4772  0.4708 -0.8479
 4493SOL     OW25114   0.806   1.302   7.387  0.6232  0.1821 -0.2562
 4493SOL    HW125115   0.901   1.293   7.387  0.6508  0.4106  1.6796
 4493SOL    HW225116   0.777   1.297   7.296  2.1165  0.2694 -0.7224
 4494SOL     OW25117   4.542   1.485   7.390  0.2358  0.0231  0.4906
 4494SOL    HW125118   4.467   1.522   7.342  0.7738 -0.4548 -0.7220
 4494SOL    HW225119   4.499   1.472   7.475 -3.0973 -2.7033 -1.5845
 4495SOL     OW25120   2.325   0.537   7.970 -0.0146  0.0978 -0.1925
 4495SOL    HW125121   2.283   0.579   8.045  0.4375 -0.4787  0.3900
 4495SOL    HW225122   2.386   0.601   7.933  2.5992 -0.9544  2.2800
 4496SOL     OW25123   0.804   1.713   5.567  0.1675  0.3912 -0.6090
 4496SOL    HW125124   0.791   1.693   5.660 -1.6521  0.0332 -0.9513
 4496SOL    HW225125   0.839   1.802   5.576  1.3648 -0.0587 -0.7525
 4497SOL     OW25126   2.526   0.887   1.330 -0.3989  0.2492 -0.9165
 4497SOL    HW125127   2.620   0.902   1.340 -0.3716 -1.2762  1.0151
 4497SOL    HW225128   2.511   0.825   1.259  0.0536 -0.0605 -0.7432
 4498SOL     OW25129   0.870   2.612   7.996  0.6217 -0.1364 -0.4446
 4498SOL    HW125130   0.877   2.692   7.944  1.5684  0.8839  1.2513
 4498SOL    HW225131   0.867   2.651   8.083 -0.5666 -0.7133 -0.2215
 4499SOL     OW25132   0.610   2.221   5.861 -0.2344  0.0167  0.1312
 4499SOL    HW125133   0.538   2.268   5.819  0.1343 -0.6245 -1.2407
 4499SOL    HW225134   0.567   2.188   5.940  1.0377  1.7751  1.5467
 4500SOL     OW25135   4.423   3.130   5.739 -0.6023  0.0128  0.1364
 4500SOL    HW125136   4.382   3.189   5.803  1.2512 -0.8302  2.0911
 4500SOL    HW225137   4.424   3.057   5.801 -0.9326  0.4758  0.6881
 4501SOL     OW25138   1.170   4.472   2.103  0.6972  0.6948 -0.2275
 4501SOL    HW125139   1.217   4.397   2.067  0.6452  1.1256 -1.1902
 4501SOL    HW225140   1.182   4.525   2.024 -0.7643  2.0861  0.4588
 4502SOL     OW25141   1.510   4.133   4.734  0.1154 -0.4519 -0.0970
 4502SOL    HW125142   1.459   4.139   4.653  0.3621 -0.3131 -0.2415
 4502SOL    HW225143   1.555   4.216   4.744  0.1501 -0.8412  3.0826
 4503SOL     OW25144   1.686   1.527  11.553  0.5608  0.2460 -0.1478
 4503SOL    HW125145   1.778   1.502  11.567  0.1520 -0.5509  1.0759
 4503SOL    HW225146   1.663   1.473  11.478 -1.0356  0.1945  0.3804
 4504SOL     OW25147   4.580   0.898   4.194 -0.1341 -0.1797  0.0866
 4504SOL    HW125148   4.625   0.830   4.243  0.1121 -0.1231 -0.0628
 4504SOL    HW225149   4.651   0.914   4.132 -0.9176  0.9608 -0.5136
 4505SOL     OW25150   0.020   0.554   1.783  0.3227 -0.2182  0.4145
 4505SOL    HW125151   0.059   0.497   1.849 -1.3865 -0.3711  1.3143
 4505SOL    HW225152   0.037   0.634   1.832  1.3669 -0.3512  0.2625
 4506SOL     OW25153   3.732   3.172   8.913 -0.4723  0.1794 -0.2651
 4506SOL    HW125154   3.728   3.181   8.818 -0.5752 -0.6122 -0.3395
 4506SOL    HW225155   3.789   3.095   8.920  1.4342  1.3861 -2.7143
 4507SOL     OW25156   3.806   3.201   2.205  0.0777  0.3094  0.2762
 4507SOL    HW125157   3.808   3.296   2.195  0.7657  0.5181  2.5526
 4507SOL    HW225158   3.883   3.166   2.249  0.6707  0.9639 -0.2552
 4508SOL     OW25159   0.428   2.149   8.296  0.2123  0.4040 -0.6228
 4508SOL    HW125160   0.391   2.157   8.384 -3.6396 -0.5516 -2.1744
 4508SOL    HW225161   0.431   2.242   8.272  2.4326  0.1032 -1.4677
 4509SOL     OW25162   0.684   0.137   5.404 -0.0938  0.0082  0.4115
 4509SOL    HW125163   0.650   0.110   5.489 -1.8820  1.7146  0.2343
 4509SOL    HW225164   0.642   0.223   5.399 -0.9227 -0.3659  0.9104
 4510SOL     OW25165   3.151   3.956  14.843 -0.5250 -0.1411  0.2012
 4510SOL    HW125166   3.141   4.011  14.766  0.2452  1.2215  1.0866
 4510SOL    HW225167   3.110   3.874  14.813 -0.4746  0.6246 -1.9465
 4511SOL     OW25168   1.391   0.961   8.809 -0.1303 -0.2873  0.4155
 4511SOL    HW125169   1.413   0.967   8.715  0.4897 -3.4009  0.3498
 4511SOL    HW225170   1.403   1.051   8.838 -1.7388  0.7438 -2.0868
 4512SOL     OW25171   1.750   3.781   6.328  0.1929  0.0912 -0.4824
 4512SOL    HW125172   1.838   3.743   6.324  0.1231 -0.1023 -0.1736
 4512SOL    HW225173   1.749   3.877   6.332  0.3926  0.1221 -1.2907
 4513SOL     OW25174   0.315   1.711   6.111 -0.0690 -0.4188  0.3015
 4513SOL    HW125175   0.381   1.697   6.043 -0.6875 -2.9852  0.2342
 4513SOL    HW225176   0.321   1.633   6.166  0.0358  0.6256  1.7641
 4514SOL     OW25177   1.076   2.703  11.619 -0.1844 -0.1410  1.0832
 4514SOL    HW125178   1.062   2.781  11.565  0.1212 -0.2319  0.8706
 4514SOL    HW225179   1.079   2.629  11.559  1.1385  0.1449  0.7782
 4515SOL     OW25180   1.886   1.488   8.133 -0.0580 -0.3608  0.6158
 4515SOL    HW125181   1.940   1.499   8.056  0.4340  3.9641  1.5736
 4515SOL    HW225182   1.838   1.570   8.135  1.2712  0.4447 -1.4023
 4516SOL     OW25183   4.583   2.038   4.203 -0.2525 -0.5652 -0.1367
 4516SOL    HW125184   4.663   2.016   4.250 -1.7077 -2.8455  1.2814
 4516SOL    HW225185   4.511   2.003   4.255 -2.0430  1.8578 -0.9667
 4517SOL     OW25186   1.927   0.397   4.314  0.3584 -0.0687  0.2882
 4517SOL    HW125187   1.869   0.321   4.324 -0.1946  0.2898 -0.2390
 4517SOL    HW225188   1.887   0.437   4.237 -0.5415 -0.6900  0.4364
 4518SOL     OW25189   1.201   1.277   4.533  0.2116  0.3447 -0.0898
 4518SOL    HW125190   1.105   1.285   4.537  0.3892  1.5636  1.4579
 4518SOL    HW225191   1.203   1.194   4.486 -0.5220  0.0797  0.3372
 4519SOL     OW25192   2.821   2.134   5.963 -0.0535 -0.7512  0.0832
 4519SOL    HW125193   2.742   2.089   5.991  0.7171 -1.2372  1.4698
 4519SOL    HW225194   2.783   2.219   5.940 -1.0899 -1.6129 -1.3928
 4520SOL     OW25195   3.433   4.011   3.261  0.4620 -0.3728  0.0111
 4520SOL    HW125196   3.518   4.038   3.228  1.1069 -1.1484  1.0039
 4520SOL    HW225197   3.418   4.092   3.310 -2.5465  0.2516 -1.9722
 4521SOL     OW25198   2.215   3.499   7.366  0.1400 -0.8651  0.4823
 4521SOL    HW125199   2.134   3.473   7.322 -1.1161  1.0721  1.6971
 4521SOL    HW225200   2.250   3.414   7.394 -2.3086 -1.2426  2.3157
 4522SOL     OW25201   4.015   4.354   3.481 -0.2736 -0.5246  0.3166
 4522SOL    HW125202   4.099   4.328   3.519  0.0911  1.5789  0.9573
 4522SOL    HW225203   3.968   4.313   3.553 -1.2829  1.0024  0.5446
 4523SOL     OW25204   3.903   4.166   3.664  0.0180 -0.2525  0.0896
 4523SOL    HW125205   3.873   4.104   3.731 -1.8197 -1.2867 -1.6638
 4523SOL    HW225206   3.979   4.124   3.625  0.9545  2.5101 -0.9830
 4524SOL     OW25207   2.174   4.056   1.841  0.1721 -0.5269  0.5302
 4524SOL    HW125208   2.174   4.113   1.919  1.9607  0.2228 -0.0194
 4524SOL    HW225209   2.221   3.979   1.873 -0.0878 -0.8582  0.1156
 4525SOL     OW25210   0.130   3.677   8.549 -0.1724 -0.2694 -0.1946
 4525SOL    HW125211   0.044   3.683   8.507 -0.5085  0.3595  0.5812
 4525SOL    HW225212   0.136   3.585   8.575 -0.0489 -1.0668 -3.1521
 4526SOL     OW25213   0.244   0.669   8.141  0.5181  0.0937  0.1942
 4526SOL    HW125214   0.230   0.578   8.112 -0.1196  0.7245 -1.4831
 4526SOL    HW225215   0.337   0.657   8.157  0.4420 -3.1730 -1.7348
 4527SOL     OW25216   2.691   0.815   8.232 -0.8432 -0.2556 -0.1377
 4527SOL    HW125217   2.714   0.755   8.161 -0.1328 -0.4591  0.2726
 4527SOL    HW225218   2.630   0.873   8.187 -1.0698  0.1073  0.6360
 4528SOL     OW25219   3.589   3.897   1.649  0.4240 -0.2248 -0.1649
 4528SOL    HW125220   3.643   3.839   1.701 -0.7404 -0.3901  0.8763
 4528SOL    HW225221   3.546   3.936   1.726 -0.9453 -0.2697 -0.9088
 4529SOL     OW25222   4.245   1.231   3.800 -0.0158  0.0359 -0.0925
 4529SOL    HW125223   4.222   1.265   3.886  0.8847 -1.1219  0.5966
 4529SOL    HW225224   4.202   1.297   3.746 -0.1830  1.1704  1.4262
 4530SOL     OW25225   0.960   4.675  13.121 -0.4039  0.0021 -0.0763
 4530SOL    HW125226   0.968   4.585  13.154 -0.6968 -0.0788 -0.2249
 4530SOL    HW225227   0.896   4.715  13.179  1.9459  3.0398  0.4057
 4531SOL     OW25228   0.100   2.745  11.948  0.1624 -0.3029 -0.5048
 4531SOL    HW125229   0.104   2.792  11.865  2.2036 -0.5651 -0.5517
 4531SOL    HW225230   0.158   2.672  11.928  2.2879  0.4813  2.7144
 4532SOL     OW25231   2.187   1.041   6.573  0.7187  0.0499  0.2218
 4532SOL    HW125232   2.094   1.036   6.550  0.5083 -1.5850  1.4050
 4532SOL    HW225233   2.189   0.950   6.601 -1.0555 -0.2201 -0.5210
 4533SOL     OW25234   1.785   2.640   7.577 -0.8046  0.2211  0.3628
 4533SOL    HW125235   1.874   2.635   7.613  0.2044  4.1800 -1.5166
 4533SOL    HW225236   1.741   2.585   7.642 -0.8073 -0.1199  0.0731
 4534SOL     OW25237   1.863   3.248   4.036 -0.7207  0.1987  0.2043
 4534SOL    HW125238   1.850   3.286   4.123 -0.3283 -1.1343  0.8466
 4534SOL    HW225239   1.788   3.190   4.024  0.1574 -0.6932 -0.9994
 4535SOL     OW25240   1.639   1.201   8.453  0.1373  0.4104  0.1524
 4535SOL    HW125241   1.678   1.228   8.370 -0.6297  0.1161 -0.3019
 4535SOL    HW225242   1.559   1.254   8.458  0.2481  0.7586 -1.8381
 4536SOL     OW25243   2.946   1.158   2.188  0.0864  0.4464  0.0476
 4536SOL    HW125244   2.965   1.088   2.250 -0.7317 -1.1750 -1.5313
 4536SOL    HW225245   2.886   1.211   2.240 -0.6354 -2.5861  2.3106
 4537SOL     OW25246   1.194   2.790  12.920  0.2863 -0.0609  0.0911
 4537SOL    HW125247   1.260   2.722  12.906  0.5867 -0.1868  2.1521
 4537SOL    HW225248   1.234   2.849  12.983  0.9765 -0.4062 -0.0208
 4538SOL     OW25249   3.918   2.486  10.863 -0.1658  0.3482  0.6519
 4538SOL    HW125250   3.899   2.570  10.822  1.8178 -0.8345 -2.7461
 4538SOL    HW225251   4.014   2.495  10.857  0.0088 -1.6666  0.4596
 4539SOL     OW25252   3.929   4.233   3.244  0.3132  0.0513  0.0124
 4539SOL    HW125253   3.979   4.290   3.186  0.0461  0.1567 -0.1117
 4539SOL    HW225254   3.972   4.265   3.324 -0.3953 -0.8870  0.7657
 4540SOL     OW25255   1.871   3.309   6.199 -0.5480  0.3837 -0.0612
 4540SOL    HW125256   1.941   3.333   6.259  0.0856 -1.2165 -0.1444
 4540SOL    HW225257   1.866   3.215   6.218  1.3888  0.2841 -0.0245
 4541SOL     OW25258   3.002   2.401   9.202 -0.6393 -0.3904 -0.1484
 4541SOL    HW125259   3.037   2.348   9.130 -1.8061 -1.8051  0.3149
 4541SOL    HW225260   3.089   2.424   9.235 -1.0152 -0.9803  1.2384
 4542SOL     OW25261   3.251   4.137   4.202 -0.1370 -0.3382  0.1825
 4542SOL    HW125262   3.331   4.143   4.254 -0.2621  0.6631  0.2648
 4542SOL    HW225263   3.244   4.221   4.156  0.4828  0.6811  1.9448
 4543SOL     OW25264   3.087   1.118   4.209 -0.3586  0.4684 -0.1761
 4543SOL    HW125265   3.049   1.047   4.261 -1.7090  0.8632 -0.6143
 4543SOL    HW225266   3.161   1.143   4.264  0.7858 -2.1292 -0.5099
 4544SOL     OW25267   1.014   1.641   8.808 -0.5787  0.0309 -0.1922
 4544SOL    HW125268   1.039   1.636   8.901  2.6878  1.9645 -0.9544
 4544SOL    HW225269   1.082   1.696   8.768 -1.1662  0.9303  0.0386
 4545SOL     OW25270   4.026   2.015   9.891 -0.0205  0.3762 -0.0739
 4545SOL    HW125271   4.102   1.958   9.899  1.3144  1.9907 -1.2911
 4545SOL    HW225272   3.959   1.962   9.848  1.2707 -1.0913 -0.2606
 4546SOL     OW25273   1.365   1.292   3.162  0.2480  0.0862 -0.5223
 4546SOL    HW125274   1.319   1.375   3.164  1.0358  0.4861  1.1089
 4546SOL    HW225275   1.396   1.292   3.071 -0.9978 -0.2169 -0.9488
 4547SOL     OW25276   2.114   2.783   7.943  0.0564  0.0599 -0.4870
 4547SOL    HW125277   2.119   2.869   7.903 -4.7705  0.1112 -1.0314
 4547SOL    HW225278   2.019   2.769   7.950  0.3439 -1.5450  0.1694
 4548SOL     OW25279   0.501   4.469   8.925  0.0659  0.1475 -0.0576
 4548SOL    HW125280   0.423   4.490   8.976  0.3287 -2.5211  1.4394
 4548SOL    HW225281   0.529   4.396   8.981  0.5623 -0.0508 -0.5623
 4549SOL     OW25282   0.463   0.934   4.688 -0.3096 -0.7472 -0.1934
 4549SOL    HW125283   0.450   0.942   4.593 -1.9141 -1.0200  0.0041
 4549SOL    HW225284   0.381   0.975   4.715 -0.3820  0.2649 -1.9163
 4550SOL     OW25285   4.457   1.582   4.565  0.2456  0.4499 -0.7659
 4550SOL    HW125286   4.448   1.491   4.535  2.3580 -0.1507  0.3960
 4550SOL    HW225287   4.549   1.578   4.592  0.0513 -2.5720 -0.4840
 4551SOL     OW25288   4.505   4.545   2.502  0.1445  0.5532  0.2124
 4551SOL    HW125289   4.425   4.590   2.477  1.0447  2.5888  0.9835
 4551SOL    HW225290   4.509   4.490   2.424  2.9001  1.7025 -0.4343
 4552SOL     OW25291   4.477   4.467   3.678  0.7892  0.5173 -0.2327
 4552SOL    HW125292   4.508   4.387   3.635 -0.1778  0.2233 -0.3758
 4552SOL    HW225293   4.489   4.533   3.610  1.3446  1.6959  1.0251
 4553SOL     OW25294   1.834   0.176  13.832  0.2786  0.6700  0.7049
 4553SOL    HW125295   1.825   0.080  13.830 -0.1733  0.7492 -0.8962
 4553SOL    HW225296   1.895   0.187  13.759 -1.6362  0.3048 -0.9438
 4554SOL     OW25297   0.178   0.987   7.860  0.3477 -0.1742  0.3424
 4554SOL    HW125298   0.090   0.960   7.884  0.2195  1.6671  1.8714
 4554SOL    HW225299   0.187   1.073   7.899 -0.0909 -0.3406  0.8072
 4555SOL     OW25300   0.733   3.416  11.932  0.1956 -0.3892  0.3356
 4555SOL    HW125301   0.803   3.415  11.997 -1.0739  0.4413  1.7122
 4555SOL    HW225302   0.665   3.364  11.976  0.3866  2.2664  3.8115
 4556SOL     OW25303   0.048   4.149   9.642  0.1121  0.8039  0.0396
 4556SOL    HW125304   0.136   4.147   9.605 -1.2022  1.8759 -3.2271
 4556SOL    HW225305   0.065   4.137   9.735 -0.9923  2.4565  0.4624
 4557SOL     OW25306   0.031   4.029   5.632  0.1621 -0.4686  0.0903
 4557SOL    HW125307   0.125   4.022   5.613 -0.1166 -3.4713 -0.2623
 4557SOL    HW225308   0.030   4.043   5.726 -0.8738  0.2024 -0.0211
 4558SOL     OW25309   1.762   0.703  12.370 -0.3804 -0.3365  0.0774
 4558SOL    HW125310   1.734   0.692  12.280 -0.3136  1.1790 -0.1187
 4558SOL    HW225311   1.808   0.787  12.371 -1.1307  0.0809 -1.6238
 4559SOL     OW25312   4.232   4.481   9.977  0.4474 -0.1512  0.6820
 4559SOL    HW125313   4.177   4.479  10.055  0.1390 -0.1264  0.4645
 4559SOL    HW225314   4.179   4.422   9.923 -0.4081  1.1585  0.0873
 4560SOL     OW25315   2.305   2.168  13.391 -0.0228 -0.3460 -0.4677
 4560SOL    HW125316   2.237   2.145  13.454 -0.3207  3.0931  0.4803
 4560SOL    HW225317   2.268   2.249  13.358  0.3814  1.1133  2.6291
 4561SOL     OW25318   2.587   1.945   7.257 -0.1333  0.2878 -1.1231
 4561SOL    HW125319   2.509   1.994   7.282 -0.4411  0.0334 -1.5905
 4561SOL    HW225320   2.560   1.858   7.285  1.2875  0.4490  0.7900
 4562SOL     OW25321   1.472   4.515   1.884 -0.1516  0.4340  0.0058
 4562SOL    HW125322   1.563   4.540   1.869  0.3828  0.2339  2.9352
 4562SOL    HW225323   1.426   4.563   1.815 -1.8957 -0.3020  0.6420
 4563SOL     OW25324   3.313   3.580   3.946 -0.3594 -0.8357  0.3238
 4563SOL    HW125325   3.266   3.562   3.864 -0.7963  0.8408  0.2196
 4563SOL    HW225326   3.297   3.500   3.997 -0.4280 -0.5447  0.7607
 4564SOL     OW25327   4.644   2.209  12.047  0.4366  0.5098 -0.2186
 4564SOL    HW125328   4.708   2.281  12.051 -1.5275  2.2383 -0.1533
 4564SOL    HW225329   4.626   2.193  11.954 -0.6154 -2.3816  0.4847
 4565SOL     OW25330   4.217   2.467  15.414 -0.2957 -0.6181 -0.3269
 4565SOL    HW125331   4.311   2.468  15.399 -0.6195 -0.5833 -2.3926
 4565SOL    HW225332   4.214   2.511  15.499  1.5122  0.5557 -0.8781
 4566SOL     OW25333   1.769   1.851   5.805  0.4504  0.6042  0.6200
 4566SOL    HW125334   1.825   1.851   5.883  2.7254 -1.3137 -1.0049
 4566SOL    HW225335   1.826   1.827   5.732  0.8741 -0.9149  1.4514
 4567SOL     OW25336   1.651   4.672   8.525  0.0854  0.0507 -0.0687
 4567SOL    HW125337   1.709   4.640   8.594  0.0542  0.1745  0.0154
 4567SOL    HW225338   1.702   0.004   8.488  1.3496 -0.7774  0.0715
 4568SOL     OW25339   4.688   4.262   1.990  1.2336  0.5346 -0.2474
 4568SOL    HW125340   4.653   4.184   2.034 -1.2882  2.1976  0.7421
 4568SOL    HW225341   4.621   4.326   2.014 -1.1928 -1.2964 -2.1425
 4569SOL     OW25342   2.465   0.508   4.288 -0.6338 -0.2063  0.2775
 4569SOL    HW125343   2.558   0.497   4.311 -1.1615 -1.3429  1.8571
 4569SOL    HW225344   2.444   0.471   4.374 -1.4099  0.2487  0.2785
 4570SOL     OW25345   0.691   4.418   3.118  0.2469 -0.2702 -0.1183
 4570SOL    HW125346   0.695   4.442   3.211 -0.6865 -2.0583  0.3719
 4570SOL    HW225347   0.597   4.425   3.106  0.1711 -1.1597  0.0260
 4571SOL     OW25348   1.772   0.170  14.959  0.2311 -0.0557  0.2108
 4571SOL    HW125349   1.701   0.214  15.006  1.8272  1.4617  1.2114
 4571SOL    HW225350   1.847   0.186  15.017  1.2082 -0.4616 -0.9614
 4572SOL     OW25351   3.392   4.540  10.285 -0.4667 -0.0039  1.0616
 4572SOL    HW125352   3.462   4.599  10.259 -0.1137 -0.4581  0.9754
 4572SOL    HW225353   3.358   4.521  10.198  3.3502  2.0399 -0.8797
 4573SOL     OW25354   3.452   3.666   9.271  0.2136 -0.2692  0.1807
 4573SOL    HW125355   3.424   3.596   9.212 -0.9272 -1.1817  1.7838
 4573SOL    HW225356   3.533   3.627   9.304 -0.6159 -1.0511  1.3033
 4574SOL     OW25357   2.608   0.499   9.528 -0.2163  0.3903  0.2189
 4574SOL    HW125358   2.678   0.435   9.514 -0.9796 -0.4940  0.5244
 4574SOL    HW225359   2.575   0.469   9.612 -1.0077  0.8715  0.0785
 4575SOL     OW25360   3.308   0.509   7.643  0.0238 -0.1954  0.1819
 4575SOL    HW125361   3.379   0.472   7.591 -1.6392 -1.4363 -1.2190
 4575SOL    HW225362   3.345   0.594   7.669  0.8040 -0.5132  0.0918
 4576SOL     OW25363   0.980   1.310  12.280  0.4682 -0.2010 -0.5460
 4576SOL    HW125364   1.015   1.326  12.368 -1.7454  1.3142  0.0826
 4576SOL    HW225365   0.950   1.220  12.293  1.1721 -0.1490  1.5500
 4577SOL     OW25366   2.969   1.564   9.330 -0.6806 -0.1860  0.0720
 4577SOL    HW125367   2.895   1.562   9.268 -0.9236 -1.5686  0.4096
 4577SOL    HW225368   2.984   1.470   9.324 -0.2647 -0.1506  0.5565
 4578SOL     OW25369   2.588   0.196  14.384 -0.0480  0.2202 -0.5667
 4578SOL    HW125370   2.667   0.187  14.330 -0.0944  1.1260 -0.7850
 4578SOL    HW225371   2.580   0.102  14.402  2.1510  0.3142  0.9590
 4579SOL     OW25372   2.171   4.700   4.311  0.7308 -0.0102  0.2243
 4579SOL    HW125373   2.108   4.724   4.243  0.3008  0.9582  0.9544
 4579SOL    HW225374   2.114   4.683   4.386  0.4071 -0.0455 -0.0319
 4580SOL     OW25375   0.478   2.906   4.023  0.0820  0.0928  0.3754
 4580SOL    HW125376   0.406   2.911   3.959  0.1002 -0.7340  0.2840
 4580SOL    HW225377   0.531   2.975   3.984  2.4429 -1.2220  1.2471
 4581SOL     OW25378   1.351   0.250   4.099  0.4263 -0.0868  0.2148
 4581SOL    HW125379   1.363   0.230   4.192 -0.4544 -2.4597 -0.1937
 4581SOL    HW225380   1.400   0.181   4.055 -0.4424  1.0782 -2.5665
 4582SOL     OW25381   3.826   0.940   4.971  0.1372 -0.0357  0.0801
 4582SOL    HW125382   3.898   0.989   4.932  0.4188 -0.0154  0.6212
 4582SOL    HW225383   3.862   0.859   5.009  2.0979  1.0066  0.4149
 4583SOL     OW25384   1.436   3.738  10.326 -0.5706  0.4529 -0.0409
 4583SOL    HW125385   1.348   3.700  10.326  0.2539 -1.4711 -0.1744
 4583SOL    HW225386   1.453   3.742  10.232 -0.1723 -1.3856 -0.0448
 4584SOL     OW25387   1.645   4.708   4.401 -0.1164 -0.1095  0.6193
 4584SOL    HW125388   1.643   4.613   4.392 -2.3901  0.1408 -1.6432
 4584SOL    HW225389   1.619   4.719   4.492  0.8088 -0.1449  0.8826
 4585SOL     OW25390   1.654   2.815   5.637 -0.0106 -0.1575 -0.8874
 4585SOL    HW125391   1.748   2.800   5.625 -0.0406 -1.6882  0.7710
 4585SOL    HW225392   1.616   2.730   5.620 -0.3356 -0.1855 -0.0438
 4586SOL     OW25393   1.374   0.224   8.923  0.1322  0.3044 -0.9905
 4586SOL    HW125394   1.381   0.308   8.878 -0.0190  0.9995  0.2981
 4586SOL    HW225395   1.417   0.158   8.868 -1.4066 -0.5422 -1.1662
 4587SOL     OW25396   3.927   3.304   1.304  0.2765  0.2614 -0.3587
 4587SOL    HW125397   3.976   3.257   1.237 -1.0791 -2.3051  0.4772
 4587SOL    HW225398   3.856   3.244   1.322 -0.2269  1.0923  0.4512
 4588SOL     OW25399   1.866   0.859  13.319  0.1346  0.5100 -0.4467
 4588SOL    HW125400   1.812   0.912  13.260 -2.2671 -2.1570 -0.5912
 4588SOL    HW225401   1.816   0.831  13.395 -0.5374  1.7934 -0.4172
 4589SOL     OW25402   4.688   1.981   6.228  0.5776  0.4397 -0.4958
 4589SOL    HW125403   4.598   1.955   6.249  1.4755  0.2405  3.2366
 4589SOL    HW225404   4.732   1.900   6.204  1.2987  0.4973  0.6478
 4590SOL     OW25405   2.699   1.706   9.456 -0.1150  0.5220 -0.4433
 4590SOL    HW125406   2.685   1.634   9.394  0.6414  0.0482 -0.0561
 4590SOL    HW225407   2.721   1.776   9.394  1.2428  0.5149  0.0402
 4591SOL     OW25408   1.328   0.981  14.122 -0.3027 -0.2339  0.3047
 4591SOL    HW125409   1.280   1.021  14.049  0.1912 -2.2465 -1.1366
 4591SOL    HW225410   1.415   1.018  14.105 -0.3013 -0.0285  0.7675
 4592SOL     OW25411   0.484   2.203  15.439 -0.4468 -0.0731 -0.0371
 4592SOL    HW125412   0.486   2.297  15.458 -1.8209 -0.4290  1.7930
 4592SOL    HW225413   0.400   2.198  15.393 -0.2774  0.7228 -0.4362
 4593SOL     OW25414   4.299   0.656   2.407 -0.2501  0.1597 -0.5423
 4593SOL    HW125415   4.383   0.700   2.423  0.8787 -2.4772  0.8412
 4593SOL    HW225416   4.306   0.570   2.448 -0.4898 -0.6961 -2.3274
 4594SOL     OW25417   1.668   3.555   6.682 -0.2618 -0.2770 -0.7296
 4594SOL    HW125418   1.723   3.479   6.664  0.0469 -0.0053 -0.9233
 4594SOL    HW225419   1.603   3.558   6.611 -1.3946  0.1782  0.3186
 4595SOL     OW25420   3.768   4.249   2.397 -0.3179 -0.2039 -0.3004
 4595SOL    HW125421   3.784   4.284   2.310 -0.2786  0.2450 -0.1161
 4595SOL    HW225422   3.838   4.185   2.408  0.3554  0.4639 -0.7381
 4596SOL     OW25423   3.183   3.407  13.940  0.0570 -0.2948  0.1592
 4596SOL    HW125424   3.229   3.448  14.014  1.0448 -0.6845 -0.2540
 4596SOL    HW225425   3.240   3.417  13.864 -1.2680 -2.2789 -1.1109
 4597SOL     OW25426   3.304   4.693   5.087 -0.2085 -0.3402 -0.0770
 4597SOL    HW125427   3.369   0.012   5.127  0.8075 -0.3443 -1.7131
 4597SOL    HW225428   3.271   4.631   5.152 -0.0538 -0.3227  0.0195
 4598SOL     OW25429   0.829   1.727   4.859 -0.2186  0.6888  1.0986
 4598SOL    HW125430   0.862   1.808   4.820  0.5686  0.3714  1.1044
 4598SOL    HW225431   0.764   1.769   4.915 -1.2805 -1.6482  1.6063
 4599SOL     OW25432   1.762   2.890   1.140  0.0040 -0.1276  0.0117
 4599SOL    HW125433   1.821   2.960   1.168  1.4992 -2.0161  1.6062
 4599SOL    HW225434   1.829   2.821   1.141  1.3716  1.2216  0.3329
 4600SOL     OW25435   3.282   0.504   7.314  0.2777 -0.0560 -0.0227
 4600SOL    HW125436   3.242   0.542   7.393  0.8515 -1.7060  1.0712
 4600SOL    HW225437   3.370   0.501   7.352  0.6357  0.7671 -0.8190
 4601SOL     OW25438   4.613   0.498  15.763 -0.7304 -0.2690  0.1230
 4601SOL    HW125439   4.674   0.444  15.713  1.2906  1.2095  1.0306
 4601SOL    HW225440   4.643   0.495  15.854 -1.6768  0.2838  0.4566
 4602SOL     OW25441   4.726   1.472   7.169 -0.5919  0.0317  0.3021
 4602SOL    HW125442   4.661   1.461   7.239 -1.6178 -1.9980 -0.9550
 4602SOL    HW225443   4.709   1.562   7.144 -0.1004 -0.5943 -2.2496
 4603SOL     OW25444   1.840   1.312   9.947  0.0704  0.5286 -0.2694
 4603SOL    HW125445   1.760   1.260   9.935 -0.4991  1.7582 -1.8163
 4603SOL    HW225446   1.807   1.394   9.909  1.0770  1.4885  0.9561
 4604SOL     OW25447   0.441   0.977   4.412  0.3666  0.2186 -0.4094
 4604SOL    HW125448   0.429   1.040   4.341 -0.3224  1.9835  1.2762
 4604SOL    HW225449   0.487   0.911   4.360  1.2653  1.3323 -1.0425
 4605SOL     OW25450   4.419   1.378   6.288 -0.2440 -0.2886 -0.7003
 4605SOL    HW125451   4.382   1.327   6.216  0.2356 -2.2653  0.4623
 4605SOL    HW225452   4.452   1.456   6.243  0.2658 -0.0443  0.0810
 4606SOL     OW25453   1.819   2.383  11.831  0.1127  0.3012  0.3344
 4606SOL    HW125454   1.865   2.314  11.879  0.2016 -0.1122 -0.3450
 4606SOL    HW225455   1.894   2.411  11.778  1.2134 -1.7137  0.8129
 4607SOL     OW25456   4.301   1.117   7.590  0.4747 -0.0376 -0.1949
 4607SOL    HW125457   4.377   1.062   7.607  0.0220 -0.2796  1.0858
 4607SOL    HW225458   4.230   1.059   7.618  1.2752 -0.3062  1.3266
 4608SOL     OW25459   4.296   3.511  16.081 -0.3340  0.8065  0.5256
 4608SOL    HW125460   4.305   3.422  16.117 -0.8487 -0.2204 -1.8299
 4608SOL    HW225461   4.202   3.517  16.067 -0.1596  2.2417  0.0387
 4609SOL     OW25462   1.953   0.222   1.301  0.1267 -0.1635  0.0821
 4609SOL    HW125463   1.872   0.181   1.269  0.1286 -0.2481  0.1846
 4609SOL    HW225464   1.914   0.277   1.369 -0.6094 -1.4813  0.7400
 4610SOL     OW25465   1.277   2.405   5.330  0.2018  0.0885 -0.0074
 4610SOL    HW125466   1.181   2.398   5.328  0.2509 -0.6387  0.0843
 4610SOL    HW225467   1.297   2.326   5.381 -1.1106 -0.6022 -0.5403
 4611SOL     OW25468   1.897   3.681   7.928 -0.2543  0.2809 -0.9119
 4611SOL    HW125469   1.924   3.706   8.016  0.2791 -0.2348 -0.9300
 4611SOL    HW225470   1.911   3.768   7.889  2.1213  0.0692 -0.5817
 4612SOL     OW25471   0.767   2.445   6.527  0.8060 -0.2832 -0.4817
 4612SOL    HW125472   0.680   2.406   6.533  0.1850  1.3347  0.8550
 4612SOL    HW225473   0.754   2.528   6.574  0.0094 -0.8262  0.2624
 4613SOL     OW25474   0.420   4.139   5.262  0.5045 -0.5609 -0.0543
 4613SOL    HW125475   0.469   4.216   5.234 -1.4718  0.4212 -0.7561
 4613SOL    HW225476   0.397   4.104   5.176 -0.7474 -0.9859  0.4590
 4614SOL     OW25477   3.701   2.186   2.152  0.1032 -0.8907 -1.2259
 4614SOL    HW125478   3.766   2.197   2.222 -0.3790 -1.8068 -0.6280
 4614SOL    HW225479   3.641   2.260   2.160  0.5739 -0.8850  2.2638
 4615SOL     OW25480   1.854   3.787   4.158  0.4471  0.4103 -0.2103
 4615SOL    HW125481   1.782   3.838   4.197  0.7012 -0.6671  1.6616
 4615SOL    HW225482   1.811   3.712   4.116 -2.1886  1.2436  0.9654
 4616SOL     OW25483   1.933   4.429  11.100  0.4192 -0.3840  0.0665
 4616SOL    HW125484   2.026   4.425  11.124  0.4940 -0.7761 -0.2766
 4616SOL    HW225485   1.919   4.358  11.037 -2.1427  0.6190 -0.4881
 4617SOL     OW25486   2.470   0.573   4.632  0.0128 -0.5614 -0.0159
 4617SOL    HW125487   2.554   0.563   4.587 -0.1522  0.7846 -0.6128
 4617SOL    HW225488   2.419   0.499   4.599 -0.5753 -0.8377  1.5101
 4618SOL     OW25489   0.104   1.134  17.662 -0.2618  0.3600 -0.1138
 4618SOL    HW125490   0.079   1.086  17.583 -0.3495  0.0566  0.0941
 4618SOL    HW225491   0.146   1.216  17.637  0.1762 -0.0144 -0.5991
 4619SOL     OW25492   3.151   2.068   4.146  0.1003  0.2501 -0.1771
 4619SOL    HW125493   3.111   2.038   4.228  1.0429 -1.3365 -0.3059
 4619SOL    HW225494   3.137   2.162   4.157  0.8774  0.1698  1.5025
 4620SOL     OW25495   2.572   0.268   5.366 -0.3958  0.3901  0.2779
 4620SOL    HW125496   2.601   0.319   5.291 -3.7265 -0.1528 -1.3902
 4620SOL    HW225497   2.492   0.231   5.328  0.2841 -0.0458 -0.7044
 4621SOL     OW25498   1.503   0.970   8.543  0.1157 -0.2706  0.5677
 4621SOL    HW125499   1.549   0.887   8.529  0.6464  0.0674  0.3290
 4621SOL    HW225500   1.560   1.035   8.502  0.6746 -1.6345 -0.8413
 4622SOL     OW25501   0.533   1.139   5.569 -0.2574  0.0229  0.9772
 4622SOL    HW125502   0.493   1.074   5.626 -1.2019  0.5146  0.8874
 4622SOL    HW225503   0.619   1.145   5.611  1.0805 -1.4891 -1.5367
 4623SOL     OW25504   2.772   2.920   5.298 -0.4781 -0.0794 -0.1773
 4623SOL    HW125505   2.800   2.979   5.228  1.0996  0.5452  0.9781
 4623SOL    HW225506   2.694   2.971   5.318 -0.0679 -0.8650  3.4635
 4624SOL     OW25507   3.410   3.061   9.399  0.6044 -0.1804  0.0299
 4624SOL    HW125508   3.337   3.119   9.378  3.4034  2.4632 -2.3166
 4624SOL    HW225509   3.456   3.090   9.320 -0.1600  1.4917  0.2002
 4625SOL     OW25510   4.267   4.638   2.393  0.6884  0.6964 -0.0358
 4625SOL    HW125511   4.228   4.551   2.401  1.8290  0.0015 -2.0801
 4625SOL    HW225512   4.190   4.693   2.410  0.5542  1.1577 -2.1550
 4626SOL     OW25513   1.967   0.911   9.774 -0.2816  0.4952 -0.2228
 4626SOL    HW125514   2.014   0.853   9.715  0.1443 -2.4179  2.9952
 4626SOL    HW225515   2.007   0.885   9.857 -1.9567 -0.8732  0.1633
 4627SOL     OW25516   0.062   0.332  11.825  0.1858 -0.2323  0.0550
 4627SOL    HW125517   0.042   0.239  11.817 -1.5022  0.0920  0.4784
 4627SOL    HW225518   0.157   0.335  11.814 -0.2337 -1.7107 -3.7387
 4628SOL     OW25519   2.491   1.360   0.540  0.3131 -0.7940 -0.7171
 4628SOL    HW125520   2.501   1.355   0.635 -0.9617  1.3691 -0.4764
 4628SOL    HW225521   2.403   1.323   0.530 -0.8334  2.9272 -4.4289
 4629SOL     OW25522   2.835   0.826   1.303  0.0827 -0.5302  0.1066
 4629SOL    HW125523   2.870   0.914   1.320  0.0173  0.1180 -3.0219
 4629SOL    HW225524   2.900   0.802   1.237  0.9709  1.4891  0.2429
 4630SOL     OW25525   1.822   1.487   5.655  0.0504 -0.3010  0.2079
 4630SOL    HW125526   1.728   1.487   5.675 -0.0391  0.5752 -0.1861
 4630SOL    HW225527   1.844   1.579   5.642  0.2733 -0.2975  0.6322
 4631SOL     OW25528   0.907   4.195   6.164 -0.7807 -0.0522 -0.5089
 4631SOL    HW125529   0.872   4.277   6.129 -0.2492 -0.1609 -1.3022
 4631SOL    HW225530   0.891   4.201   6.258  0.2751 -0.7609 -0.2856
 4632SOL     OW25531   2.674   1.096  17.247 -0.0852 -0.6000  0.0269
 4632SOL    HW125532   2.605   1.130  17.190  0.1033  1.8535  1.2638
 4632SOL    HW225533   2.622   1.065  17.321  0.2584  0.3700  0.6770
 4633SOL     OW25534   0.926   1.583   5.195  0.5468 -0.0566  0.1169
 4633SOL    HW125535   1.004   1.617   5.151  0.7465 -2.6723 -1.5372
 4633SOL    HW225536   0.856   1.573   5.131  1.2409 -0.8615 -0.5123
 4634SOL     OW25537   0.226   1.163  10.704  0.2511  0.2389 -0.4244
 4634SOL    HW125538   0.135   1.186  10.685  0.0996 -0.8263 -0.9941
 4634SOL    HW225539   0.280   1.232  10.665  1.1083 -0.1152  0.1380
 4635SOL     OW25540   2.715   2.203   7.209 -0.5299  0.2279 -0.2707
 4635SOL    HW125541   2.669   2.216   7.126 -2.3434  1.2121  0.8894
 4635SOL    HW225542   2.672   2.126   7.246  1.1357 -1.1063 -1.1238
 4636SOL     OW25543   2.518   1.337   6.266  0.2460 -0.1150  0.3715
 4636SOL    HW125544   2.486   1.368   6.351 -2.0321 -0.1903 -0.4480
 4636SOL    HW225545   2.452   1.372   6.207  0.2184 -0.8428 -0.0262
 4637SOL     OW25546   3.449   4.231  12.104  0.2359  0.0688 -0.6309
 4637SOL    HW125547   3.533   4.276  12.110  1.0689 -1.7757  1.7002
 4637SOL    HW225548   3.491   4.152  12.070 -0.1061  1.2463 -3.7246
 4638SOL     OW25549   3.077   3.570   5.742  0.4599  0.3488  0.4151
 4638SOL    HW125550   3.106   3.546   5.653  0.8754  1.0478  0.3672
 4638SOL    HW225551   2.982   3.579   5.731  0.4829 -1.8166 -1.6586
 4639SOL     OW25552   0.796   3.759   5.085 -0.8234 -0.1740  0.2077
 4639SOL    HW125553   0.784   3.850   5.113 -0.0223 -0.0526  0.1589
 4639SOL    HW225554   0.714   3.732   5.043  0.5251  0.5787 -2.8585
 4640SOL     OW25555   1.897   3.426   4.503  0.2028  0.1489 -1.1813
 4640SOL    HW125556   1.965   3.415   4.569 -0.2419 -0.1756 -0.7783
 4640SOL    HW225557   1.830   3.460   4.561  1.4393  0.5943 -0.0270
 4641SOL     OW25558   0.832   0.734   0.160 -0.5158 -0.3295  0.8745
 4641SOL    HW125559   0.740   0.735   0.186 -1.2222 -1.4988 -1.5495
 4641SOL    HW225560   0.830   0.741   0.064 -0.7291 -1.3525  0.8066
 4642SOL     OW25561   2.963   0.530   6.373 -0.1361  0.1736  0.3755
 4642SOL    HW125562   3.011   0.612   6.386  0.4134 -0.3141  1.4428
 4642SOL    HW225563   2.917   0.516   6.456 -0.1919 -3.6878 -0.2779
 4643SOL     OW25564   2.645   0.769  15.138  0.0402 -0.1639 -0.0646
 4643SOL    HW125565   2.714   0.835  15.149  2.0831 -2.6439  2.0777
 4643SOL    HW225566   2.574   0.799  15.194 -0.3181  2.7420 -2.0871
 4644SOL     OW25567   3.778   3.147  16.922 -0.2768  0.4226 -0.3340
 4644SOL    HW125568   3.714   3.172  16.856  1.1926 -0.3014 -2.0264
 4644SOL    HW225569   3.858   3.191  16.892  0.8233 -0.6999  0.9732
 4645SOL     OW25570   2.890   1.458  10.758 -0.1375 -0.2547 -0.1073
 4645SOL    HW125571   2.962   1.519  10.771  2.0007 -2.6490 -0.7681
 4645SOL    HW225572   2.894   1.398  10.832 -1.9664  0.6568  0.7421
 4646SOL     OW25573   2.978   0.523   3.597  0.2658 -0.5433 -0.1660
 4646SOL    HW125574   2.935   0.462   3.538  0.8129  0.5812 -1.7216
 4646SOL    HW225575   2.953   0.608   3.563  1.5043  0.7560  2.1158
 4647SOL     OW25576   4.056   3.042  14.291 -0.0935 -0.3488 -0.6261
 4647SOL    HW125577   4.070   3.065  14.200  1.8930 -4.8725 -1.4692
 4647SOL    HW225578   4.105   3.108  14.340 -0.4751  0.1080 -0.8547
 4648SOL     OW25579   2.025   4.705   4.989 -0.6945  0.4001  0.4129
 4648SOL    HW125580   2.003   4.662   4.906  1.1829  0.4558 -0.1032
 4648SOL    HW225581   1.939   4.739   5.014  0.6116  2.4652  2.0932
 4649SOL     OW25582   0.116   0.101   7.782 -0.3794 -0.0150  0.1077
 4649SOL    HW125583   0.058   0.162   7.827  0.3326 -0.5861  1.7776
 4649SOL    HW225584   0.132   0.156   7.705 -2.6099 -0.5929 -0.7896
 4650SOL     OW25585   0.305   3.701   2.925  0.5117  0.7104 -0.2601
 4650SOL    HW125586   0.239   3.638   2.896  0.9571  0.0570  0.1186
 4650SOL    HW225587   0.292   3.716   3.019 -0.4486  1.5647 -0.5351
 4651SOL     OW25588   3.975   3.526   8.193 -0.5987  0.6608  0.1743
 4651SOL    HW125589   4.018   3.540   8.277  1.2162  0.1648 -0.6766
 4651SOL    HW225590   4.031   3.454   8.161  0.8060  2.8300 -2.2744
 4652SOL     OW25591   3.631   4.277   9.059 -0.0164 -0.4906 -0.4785
 4652SOL    HW125592   3.599   4.187   9.058 -1.6956  0.1088 -0.6646
 4652SOL    HW225593   3.667   4.277   9.148 -1.9542 -2.4319  0.3169
 4653SOL     OW25594   2.883   3.457   9.726 -0.5325  0.1362  0.0001
 4653SOL    HW125595   2.942   3.477   9.654 -0.2409 -2.8080 -0.5837
 4653SOL    HW225596   2.832   3.385   9.689 -3.5586  0.7584  3.0126
 4654SOL     OW25597   0.866   2.519   0.165 -0.2139 -0.3304 -0.1534
 4654SOL    HW125598   0.866   2.452   0.233  0.0668 -0.3354 -0.1575
 4654SOL    HW225599   0.831   2.470   0.090 -0.9098  0.0362 -0.0575
 4655SOL     OW25600   3.859   3.861   3.145 -0.1566  0.1767  0.3090
 4655SOL    HW125601   3.893   3.887   3.231 -0.8088 -2.6090  1.3864
 4655SOL    HW225602   3.917   3.916   3.092  0.4699 -0.2945  0.5069
 4656SOL     OW25603   2.380   2.101  11.869 -0.5126  0.2767 -0.5667
 4656SOL    HW125604   2.447   2.037  11.843 -0.2001 -0.3339  1.7315
 4656SOL    HW225605   2.320   2.095  11.794  0.6155  0.2567 -1.4620
 4657SOL     OW25606   1.748   1.687  10.322  0.4476 -0.5422 -0.1603
 4657SOL    HW125607   1.770   1.759  10.381  1.0683 -0.4725 -0.4760
 4657SOL    HW225608   1.653   1.681  10.331  0.4721 -0.7871 -0.0596
 4658SOL     OW25609   0.657   2.769   9.455  0.7140 -0.3746  0.0446
 4658SOL    HW125610   0.660   2.853   9.502  0.3998  1.6981 -3.6756
 4658SOL    HW225611   0.565   2.744   9.463  0.7663 -0.4760  0.3303
 4659SOL     OW25612   0.607   1.311   2.813 -0.0207  0.2009  0.4089
 4659SOL    HW125613   0.558   1.231   2.835 -2.0336  0.9072 -1.3907
 4659SOL    HW225614   0.689   1.271   2.785  0.8867  0.8596  2.2043
 4660SOL     OW25615   3.972   3.385  12.271 -0.2455 -0.2374 -0.2074
 4660SOL    HW125616   3.880   3.397  12.295  0.2468  0.5416  1.3280
 4660SOL    HW225617   4.011   3.460  12.317  0.2445 -0.1911 -0.6995
 4661SOL     OW25618   1.678   2.351   5.805 -0.0035 -0.0753  0.4850
 4661SOL    HW125619   1.663   2.428   5.749 -1.7488 -1.5722 -1.0801
 4661SOL    HW225620   1.720   2.404   5.873 -0.9260  1.1801  0.0877
 4662SOL     OW25621   1.171   2.467   6.098  0.1686 -0.2247 -0.1698
 4662SOL    HW125622   1.190   2.559   6.113  0.6202 -0.1362 -1.3005
 4662SOL    HW225623   1.203   2.431   6.181  0.2292 -0.8945 -0.4782
 4663SOL     OW25624   2.615   0.052  16.324  0.7929 -0.0188 -0.3476
 4663SOL    HW125625   2.699   0.007  16.313  1.6547  1.2670  0.9616
 4663SOL    HW225626   2.556   4.717  16.308 -0.0141  0.3680  0.7773
 4664SOL     OW25627   2.399   4.058  15.926  0.0409  0.9417  0.2185
 4664SOL    HW125628   2.472   4.044  15.986 -0.0303  0.6495  0.2385
 4664SOL    HW225629   2.411   4.148  15.894  0.5973  1.3079  1.4639
 4665SOL     OW25630   4.087   2.829   1.419  0.2455 -0.7598  0.1149
 4665SOL    HW125631   4.135   2.770   1.362  0.2022 -1.8811  1.2481
 4665SOL    HW225632   4.140   2.907   1.404 -0.9301  0.2034  0.9740
 4666SOL     OW25633   1.423   3.995   7.057 -0.0265 -0.3388  0.3221
 4666SOL    HW125634   1.328   3.997   7.072 -0.2186 -0.0103 -0.9498
 4666SOL    HW225635   1.450   4.046   7.133 -3.1959 -0.5778  1.5988
 4667SOL     OW25636   3.848   2.948  10.531  0.3662 -0.5288  0.0790
 4667SOL    HW125637   3.888   2.916  10.450  0.3351  2.7555 -1.2231
 4667SOL    HW225638   3.755   2.936  10.511 -0.0815  0.4131  1.6304
 4668SOL     OW25639   3.252   0.775   6.541 -0.3957  0.2111 -0.3669
 4668SOL    HW125640   3.308   0.765   6.464  0.2057 -2.7600  0.4415
 4668SOL    HW225641   3.317   0.744   6.605 -0.2173 -0.3284 -0.8094
 4669SOL     OW25642   4.653   0.946   0.529 -0.1882  0.6834  0.2536
 4669SOL    HW125643   4.639   1.040   0.520  0.2449  0.8237  1.1068
 4669SOL    HW225644   4.720   0.940   0.460  0.0218  1.9923  0.3463
 4670SOL     OW25645   2.671   3.518   5.848  0.5314  0.4844 -0.0372
 4670SOL    HW125646   2.613   3.571   5.903  0.7343  1.4035 -0.7058
 4670SOL    HW225647   2.742   3.504   5.910  2.4749  1.8206 -1.9515
 4671SOL     OW25648   2.816   3.176   3.843 -0.2038 -0.5881 -0.3671
 4671SOL    HW125649   2.722   3.160   3.836 -0.0876 -1.9342  0.9658
 4671SOL    HW225650   2.820   3.242   3.912 -1.4585 -0.5203 -0.3663
 4672SOL     OW25651   4.277   3.851  16.446 -0.4519 -0.0504  0.0356
 4672SOL    HW125652   4.232   3.935  16.438  1.7655  1.2352  1.0837
 4672SOL    HW225653   4.213   3.795  16.490 -0.4882  0.2863  0.4147
 4673SOL     OW25654   2.995   1.691  14.397 -0.5344  0.1987  0.1690
 4673SOL    HW125655   3.047   1.768  14.420 -1.1986  0.6291  0.2131
 4673SOL    HW225656   2.916   1.738  14.372 -0.2143  0.3422 -0.5742
 4674SOL     OW25657   2.988   0.681   3.988  0.4276  0.0495  0.0939
 4674SOL    HW125658   2.944   0.724   3.915 -0.4459  0.7926  1.0563
 4674SOL    HW225659   3.028   0.607   3.942 -1.3972 -0.5868 -0.4727
 4675SOL     OW25660   2.768   0.338   6.194 -0.2377 -0.7664 -0.0714
 4675SOL    HW125661   2.687   0.351   6.243 -0.2470  0.6334 -0.4469
 4675SOL    HW225662   2.810   0.424   6.191  0.3695 -1.0227  1.3215
 4676SOL     OW25663   2.084   4.517   5.778 -0.2124 -0.5926  0.2178
 4676SOL    HW125664   2.054   4.432   5.810 -0.6853  0.2738  2.1246
 4676SOL    HW225665   2.128   4.558   5.853  1.5811 -0.3750 -0.9630
 4677SOL     OW25666   0.664   1.694   2.092 -0.7150  0.4833  0.1899
 4677SOL    HW125667   0.687   1.687   2.185  1.6899  0.2427 -0.4083
 4677SOL    HW225668   0.632   1.784   2.089 -1.1834  0.3434  0.9731
 4678SOL     OW25669   1.760   3.691   6.897 -0.0558 -0.6121  0.1885
 4678SOL    HW125670   1.721   3.629   6.959  0.2990  0.4083  1.4297
 4678SOL    HW225671   1.722   3.654   6.817 -1.6831 -1.2506  1.2422
 4679SOL     OW25672   0.736   1.484  11.239 -0.6211  0.2387 -0.6406
 4679SOL    HW125673   0.750   1.389  11.249 -0.9528  0.3090  0.5489
 4679SOL    HW225674   0.825   1.511  11.261 -1.1746 -0.0247  1.9447
 4680SOL     OW25675   3.181   0.184   7.795 -0.3445 -0.2512 -0.3999
 4680SOL    HW125676   3.246   0.150   7.734  1.4177 -1.1426  1.9638
 4680SOL    HW225677   3.154   0.257   7.740 -1.5258  0.1499  0.7008
 4681SOL     OW25678   3.246   1.803  10.929 -0.4431 -0.3654  0.1988
 4681SOL    HW125679   3.316   1.783  10.866 -0.7702 -1.2444  0.1222
 4681SOL    HW225680   3.281   1.882  10.970  0.0538  0.3888 -1.6638
 4682SOL     OW25681   0.981   3.927  15.399 -0.6023  0.1131  0.3861
 4682SOL    HW125682   0.911   3.893  15.343  0.1698 -1.1132  0.1715
 4682SOL    HW225683   1.053   3.936  15.338  0.9673  2.5539  2.5735
 4683SOL     OW25684   4.506   0.871   6.941  0.6191  0.1407 -0.0508
 4683SOL    HW125685   4.515   0.891   7.034 -0.9583  0.4272  0.0364
 4683SOL    HW225686   4.430   0.924   6.918  0.8961 -0.0359 -1.4073
 4684SOL     OW25687   0.926   3.554   4.862 -0.3695 -0.6547 -0.5558
 4684SOL    HW125688   0.995   3.571   4.798 -0.0102 -0.6341 -0.1656
 4684SOL    HW225689   0.955   3.610   4.934  1.6850 -1.3426 -0.8465
 4685SOL     OW25690   2.069   4.693   5.568 -0.1733 -0.3935  0.0575
 4685SOL    HW125691   2.067   4.607   5.611 -1.2856  1.1563  3.1169
 4685SOL    HW225692   2.164   4.705   5.569 -0.1586 -0.2635 -1.7772
 4686SOL     OW25693   1.566   1.301   2.383 -0.1227  0.3305  0.8256
 4686SOL    HW125694   1.519   1.323   2.464  1.0520  0.0621  1.5760
 4686SOL    HW225695   1.590   1.390   2.359  0.1761 -0.2796 -1.1297
 4687SOL     OW25696   4.183   2.401   4.856 -0.1053 -0.0554  0.2586
 4687SOL    HW125697   4.134   2.324   4.828  1.5016 -1.8775  2.4743
 4687SOL    HW225698   4.226   2.441   4.779 -1.1044 -0.2803 -0.4086
 4688SOL     OW25699   0.217   1.500   1.786 -0.3916 -0.0782  0.0378
 4688SOL    HW125700   0.228   1.553   1.865  0.0885  0.5396 -0.4434
 4688SOL    HW225701   0.311   1.494   1.767 -0.4845 -1.7472  0.1652
 4689SOL     OW25702   4.666   3.617   8.825 -0.4984 -0.3435 -0.6222
 4689SOL    HW125703   4.719   3.654   8.896  0.6615 -1.4489 -0.9123
 4689SOL    HW225704   4.686   3.523   8.824  0.6317 -0.0934 -0.6226
 4690SOL     OW25705   1.752   3.847   9.422 -0.1887 -0.9285 -0.4097
 4690SOL    HW125706   1.743   3.919   9.360 -4.4264  1.2110  2.6135
 4690SOL    HW225707   1.716   3.887   9.502  0.4096 -2.5850  0.6840
 4691SOL     OW25708   2.777   3.720   5.361 -0.0099  0.2021  0.0638
 4691SOL    HW125709   2.731   3.755   5.285 -0.1879 -1.1900 -0.4806
 4691SOL    HW225710   2.801   3.632   5.330 -0.3315  0.9041 -2.1887
 4692SOL     OW25711   1.115   3.324   9.188  0.1316  0.7664 -0.3482
 4692SOL    HW125712   1.027   3.335   9.152  0.4343  2.7623 -0.4850
 4692SOL    HW225713   1.135   3.257   9.122 -1.2161  0.8013 -0.7822
 4693SOL     OW25714   2.208   1.421   5.440  0.0491  0.1041  0.1278
 4693SOL    HW125715   2.122   1.388   5.469  0.8529 -0.3384  1.9994
 4693SOL    HW225716   2.208   1.504   5.487  1.7534 -0.0313  0.3608
 4694SOL     OW25717   4.567   2.546   1.691 -0.3547 -0.5547  0.1208
 4694SOL    HW125718   4.614   2.533   1.608 -0.3646  0.3219 -0.0151
 4694SOL    HW225719   4.527   2.460   1.703  0.9913 -0.9501  1.8053
 4695SOL     OW25720   0.651   0.534   3.878  0.1608  0.5031  0.4768
 4695SOL    HW125721   0.607   0.616   3.855  1.3192  0.8418 -0.5186
 4695SOL    HW225722   0.608   0.467   3.824  2.4768 -0.7442  0.1965
 4696SOL     OW25723   4.585   0.637   4.471 -0.0828 -0.2549  0.6383
 4696SOL    HW125724   4.671   0.665   4.502 -0.5500  0.9657  0.8146
 4696SOL    HW225725   4.548   0.587   4.544 -4.9191  1.2294 -0.7757
 4697SOL     OW25726   2.319   4.729   3.249  0.2084  0.0598 -0.9771
 4697SOL    HW125727   2.290   4.735   3.158  0.5320 -2.0436 -1.2123
 4697SOL    HW225728   2.387   4.661   3.246 -1.0473 -1.2677  0.8173
 4698SOL     OW25729   2.648   1.119   5.149  0.3734  0.1985  0.0283
 4698SOL    HW125730   2.671   1.080   5.065 -1.2750 -0.2656 -0.2149
 4698SOL    HW225731   2.577   1.062   5.180  0.9754 -1.2487 -1.2593
 4699SOL     OW25732   0.787   1.151  10.544  0.1165  0.4918 -0.1795
 4699SOL    HW125733   0.876   1.118  10.528 -0.2124 -0.7454  0.4884
 4699SOL    HW225734   0.732   1.077  10.570 -0.1825  0.1532 -1.7686
 4700SOL     OW25735   0.067   0.320   1.954 -0.2982 -0.6544 -0.4498
 4700SOL    HW125736   0.150   0.273   1.943 -1.3045 -2.4916 -0.2553
 4700SOL    HW225737   0.019   0.276   1.883 -0.3037  0.1205 -0.9316
 4701SOL     OW25738   0.814   0.851   5.963 -0.2743 -0.1730  0.3992
 4701SOL    HW125739   0.856   0.837   6.048 -1.0095 -0.7611  0.6605
 4701SOL    HW225740   0.892   0.842   5.909 -1.5491 -3.1708 -0.9142
 4702SOL     OW25741   0.032   0.318   6.664 -0.7471  0.1436  0.4461
 4702SOL    HW125742   0.065   0.342   6.578 -0.3201  1.5251  1.0025
 4702SOL    HW225743   4.683   0.355   6.657 -1.0298 -1.0019 -1.8580
 4703SOL     OW25744   1.202   1.165   2.683 -0.1150 -0.0331 -0.2738
 4703SOL    HW125745   1.164   1.162   2.771  1.1760 -3.0368  0.1942
 4703SOL    HW225746   1.200   1.073   2.654 -1.1052  0.2925 -1.2259
 4704SOL     OW25747   1.342   0.122  10.024  0.4307 -0.1003  0.6897
 4704SOL    HW125748   1.294   0.121   9.941  3.1449  1.2248 -0.9109
 4704SOL    HW225749   1.367   0.214  10.029 -0.5004  0.2117 -0.5274
 4705SOL     OW25750   3.458   3.891   0.912  0.6249  0.1731 -0.4118
 4705SOL    HW125751   3.552   3.878   0.896  0.5741  0.6851 -1.1367
 4705SOL    HW225752   3.445   3.832   0.986  2.0678 -0.0270 -0.3196
 4706SOL     OW25753   2.962   1.832   4.882  0.6891  0.5360 -0.4090
 4706SOL    HW125754   2.919   1.908   4.921 -0.2543  0.0859 -0.5746
 4706SOL    HW225755   3.036   1.821   4.941 -0.2334 -1.6115  0.3615
 4707SOL     OW25756   1.217   1.170   3.357  0.0830  0.0053  0.2018
 4707SOL    HW125757   1.271   1.199   3.283 -0.3158 -0.0576 -0.1139
 4707SOL    HW225758   1.265   1.215   3.425 -0.4180  0.0903  0.4967
 4708SOL     OW25759   1.529   2.463   9.106  0.3767  0.4387 -0.0902
 4708SOL    HW125760   1.445   2.500   9.136 -0.4276 -1.2870 -0.2056
 4708SOL    HW225761   1.558   2.524   9.039 -0.2836  0.3035 -0.4988
 4709SOL     OW25762   0.460   3.725   4.034 -0.6151 -0.1492 -1.1152
 4709SOL    HW125763   0.540   3.764   4.069 -1.9821  1.5774  0.0941
 4709SOL    HW225764   0.485   3.731   3.942 -1.0418  1.2157 -1.1373
 4710SOL     OW25765   3.716   2.371   6.868 -0.1161  0.2203 -0.3085
 4710SOL    HW125766   3.678   2.365   6.780  0.5996 -0.9787 -0.5440
 4710SOL    HW225767   3.773   2.446   6.851  1.4871 -0.7786  0.5860
 4711SOL     OW25768   2.054   1.586   8.968  0.5154 -0.0719  0.1193
 4711SOL    HW125769   1.998   1.600   9.044  3.0301 -1.5053  2.2073
 4711SOL    HW225770   2.129   1.643   8.986  1.2758 -0.7247 -0.9271
 4712SOL     OW25771   0.789   3.013   3.041  0.1834 -0.3015 -0.0385
 4712SOL    HW125772   0.831   3.072   2.979 -2.0415 -0.2310 -1.4893
 4712SOL    HW225773   0.866   2.962   3.065 -1.3388 -2.7027 -0.2844
 4713SOL     OW25774   3.047   2.411   7.508  0.0920  0.0954 -0.2724
 4713SOL    HW125775   2.977   2.438   7.568  0.0431  0.9046 -0.6913
 4713SOL    HW225776   3.114   2.382   7.571 -2.0433  0.3477  2.1229
 4714SOL     OW25777   4.648   2.758   1.825 -0.1374  0.2726 -0.8050
 4714SOL    HW125778   4.593   2.692   1.782  0.9824 -1.9136  1.1415
 4714SOL    HW225779   4.630   2.740   1.917 -2.8080 -0.3342 -1.4561
 4715SOL     OW25780   1.237   3.936   6.792 -0.0420 -0.0799  0.2316
 4715SOL    HW125781   1.313   3.876   6.789  1.4856  1.9318 -1.4126
 4715SOL    HW225782   1.230   3.968   6.702 -3.1109 -0.7886  0.2380
 4716SOL     OW25783   4.451   4.606   3.439 -0.0217 -0.0928 -0.3816
 4716SOL    HW125784   4.418   4.695   3.421  1.6973  0.3574 -1.2609
 4716SOL    HW225785   4.371   4.556   3.453  0.0293 -0.2075 -0.5027
 4717SOL     OW25786   2.454   0.416   5.634  0.0780 -0.6242 -0.0234
 4717SOL    HW125787   2.402   0.458   5.566 -0.6944 -1.1293  0.2576
 4717SOL    HW225788   2.527   0.394   5.575 -0.4253 -2.4844  0.0485
 4718SOL     OW25789   0.661   0.771   5.094  0.3367  0.0466  0.5929
 4718SOL    HW125790   0.580   0.814   5.121  0.5380  0.6675  0.2273
 4718SOL    HW225791   0.690   0.715   5.165  0.2002 -0.0724  0.5543
 4719SOL     OW25792   3.473   0.376   4.863  0.7297  0.0397 -0.0787
 4719SOL    HW125793   3.419   0.307   4.824 -0.9159  1.5943 -0.5393
 4719SOL    HW225794   3.447   0.359   4.953  1.7200 -1.3282 -0.0509
 4720SOL     OW25795   2.288   3.715   2.413  0.1541  0.0423 -0.4589
 4720SOL    HW125796   2.198   3.692   2.388  0.6666 -0.5228 -1.8029
 4720SOL    HW225797   2.315   3.797   2.372 -0.9106  1.5636  1.8827
 4721SOL     OW25798   3.494   3.438   8.644  0.5040  0.5257 -0.5718
 4721SOL    HW125799   3.456   3.458   8.559  0.4310  1.4694 -0.3161
 4721SOL    HW225800   3.565   3.380   8.615 -1.2884  0.2349 -4.2915
 4722SOL     OW25801   0.524   1.572   0.189 -0.2508 -0.2358 -0.0420
 4722SOL    HW125802   0.602   1.625   0.180 -1.0188  0.4554 -2.5443
 4722SOL    HW225803   0.495   1.536   0.105 -0.0914 -0.0638 -0.1694
 4723SOL     OW25804   0.158   0.636  16.182 -0.1064  0.7642  0.0721
 4723SOL    HW125805   0.238   0.664  16.138  0.2755 -0.3225  0.0718
 4723SOL    HW225806   0.128   0.721  16.215 -1.9169 -0.2053  0.9450
 4724SOL     OW25807   1.979   0.418   8.021  0.4559  0.1660  0.0752
 4724SOL    HW125808   2.012   0.495   8.065  0.9597 -0.2173  0.3677
 4724SOL    HW225809   1.982   0.437   7.927  3.8513  2.0291  0.5547
 4725SOL     OW25810   1.742   1.591   7.031 -0.3769  0.3093  0.3457
 4725SOL    HW125811   1.752   1.679   7.067 -0.9228  1.0854 -1.3827
 4725SOL    HW225812   1.795   1.536   7.088 -0.1989 -1.5879 -1.6184
 4726SOL     OW25813   0.547   3.592  15.240 -0.2650 -0.2534 -0.2485
 4726SOL    HW125814   0.591   3.516  15.201  0.1274  0.0767 -0.4548
 4726SOL    HW225815   0.564   3.570  15.332  0.0588 -0.3322 -0.3261
 4727SOL     OW25816   1.378   1.482   4.625 -0.6805 -0.1723 -0.3677
 4727SOL    HW125817   1.320   1.408   4.644  1.2169 -1.4510  0.4248
 4727SOL    HW225818   1.325   1.546   4.578 -1.5052 -0.4573  0.1719
 4728SOL     OW25819   0.647   4.247   7.054  0.4665  0.3921  0.6053
 4728SOL    HW125820   0.572   4.302   7.028 -0.3162 -0.5347  0.9158
 4728SOL    HW225821   0.617   4.210   7.137  0.0734  0.9135  0.7001
 4729SOL     OW25822   3.432   1.211   9.562 -0.1488  0.0770 -0.2855
 4729SOL    HW125823   3.491   1.283   9.583  0.8324 -1.1798  1.3175
 4729SOL    HW225824   3.358   1.228   9.621  0.5334  0.4253  0.4836
 4730SOL     OW25825   1.869   1.682   4.900 -0.0049  0.1472  0.2241
 4730SOL    HW125826   1.923   1.603   4.898  2.4250  1.9041 -2.6710
 4730SOL    HW225827   1.791   1.639   4.935 -0.3670  0.0674 -0.6818
 4731SOL     OW25828   4.548   3.820  16.429  0.4649 -0.4610  0.1067
 4731SOL    HW125829   4.565   3.905  16.387  0.7921  0.9642  3.1044
 4731SOL    HW225830   4.453   3.821  16.439  0.4359  0.4106 -0.2137
 4732SOL     OW25831   0.174   4.491  17.238  0.1249  0.2569  0.2736
 4732SOL    HW125832   0.218   4.437  17.305  0.2949  0.4889  0.3503
 4732SOL    HW225833   0.083   4.466  17.252 -0.1328  0.1267 -1.6923
 4733SOL     OW25834   2.190   1.658   9.303 -0.5505  0.1799 -0.1270
 4733SOL    HW125835   2.116   1.715   9.324 -2.4695 -1.4849 -2.2872
 4733SOL    HW225836   2.176   1.641   9.209  0.4025  0.5881 -0.3426
 4734SOL     OW25837   1.859   1.234   7.861 -0.4009 -0.1682 -0.0975
 4734SOL    HW125838   1.858   1.192   7.947  1.4952 -0.3181 -0.1605
 4734SOL    HW225839   1.779   1.287   7.853 -0.7099 -0.5189  0.7389
 4735SOL     OW25840   3.059   4.468   3.071  0.0923  0.1872  0.0749
 4735SOL    HW125841   2.965   4.450   3.066  0.5740 -2.7360  1.6256
 4735SOL    HW225842   3.066   4.545   3.015 -1.8226  0.6882  0.5170
 4736SOL     OW25843   2.403   2.132   7.337 -0.6004  0.1157 -0.3105
 4736SOL    HW125844   2.418   2.212   7.287 -1.6394 -0.6722 -1.9151
 4736SOL    HW225845   2.386   2.159   7.427  2.3158  0.1010  0.2464
 4737SOL     OW25846   0.899   3.552   9.623  0.0577  0.1286  0.3805
 4737SOL    HW125847   0.903   3.519   9.713  2.1757 -0.1842  0.1783
 4737SOL    HW225848   0.934   3.475   9.578 -0.6235 -0.0973  0.2391
 4738SOL     OW25849   4.095   0.574   8.058  0.3045  0.1556  0.3753
 4738SOL    HW125850   4.119   0.481   8.061  0.4868  0.2231  1.1672
 4738SOL    HW225851   4.008   0.579   8.097  0.6677  2.5102  0.8965
 4739SOL     OW25852   4.208   3.135   5.478 -0.3684  0.5195  0.7140
 4739SOL    HW125853   4.214   3.175   5.565 -1.1263 -1.3928  1.6231
 4739SOL    HW225854   4.119   3.154   5.448 -0.3932 -1.6467 -0.5842
 4740SOL     OW25855   4.608   0.415   7.508  0.5855 -0.1761 -0.4494
 4740SOL    HW125856   4.579   0.469   7.582  0.7080 -0.6059 -0.0883
 4740SOL    HW225857   4.544   0.346   7.489  0.2399  0.2346 -0.7919
 4741SOL     OW25858   3.215   3.190   9.768  0.0974 -0.3869  0.3969
 4741SOL    HW125859   3.244   3.099   9.767  0.8384 -0.1514  0.6029
 4741SOL    HW225860   3.138   3.173   9.714  1.2588  0.6414 -1.5886
 4742SOL     OW25861   2.197   1.496  10.263 -0.3457 -0.1633 -0.4563
 4742SOL    HW125862   2.243   1.559  10.318  0.2165  0.6754 -1.8979
 4742SOL    HW225863   2.105   1.517  10.283 -0.9012 -0.6815 -2.4786
 4743SOL     OW25864   2.039   2.632   7.632 -0.0195  0.5946 -0.9532
 4743SOL    HW125865   2.125   2.593   7.643 -0.9210 -1.5747 -1.6164
 4743SOL    HW225866   2.064   2.724   7.621 -1.2287  0.8522 -1.5549
 4744SOL     OW25867   0.243   1.257   7.929 -0.2218  0.0580 -0.4297
 4744SOL    HW125868   0.314   1.292   7.874 -0.8311  0.2259 -1.1180
 4744SOL    HW225869   0.287   1.238   8.012  0.4200 -1.9562 -1.2385
 4745SOL     OW25870   0.804   3.556   3.909 -0.0249 -0.2130  0.0840
 4745SOL    HW125871   0.845   3.625   3.962 -3.0570  1.6364  0.0422
 4745SOL    HW225872   0.790   3.597   3.824  1.1456 -0.9814 -0.4737
 4746SOL     OW25873   2.644   0.183   9.095  0.0751 -0.0465 -0.1025
 4746SOL    HW125874   2.602   0.269   9.093 -0.1091 -0.1942 -2.0629
 4746SOL    HW225875   2.664   0.180   9.189 -3.5422 -0.0617  0.6589
 4747SOL     OW25876   1.643   2.983   9.029  0.2534  0.2287 -0.1001
 4747SOL    HW125877   1.591   3.029   8.963  0.4209  0.8363  0.1910
 4747SOL    HW225878   1.600   3.006   9.112 -0.6189  1.4567 -0.8954
 4748SOL     OW25879   0.201   4.353  10.772  0.3614 -0.0528  0.0828
 4748SOL    HW125880   0.234   4.347  10.683  3.4751 -0.8969  1.3123
 4748SOL    HW225881   0.161   4.267  10.785 -0.6852  0.3891 -0.2312
 4749SOL     OW25882   3.622   2.345   5.219 -0.0628  0.4885  0.1738
 4749SOL    HW125883   3.591   2.435   5.232  1.5332  1.3755 -2.1528
 4749SOL    HW225884   3.716   2.355   5.205  0.3978 -2.1271  1.4664
 4750SOL     OW25885   2.134   0.755  10.919  0.3140 -0.0272  0.4870
 4750SOL    HW125886   2.063   0.819  10.924  1.5293  1.1991  1.9750
 4750SOL    HW225887   2.164   0.768  11.009  0.3028  0.4406  0.4231
 4751SOL     OW25888   0.123   3.150   5.067  0.0253  0.3838  0.2015
 4751SOL    HW125889   0.050   3.129   5.007  1.8783 -2.0209 -1.2242
 4751SOL    HW225890   0.191   3.089   5.040  0.6768  1.2922 -0.1888
 4752SOL     OW25891   2.961   2.400   3.900 -0.6021 -0.5258 -0.2262
 4752SOL    HW125892   2.925   2.403   3.989 -0.6180  0.8511 -0.2821
 4752SOL    HW225893   2.913   2.323   3.870  2.0661 -2.7088  0.9989
 4753SOL     OW25894   0.992   2.179   7.248 -0.1001 -0.0527  0.2467
 4753SOL    HW125895   0.912   2.170   7.196  0.4660  0.2803 -0.6814
 4753SOL    HW225896   0.958   2.142   7.329  0.2642 -1.0338 -0.0524
 4754SOL     OW25897   3.629   2.977   3.307  1.0049  0.6387 -0.2423
 4754SOL    HW125898   3.703   2.999   3.250  0.7241  1.4244 -0.3050
 4754SOL    HW225899   3.629   2.883   3.289 -2.7779  0.2894  1.5593
 4755SOL     OW25900   4.446   3.482   3.109 -0.3777  0.0897  0.2182
 4755SOL    HW125901   4.476   3.570   3.088  0.4444  0.1410  1.5555
 4755SOL    HW225902   4.529   3.436   3.126 -0.0454  0.4238 -0.5343
 4756SOL     OW25903   0.601   3.825   9.706 -0.4430  0.8677 -0.1350
 4756SOL    HW125904   0.560   3.812   9.791 -1.7684 -2.8973 -1.3539
 4756SOL    HW225905   0.651   3.902   9.731  1.0159 -0.3668  0.7659
 4757SOL     OW25906   3.744   1.253   7.242 -0.7302 -0.2632  0.3028
 4757SOL    HW125907   3.820   1.242   7.185  0.2820  0.4158  1.5244
 4757SOL    HW225908   3.719   1.169   7.278 -0.9247  0.5388  2.0269
 4758SOL     OW25909   2.793   1.786   2.599 -0.1172 -0.0853  0.6296
 4758SOL    HW125910   2.879   1.809   2.635 -0.4482  0.1958  1.2366
 4758SOL    HW225911   2.803   1.692   2.584  1.0010 -0.0870  1.3804
 4759SOL     OW25912   2.559   1.810   8.678  0.0472  0.1060  0.2683
 4759SOL    HW125913   2.611   1.806   8.598  1.3702  1.6511  1.0249
 4759SOL    HW225914   2.570   1.727   8.724 -1.6863  0.6733  1.7108
 4760SOL     OW25915   3.491   2.977   4.774 -0.4947 -0.6801 -0.3181
 4760SOL    HW125916   3.572   3.029   4.770 -0.2037 -0.9661  1.9912
 4760SOL    HW225917   3.530   2.892   4.754 -0.0746 -0.6880  0.5218
 4761SOL     OW25918   0.090   0.705  14.265 -0.1439 -0.6343 -0.3142
 4761SOL    HW125919   0.007   0.726  14.308  0.0119 -0.5487 -0.0496
 4761SOL    HW225920   0.069   0.626  14.216  2.0572 -1.4487  0.0411
 4762SOL     OW25921   2.208   2.343  15.322 -0.0399  0.6012 -0.7172
 4762SOL    HW125922   2.148   2.413  15.296  0.6379  1.9578  1.3734
 4762SOL    HW225923   2.149   2.269  15.308  3.7016 -1.9997 -2.7647
 4763SOL     OW25924   2.884   4.260   2.798  0.5569  0.2832  0.1461
 4763SOL    HW125925   2.851   4.199   2.863  0.1320 -0.7246 -1.0208
 4763SOL    HW225926   2.978   4.247   2.806  0.0085 -2.6115  1.6069
 4764SOL     OW25927   1.639   3.482   1.630 -0.0381  0.2543  0.2030
 4764SOL    HW125928   1.610   3.456   1.717  1.1017 -2.3083 -0.1728
 4764SOL    HW225929   1.730   3.506   1.648  0.0292 -0.4690  0.8133
 4765SOL     OW25930   4.052   1.153   9.126 -0.4094  0.0473 -0.2369
 4765SOL    HW125931   4.107   1.088   9.170  1.2398  0.3220 -1.9029
 4765SOL    HW225932   4.115   1.225   9.122  0.5631 -0.7313  1.4154
 4766SOL     OW25933   1.586   3.563   6.352 -0.1678 -0.5231 -0.3201
 4766SOL    HW125934   1.638   3.640   6.328 -1.7666  0.4939 -0.5084
 4766SOL    HW225935   1.596   3.515   6.270 -2.6923 -1.4148 -0.0864
 4767SOL     OW25936   0.260   0.646  17.265 -0.4917  0.0747 -0.1328
 4767SOL    HW125937   0.263   0.733  17.225 -0.6936 -0.6908 -1.8116
 4767SOL    HW225938   0.225   0.590  17.196 -2.9460  0.9032  0.4611
 4768SOL     OW25939   0.030   0.821   6.960 -0.1122 -0.4108 -0.2426
 4768SOL    HW125940   4.680   0.853   6.953 -0.0606  0.3929  2.7901
 4768SOL    HW225941   0.013   0.792   7.050 -0.6374 -0.7602 -0.4545
 4769SOL     OW25942   4.259   4.681   3.247 -0.3484 -0.6771 -0.1406
 4769SOL    HW125943   4.205   4.677   3.325  0.7138 -0.3467  0.6094
 4769SOL    HW225944   4.262   0.035   3.223  1.6580 -0.9150 -0.8270
 4770SOL     OW25945   2.045   0.499   3.627  0.0946 -0.0534 -0.0509
 4770SOL    HW125946   1.953   0.525   3.635 -0.3329 -2.1586  1.5153
 4770SOL    HW225947   2.081   0.585   3.648  0.3131  0.0597 -0.8795
 4771SOL     OW25948   0.412   3.581   1.890  0.0851  0.3306 -0.4362
 4771SOL    HW125949   0.325   3.544   1.874 -0.9092  1.4137  2.4564
 4771SOL    HW225950   0.470   3.517   1.849  1.3634 -0.5135  2.6442
 4772SOL     OW25951   2.363   0.493   2.512  0.0756  0.0304 -0.3749
 4772SOL    HW125952   2.425   0.526   2.447  0.4935  1.4762  0.7779
 4772SOL    HW225953   2.418   0.422   2.546 -0.6904 -0.9011 -1.0383
 4773SOL     OW25954   2.369   4.241   6.376  0.1175  0.2981  0.3010
 4773SOL    HW125955   2.301   4.267   6.438 -1.7899  0.4226 -1.8227
 4773SOL    HW225956   2.442   4.245   6.438 -1.7373  0.1102  2.4786
 4774SOL     OW25957   0.006   4.417  16.455  0.1472  0.7888  0.5762
 4774SOL    HW125958   0.092   4.457  16.463 -0.8096  3.2701 -1.6645
 4774SOL    HW225959   4.682   4.480  16.488 -1.5014  0.0406 -1.1553
 4775SOL     OW25960   2.037   3.873   8.986 -0.1887 -0.0123  0.3917
 4775SOL    HW125961   2.024   3.808   9.055  0.4295 -1.6638 -1.0697
 4775SOL    HW225962   1.989   3.831   8.915 -1.0858  1.9381 -0.1560
 4776SOL     OW25963   0.865   0.548   8.519 -0.2219  0.2671 -0.0783
 4776SOL    HW125964   0.792   0.607   8.537 -0.0348  0.8261 -1.1734
 4776SOL    HW225965   0.925   0.588   8.583  2.1608  1.2966 -2.9497
 4777SOL     OW25966   0.555   2.770  13.125 -0.2373 -0.1527 -0.2515
 4777SOL    HW125967   0.563   2.688  13.076  1.9008 -0.2649  0.2645
 4777SOL    HW225968   0.468   2.761  13.164 -0.0168  1.9846  0.7485
 4778SOL     OW25969   0.366   2.431   9.011 -0.5095  0.1923 -0.0692
 4778SOL    HW125970   0.388   2.344   8.977  0.7749  0.4094  0.2074
 4778SOL    HW225971   0.413   2.485   8.948 -0.2533 -1.7619 -1.5734
 4779SOL     OW25972   2.047   2.380  11.695  0.1246 -0.8827 -0.5107
 4779SOL    HW125973   2.104   2.434  11.641 -0.7187 -0.6483 -1.1576
 4779SOL    HW225974   2.100   2.300  11.697  0.7389 -0.4712 -0.2198
 4780SOL     OW25975   2.819   2.530   2.603  0.1260 -1.0800 -0.2866
 4780SOL    HW125976   2.786   2.448   2.639 -0.5065 -0.2988  0.9112
 4780SOL    HW225977   2.867   2.547   2.684 -0.9108 -0.0038  0.0934
 4781SOL     OW25978   0.414   2.517  12.961 -0.5034  0.0335 -0.4993
 4781SOL    HW125979   0.476   2.459  12.917 -0.3698 -0.3390  0.1746
 4781SOL    HW225980   0.393   2.584  12.896 -0.6664 -1.0680 -1.5862
 4782SOL     OW25981   2.257   4.155   2.087  0.1608 -0.4034 -0.4958
 4782SOL    HW125982   2.290   4.069   2.061 -1.6055 -0.7742 -1.5438
 4782SOL    HW225983   2.340   4.202   2.094  0.0884 -0.0099 -2.1959
 4783SOL     OW25984   2.121   4.671   5.245 -0.2309 -0.2553  0.9953
 4783SOL    HW125985   2.091   4.585   5.274 -0.8342 -0.5947 -0.6422
 4783SOL    HW225986   2.088   4.672   5.155  0.2136  1.0450  0.8359
 4784SOL     OW25987   1.705   3.385  11.693 -0.3984  0.3703 -0.1618
 4784SOL    HW125988   1.633   3.397  11.630 -0.4384  1.2955  0.0606
 4784SOL    HW225989   1.784   3.408  11.645 -0.2508  2.3524  1.0577
 4785SOL     OW25990   4.724   2.523  13.510 -0.0498 -0.0492 -0.5595
 4785SOL    HW125991   4.677   2.605  13.496 -0.8006 -0.2788  0.6504
 4785SOL    HW225992   0.064   2.551  13.556 -0.1222  1.8284 -1.5579
 4786SOL     OW25993   0.383   0.371   5.709  0.0864 -0.1434  0.6587
 4786SOL    HW125994   0.301   0.327   5.685 -0.0921 -0.2557  1.4653
 4786SOL    HW225995   0.406   0.314   5.782 -1.8793 -0.2331  1.2071
 4787SOL     OW25996   2.351   1.599   9.920 -0.8707 -0.4711 -0.1915
 4787SOL    HW125997   2.429   1.598   9.976 -0.2952  0.9610 -0.9798
 4787SOL    HW225998   2.300   1.659   9.974  0.2124  1.4609 -1.3204
 4788SOL     OW25999   0.620   2.457   2.472  0.5720 -0.3663  0.2644
 4788SOL    HW126000   0.660   2.543   2.457 -0.0015 -0.2079 -0.3849
 4788SOL    HW226001   0.667   2.425   2.548  0.0585 -0.9734  0.3237
 4789SOL     OW26002   2.233   2.147   8.294  0.1870 -1.1626 -0.2662
 4789SOL    HW126003   2.227   2.239   8.322  1.7367 -0.7126 -1.4278
 4789SOL    HW226004   2.240   2.098   8.375 -1.5369 -1.9150 -0.5681
 4790SOL     OW26005   2.437   1.802   9.524 -0.7922 -0.4241 -0.2042
 4790SOL    HW126006   2.411   1.726   9.473 -0.2954 -0.4655 -0.3922
 4790SOL    HW226007   2.531   1.786   9.533 -1.1420 -1.2322  2.1090
 4791SOL     OW26008   0.759   4.298   3.974 -0.0839 -0.0703 -0.1232
 4791SOL    HW126009   0.784   4.340   4.057  1.2756 -0.4007 -0.3742
 4791SOL    HW226010   0.727   4.218   4.015  0.3277 -0.3680 -0.3931
 4792SOL     OW26011   3.061   2.968   0.630 -0.0498  0.0344 -0.0749
 4792SOL    HW126012   3.046   2.997   0.540 -0.2082 -2.8681 -0.9782
 4792SOL    HW226013   2.972   2.970   0.665 -0.8810  0.1106 -2.2063
 4793SOL     OW26014   1.225   2.115   3.216 -0.2616 -0.0091 -0.4821
 4793SOL    HW126015   1.236   2.030   3.173 -0.3797  0.0720 -0.6706
 4793SOL    HW226016   1.282   2.169   3.162 -0.4574  0.6601 -0.0197
 4794SOL     OW26017   1.492   2.435   3.615  0.0165 -0.3043 -0.3309
 4794SOL    HW126018   1.468   2.469   3.529  2.3197 -0.1161 -0.9070
 4794SOL    HW226019   1.586   2.453   3.611  0.5723 -2.4367  2.8281
 4795SOL     OW26020   1.513   0.448   7.899 -0.1895 -0.2729  0.0975
 4795SOL    HW126021   1.424   0.475   7.879 -0.4078 -1.2031 -0.1701
 4795SOL    HW226022   1.566   0.487   7.829 -0.7278  3.1993  1.6116
 4796SOL     OW26023   3.672   0.130   6.687 -0.2985 -0.0897  0.0939
 4796SOL    HW126024   3.577   0.133   6.701 -0.0736 -1.4998  1.9311
 4796SOL    HW226025   3.704   0.113   6.776  3.3625 -0.3318 -1.2839
 4797SOL     OW26026   4.392   2.367   3.131  0.4495 -0.2642  0.3858
 4797SOL    HW126027   4.369   2.446   3.082 -2.3286 -0.5211  1.2929
 4797SOL    HW226028   4.421   2.316   3.055  1.3899 -1.1119  1.3117
 4798SOL     OW26029   3.369   2.361   6.781  0.0922  0.1614 -0.3860
 4798SOL    HW126030   3.432   2.433   6.785  0.1565  0.0596  0.4417
 4798SOL    HW226031   3.341   2.376   6.691  2.3051  0.0529 -1.0862
 4799SOL     OW26032   4.184   3.891   8.831 -0.1193  0.1073 -0.0914
 4799SOL    HW126033   4.276   3.917   8.820  0.0092 -0.4009 -0.2398
 4799SOL    HW226034   4.178   3.914   8.923 -1.1788 -1.5591  0.2535
 4800SOL     OW26035   0.038   1.444   8.224  1.0086 -0.0702 -0.0620
 4800SOL    HW126036   0.132   1.438   8.204  1.0593  0.1497  0.1101
 4800SOL    HW226037   0.029   1.349   8.231 -0.5163  0.1652  1.1132
 4801SOL     OW26038   3.088   1.477   3.546  0.1726  0.0714  0.1920
 4801SOL    HW126039   3.164   1.514   3.500  1.1818 -2.1295  0.1158
 4801SOL    HW226040   3.015   1.531   3.515  0.0269  0.6347  1.4938
 4802SOL     OW26041   3.138   2.382   3.228 -0.1766 -0.2565  0.1059
 4802SOL    HW126042   3.056   2.413   3.267  0.6584  0.5675  1.2030
 4802SOL    HW226043   3.107   2.292   3.214  0.7246 -0.7436  1.2316
 4803SOL     OW26044   1.720   4.705   1.514 -0.4544 -0.1879 -0.2813
 4803SOL    HW126045   1.773   0.043   1.494  1.0091 -1.4361 -1.2860
 4803SOL    HW226046   1.637   4.733   1.476  0.1749  1.4979 -0.4304
 4804SOL     OW26047   1.066   0.908   7.038  0.1644  0.9708 -0.1216
 4804SOL    HW126048   1.052   1.002   7.047  0.2729  0.9470  0.3028
 4804SOL    HW226049   1.128   0.884   7.107  0.0070  0.6376 -0.0947
 4805SOL     OW26050   2.901   1.066   1.392  0.3805 -0.3011 -0.0929
 4805SOL    HW126051   2.986   1.097   1.423  0.9486  0.3292 -2.2609
 4805SOL    HW226052   2.853   1.145   1.367  1.2300  0.8614  1.8857
 4806SOL     OW26053   1.453   0.855  15.279  0.0260 -0.4125  0.8042
 4806SOL    HW126054   1.548   0.852  15.287 -0.1939 -1.4063  2.9170
 4806SOL    HW226055   1.420   0.778  15.325  2.0715 -2.2559 -0.8141
 4807SOL     OW26056   1.737   3.223  15.722 -0.0714 -0.0257  0.4359
 4807SOL    HW126057   1.719   3.236  15.629  0.0753  1.5299  0.6321
 4807SOL    HW226058   1.832   3.235  15.732 -0.2028  0.2177  1.3510
 4808SOL     OW26059   0.866   3.269   2.215 -0.7398  0.0415  0.0860
 4808SOL    HW126060   0.866   3.345   2.157 -0.2322 -0.5894 -0.7412
 4808SOL    HW226061   0.864   3.194   2.156 -3.1355 -0.6321  1.0298
 4809SOL     OW26062   3.877   0.842  13.117 -0.6567 -0.2901 -0.0965
 4809SOL    HW126063   3.954   0.877  13.073 -0.8009 -0.5615 -0.5648
 4809SOL    HW226064   3.895   0.751  13.139 -0.2187 -0.5278 -1.4305
 4810SOL     OW26065   3.090   0.764   2.005 -0.2567  0.5717 -0.0458
 4810SOL    HW126066   3.165   0.815   2.036  0.1549 -0.9606  1.4913
 4810SOL    HW226067   3.066   0.817   1.929  2.8191  0.6248 -0.9842
 4811SOL     OW26068   1.786   1.843   3.391 -0.1988 -0.3570 -0.5763
 4811SOL    HW126069   1.755   1.760   3.426 -1.8594  0.2397 -0.6208
 4811SOL    HW226070   1.868   1.856   3.439 -0.5770 -2.0323  0.5073
 4812SOL     OW26071   3.141   3.629   1.582 -0.9812 -0.2775 -0.8574
 4812SOL    HW126072   3.117   3.711   1.626 -0.1073 -1.5132  1.9752
 4812SOL    HW226073   3.212   3.664   1.530  0.0659  0.0333  0.7773
 4813SOL     OW26074   2.107   2.035   6.560  0.2950  0.7929 -0.4448
 4813SOL    HW126075   2.062   1.965   6.513 -0.0455  0.4763  0.3676
 4813SOL    HW226076   2.197   2.014   6.534 -0.0278 -1.2217  0.0420
 4814SOL     OW26077   3.569   4.174  17.685  1.0000  0.3811  0.1278
 4814SOL    HW126078   3.651   4.139  17.650  2.1351  1.3141  1.8479
 4814SOL    HW226079   3.576   4.155   0.024 -1.1969  1.9388  0.6190
 4815SOL     OW26080   2.050   1.151   4.349 -0.2918  0.1004  0.0285
 4815SOL    HW126081   2.143   1.132   4.337 -0.3513 -0.3688  0.2842
 4815SOL    HW226082   2.017   1.194   4.271 -1.7066 -3.2755 -1.2129
 4816SOL     OW26083   3.442   2.767   4.192  0.1942 -0.0575  0.1167
 4816SOL    HW126084   3.531   2.732   4.200  0.1975  0.3374  1.7518
 4816SOL    HW226085   3.398   2.691   4.153  1.9948 -0.5443 -0.9547
 4817SOL     OW26086   3.126   4.018   2.111  0.2273  0.3646 -0.1298
 4817SOL    HW126087   3.088   3.929   2.110  2.6617 -0.6786  0.8126
 4817SOL    HW226088   3.144   4.029   2.204  0.2096  0.0369 -0.0856
 4818SOL     OW26089   2.398   0.938  12.435 -0.2698  0.3139  0.3586
 4818SOL    HW126090   2.321   0.883  12.424  0.1006  0.4794 -3.0433
 4818SOL    HW226091   2.414   0.931  12.529  0.0490  1.5087  0.4008
 4819SOL     OW26092   0.672   3.998   2.415 -0.2623  0.1776  0.1764
 4819SOL    HW126093   0.682   4.082   2.371 -1.1082 -0.9783 -2.2330
 4819SOL    HW226094   0.746   4.004   2.476 -1.0321 -1.6545  1.2901
 4820SOL     OW26095   4.414   2.937  16.640  0.1605 -0.1185 -0.2235
 4820SOL    HW126096   4.472   2.996  16.688 -2.1042  1.3787  0.7029
 4820SOL    HW226097   4.335   2.948  16.692 -0.7904  0.5836 -1.8168
 4821SOL     OW26098   0.663   1.933  13.271 -0.2231 -0.0813  0.1730
 4821SOL    HW126099   0.690   1.966  13.185  0.6546 -1.0648  0.0687
 4821SOL    HW226100   0.733   1.871  13.291  0.3983  0.5110 -0.1582
 4822SOL     OW26101   2.983   4.274  13.503 -0.1817  0.6100 -0.4792
 4822SOL    HW126102   3.061   4.226  13.475 -1.4915 -1.9098  0.2201
 4822SOL    HW226103   3.002   4.367  13.488  1.2358  1.1908  4.9114
 4823SOL     OW26104   2.834   3.040  17.407  0.2025  0.0421 -0.5033
 4823SOL    HW126105   2.793   2.969  17.457 -0.8167  0.6223 -0.5204
 4823SOL    HW226106   2.846   3.105  17.476  3.0333 -0.5202 -0.4826
 4824SOL     OW26107   1.190   1.047  13.895  0.2073  0.6582 -0.1359
 4824SOL    HW126108   1.187   1.139  13.868 -1.6184  0.8804  0.8798
 4824SOL    HW226109   1.197   1.000  13.812  0.3132  3.8574 -1.9508
 4825SOL     OW26110   4.507   4.321   9.965  0.0892  0.0978 -0.4324
 4825SOL    HW126111   4.489   4.227   9.964  2.8682 -0.4394 -0.2194
 4825SOL    HW226112   4.425   4.358   9.932 -1.1492  0.0079  2.5622
 4826SOL     OW26113   2.845   1.298  13.481  0.2912  0.6176 -0.0546
 4826SOL    HW126114   2.932   1.289  13.441 -0.2124  0.1594 -1.0548
 4826SOL    HW226115   2.810   1.382  13.450  0.2075 -0.3239 -2.5312
 4827SOL     OW26116   2.837   1.445   4.639  0.5417 -0.2811  0.3641
 4827SOL    HW126117   2.898   1.465   4.567  0.3810 -0.3069  0.2214
 4827SOL    HW226118   2.887   1.471   4.716  1.7540  1.1008 -0.8758
 4828SOL     OW26119   0.142   1.854   7.770  0.2228 -0.6291 -0.3006
 4828SOL    HW126120   0.180   1.786   7.715  0.6283 -1.4830  1.0310
 4828SOL    HW226121   0.131   1.810   7.854 -0.5301 -0.4420 -0.3023
 4829SOL     OW26122   0.828   2.683   9.115 -0.2253 -0.2732  0.6906
 4829SOL    HW126123   0.791   2.751   9.171 -0.8028 -0.0777  0.0747
 4829SOL    HW226124   0.766   2.611   9.129 -0.1486 -0.6693 -0.9969
 4830SOL     OW26125   4.426   1.524   9.034 -0.2743 -0.5849  0.0041
 4830SOL    HW126126   4.455   1.530   9.124  0.7747 -0.6026 -0.3366
 4830SOL    HW226127   4.498   1.479   8.989  2.1756  2.1158  1.2651
 4831SOL     OW26128   4.229   0.558  17.589  0.8504  0.2769  0.3354
 4831SOL    HW126129   4.155   0.531  17.537  0.5591  1.7574 -0.0214
 4831SOL    HW226130   4.232   0.648  17.558 -1.0804  0.2899  0.1934
 4832SOL     OW26131   4.318   4.295   5.121  0.9426  0.3566 -0.0189
 4832SOL    HW126132   4.256   4.272   5.051 -0.4340 -0.7243  1.5416
 4832SOL    HW226133   4.259   4.281   5.195 -0.3806 -2.2311 -1.5342
 4833SOL     OW26134   2.937   2.810  12.218  0.0347 -0.3124 -0.5022
 4833SOL    HW126135   2.924   2.727  12.172 -0.0134  0.0699 -1.1801
 4833SOL    HW226136   3.030   2.796  12.236 -0.3896 -1.8409  0.4810
 4834SOL     OW26137   3.833   2.513  14.785 -0.4003  0.0944 -0.1058
 4834SOL    HW126138   3.745   2.541  14.759  1.1588  3.5431 -1.5540
 4834SOL    HW226139   3.805   2.437  14.837 -0.0991 -0.5729 -0.9269
 4835SOL     OW26140   4.585   4.021  10.385 -0.6017 -0.0242 -0.1781
 4835SOL    HW126141   4.641   4.021  10.462 -0.8140 -1.6842 -0.0297
 4835SOL    HW226142   4.514   3.958  10.398  0.5196 -1.1868  0.3092
 4836SOL     OW26143   4.109   2.049  16.008  0.3206  0.5102 -0.2463
 4836SOL    HW126144   4.078   2.129  15.966 -0.2525  0.1114 -0.5824
 4836SOL    HW226145   4.025   2.009  16.030  0.2670  0.5845 -0.3154
 4837SOL     OW26146   4.125   2.069   3.333  0.1453 -0.2253  0.7435
 4837SOL    HW126147   4.054   2.121   3.372 -1.0057 -2.4323  1.6235
 4837SOL    HW226148   4.159   2.021   3.408  1.4441  1.3595  1.1678
 4838SOL     OW26149   0.997   1.295   3.018 -0.5964  0.1157 -0.4412
 4838SOL    HW126150   0.975   1.220   3.074  2.1368  1.3868  2.3723
 4838SOL    HW226151   0.937   1.363   3.049 -2.3743 -1.0170 -1.3995
 4839SOL     OW26152   3.452   2.133   6.462  0.2227 -0.2303  0.2721
 4839SOL    HW126153   3.415   2.116   6.549 -1.0536 -0.8846 -0.3986
 4839SOL    HW226154   3.383   2.100   6.405 -0.0485 -1.5172  1.3254
 4840SOL     OW26155   2.528   0.492   6.550  0.5890  0.1471 -0.5372
 4840SOL    HW126156   2.621   0.510   6.564  0.5901 -1.2066  1.1806
 4840SOL    HW226157   2.498   0.443   6.627 -0.5251  0.4364 -0.7957
 4841SOL     OW26158   1.377   4.676   1.680 -0.7620  0.8200 -0.4661
 4841SOL    HW126159   1.401   0.024   1.648 -0.2308  1.6553  2.2547
 4841SOL    HW226160   1.330   4.640   1.604  0.5814 -1.2397 -0.3349
 4842SOL     OW26161   1.344   0.884   8.337 -0.3727  0.8292  0.2230
 4842SOL    HW126162   1.388   0.905   8.419 -1.7247  1.4089  0.8006
 4842SOL    HW226163   1.361   0.792   8.315 -0.5866  1.4322 -2.4639
 4843SOL     OW26164   4.406   3.356   5.144  0.3252 -0.2247 -0.8857
 4843SOL    HW126165   4.484   3.391   5.187  1.0291  1.1423 -3.2547
 4843SOL    HW226166   4.394   3.276   5.194 -1.0901  1.5808  1.6244
 4844SOL     OW26167   3.578   1.291  15.197 -0.4722  0.1433  0.0688
 4844SOL    HW126168   3.532   1.323  15.119 -2.6948  0.3406  1.4865
 4844SOL    HW226169   3.515   1.304  15.267 -0.5501 -1.3226  0.2779
 4845SOL     OW26170   3.375   0.988   2.509 -0.2224 -0.6164 -0.0730
 4845SOL    HW126171   3.368   0.983   2.605  0.2932 -3.0078 -0.1687
 4845SOL    HW226172   3.463   0.952   2.503 -0.1985 -0.3773 -1.1760
 4846SOL     OW26173   1.917   0.503   9.323  0.4442  0.7952 -0.3255
 4846SOL    HW126174   1.827   0.497   9.354  0.3051  1.3031 -0.6432
 4846SOL    HW226175   1.954   0.572   9.378  1.8380  0.3282 -0.6583
 4847SOL     OW26176   2.025   4.034   3.890 -0.0484  0.1168 -0.0423
 4847SOL    HW126177   2.022   4.118   3.843  3.3561 -0.4591 -1.2802
 4847SOL    HW226178   2.091   3.984   3.843  0.7363  0.7296  0.4062
 4848SOL     OW26179   4.061   2.713   9.017 -0.0084 -0.2530  0.2693
 4848SOL    HW126180   4.037   2.692   8.927  0.2403 -0.3994  0.2383
 4848SOL    HW226181   4.082   2.633   9.065 -0.4462 -0.5810 -0.0880
 4849SOL     OW26182   2.305   0.266   2.171  0.1261  0.7015 -0.1372
 4849SOL    HW126183   2.229   0.319   2.147 -0.3677  0.4096  0.7740
 4849SOL    HW226184   2.332   0.210   2.099  2.5188  1.4627  0.1828
 4850SOL     OW26185   3.451   3.153   6.062 -0.4580 -0.8411  0.1038
 4850SOL    HW126186   3.412   3.228   6.106  0.5119  0.2641 -0.8983
 4850SOL    HW226187   3.442   3.094   6.137  0.4901  0.5392  1.2889
 4851SOL     OW26188   0.788   4.713   3.637  0.4000 -0.2244  0.4117
 4851SOL    HW126189   0.810   4.645   3.700 -0.2146 -1.7101 -0.9509
 4851SOL    HW226190   0.793   0.043   3.702  1.0853  1.0190 -0.9941
 4852SOL     OW26191   2.150   0.851   2.426  0.0509 -0.0689  0.2608
 4852SOL    HW126192   2.164   0.946   2.423  0.6822 -0.1605  0.2719
 4852SOL    HW226193   2.054   0.847   2.426  0.0186  0.7000 -0.3097
 4853SOL     OW26194   2.312   3.081   9.184  0.2782  0.1980  0.5956
 4853SOL    HW126195   2.241   3.023   9.213  0.8869  0.0775  1.8642
 4853SOL    HW226196   2.365   3.022   9.130 -2.3957  0.4879 -2.3358
 4854SOL     OW26197   1.756   3.615   2.732  0.9522  0.0653  0.0907
 4854SOL    HW126198   1.703   3.667   2.792 -0.2504 -0.6838 -0.3057
 4854SOL    HW226199   1.828   3.580   2.784  2.0412 -0.1928 -1.5803
 4855SOL     OW26200   0.423   4.727  10.666 -0.3595 -0.1488  0.1452
 4855SOL    HW126201   0.513   4.733  10.701 -0.2873  0.6493 -0.1906
 4855SOL    HW226202   0.373   4.736  10.747 -1.5296 -1.6614 -0.4098
 4856SOL     OW26203   0.629   4.296   5.217 -0.2714  0.1060  0.1436
 4856SOL    HW126204   0.645   4.380   5.261  2.5522 -0.5120  0.3011
 4856SOL    HW226205   0.659   4.320   5.129 -1.2071 -2.1183 -0.7903
 4857SOL     OW26206   1.660   0.344   3.252  0.3740  0.7375 -0.3364
 4857SOL    HW126207   1.721   0.351   3.179  1.3678 -1.0992  0.3279
 4857SOL    HW226208   1.716   0.293   3.311 -1.3666 -0.7460  0.0462
 4858SOL     OW26209   3.212   4.046   3.830  0.0851 -0.2947  0.1857
 4858SOL    HW126210   3.261   4.079   3.756  0.1159 -3.1965 -1.0842
 4858SOL    HW226211   3.143   4.112   3.832 -1.0941 -1.4925 -0.6510
 4859SOL     OW26212   0.786   0.843   4.406 -0.3597  0.1969 -0.0048
 4859SOL    HW126213   0.847   0.917   4.416  0.1599 -0.3568  0.9368
 4859SOL    HW226214   0.817   0.806   4.323 -1.0880 -5.1355  2.1324
 4860SOL     OW26215   4.618   3.763   7.237 -0.0638  0.2569 -0.1749
 4860SOL    HW126216   4.627   3.838   7.296 -0.5099 -1.2420  1.7700
 4860SOL    HW226217   4.661   3.693   7.287 -0.0612 -0.3436 -1.0183
 4861SOL     OW26218   2.853   3.236  12.246  0.2567  0.1895  0.4787
 4861SOL    HW126219   2.822   3.211  12.333  0.7073  0.7734  0.8029
 4861SOL    HW226220   2.782   3.287  12.208 -0.2472 -1.5284 -0.9136
 4862SOL     OW26221   4.108   2.743   8.214 -0.1378 -0.5373 -0.1796
 4862SOL    HW126222   4.111   2.719   8.121 -4.1046 -0.9489 -0.2001
 4862SOL    HW226223   4.190   2.792   8.221 -0.3521 -0.0256 -1.1782
 4863SOL     OW26224   3.780   2.296  11.552 -0.3862 -0.3792 -0.1065
 4863SOL    HW126225   3.854   2.348  11.584  0.8232 -1.6613 -0.8869
 4863SOL    HW226226   3.714   2.365  11.538 -1.0227 -0.6009  1.7688
 4864SOL     OW26227   4.435   0.889   7.562  0.0898 -0.2714  0.7386
 4864SOL    HW126228   4.376   0.870   7.489 -2.1578  0.8205  2.2788
 4864SOL    HW226229   4.466   0.800   7.579 -0.8746 -1.0278 -1.4400
 4865SOL     OW26230   2.323   2.231   0.405 -0.1905  0.4007  0.4845
 4865SOL    HW126231   2.312   2.223   0.500  1.4352 -1.5666  0.4991
 4865SOL    HW226232   2.337   2.326   0.396 -0.3979  0.4876  1.1104
 4866SOL     OW26233   0.034   0.598   2.367 -0.1027  0.0013 -0.3683
 4866SOL    HW126234   0.027   0.556   2.281  2.6726  2.1218 -1.6505
 4866SOL    HW226235   0.123   0.633   2.368 -0.1694  0.2027 -1.0785
 4867SOL     OW26236   2.835   3.575   5.649 -0.1924 -0.0910  0.2433
 4867SOL    HW126237   2.806   3.535   5.567  0.8646  1.5221 -0.9099
 4867SOL    HW226238   2.762   3.550   5.706  0.8358  0.2128  1.7094
 4868SOL     OW26239   1.820   4.385  15.119 -0.0718 -0.4843  0.2114
 4868SOL    HW126240   1.827   4.390  15.214 -0.4128  4.2401 -0.0226
 4868SOL    HW226241   1.799   4.477  15.103 -0.1922 -0.8910 -1.9842
 4869SOL     OW26242   1.995   1.379   2.254  0.9527  0.5726  0.3073
 4869SOL    HW126243   2.066   1.332   2.210  1.5768  0.6518  1.2297
 4869SOL    HW226244   1.973   1.326   2.330  1.4908 -1.2459 -0.8241
 4870SOL     OW26245   2.911   2.214   8.475  0.2248 -0.0607 -0.5116
 4870SOL    HW126246   2.845   2.278   8.503 -0.9801 -2.3034  1.7027
 4870SOL    HW226247   2.990   2.252   8.514  0.1944 -0.2615 -0.2586
 4871SOL     OW26248   3.207   1.607   6.763  0.0089 -0.2527 -0.2852
 4871SOL    HW126249   3.197   1.518   6.729  2.1156 -0.7021  0.3205
 4871SOL    HW226250   3.262   1.644   6.694 -0.2815  1.1930  0.2654
 4872SOL     OW26251   3.656   0.225  11.771  0.1305  0.4122 -0.1179
 4872SOL    HW126252   3.652   0.190  11.860 -0.8112  1.4293  0.2375
 4872SOL    HW226253   3.750   0.245  11.768  0.1968  0.1845  0.4467
 4873SOL     OW26254   2.958   2.660   3.239  0.3496  0.3863 -0.0315
 4873SOL    HW126255   2.884   2.715   3.213 -0.3636 -0.0617  1.0655
 4873SOL    HW226256   2.983   2.694   3.325  1.5433 -1.0149  0.1648
 4874SOL     OW26257   0.018   0.006   9.449  0.4235  0.3333  0.4036
 4874SOL    HW126258   0.037   0.009   9.543  0.1655 -0.8542  0.4969
 4874SOL    HW226259   4.670   4.706   9.444 -0.4711  2.3583  0.2030
 4875SOL     OW26260   4.670   0.974   0.205 -0.1496 -0.3271  0.3500
 4875SOL    HW126261   0.017   0.981   0.245  0.7235 -1.3271 -1.3552
 4875SOL    HW226262   4.674   0.888   0.163  0.7701  0.1940 -0.6227
 4876SOL     OW26263   3.007   4.002   7.940 -0.6668  0.5266  0.4303
 4876SOL    HW126264   2.955   3.922   7.948  0.4851 -0.3610 -0.9563
 4876SOL    HW226265   2.972   4.052   7.866 -0.1367  2.3489  1.4039
 4877SOL     OW26266   1.116   0.330  14.363  0.2524 -0.1553  0.8436
 4877SOL    HW126267   1.205   0.330  14.327 -0.7969 -1.0619 -1.7242
 4877SOL    HW226268   1.064   0.309  14.286  1.2598 -3.6521  1.0891
 4878SOL     OW26269   0.189   1.376  12.482 -0.4414 -0.2943  0.3072
 4878SOL    HW126270   0.243   1.428  12.423 -1.5073  0.8656  0.3567
 4878SOL    HW226271   0.100   1.388  12.451 -0.2215 -0.8738 -0.5437
 4879SOL     OW26272   3.857   0.024   6.879 -0.4357 -0.0946 -0.7401
 4879SOL    HW126273   3.802   4.687   6.895  1.6633 -1.7165 -1.1465
 4879SOL    HW226274   3.936   4.720   6.846 -0.8577 -0.0218 -1.8405
 4880SOL     OW26275   3.095   1.654   1.555  0.3885 -0.2918  0.0331
 4880SOL    HW126276   3.016   1.610   1.524  1.0094 -0.7562 -0.9040
 4880SOL    HW226277   3.119   1.589   1.622  0.1266  0.1174  0.5284
 4881SOL     OW26278   1.679   2.330   8.620  0.7171  0.0514  0.1485
 4881SOL    HW126279   1.644   2.287   8.697 -1.5552 -0.3975 -1.1259
 4881SOL    HW226280   1.698   2.417   8.654  1.2143  0.2235 -0.5619
 4882SOL     OW26281   3.230   3.653  12.705 -0.7766 -0.1670 -0.0820
 4882SOL    HW126282   3.257   3.737  12.667  2.1342 -0.7592  0.6524
 4882SOL    HW226283   3.148   3.659  12.754 -2.0647  0.1288 -2.2489
 4883SOL     OW26284   1.115   0.973  16.462 -0.5322 -0.1218 -0.0202
 4883SOL    HW126285   1.036   0.935  16.422 -1.7076  2.8811 -0.5707
 4883SOL    HW226286   1.179   0.959  16.393 -1.4335  1.3860 -1.1668
 4884SOL     OW26287   3.561   1.595   7.237 -0.1505 -0.1050 -1.0257
 4884SOL    HW126288   3.540   1.682   7.203 -0.3740 -0.5874 -2.1346
 4884SOL    HW226289   3.652   1.583   7.209  1.1579  2.0292  2.3313
 4885SOL     OW26290   1.713   2.548  13.216 -0.3268 -0.7057  0.1509
 4885SOL    HW126291   1.712   2.629  13.166 -1.6795 -0.8225  0.0071
 4885SOL    HW226292   1.619   2.532  13.223 -0.5722  0.2512 -1.0384
 4886SOL     OW26293   1.657   2.615  15.757  0.4638  0.3045 -0.9164
 4886SOL    HW126294   1.678   2.540  15.813  1.0968 -0.7671 -2.5947
 4886SOL    HW226295   1.717   2.680  15.795  1.0797 -1.1354  0.6129
 4887SOL     OW26296   1.410   3.953   6.190 -0.4794  0.0682 -0.6905
 4887SOL    HW126297   1.359   3.879   6.224 -0.0037 -0.1716 -0.4980
 4887SOL    HW226298   1.347   4.024   6.184  1.6206  2.1316  1.6892
 4888SOL     OW26299   0.409   2.789   1.641 -0.1795  0.0180  0.2093
 4888SOL    HW126300   0.369   2.867   1.603  0.4678  0.3117  0.1335
 4888SOL    HW226301   0.500   2.819   1.638  0.0532 -0.9047 -1.5345
 4889SOL     OW26302   2.375   4.360  16.139  0.1378 -0.1492  0.2310
 4889SOL    HW126303   2.305   4.297  16.155  1.3662 -0.9254  2.6250
 4889SOL    HW226304   2.371   4.361  16.043  0.2959  0.6069  0.2323
 4890SOL     OW26305   2.516   1.711   9.161  0.2301 -0.4162  0.4837
 4890SOL    HW126306   2.423   1.686   9.165  0.3950 -1.1038 -0.0224
 4890SOL    HW226307   2.514   1.795   9.207 -1.8976  0.7678 -1.7349
 4891SOL     OW26308   1.122   3.989   3.254 -0.0596  0.0071  0.1336
 4891SOL    HW126309   1.204   3.974   3.300 -0.7306  0.0802  1.3731
 4891SOL    HW226310   1.134   4.083   3.242  0.7983 -0.0531  0.5522
 4892SOL     OW26311   3.668   4.138   3.154  0.5981 -0.0562 -0.3064
 4892SOL    HW126312   3.755   4.165   3.182  1.2148 -0.5890 -1.7399
 4892SOL    HW226313   3.696   4.098   3.072  3.1219 -1.6269  1.3378
 4893SOL     OW26314   3.202   3.167   3.025  0.3398 -0.1614  0.0088
 4893SOL    HW126315   3.264   3.097   3.048  2.4049  1.9782  0.9934
 4893SOL    HW226316   3.179   3.210   3.108  0.9991  2.1609 -1.0110
 4894SOL     OW26317   0.915   1.832  11.259  0.1328 -0.5135  0.1563
 4894SOL    HW126318   0.932   1.905  11.200  0.4656 -2.0401 -1.6570
 4894SOL    HW226319   0.834   1.859  11.302 -0.4817 -0.0172 -1.3130
 4895SOL     OW26320   0.372   3.449   8.885  0.0629  0.3788  0.6739
 4895SOL    HW126321   0.296   3.504   8.904 -0.2438 -0.1761  1.0514
 4895SOL    HW226322   0.422   3.456   8.966 -2.5102 -0.2669  2.3129
 4896SOL     OW26323   3.830   1.530   7.157 -0.1466 -0.4446  0.2105
 4896SOL    HW126324   3.922   1.556   7.170 -0.2017 -0.8330  1.3954
 4896SOL    HW226325   3.811   1.472   7.231 -0.0007 -1.9085 -0.8864
 4897SOL     OW26326   2.428   3.195   4.968 -0.1558 -0.0029  0.4317
 4897SOL    HW126327   2.347   3.164   4.926 -1.5812  2.7995  1.0986
 4897SOL    HW226328   2.398   3.242   5.045  1.0987  1.9335 -0.2712
 4898SOL     OW26329   2.631   4.240   7.699 -0.1732  0.2813 -0.0134
 4898SOL    HW126330   2.549   4.229   7.747 -0.7964 -1.6927 -1.5276
 4898SOL    HW226331   2.679   4.292   7.764  2.1946 -1.2304 -0.5058
 4899SOL     OW26332   2.002   0.515   6.034  0.4178  0.3868  0.4153
 4899SOL    HW126333   2.067   0.493   6.100  2.4008  2.2044 -0.9216
 4899SOL    HW226334   2.038   0.474   5.955 -3.3564 -0.0522 -1.1196
 4900SOL     OW26335   3.252   3.049  16.625 -0.5111 -0.1753 -0.1149
 4900SOL    HW126336   3.251   3.015  16.714 -0.5835 -0.2224 -0.1341
 4900SOL    HW226337   3.346   3.035  16.610 -1.2658 -1.4503 -3.5081
 4901SOL     OW26338   4.365   2.340   0.634  0.0887 -0.3607 -0.0485
 4901SOL    HW126339   4.343   2.312   0.545 -1.2451  0.0022  0.1682
 4901SOL    HW226340   4.316   2.422   0.636  0.9431  0.1372  0.0994
 4902SOL     OW26341   1.473   1.764   7.614 -0.3193  0.2215  0.1589
 4902SOL    HW126342   1.504   1.820   7.544  0.0995  0.1124  0.2536
 4902SOL    HW226343   1.388   1.802   7.635 -0.1935  0.5377  0.0982
 4903SOL     OW26344   4.147   0.925   7.081 -0.1600 -0.0233  0.2958
 4903SOL    HW126345   4.174   0.991   7.017 -0.2440 -0.7452 -0.4796
 4903SOL    HW226346   4.171   0.844   7.035 -0.0443  0.3418 -0.2797
 4904SOL     OW26347   0.497   1.955   7.203  0.2097  0.1192  0.1091
 4904SOL    HW126348   0.495   1.982   7.295 -0.6594  0.6938 -0.0818
 4904SOL    HW226349   0.577   1.902   7.203 -0.8426 -1.4687  2.6721
 4905SOL     OW26350   1.831   0.286   5.844  0.3084 -0.1217  0.4840
 4905SOL    HW126351   1.814   0.363   5.899  3.1527 -0.9583  2.5427
 4905SOL    HW226352   1.922   0.299   5.816 -0.0577 -0.7703 -0.9984
 4906SOL     OW26353   2.763   4.332   5.518  0.1711  0.3192 -0.2316
 4906SOL    HW126354   2.785   4.425   5.518 -0.0748  0.3769  0.4683
 4906SOL    HW226355   2.848   4.288   5.521  0.1151  0.2257 -0.0089
 4907SOL     OW26356   3.243   3.985   8.662  0.2154 -0.3717 -0.5957
 4907SOL    HW126357   3.193   4.063   8.686  2.1885  0.5295  0.6353
 4907SOL    HW226358   3.271   3.963   8.751 -1.3848  1.3247  0.3184
 4908SOL     OW26359   3.050   1.931   1.824 -0.1804 -0.1363  0.1779
 4908SOL    HW126360   3.102   2.010   1.808 -2.3773  1.6224  1.7058
 4908SOL    HW226361   3.113   1.862   1.844 -0.2192 -0.2564 -0.1098
 4909SOL     OW26362   3.652   0.890   7.847 -0.0455  0.2934 -0.4055
 4909SOL    HW126363   3.691   0.876   7.760  1.0507  1.7192 -0.1417
 4909SOL    HW226364   3.727   0.895   7.906  0.6396 -1.7164 -1.0969
 4910SOL     OW26365   1.812   4.436   4.872 -0.2027  0.2074  0.0899
 4910SOL    HW126366   1.730   4.472   4.838 -2.3455 -1.4152  3.5455
 4910SOL    HW226367   1.803   4.428   4.967 -2.7141 -1.3144 -0.2818
 4911SOL     OW26368   1.405   3.637   3.010  0.2087 -1.2140 -0.0193
 4911SOL    HW126369   1.361   3.715   3.043  1.8881 -0.1191 -0.3843
 4911SOL    HW226370   1.484   3.680   2.976 -1.7452  1.8444 -0.6806
 4912SOL     OW26371   1.882   2.403  17.027 -0.3054  0.0203 -0.3878
 4912SOL    HW126372   1.921   2.385  17.112 -1.0371  0.6225  0.0780
 4912SOL    HW226373   1.916   2.327  16.981  0.1497 -1.2161  1.9825
 4913SOL     OW26374   0.042   2.504   0.834 -0.1452  0.2002  0.1452
 4913SOL    HW126375   0.057   2.419   0.875  0.3253 -1.1172 -2.7428
 4913SOL    HW226376   0.077   2.566   0.898 -0.3912  0.0387  0.4351
 4914SOL     OW26377   1.384   2.167   7.780 -0.7212  0.8716  0.3158
 4914SOL    HW126378   1.335   2.094   7.743  0.9387 -0.6348  1.0518
 4914SOL    HW226379   1.474   2.133   7.777 -0.8173  0.6002  0.4873
 4915SOL     OW26380   0.647   4.609   1.980 -0.0139 -0.2138 -0.6578
 4915SOL    HW126381   0.717   4.549   2.003  0.2984  0.4768  0.2033
 4915SOL    HW226382   0.617   4.558   1.905  0.9137 -2.1419  0.2837
 4916SOL     OW26383   4.508   2.077  17.472  0.1268 -0.1850  0.7200
 4916SOL    HW126384   4.538   1.993  17.506  0.4189  0.1593  1.3046
 4916SOL    HW226385   4.553   2.076  17.387 -2.8536 -0.4790 -0.8653
 4917SOL     OW26386   4.133   4.694   8.631  0.4120 -0.2449  0.6443
 4917SOL    HW126387   4.196   4.695   8.703  0.7295  0.4459  0.3503
 4917SOL    HW226388   4.151   0.043   8.600  2.2272 -0.8609 -0.0141
 4918SOL     OW26389   3.903   0.423   2.003  0.7319  0.1496 -0.4520
 4918SOL    HW126390   3.809   0.442   2.003  0.1588 -2.7133 -0.0208
 4918SOL    HW226391   3.936   0.459   2.085 -0.7320  0.2084  0.1116
 4919SOL     OW26392   3.328   0.835   2.124  0.0372  0.0222 -0.7512
 4919SOL    HW126393   3.413   0.879   2.124  0.0351  0.0446  2.1345
 4919SOL    HW226394   3.279   0.899   2.176 -1.4749 -1.1948 -0.6877
 4920SOL     OW26395   2.529   2.006  14.563 -0.4662  0.1969 -0.2287
 4920SOL    HW126396   2.554   1.917  14.539 -2.2444 -0.2555 -0.4002
 4920SOL    HW226397   2.550   2.033  14.473 -0.6601 -1.4330 -0.7666
 4921SOL     OW26398   3.112   3.867   7.160 -0.3683  0.4099  0.0788
 4921SOL    HW126399   3.060   3.943   7.187 -0.5862  0.3459 -0.1595
 4921SOL    HW226400   3.077   3.847   7.074 -0.3793  0.1356  0.1462
 4922SOL     OW26401   1.635   4.505   2.923  0.0043 -0.1597  0.1757
 4922SOL    HW126402   1.719   4.472   2.892 -0.5974 -0.9715 -0.6194
 4922SOL    HW226403   1.634   4.595   2.891 -0.3132 -0.3295 -0.2969
 4923SOL     OW26404   3.195   1.738  12.560 -0.5408 -0.0941 -0.1384
 4923SOL    HW126405   3.262   1.760  12.625 -0.7501  0.3131 -0.0550
 4923SOL    HW226406   3.240   1.703  12.484  0.5244 -1.0118  0.9233
 4924SOL     OW26407   2.447   3.209   2.757 -0.3812  0.0431  0.1456
 4924SOL    HW126408   2.508   3.246   2.694 -3.0120  2.2894 -1.1104
 4924SOL    HW226409   2.444   3.115   2.737 -1.8356 -0.3297  2.1153
 4925SOL     OW26410   2.033   2.343   4.659  0.1395 -0.4862  0.5336
 4925SOL    HW126411   2.041   2.250   4.680 -0.8376 -1.0608 -1.6843
 4925SOL    HW226412   2.016   2.339   4.565 -1.3376  0.8818  0.7298
 4926SOL     OW26413   3.960   0.315   6.404 -0.0805  0.2469  0.0897
 4926SOL    HW126414   3.973   0.265   6.485  1.8130 -0.0118 -0.3665
 4926SOL    HW226415   3.956   0.403   6.441  2.2793  0.4862 -0.2094
 4927SOL     OW26416   2.207   2.607   5.973 -0.2064  0.1312 -0.8093
 4927SOL    HW126417   2.273   2.570   5.914 -0.8001 -0.3987 -1.1399
 4927SOL    HW226418   2.149   2.532   5.987 -0.4236 -0.0941 -2.9013
 4928SOL     OW26419   2.078   2.918  10.530 -0.2781  0.1773 -0.2549
 4928SOL    HW126420   2.092   2.837  10.481 -2.9669  1.1806 -2.7207
 4928SOL    HW226421   2.168   2.937  10.557  0.3774 -2.1486 -0.8462
 4929SOL     OW26422   0.670   3.221   2.387 -0.2561  0.5083  0.0740
 4929SOL    HW126423   0.740   3.223   2.321  0.2304  1.0659  0.6095
 4929SOL    HW226424   0.702   3.290   2.445 -0.0926 -1.4202  2.3092
 4930SOL     OW26425   0.471   3.794   3.178  0.4047  0.5270 -0.8134
 4930SOL    HW126426   0.565   3.802   3.164  0.2140  1.0269 -1.8000
 4930SOL    HW226427   0.451   3.705   3.149  1.2037  0.2497 -0.5042
 4931SOL     OW26428   4.113   1.824  10.962 -0.2946  0.0255 -0.0822
 4931SOL    HW126429   4.079   1.872  10.886 -1.9451 -0.2510  0.4745
 4931SOL    HW226430   4.207   1.837  10.954  0.0982 -1.7858  1.6244
 4932SOL     OW26431   0.261   3.011   9.134 -0.6585  0.4160 -0.2731
 4932SOL    HW126432   0.330   2.996   9.070 -1.5015  0.7297 -1.2456
 4932SOL    HW226433   0.185   2.974   9.090 -1.0915  1.6848 -0.5901
 4933SOL     OW26434   3.162   1.559  14.548  0.0705 -0.5327 -0.3295
 4933SOL    HW126435   3.109   1.604  14.482 -1.1514 -1.8249 -0.2323
 4933SOL    HW226436   3.250   1.576  14.515 -0.8879  0.9002 -2.1000
 4934SOL     OW26437   1.984   4.546  12.769 -0.2025  0.1924 -0.0404
 4934SOL    HW126438   1.961   4.455  12.747  1.8270 -1.1489  3.3313
 4934SOL    HW226439   1.972   4.537  12.864 -0.6319  1.4345  0.0163
 4935SOL     OW26440   4.074   4.159  11.265 -0.1566  0.2226  0.0375
 4935SOL    HW126441   4.098   4.119  11.181 -1.3465  0.9156 -0.6261
 4935SOL    HW226442   4.061   4.083  11.322  3.4062 -0.6934 -0.3184
 4936SOL     OW26443   2.600   0.584   3.479 -0.0654  0.1570 -0.0801
 4936SOL    HW126444   2.634   0.626   3.400 -1.7358  1.9867  0.1923
 4936SOL    HW226445   2.546   0.656   3.511  0.0387  0.1717  0.0583
 4937SOL     OW26446   2.057   1.319  13.690 -0.1561 -0.3565  0.5229
 4937SOL    HW126447   2.134   1.319  13.747 -0.7265  2.6750  1.2800
 4937SOL    HW226448   1.992   1.333  13.759 -0.0268  1.3276  0.3051
 4938SOL     OW26449   3.083   1.985   8.553  0.5356  0.2779 -0.0369
 4938SOL    HW126450   3.137   1.990   8.474 -2.8534  3.1772 -2.2057
 4938SOL    HW226451   3.015   2.050   8.536  0.8306  0.6227  0.1079
 4939SOL     OW26452   3.102   2.936   6.525 -0.2988  0.1539  0.1644
 4939SOL    HW126453   3.123   2.872   6.457 -1.9910 -0.3816  0.1564
 4939SOL    HW226454   3.026   2.897   6.568  1.1406 -0.6833  2.0064
 4940SOL     OW26455   0.282   3.803   7.162 -0.0172 -0.1930 -0.1684
 4940SOL    HW126456   0.368   3.816   7.202 -0.6750  0.1311  1.1385
 4940SOL    HW226457   0.304   3.790   7.070 -1.1464  1.2526 -0.6435
 4941SOL     OW26458   2.949   4.333   5.077 -0.0230  0.3548 -0.4751
 4941SOL    HW126459   2.971   4.271   5.147  0.6423  0.5705 -0.4873
 4941SOL    HW226460   2.976   4.281   5.001  1.1501  0.8688 -0.4041
 4942SOL     OW26461   3.245   0.828   0.080  0.1301 -0.0192 -0.0233
 4942SOL    HW126462   3.210   0.893   0.141 -2.3309 -1.8746  0.5564
 4942SOL    HW226463   3.312   0.885   0.044 -2.9207  1.8469 -2.7698
 4943SOL     OW26464   0.638   2.485   7.412  0.0152 -0.0802  0.0175
 4943SOL    HW126465   0.707   2.455   7.472 -1.8922 -1.1114  1.6599
 4943SOL    HW226466   0.600   2.555   7.464 -1.1222 -0.3947 -0.4032
 4944SOL     OW26467   2.721   1.541   9.201  0.4560  0.0032  0.0416
 4944SOL    HW126468   2.643   1.585   9.168  0.3781 -1.6624 -2.0369
 4944SOL    HW226469   2.713   1.456   9.156  2.6955  0.1160 -0.5552
 4945SOL     OW26470   2.673   0.510  12.769  0.0452 -0.5603  0.1212
 4945SOL    HW126471   2.722   0.436  12.804 -0.8688 -2.1382 -1.9033
 4945SOL    HW226472   2.653   0.560  12.848  2.0915 -0.2556  0.4454
 4946SOL     OW26473   2.095   2.361   5.948 -0.6091  0.1243  0.1152
 4946SOL    HW126474   2.060   2.309   5.876  0.4086  0.6635 -0.7743
 4946SOL    HW226475   2.013   2.386   5.989 -0.7585  0.8366 -0.6311
 4947SOL     OW26476   3.613   1.660   5.457 -0.0705  0.1818 -0.0444
 4947SOL    HW126477   3.698   1.620   5.439 -2.2772 -3.8845 -1.5580
 4947SOL    HW226478   3.572   1.591   5.509  1.9310 -0.5518  0.5810
 4948SOL     OW26479   2.506   3.763   4.101  0.8340  0.0780  0.0436
 4948SOL    HW126480   2.555   3.779   4.021  0.7633 -0.4354 -0.1046
 4948SOL    HW226481   2.506   3.854   4.130 -0.6972 -0.0689  0.5215
 4949SOL     OW26482   3.637   4.445   7.757 -0.8109  0.4543  0.3463
 4949SOL    HW126483   3.638   4.456   7.852 -1.6496  1.0035  0.2928
 4949SOL    HW226484   3.684   4.525   7.736  0.6730 -0.1791  1.2426
 4950SOL     OW26485   1.156   3.178  10.120 -0.2600 -0.5117 -0.3637
 4950SOL    HW126486   1.073   3.205  10.158 -0.5549 -2.9224  0.6615
 4950SOL    HW226487   1.194   3.139  10.198  0.5763  1.0741  0.0253
 4951SOL     OW26488   2.148   2.986   1.575 -0.0657  0.2873 -0.4910
 4951SOL    HW126489   2.210   3.058   1.572  1.7059 -1.1853  1.3509
 4951SOL    HW226490   2.205   2.910   1.584 -2.6047 -1.7261 -1.2963
 4952SOL     OW26491   0.539   3.592   9.989 -0.3708  0.7281 -0.4351
 4952SOL    HW126492   0.607   3.529  10.015 -1.0302 -0.8050 -2.4156
 4952SOL    HW226493   0.538   3.651  10.064 -1.1501 -1.4975  1.3142
 4953SOL     OW26494   2.510   0.769  17.467 -0.1776 -0.1847 -0.1166
 4953SOL    HW126495   2.532   0.716  17.391  1.3896 -0.8852  0.8464
 4953SOL    HW226496   2.463   0.708  17.524 -1.0726 -2.5405 -3.3902
 4954SOL     OW26497   2.692   3.364   1.733  0.3610  0.6946 -0.4288
 4954SOL    HW126498   2.759   3.431   1.718  1.8916 -1.2914 -2.4529
 4954SOL    HW226499   2.617   3.422   1.744  0.4316  0.9652 -1.3908
 4955SOL     OW26500   0.127   3.887   2.041  0.9494 -0.7983 -0.7470
 4955SOL    HW126501   0.086   3.959   2.089  3.6262 -0.8092  1.5746
 4955SOL    HW226502   0.218   3.886   2.071  1.3228 -0.0721 -1.8803
 4956SOL     OW26503   0.808   0.384   6.366  0.2257 -0.3044 -0.0133
 4956SOL    HW126504   0.797   0.324   6.292  1.9316 -1.1241  0.3917
 4956SOL    HW226505   0.903   0.377   6.374  0.4209  1.5080 -0.9085
 4957SOL     OW26506   3.928   1.258   0.576  0.4534 -0.0440 -0.6907
 4957SOL    HW126507   3.938   1.270   0.671 -0.7429 -0.9565 -0.4426
 4957SOL    HW226508   3.969   1.171   0.573  0.0326 -0.2775  0.1807
 4958SOL     OW26509   2.032   0.772   6.088  0.4288 -0.1840 -1.1528
 4958SOL    HW126510   2.059   0.687   6.055 -0.0350 -0.3824 -1.0110
 4958SOL    HW226511   1.963   0.748   6.150  1.4305 -0.1389 -0.0110
 4959SOL     OW26512   2.314   3.960   8.656  0.1316 -0.0010 -0.2071
 4959SOL    HW126513   2.234   3.906   8.662  1.0144 -1.5763 -2.4586
 4959SOL    HW226514   2.378   3.898   8.690  1.1047 -0.1442 -2.3064
 4960SOL     OW26515   1.598   1.491   7.615  0.1919  0.1126  0.4167
 4960SOL    HW126516   1.547   1.566   7.583  0.8995 -0.0178 -1.0340
 4960SOL    HW226517   1.677   1.525   7.657  2.1820 -1.8988 -1.7221
 4961SOL     OW26518   4.242   3.719  12.029 -0.0107 -0.1881  0.5347
 4961SOL    HW126519   4.239   3.784  11.958  2.5165 -0.9034 -0.2354
 4961SOL    HW226520   4.308   3.755  12.088  0.9811 -0.2523 -0.5411
 4962SOL     OW26521   0.186   4.662   7.502  0.0545  0.2591 -0.2084
 4962SOL    HW126522   0.157   0.008   7.470 -0.8097  0.3553  0.7961
 4962SOL    HW226523   0.164   4.684   7.593  0.8749 -2.8764  0.7553
 4963SOL     OW26524   1.919   3.760   6.605 -0.0578 -0.2920  0.1073
 4963SOL    HW126525   1.959   3.847   6.602 -0.6406 -0.0476 -0.6273
 4963SOL    HW226526   1.829   3.764   6.572 -0.4376 -1.7112  0.9342
 4964SOL     OW26527   3.941   2.852   5.979  0.2779  0.1844 -0.3044
 4964SOL    HW126528   3.914   2.865   5.888  0.4131  2.5821 -0.0072
 4964SOL    HW226529   3.964   2.942   6.003 -1.0159  0.4896 -0.1892
 4965SOL     OW26530   2.195   0.751   9.156  0.3579  0.2056 -0.7865
 4965SOL    HW126531   2.179   0.762   9.063 -1.8738 -0.4209 -0.4587
 4965SOL    HW226532   2.207   0.656   9.160  2.1817  0.4756  0.1230
 4966SOL     OW26533   3.804   0.482   1.679  0.6374 -0.5334 -0.1753
 4966SOL    HW126534   3.777   0.505   1.768 -1.0321  0.3814 -0.9108
 4966SOL    HW226535   3.803   0.565   1.632 -2.0625  0.2311  1.2634
 4967SOL     OW26536   3.751   1.831   3.896  0.1548 -0.5661 -0.3380
 4967SOL    HW126537   3.675   1.847   3.953  0.4478  0.5589 -0.2770
 4967SOL    HW226538   3.728   1.742   3.868 -1.2261 -0.3128 -0.0468
 4968SOL     OW26539   2.602   0.534   3.773  0.7171  0.8267  0.0347
 4968SOL    HW126540   2.690   0.508   3.800  0.3244  0.2868  0.7984
 4968SOL    HW226541   2.619   0.535   3.679 -2.9478  0.7653 -0.6363
 4969SOL     OW26542   1.944   3.777   4.485  0.5135  0.5254  0.1076
 4969SOL    HW126543   2.021   3.828   4.512  1.4072  0.3268 -2.0411
 4969SOL    HW226544   1.958   3.770   4.390 -1.4171 -0.1828 -0.1300
 4970SOL     OW26545   2.956   4.088   4.177 -0.3086  0.1719  0.1309
 4970SOL    HW126546   3.051   4.078   4.164 -0.8460 -1.6605 -2.2579
 4970SOL    HW226547   2.948   4.183   4.165  1.3886  0.6173  2.3820
 4971SOL     OW26548   0.004   0.403   0.799  0.2696  0.9031  0.6847
 4971SOL    HW126549   0.083   0.458   0.792  0.5566  0.5589  1.2478
 4971SOL    HW226550   4.709   0.416   0.711 -0.7294 -0.3821  0.8885
 4972SOL     OW26551   0.614   1.249  12.593 -0.0908 -0.5696  0.2576
 4972SOL    HW126552   0.587   1.268  12.503 -0.6281  1.3497  0.8075
 4972SOL    HW226553   0.545   1.186  12.615 -1.4014  1.2042  1.2711
 4973SOL     OW26554   1.347   2.734   5.672 -0.1695  0.0573  0.1934
 4973SOL    HW126555   1.421   2.794   5.673 -0.7734  0.8337 -1.7801
 4973SOL    HW226556   1.305   2.757   5.589 -1.1777 -3.5460 -0.3130
 4974SOL     OW26557   1.636   2.072   5.312 -0.1892 -0.2053 -0.0940
 4974SOL    HW126558   1.666   2.143   5.257 -1.3115  0.6744  0.4268
 4974SOL    HW226559   1.670   2.077   5.402 -0.3716 -2.2347  0.0903
 4975SOL     OW26560   0.294   3.773   6.875  0.3701  0.0975 -0.1618
 4975SOL    HW126561   0.236   3.771   6.799  1.1565 -1.7223 -0.7256
 4975SOL    HW226562   0.306   3.678   6.881 -3.5012 -0.3610  0.6367
 4976SOL     OW26563   2.508   0.491   8.264  0.2055 -0.3240 -0.4089
 4976SOL    HW126564   2.479   0.509   8.175 -0.5257  1.4283  0.1982
 4976SOL    HW226565   2.601   0.490   8.240  0.9853 -2.5876  2.6592
 4977SOL     OW26566   2.082   2.421   5.620 -0.0592 -0.0253  0.7815
 4977SOL    HW126567   2.019   2.464   5.678 -0.0685 -0.5780  1.1716
 4977SOL    HW226568   2.166   2.445   5.659  0.2104 -0.2402  0.3325
 4978SOL     OW26569   0.863   2.485   5.125 -0.0799  0.0068  0.3891
 4978SOL    HW126570   0.926   2.424   5.086  1.0679  0.4565  1.4981
 4978SOL    HW226571   0.911   2.535   5.191  2.7739 -0.9886 -0.9347
 4979SOL     OW26572   1.932   1.329  11.664  0.1036  0.4101  0.3812
 4979SOL    HW126573   1.921   1.257  11.602  2.6470 -1.1091  1.6935
 4979SOL    HW226574   2.025   1.323  11.685  0.2381  0.7707 -0.1175
 4980SOL     OW26575   0.598   2.757   2.865  0.2405 -0.4066 -0.1608
 4980SOL    HW126576   0.655   2.799   2.801  1.9574 -2.7253 -0.1940
 4980SOL    HW226577   0.665   2.712   2.918 -0.9305  0.1563  1.8197
 4981SOL     OW26578   4.712   1.610   4.673 -0.5418  0.5481 -0.5030
 4981SOL    HW126579   4.694   1.690   4.721  0.2052  0.2773  0.2437
 4981SOL    HW226580   0.068   1.606   4.661 -0.8262 -3.9465 -1.3900
 4982SOL     OW26581   3.996   1.727   6.068 -0.4421 -0.0004  0.3360
 4982SOL    HW126582   3.976   1.735   5.975  1.7793  0.0322 -0.1413
 4982SOL    HW226583   3.943   1.803   6.092 -0.4867  0.3856 -0.9537
 4983SOL     OW26584   1.882   3.710   2.398  0.0544 -0.0380  0.5886
 4983SOL    HW126585   1.906   3.621   2.371 -1.9301 -0.6923  0.9656
 4983SOL    HW226586   1.939   3.728   2.473  0.1377  0.9411  0.2922
 4984SOL     OW26587   4.466   4.397   1.462 -0.1255 -0.0345  0.2366
 4984SOL    HW126588   4.537   4.407   1.399 -1.1636  0.0879 -0.9199
 4984SOL    HW226589   4.480   4.307   1.492  0.3304  0.4205  1.3864
 4985SOL     OW26590   0.082   2.346  17.078  0.4330  0.1808 -0.0168
 4985SOL    HW126591   0.021   2.364  17.006 -1.2264  2.9809  2.0905
 4985SOL    HW226592   0.166   2.341  17.034  0.6030 -1.4377  0.5047
 4986SOL     OW26593   1.997   0.113   4.158  0.1011  0.5295  0.4910
 4986SOL    HW126594   1.963   0.164   4.232  1.0762  1.4023  0.3408
 4986SOL    HW226595   2.069   0.171   4.133 -0.2938  1.8979  2.5260
 4987SOL     OW26596   0.362   2.439   0.504  0.6827 -0.4125 -0.4327
 4987SOL    HW126597   0.395   2.362   0.551  2.2570  0.0284 -0.8204
 4987SOL    HW226598   0.267   2.424   0.511  1.2545 -2.9145  2.4428
 4988SOL     OW26599   1.221   2.734   6.151 -0.3782  0.7725 -0.7176
 4988SOL    HW126600   1.159   2.783   6.096 -0.9983  0.1900 -0.5356
 4988SOL    HW226601   1.280   2.805   6.177  1.8338 -0.7222 -1.6355
 4989SOL     OW26602   3.668   2.741   5.156  0.7542  0.6273  0.0041
 4989SOL    HW126603   3.668   2.694   5.073  1.1009  2.0311 -0.7828
 4989SOL    HW226604   3.751   2.707   5.190  0.7519 -1.9931 -2.6248
 4990SOL     OW26605   0.820   2.613  10.676 -0.5302  0.7673  0.0663
 4990SOL    HW126606   0.821   2.547  10.745  0.1979  2.0954  1.3222
 4990SOL    HW226607   0.861   2.562  10.607  0.5900  1.3121  0.3256
 4991SOL     OW26608   1.518   3.867   6.807 -0.1634  0.0335  0.7039
 4991SOL    HW126609   1.508   3.774   6.827 -0.5297  0.7762  4.0092
 4991SOL    HW226610   1.511   3.904   6.896 -0.5793  0.3750  0.5301
 4992SOL     OW26611   4.234   2.029   4.037 -0.4761 -0.5386 -0.6997
 4992SOL    HW126612   4.278   2.113   4.027 -1.4996  0.3661  2.2912
 4992SOL    HW226613   4.274   1.996   4.118 -1.0108 -3.0135 -1.4494
 4993SOL     OW26614   1.268   0.479   5.881  0.2219  0.3981 -0.1964
 4993SOL    HW126615   1.290   0.388   5.905  0.5205  0.9481  1.5722
 4993SOL    HW226616   1.349   0.525   5.905  0.7090 -1.3793  1.6510
 4994SOL     OW26617   0.220   3.193   8.806 -0.3255  0.2127 -0.2375
 4994SOL    HW126618   0.228   3.100   8.785 -0.3388  0.3517 -0.8532
 4994SOL    HW226619   0.288   3.184   8.873 -0.2409 -0.2318 -0.3841
 4995SOL     OW26620   3.243   3.319   4.027 -0.3392 -0.2561 -0.3147
 4995SOL    HW126621   3.221   3.260   3.955 -0.1536  0.1732 -0.7258
 4995SOL    HW226622   3.219   3.276   4.109 -4.3427  0.7977 -0.9222
 4996SOL     OW26623   2.550   0.898   6.409 -0.2754 -0.0178  0.8772
 4996SOL    HW126624   2.611   0.957   6.453  0.1966  1.0719 -1.2127
 4996SOL    HW226625   2.614   0.835   6.375 -2.8668 -1.1040 -2.0422
 4997SOL     OW26626   3.589   0.195  10.643 -0.4936 -0.1149  0.2744
 4997SOL    HW126627   3.631   0.205  10.729 -0.7202  1.8645  0.1694
 4997SOL    HW226628   3.586   0.100  10.639 -0.4784 -0.0601 -1.0422
 4998SOL     OW26629   0.419   2.343   3.794 -0.2934 -0.2591 -0.6698
 4998SOL    HW126630   0.488   2.318   3.732  0.3586 -2.9002  1.0625
 4998SOL    HW226631   0.398   2.424   3.749 -2.0577 -0.2625  0.1609
 4999SOL     OW26632   0.125   3.179  12.134  0.3876 -0.0085 -0.4185
 4999SOL    HW126633   0.061   3.127  12.182  3.0797 -2.7936  0.1707
 4999SOL    HW226634   0.177   3.108  12.097 -0.1488 -1.4725  1.6879
 5000SOL     OW26635   2.828   4.199   1.678 -0.2135 -0.1082  0.3970
 5000SOL    HW126636   2.858   4.156   1.759  1.4651  0.7611  0.2478
 5000SOL    HW226637   2.733   4.194   1.686 -0.2234 -1.3963 -0.6449
 5001SOL     OW26638   0.614   2.336   4.254 -0.7320  0.6169  0.0034
 5001SOL    HW126639   0.520   2.320   4.257 -0.5974  0.2296  2.7642
 5001SOL    HW226640   0.621   2.324   4.160 -0.2308  0.7000  0.0276
 5002SOL     OW26641   1.958   1.733   5.583  0.2321 -0.4775 -0.2958
 5002SOL    HW126642   1.961   1.703   5.492 -0.1573 -1.8420  0.1443
 5002SOL    HW226643   2.045   1.704   5.611  0.0808  0.7558  1.4364
 5003SOL     OW26644   3.904   3.996   3.380  0.3371 -0.0150 -0.0018
 5003SOL    HW126645   3.910   4.081   3.335 -1.4200 -0.2444 -0.6791
 5003SOL    HW226646   3.974   3.998   3.446  0.2251 -2.8680  0.1990
 5004SOL     OW26647   3.692   3.941   8.823  0.9812 -0.4601  0.4084
 5004SOL    HW126648   3.767   3.959   8.879  2.3005 -1.7879 -0.9349
 5004SOL    HW226649   3.695   3.845   8.831 -0.3288 -0.5270  0.1668
 5005SOL     OW26650   0.852   1.187  13.994 -0.2401 -0.0227 -0.3219
 5005SOL    HW126651   0.852   1.223  13.905  1.0067  1.1656  0.1645
 5005SOL    HW226652   0.943   1.156  13.998  0.0619  1.0257  0.9025
 5006SOL     OW26653   4.377   1.489   6.934  0.0006 -0.2905  0.3866
 5006SOL    HW126654   4.465   1.524   6.920 -0.7347  0.2242 -2.9695
 5006SOL    HW226655   4.381   1.475   7.028 -0.9733  1.9739  0.7866
 5007SOL     OW26656   3.210   4.404   1.538  0.1422 -0.5511 -0.6466
 5007SOL    HW126657   3.181   4.405   1.629  1.5907  0.7993 -0.1817
 5007SOL    HW226658   3.136   4.457   1.510 -0.0504 -0.4956 -0.0500
 5008SOL     OW26659   0.391   1.377   3.484  0.3135 -0.8482 -0.0700
 5008SOL    HW126660   0.435   1.391   3.400  3.1499  0.8878  1.7313
 5008SOL    HW226661   0.305   1.336   3.470  0.2509 -0.1792 -1.7036
 5009SOL     OW26662   1.587   2.318   7.329  0.2748  0.0747 -0.1684
 5009SOL    HW126663   1.637   2.323   7.248 -0.2830 -0.8342 -0.5757
 5009SOL    HW226664   1.554   2.406   7.343 -0.4487 -0.1200 -0.6701
 5010SOL     OW26665   3.744   3.311   5.962 -0.4006  0.0594 -0.3500
 5010SOL    HW126666   3.689   3.379   6.000 -2.7325 -0.2232 -3.2180
 5010SOL    HW226667   3.832   3.328   5.995 -0.9125 -1.1849  1.7013
 5011SOL     OW26668   4.404   3.149  15.962 -0.5108 -0.3837  0.1370
 5011SOL    HW126669   4.310   3.166  15.968 -0.6056 -0.3449 -1.4614
 5011SOL    HW226670   4.416   3.084  16.030 -1.5494 -0.7566 -0.0387
 5012SOL     OW26671   4.731   2.528   7.104 -0.2146  0.6883  0.5151
 5012SOL    HW126672   4.689   2.607   7.068  2.1953  2.2197  1.0321
 5012SOL    HW226673   4.667   2.457   7.102 -0.2115  0.7384 -1.2100
 5013SOL     OW26674   3.700   3.474  15.251  0.0883 -0.2258 -0.1461
 5013SOL    HW126675   3.725   3.557  15.210  1.5675 -1.2200 -1.2660
 5013SOL    HW226676   3.784   3.432  15.236  0.4178  0.3347  0.1374
 5014SOL     OW26677   2.021   2.307   4.384 -0.1339  0.6803  0.6745
 5014SOL    HW126678   2.075   2.249   4.330 -2.9632 -0.1465 -1.2772
 5014SOL    HW226679   1.938   2.258   4.383 -0.2425  0.8574  0.9074
 5015SOL     OW26680   3.851   1.344   2.227  0.7961 -0.3454  0.1300
 5015SOL    HW126681   3.825   1.295   2.149 -0.3666  2.6503 -1.3698
 5015SOL    HW226682   3.944   1.360   2.207  0.8393 -1.9861 -0.9946
 5016SOL     OW26683   1.641   0.823   8.294 -0.6055  0.0459  0.4241
 5016SOL    HW126684   1.669   0.790   8.380  0.1137  1.0307  0.5717
 5016SOL    HW226685   1.570   0.762   8.276 -1.2428  0.1537  2.5702
 5017SOL     OW26686   1.168   2.235  15.287  0.1317 -0.0538  0.0687
 5017SOL    HW126687   1.191   2.172  15.219  0.3959 -0.6810  0.7323
 5017SOL    HW226688   1.079   2.266  15.268  0.4708 -0.0482 -1.5015
 5018SOL     OW26689   4.051   1.525  12.466  0.1203 -0.2942  0.3050
 5018SOL    HW126690   4.031   1.615  12.439  3.3239 -0.5373 -2.9741
 5018SOL    HW226691   4.147   1.528  12.461  0.2332 -1.1159  1.9886
 5019SOL     OW26692   4.045   3.472  11.991 -0.1400  0.0271  0.2457
 5019SOL    HW126693   4.099   3.541  12.031 -2.2982  3.0566 -2.0427
 5019SOL    HW226694   4.018   3.425  12.070 -0.6901  2.4696  1.5201
 5020SOL     OW26695   1.516   3.100   9.246  0.3368 -0.5475  0.5204
 5020SOL    HW126696   1.561   3.096   9.330  0.2955 -3.0581  0.4247
 5020SOL    HW226697   1.504   3.195   9.234 -1.5064 -0.7187  1.0539
 5021SOL     OW26698   2.718   0.175   8.658  0.1811 -0.6713  0.0250
 5021SOL    HW126699   2.757   0.241   8.600 -0.9059 -0.2361 -0.2109
 5021SOL    HW226700   2.660   0.128   8.599 -0.4958 -0.0391  0.1923
 5022SOL     OW26701   1.629   1.006  13.521 -0.3057 -0.2479  0.0813
 5022SOL    HW126702   1.556   0.948  13.498 -0.2593 -0.4644  0.4827
 5022SOL    HW226703   1.705   0.949  13.513 -0.3330 -0.4683  1.3858
 5023SOL     OW26704   1.115   1.432   3.580 -0.2063 -0.2074 -0.1923
 5023SOL    HW126705   1.104   1.516   3.535 -1.8137 -0.1446  0.3512
 5023SOL    HW226706   1.026   1.398   3.588 -0.7556  0.8300 -1.7829
 5024SOL     OW26707   0.218   4.374   4.490 -0.4028 -0.5464  0.3415
 5024SOL    HW126708   0.141   4.348   4.543  0.0207 -0.7522  0.8583
 5024SOL    HW226709   0.165   4.387   4.412  2.2469  3.5122 -0.7282
 5025SOL     OW26710   0.909   1.247   6.840  0.1057  0.1762  0.2256
 5025SOL    HW126711   0.902   1.183   6.770 -0.8010 -1.6420  1.9500
 5025SOL    HW226712   1.002   1.240   6.859  0.3063  1.4414 -0.2558
 5026SOL     OW26713   3.470   4.052  14.835  0.1294 -0.4697  0.8154
 5026SOL    HW126714   3.488   4.029  14.744 -0.0418 -1.1878  0.9617
 5026SOL    HW226715   3.446   4.144  14.830 -1.3214 -0.8137  1.3850
 5027SOL     OW26716   4.707   2.468   5.825 -0.1740  0.0161 -0.2878
 5027SOL    HW126717   4.710   2.542   5.886 -0.0547  1.7237 -2.3694
 5027SOL    HW226718   4.690   2.400   5.890  0.1600  0.4144  0.2201
 5028SOL     OW26719   4.383   2.512   6.932 -0.2674 -0.0117 -0.3159
 5028SOL    HW126720   4.316   2.581   6.927 -0.7733 -0.5256 -0.6485
 5028SOL    HW226721   4.445   2.534   6.862 -0.8785  2.5760 -0.0467
 5029SOL     OW26722   1.829   0.811   8.780 -0.4573 -0.2256 -0.0176
 5029SOL    HW126723   1.882   0.880   8.740 -1.3377 -0.1790 -1.1073
 5029SOL    HW226724   1.865   0.796   8.868  0.1205  1.8090  0.0917
 5030SOL     OW26725   0.829   3.992   6.646  0.3289  0.0460 -0.6058
 5030SOL    HW126726   0.792   4.028   6.727  0.3006  0.8911 -0.9997
 5030SOL    HW226727   0.857   3.915   6.696  4.4835 -0.2502 -3.4298
 5031SOL     OW26728   4.526   3.220   8.682  0.4349 -0.1263 -0.3505
 5031SOL    HW126729   4.596   3.238   8.619 -0.1305 -0.2812 -1.0195
 5031SOL    HW226730   4.474   3.300   8.685 -2.1079 -1.7947  0.0308
 5032SOL     OW26731   3.419   4.052   5.387  0.0774 -0.2043 -0.3628
 5032SOL    HW126732   3.473   4.000   5.328 -1.5048 -0.6232 -1.4469
 5032SOL    HW226733   3.487   4.102   5.433  1.0417 -2.1976  0.3585
 5033SOL     OW26734   1.138   2.780  11.264  0.1327  0.0787  0.2107
 5033SOL    HW126735   1.135   2.691  11.298 -1.6534 -0.9904 -2.6790
 5033SOL    HW226736   1.081   2.825  11.326  0.0741 -1.2749  1.1331
 5034SOL     OW26737   1.913   0.854   7.968 -0.2447  0.4119  0.0683
 5034SOL    HW126738   2.005   0.876   7.957  0.1077 -0.5607  1.0423
 5034SOL    HW226739   1.869   0.933   7.999 -0.2094  0.5909 -0.3422
 5035SOL     OW26740   3.973   1.016   1.899  0.4603  0.1446  0.2656
 5035SOL    HW126741   4.004   0.928   1.920  0.5760  0.2735  0.6257
 5035SOL    HW226742   4.056   1.055   1.872  1.7370 -2.8008 -0.1656
 5036SOL     OW26743   0.367   0.238   9.213 -0.3531 -0.1648 -0.0457
 5036SOL    HW126744   0.423   0.177   9.261 -2.5434 -1.6253  0.6351
 5036SOL    HW226745   0.321   0.274   9.290  0.5630 -0.4512  0.6349
 5037SOL     OW26746   3.703   4.692  10.174 -0.7040  0.1297 -0.1272
 5037SOL    HW126747   3.753   0.034  10.167 -2.1018  1.1576  1.6291
 5037SOL    HW226748   3.619   4.725  10.139 -0.4190  0.6504 -0.3192
 5038SOL     OW26749   4.254   0.813   7.319  0.5845  0.3773  0.8885
 5038SOL    HW126750   4.324   0.755   7.290 -0.3046 -0.8651  1.2404
 5038SOL    HW226751   4.224   0.855   7.238  1.1522  1.4886  1.2449
 5039SOL     OW26752   3.255   3.704   6.130  0.2920 -0.0645  1.0145
 5039SOL    HW126753   3.288   3.740   6.048 -0.7819 -1.2747  0.0554
 5039SOL    HW226754   3.162   3.705   6.110  0.3615 -0.3176  0.6764
 5040SOL     OW26755   3.930   1.550   0.301 -0.0443  0.4289 -0.4849
 5040SOL    HW126756   3.886   1.634   0.287 -2.8271 -0.7250  1.3136
 5040SOL    HW226757   4.017   1.588   0.306  0.9081 -1.5039 -2.1467
 5041SOL     OW26758   1.066   2.347  10.648  0.2443  0.2710  0.6230
 5041SOL    HW126759   1.076   2.252  10.653 -0.4259  0.1185 -0.9239
 5041SOL    HW226760   0.993   2.348  10.586  2.3103  2.6040 -1.7932
 5042SOL     OW26761   3.383   1.650   9.664  0.2561  0.2686 -0.2024
 5042SOL    HW126762   3.418   1.593   9.732 -1.4607  0.1129  0.5432
 5042SOL    HW226763   3.300   1.676   9.703 -0.5347 -2.7420  0.0597
 5043SOL     OW26764   0.392   0.371   2.684  0.2225 -0.3346 -0.1859
 5043SOL    HW126765   0.421   0.451   2.639 -0.1919  0.4973  1.0395
 5043SOL    HW226766   0.464   0.316   2.651  1.0715 -0.1966  1.4635
 5044SOL     OW26767   2.450   0.255  16.256  0.0834 -0.7826  0.2325
 5044SOL    HW126768   2.513   0.185  16.275  0.3844 -0.7073 -0.4835
 5044SOL    HW226769   2.381   0.210  16.208  0.1744 -0.2744 -0.3705
 5045SOL     OW26770   1.424   0.422   9.171 -0.0440 -0.1560 -0.5126
 5045SOL    HW126771   1.380   0.337   9.173 -1.2605  0.5176  1.4124
 5045SOL    HW226772   1.364   0.460   9.108  1.9197  2.2057 -0.9548
 5046SOL     OW26773   1.903   1.568   7.691  0.5042 -0.1351  0.9923
 5046SOL    HW126774   1.932   1.653   7.658  0.2085 -0.7454 -0.8425
 5046SOL    HW226775   1.923   1.516   7.613 -0.3676  2.5117 -0.9630
 5047SOL     OW26776   3.172   2.269   1.615 -0.6783  0.3146 -0.6269
 5047SOL    HW126777   3.208   2.215   1.685 -1.1093 -0.3390 -0.9193
 5047SOL    HW226778   3.245   2.275   1.553 -0.7075  2.7503 -0.4295
 5048SOL     OW26779   2.445   3.323   6.553  0.3301  0.1646 -0.1302
 5048SOL    HW126780   2.435   3.417   6.569  0.3389  0.0632  0.4380
 5048SOL    HW226781   2.506   3.307   6.624 -0.6878 -1.2015  0.4153
 5049SOL     OW26782   1.375   2.448  11.747 -0.4424  0.4056 -0.0139
 5049SOL    HW126783   1.449   2.493  11.788 -1.1145  0.6424  0.9482
 5049SOL    HW226784   1.320   2.418  11.820  0.4331 -0.2678  0.3683
 5050SOL     OW26785   2.862   3.178   1.561 -0.2507  0.1870 -0.0732
 5050SOL    HW126786   2.855   3.185   1.656 -1.5753 -0.0607 -0.1499
 5050SOL    HW226787   2.887   3.268   1.542  1.0520 -0.1431  0.0796
 5051SOL     OW26788   3.375   4.727  10.534 -0.4055  0.5667 -0.5178
 5051SOL    HW126789   3.400   0.072  10.496  1.5351 -0.3599 -1.2599
 5051SOL    HW226790   3.453   4.681  10.564  1.1705  3.1536 -0.6928
 5052SOL     OW26791   3.112   1.575  11.085 -0.6021 -0.0561  0.0807
 5052SOL    HW126792   3.118   1.626  11.165 -1.9301 -0.2273  0.2890
 5052SOL    HW226793   3.183   1.618  11.037 -2.2192  2.1113 -0.3683
 5053SOL     OW26794   2.391   0.689   3.847  0.3800  0.5777  0.1091
 5053SOL    HW126795   2.402   0.707   3.941 -1.6725 -0.1504  0.5086
 5053SOL    HW226796   2.472   0.647   3.820 -0.4751 -1.9797  1.5650
 5054SOL     OW26797   1.910   0.623   0.330 -0.0544 -0.2955  0.5717
 5054SOL    HW126798   1.945   0.628   0.419  3.1291  2.5462 -0.8560
 5054SOL    HW226799   1.975   0.567   0.288 -0.4534 -0.9789  0.8591
 5055SOL     OW26800   2.927   3.271   8.103  0.2387  0.0271  0.6807
 5055SOL    HW126801   3.015   3.289   8.136 -0.1529 -0.7780  2.1798
 5055SOL    HW226802   2.937   3.277   8.008 -1.9331  0.1196  0.4607
 5056SOL     OW26803   2.780   4.297   8.425  0.7709  0.5917 -0.3261
 5056SOL    HW126804   2.719   4.238   8.471 -0.7853  1.0949 -1.7248
 5056SOL    HW226805   2.864   4.253   8.414 -0.6166 -1.7102 -1.7513
 5057SOL     OW26806   4.593   1.844  17.625  0.4480 -0.5755  0.6305
 5057SOL    HW126807   4.562   1.757  17.603 -3.5520  1.1003 -0.4108
 5057SOL    HW226808   4.594   1.832  17.720  0.2648  0.3541  0.7543
 5058SOL     OW26809   2.922   1.150  16.125 -0.5844  0.1929 -0.6180
 5058SOL    HW126810   2.848   1.187  16.077 -2.6850 -0.2040  2.3314
 5058SOL    HW226811   3.000   1.188  16.085  0.0435  2.0002  2.2860
 5059SOL     OW26812   2.215   0.648   8.169  0.0700  0.1141 -0.2485
 5059SOL    HW126813   2.260   0.732   8.168 -0.6204  0.4592 -1.7912
 5059SOL    HW226814   2.233   0.609   8.255  0.7755 -0.8216 -0.8167
 5060SOL     OW26815   2.510   3.958   5.964 -0.1367  0.0928 -0.2485
 5060SOL    HW126816   2.416   3.968   5.956 -0.0065  0.9806 -0.6715
 5060SOL    HW226817   2.545   3.997   5.884 -2.2437  0.5967 -0.9254
 5061SOL     OW26818   1.974   3.864  12.035 -0.4320 -0.0174 -0.3573
 5061SOL    HW126819   2.011   3.789  12.083 -0.4574  0.0712 -0.2003
 5061SOL    HW226820   2.027   3.868  11.955 -0.6248 -1.1181 -0.5460
 5062SOL     OW26821   1.509   3.807   5.079 -0.1777  0.8207 -0.4259
 5062SOL    HW126822   1.474   3.889   5.045  1.8332  2.2276  0.8547
 5062SOL    HW226823   1.584   3.834   5.132  2.7056 -3.5931 -2.2737
 5063SOL     OW26824   1.403   3.349   9.218  0.0927  0.3042  0.0906
 5063SOL    HW126825   1.308   3.337   9.218  0.3379 -1.7460  1.6251
 5063SOL    HW226826   1.407   3.426   9.162 -3.0188 -0.5382 -1.2645
 5064SOL     OW26827   4.156   3.536   7.011  0.2589  0.0183 -0.0061
 5064SOL    HW126828   4.209   3.512   7.087 -1.3122 -3.8105 -0.1535
 5064SOL    HW226829   4.168   3.631   7.001  1.4649 -0.3665 -2.3611
 5065SOL     OW26830   1.576   2.732   8.384  0.5845 -0.4817  0.4802
 5065SOL    HW126831   1.641   2.797   8.409  0.7508 -0.3821 -0.2151
 5065SOL    HW226832   1.613   2.644   8.395  1.5615 -0.0288  0.8624
 5066SOL     OW26833   0.364   4.698   2.493  0.0721  0.0432  1.0153
 5066SOL    HW126834   0.364   4.604   2.474  0.7634  0.4330 -0.9193
 5066SOL    HW226835   0.332   4.728   2.408  1.3230  0.6433  0.7546
 5067SOL     OW26836   2.139   2.233   9.351 -0.2048  0.9577  0.0938
 5067SOL    HW126837   2.177   2.172   9.414 -0.4630 -1.1265 -1.7648
 5067SOL    HW226838   2.218   2.270   9.312 -0.1932  0.0125 -0.7833
 5068SOL     OW26839   0.483   1.421   2.520  0.2997  0.4118  0.1326
 5068SOL    HW126840   0.397   1.454   2.497  0.3882  1.8060  1.7694
 5068SOL    HW226841   0.462   1.339   2.565  0.0389  0.7512  0.6268
 5069SOL     OW26842   2.174   2.256   7.782 -0.7055 -0.3751 -0.2815
 5069SOL    HW126843   2.169   2.345   7.818 -0.0006  0.6461 -2.7120
 5069SOL    HW226844   2.181   2.205   7.862 -3.7243 -1.6377 -0.8048
 5070SOL     OW26845   1.302   2.130   3.487 -0.0520 -0.2113 -0.1454
 5070SOL    HW126846   1.386   2.091   3.462 -0.6430 -0.5206 -1.6085
 5070SOL    HW226847   1.260   2.138   3.402  1.0377 -0.6305 -0.7266
 5071SOL     OW26848   4.107   1.660   2.283  0.4901  0.0097  0.2722
 5071SOL    HW126849   4.126   1.575   2.243 -0.9795 -0.5380  0.7388
 5071SOL    HW226850   4.012   1.656   2.278  0.3847  2.8090 -0.0318
 5072SOL     OW26851   4.162   4.346   5.336 -0.3511 -0.4881 -0.2968
 5072SOL    HW126852   4.070   4.322   5.322 -1.2311  1.7695  1.4986
 5072SOL    HW226853   4.174   4.308   5.423  0.3737 -0.9310 -0.5890
 5073SOL     OW26854   4.227   4.145   8.172  0.0566  0.3304 -0.1830
 5073SOL    HW126855   4.322   4.144   8.181  0.0551 -0.9451 -0.2873
 5073SOL    HW226856   4.192   4.215   8.226  0.8983 -0.9362  1.9929
 5074SOL     OW26857   0.797   2.681  12.272 -0.0594 -0.5769  0.1821
 5074SOL    HW126858   0.853   2.688  12.194 -0.0356 -3.6336 -0.0901
 5074SOL    HW226859   0.860   2.708  12.340  0.5668  0.7468 -0.9164
 5075SOL     OW26860   1.384   3.973   8.152 -0.6725  0.4060 -0.0305
 5075SOL    HW126861   1.443   3.971   8.077  0.6234 -1.0859  1.0439
 5075SOL    HW226862   1.372   4.068   8.146  1.8701  0.7094 -0.0577
 5076SOL     OW26863   1.734   2.499   9.892  0.2210 -0.2499  0.2450
 5076SOL    HW126864   1.697   2.588   9.899 -0.2662 -0.3228 -1.3387
 5076SOL    HW226865   1.812   2.519   9.943 -1.3722  0.3268  2.4565
 5077SOL     OW26866   3.936   3.950  10.525 -0.0641 -0.2458  0.0363
 5077SOL    HW126867   3.851   3.913  10.547  0.4773 -3.0944 -2.7039
 5077SOL    HW226868   3.936   4.021  10.590 -1.7848 -0.9483  0.8010
 5078SOL     OW26869   1.241   0.771   8.919 -0.2631 -0.1235  0.0270
 5078SOL    HW126870   1.180   0.842   8.897 -0.1032 -0.3668 -1.1694
 5078SOL    HW226871   1.323   0.816   8.897 -0.4947 -0.3647 -1.3432
 5079SOL     OW26872   4.200   3.316   1.994  0.0554 -0.4184 -0.5918
 5079SOL    HW126873   4.114   3.278   1.979  0.4146 -0.8028 -1.6882
 5079SOL    HW226874   4.188   3.399   1.947 -2.1050  0.2214  1.1014
 5080SOL     OW26875   3.498   3.127  15.527  0.0634  0.3007 -0.1708
 5080SOL    HW126876   3.466   3.042  15.497  0.0612 -0.2383  1.3501
 5080SOL    HW226877   3.591   3.105  15.533  0.6093  2.2493 -1.4561
 5081SOL     OW26878   0.794   1.332  17.247 -0.1496  0.1097  0.4407
 5081SOL    HW126879   0.854   1.370  17.182  0.1108 -0.7985  0.1600
 5081SOL    HW226880   0.814   1.242  17.224  1.4501  0.0908  1.9806
 5082SOL     OW26881   3.423   2.311   7.499  0.6428 -0.1339 -0.2523
 5082SOL    HW126882   3.501   2.263   7.468 -0.5367 -1.5632 -1.0329
 5082SOL    HW226883   3.381   2.341   7.418  2.2182 -0.4802 -1.2172
 5083SOL     OW26884   0.543   2.186  13.679  0.6192  0.7048 -0.5238
 5083SOL    HW126885   0.613   2.126  13.704  1.3608  2.2453  1.0161
 5083SOL    HW226886   0.503   2.123  13.618  0.4759 -0.6322  0.9517
 5084SOL     OW26887   2.906   4.425   1.495  0.1547  0.0237  0.2035
 5084SOL    HW126888   2.851   4.461   1.565 -1.1076  0.1919 -0.8715
 5084SOL    HW226889   2.889   4.330   1.496  2.0901 -0.3312 -0.9850
 5085SOL     OW26890   0.474   1.567   8.335 -0.2859  0.4040 -0.3307
 5085SOL    HW126891   0.494   1.477   8.363  0.5031  0.4316 -0.8103
 5085SOL    HW226892   0.564   1.599   8.324  0.6348 -2.0349 -0.0591
 5086SOL     OW26893   2.831   2.240   4.095  0.2014 -0.0898  0.3862
 5086SOL    HW126894   2.791   2.237   4.008 -0.0828  1.7079  0.4552
 5086SOL    HW226895   2.822   2.148   4.120 -1.5047  0.2003  0.7744
 5087SOL     OW26896   2.743   2.761  16.384 -0.5676 -0.2188  0.5359
 5087SOL    HW126897   2.759   2.757  16.290 -3.2804  1.3138 -0.0071
 5087SOL    HW226898   2.738   2.666  16.393 -0.8353 -0.0974  1.6554
 5088SOL     OW26899   2.166   2.474   7.267 -0.2617  0.6150  0.4185
 5088SOL    HW126900   2.178   2.408   7.199  0.2026  1.7274 -0.5880
 5088SOL    HW226901   2.075   2.462   7.295 -0.8183 -1.7074 -2.4959
 5089SOL     OW26902   0.375   4.019   3.014 -0.4055 -0.5107  0.2233
 5089SOL    HW126903   0.314   3.952   2.984 -0.0140 -0.2202 -1.2479
 5089SOL    HW226904   0.449   3.971   3.050 -0.7785  1.7214  3.9469
 5090SOL     OW26905   2.531   3.809   1.678  0.1764  0.5242  0.3765
 5090SOL    HW126906   2.452   3.841   1.634  0.6499 -0.1939 -1.0064
 5090SOL    HW226907   2.548   3.866   1.753 -2.7158 -2.2151  3.0922
 5091SOL     OW26908   4.171   4.358   6.663  0.2467  0.3002  0.7102
 5091SOL    HW126909   4.256   4.353   6.708 -0.4137 -1.5925  1.7152
 5091SOL    HW226910   4.167   4.267   6.635  2.2327  0.0615  1.1378
 5092SOL     OW26911   1.882   0.379  15.389  0.5009  0.2208  0.2241
 5092SOL    HW126912   1.824   0.375  15.313  0.2718 -2.1029  0.5027
 5092SOL    HW226913   1.852   0.456  15.436 -0.3831 -1.0487  1.7643
 5093SOL     OW26914   2.280   1.959   5.722  0.1157 -0.0165 -0.1348
 5093SOL    HW126915   2.334   2.012   5.664 -0.0428 -1.4476 -1.5822
 5093SOL    HW226916   2.198   1.997   5.692 -0.3373 -1.3676 -0.5841
 5094SOL     OW26917   1.613   1.652   8.471  0.4884 -0.3841  0.4589
 5094SOL    HW126918   1.705   1.648   8.442  0.3108  0.3707 -0.2255
 5094SOL    HW226919   1.614   1.739   8.512 -2.5541  0.6540 -1.6822
 5095SOL     OW26920   2.696   1.085   8.809 -0.0790  0.0403  0.5214
 5095SOL    HW126921   2.765   1.124   8.755 -2.0459  0.1543 -1.8900
 5095SOL    HW226922   2.629   1.062   8.744  1.4744 -1.2456 -0.6443
 5096SOL     OW26923   3.141   2.711   4.106  0.1700 -0.3231 -0.0389
 5096SOL    HW126924   3.194   2.739   4.180 -0.3819  3.0555 -0.9098
 5096SOL    HW226925   3.054   2.744   4.129  0.8018 -0.7195  2.8608
 5097SOL     OW26926   3.875   0.176   5.105  0.2055 -0.4895 -0.1576
 5097SOL    HW126927   3.827   0.094   5.095 -1.0172  0.4913 -2.2557
 5097SOL    HW226928   3.819   0.222   5.168  2.7675  0.7735  1.2178
 5098SOL     OW26929   0.017   4.597   2.281 -0.3809  0.3130 -0.3294
 5098SOL    HW126930   0.047   4.657   2.349 -3.0283  0.9808  0.2254
 5098SOL    HW226931   0.056   4.515   2.311 -0.5838  0.0338 -0.8319
 5099SOL     OW26932   3.236   3.264  10.503  0.2016 -0.4765  0.2135
 5099SOL    HW126933   3.273   3.221  10.581  0.8040  0.1474  0.2765
 5099SOL    HW226934   3.215   3.185  10.454 -2.7017  0.1699  0.4144
 5100SOL     OW26935   0.281   0.938  17.228  0.0552  0.1310  0.4988
 5100SOL    HW126936   0.346   0.964  17.294 -0.2525 -0.9784  1.2508
 5100SOL    HW226937   0.307   0.986  17.150 -1.4717  0.6194  0.2845
 5101SOL     OW26938   1.647   0.418   8.226 -0.0446 -0.4493  0.2799
 5101SOL    HW126939   1.683   0.483   8.165 -0.9224 -0.6424 -0.4444
 5101SOL    HW226940   1.702   0.345   8.198  1.5201  0.3610  1.2628
 5102SOL     OW26941   0.310   3.728   8.750 -0.0742 -0.0270 -0.1367
 5102SOL    HW126942   0.265   3.810   8.770 -1.0048 -0.8610  1.1594
 5102SOL    HW226943   0.262   3.695   8.675 -0.0558 -0.3976  0.0139
 5103SOL     OW26944   0.641   1.683  13.458  0.3114  0.2173 -0.4112
 5103SOL    HW126945   0.577   1.697  13.389  0.6580 -1.1694 -1.0222
 5103SOL    HW226946   0.717   1.735  13.432  0.4018  1.1798  1.7831
 5104SOL     OW26947   1.575   2.838   7.001 -0.0149 -1.0713 -0.0029
 5104SOL    HW126948   1.516   2.791   7.061 -0.2602  1.3313  1.6286
 5104SOL    HW226949   1.516   2.863   6.930 -0.5351 -2.9843 -0.2370
 5105SOL     OW26950   2.985   2.452   2.316 -0.1616  0.3156  0.0671
 5105SOL    HW126951   3.015   2.535   2.352  3.5391 -0.5836 -0.9537
 5105SOL    HW226952   2.900   2.439   2.358 -0.8305 -0.2354 -1.4529
 5106SOL     OW26953   2.623   3.042   6.417  0.4402  0.0024  0.0610
 5106SOL    HW126954   2.615   3.026   6.511  0.5611 -1.4381 -0.1687
 5106SOL    HW226955   2.538   3.010   6.387  0.9135 -0.6533 -0.6038
 5107SOL     OW26956   4.647   1.243   5.557  0.1174 -0.2324 -0.0847
 5107SOL    HW126957   4.552   1.256   5.551  0.1683 -0.0165 -0.4059
 5107SOL    HW226958   4.655   1.234   5.652 -2.4866 -0.0613  0.1499
 5108SOL     OW26959   0.380   3.731  13.048 -0.5891  0.1412  0.3097
 5108SOL    HW126960   0.449   3.665  13.057 -1.2058 -0.4018  1.0172
 5108SOL    HW226961   0.425   3.806  13.085  0.0462  0.4891 -1.1882
 5109SOL     OW26962   3.448   3.423  15.381 -0.9815  0.6011 -0.1636
 5109SOL    HW126963   3.417   3.512  15.398  0.2028  0.7623  1.1485
 5109SOL    HW226964   3.537   3.434  15.349 -0.6849 -0.7661  0.1540
 5110SOL     OW26965   1.664   3.606   7.826  0.2769 -0.0317 -0.0379
 5110SOL    HW126966   1.748   3.631   7.864  1.4217 -2.8175 -0.7390
 5110SOL    HW226967   1.677   3.618   7.732  2.2557 -1.2579  0.0714
 5111SOL     OW26968   3.135   3.450  12.240  0.2791  0.5795  0.4456
 5111SOL    HW126969   3.136   3.369  12.290  0.9521 -0.0892 -0.6607
 5111SOL    HW226970   3.229   3.464  12.226  0.2149  0.8510  0.2715
 5112SOL     OW26971   4.084   4.414   0.694 -0.0811 -0.4006 -0.2414
 5112SOL    HW126972   4.118   4.397   0.607  1.0157 -0.6838  0.2401
 5112SOL    HW226973   4.003   4.363   0.684 -2.3341  2.7980  1.5169
 5113SOL     OW26974   1.587   0.057   0.996 -0.2331  0.0630 -0.5079
 5113SOL    HW126975   1.514   0.087   1.049  0.5436 -0.6503  0.9500
 5113SOL    HW226976   1.561   0.067   0.904 -1.9363  0.4143  0.0054
 5114SOL     OW26977   0.153   2.834   4.671 -0.1316 -1.2818  0.6116
 5114SOL    HW126978   0.245   2.848   4.696 -0.9975  2.5509  1.6778
 5114SOL    HW226979   0.127   2.758   4.723  1.0424 -1.6131  0.7191
 5115SOL     OW26980   3.734   1.207  10.291 -0.0235 -0.0484  0.0547
 5115SOL    HW126981   3.781   1.185  10.371  1.0539 -1.4684 -0.9656
 5115SOL    HW226982   3.653   1.246  10.325 -0.6810 -0.9507 -0.5018
 5116SOL     OW26983   3.762   1.158   2.021 -0.4484  0.1308 -0.0830
 5116SOL    HW126984   3.736   1.194   1.936  0.0619  0.2522 -0.1843
 5116SOL    HW226985   3.827   1.091   2.001  3.3165  3.1146  2.2813
 5117SOL     OW26986   0.212   0.797   4.348 -0.3458  0.2324  0.6020
 5117SOL    HW126987   0.289   0.853   4.348 -1.5726  1.8935  0.3544
 5117SOL    HW226988   0.173   0.822   4.264  1.8869 -1.3277 -0.9212
 5118SOL     OW26989   4.635   1.053   7.646 -0.1277 -0.0511 -0.1602
 5118SOL    HW126990   4.565   0.994   7.616 -1.0922 -0.3435  2.6964
 5118SOL    HW226991   4.718   1.021   7.611  0.5957 -0.7020  2.1640
 5119SOL     OW26992   0.937   2.458  14.879  0.2349 -0.0213 -0.8533
 5119SOL    HW126993   0.954   2.552  14.876 -0.4252  0.1664  2.1184
 5119SOL    HW226994   0.930   2.436  14.786 -0.4112 -0.2294 -0.7565
 5120SOL     OW26995   4.258   3.004   8.875  0.6138  0.3230  0.1709
 5120SOL    HW126996   4.244   2.989   8.969 -1.7308  2.9915  0.2226
 5120SOL    HW226997   4.353   3.016   8.873  1.1399 -3.2939  2.6549
 5121SOL     OW26998   1.782   0.183   3.569 -0.4474  0.1931 -0.1882
 5121SOL    HW126999   1.861   0.200   3.621 -2.4916 -1.3458  3.4549
 5121SOL    HW227000   1.737   0.267   3.575 -0.1202  0.5350 -2.4193
 5122SOL     OW27001   1.821   2.093   2.527  0.3705 -0.2076 -0.0030
 5122SOL    HW127002   1.762   2.038   2.476  1.6108  0.1417 -1.7974
 5122SOL    HW227003   1.894   2.037   2.553 -0.6129 -1.0120  1.0597
 5123SOL     OW27004   3.860   0.391   7.203 -0.1750  0.3680 -0.3827
 5123SOL    HW127005   3.891   0.311   7.161 -0.5684 -0.2452  0.4702
 5123SOL    HW227006   3.795   0.428   7.144  0.7599  4.1440  0.9870
 5124SOL     OW27007   0.824   0.149   3.443  0.0105 -0.0352  0.4259
 5124SOL    HW127008   0.815   0.069   3.494  1.8443  0.0572  0.8832
 5124SOL    HW227009   0.762   0.121   3.376  0.5748  1.4511 -0.7131
 5125SOL     OW27010   0.614   4.136   7.309  0.2949 -0.5501  0.0433
 5125SOL    HW127011   0.634   4.055   7.357  0.4134  0.1702  1.1984
 5125SOL    HW227012   0.573   4.188   7.378  0.0221 -1.1046  0.2989
 5126SOL     OW27013   3.806   0.717  14.599 -0.3184 -0.2765  0.1937
 5126SOL    HW127014   3.750   0.639  14.597  0.5084 -0.8600  0.0011
 5126SOL    HW227015   3.876   0.688  14.657 -0.1568 -1.5919 -0.6420
 5127SOL     OW27016   0.740   2.475   6.240 -0.6628  0.4242  0.4273
 5127SOL    HW127017   0.761   2.441   6.327 -0.9161 -1.4449 -0.2404
 5127SOL    HW227018   0.664   2.424   6.211  0.7414 -0.4802 -1.6507
 5128SOL     OW27019   0.991   1.840  17.719  0.0551  0.1421 -0.4698
 5128SOL    HW127020   0.958   1.928  17.739 -2.5905 -0.5554 -1.7775
 5128SOL    HW227021   1.083   1.862  17.702  0.0741  0.0502 -0.4888
 5129SOL     OW27022   0.192   4.715   0.785 -0.1842 -0.1156  0.0733
 5129SOL    HW127023   0.246   0.001   0.860  0.6849  1.5913 -1.1196
 5129SOL    HW227024   0.252   4.719   0.710 -0.1328  0.2378  0.1313
 5130SOL     OW27025   2.335   1.312   1.360 -0.5770 -0.2471  0.0361
 5130SOL    HW127026   2.316   1.276   1.447 -2.3361 -1.9792 -1.0640
 5130SOL    HW227027   2.329   1.230   1.312  0.5661 -0.3123  0.0142
 5131SOL     OW27028   0.279   0.794   9.459  0.1015 -0.1520  0.8830
 5131SOL    HW127029   0.227   0.872   9.480  1.0978  0.6841  0.2604
 5131SOL    HW227030   0.299   0.814   9.368 -0.0971 -0.2844  0.8112
 5132SOL     OW27031   4.503   0.373   8.773  0.5495  0.3132 -0.0325
 5132SOL    HW127032   4.427   0.425   8.798 -0.1033 -1.1590  1.0401
 5132SOL    HW227033   4.510   0.306   8.840  0.8261 -1.2907 -1.6758
 5133SOL     OW27034   2.814   4.733   7.978  0.1822  0.0550  0.1413
 5133SOL    HW127035   2.835   4.723   7.886 -0.1352  0.2472  0.0444
 5133SOL    HW227036   2.881   0.058   8.000  0.2945 -0.4909  1.4463
 5134SOL     OW27037   4.174   2.527  14.425  0.0870  0.0441 -0.2086
 5134SOL    HW127038   4.167   2.563  14.513 -1.0417 -0.3617 -0.1360
 5134SOL    HW227039   4.148   2.604  14.374  0.0409 -0.4303 -0.9058
 5135SOL     OW27040   0.827   4.008   0.996  0.4247 -0.1564 -0.1373
 5135SOL    HW127041   0.758   3.948   0.968 -0.1649  0.2350  0.4935
 5135SOL    HW227042   0.876   4.010   0.913  1.3844  0.9440  0.4586
 5136SOL     OW27043   3.054   3.565   9.902  0.1884 -0.3192 -0.4226
 5136SOL    HW127044   2.982   3.620   9.931  1.2778  1.2587 -0.7584
 5136SOL    HW227045   3.012   3.499   9.846 -1.4257  0.6519 -0.3756
 5137SOL     OW27046   1.280   3.907   2.961 -0.4142 -0.0565 -0.3690
 5137SOL    HW127047   1.258   3.979   3.020 -0.5264 -0.9066  0.6369
 5137SOL    HW227048   1.353   3.948   2.914 -1.0753  0.9699 -0.4976
 5138SOL     OW27049   1.436   1.952   3.096 -0.1740  0.5154  0.0713
 5138SOL    HW127050   1.432   1.984   3.006  1.4405  2.8946  0.8306
 5138SOL    HW227051   1.527   1.976   3.118  0.1782 -0.3679 -0.4301
 5139SOL     OW27052   3.415   1.328  15.419  0.3841 -0.9829  0.4084
 5139SOL    HW127053   3.372   1.379  15.488 -0.0769 -1.2845  0.3482
 5139SOL    HW227054   3.471   1.269  15.469 -0.2111 -0.6366  1.4912
 5140SOL     OW27055   4.489   0.146   8.933 -0.3325  0.3643  0.8012
 5140SOL    HW127056   4.576   0.144   8.893 -0.5013  0.4460  0.4282
 5140SOL    HW227057   4.507   0.146   9.027 -0.0339  1.3926  0.7471
 5141SOL     OW27058   0.356   0.839   0.792  0.4406  0.0730 -0.2619
 5141SOL    HW127059   0.429   0.858   0.850  1.3761 -0.3508 -1.3074
 5141SOL    HW227060   0.385   0.828   0.701  0.2028  0.2060 -0.3568
 5142SOL     OW27061   1.028   2.528   5.635  0.3418  0.4830 -0.2813
 5142SOL    HW127062   0.966   2.463   5.668  1.2649 -0.5591 -0.6220
 5142SOL    HW227063   1.036   2.578   5.716 -0.4802  1.6833 -0.9424
 5143SOL     OW27064   0.837   1.056   6.661  0.6334 -0.5211 -0.3346
 5143SOL    HW127065   0.868   1.087   6.576  0.7704 -0.6005 -0.3139
 5143SOL    HW227066   0.752   1.018   6.642 -0.2660  0.7600  1.0882
 5144SOL     OW27067   2.013   3.057   7.882 -0.5736 -0.3691 -0.2551
 5144SOL    HW127068   1.947   3.084   7.818  0.7597  0.5958 -1.2092
 5144SOL    HW227069   1.967   3.084   7.962 -0.1437 -0.5612  0.0569
 5145SOL     OW27070   0.317   2.594   5.612  0.2170 -0.5688 -0.1426
 5145SOL    HW127071   0.226   2.566   5.619 -0.4462  1.2414 -1.6261
 5145SOL    HW227072   0.332   2.603   5.518  2.9529  0.4746  0.3891
 5146SOL     OW27073   2.976   2.577  11.807  0.2541 -0.1612 -0.0166
 5146SOL    HW127074   2.998   2.484  11.820 -1.4729 -0.7075 -1.0341
 5146SOL    HW227075   2.886   2.561  11.779  0.7397  0.6972 -2.0608
 5147SOL     OW27076   0.551   1.119   1.359 -0.4863 -0.2920  0.5206
 5147SOL    HW127077   0.583   1.209   1.367 -1.5838  0.1569 -0.1916
 5147SOL    HW227078   0.460   1.129   1.387 -1.2274  1.5573 -2.5264
 5148SOL     OW27079   3.720   4.270  14.600  0.5246 -0.0420  0.0796
 5148SOL    HW127080   3.723   4.178  14.574  0.4966 -0.4887  1.6101
 5148SOL    HW227081   3.640   4.295  14.555  0.9237  0.6164 -0.2718
 5149SOL     OW27082   2.641   2.300   8.803  0.1716  0.8416 -0.1109
 5149SOL    HW127083   2.627   2.363   8.873 -0.6375  0.3833  0.1490
 5149SOL    HW227084   2.567   2.241   8.821  1.5818 -0.9524 -0.2114
 5150SOL     OW27085   0.605   1.130   4.147  0.0146  0.1467  0.6255
 5150SOL    HW127086   0.647   1.138   4.061  1.4165 -0.7682  1.2291
 5150SOL    HW227087   0.523   1.086   4.128 -0.2278  0.4817  0.8965
 5151SOL     OW27088   3.168   0.986   0.291 -0.4634 -0.5141 -0.2612
 5151SOL    HW127089   3.231   0.940   0.346  2.8647  3.2311 -0.9646
 5151SOL    HW227090   3.089   0.952   0.333 -1.1679  1.1496 -0.2336
 5152SOL     OW27091   4.062   2.849   6.392  0.3011  0.2258 -0.4052
 5152SOL    HW127092   4.081   2.870   6.483  0.8673  1.0620 -0.7081
 5152SOL    HW227093   4.008   2.771   6.404 -0.9211  1.4422  1.9315
 5153SOL     OW27094   4.611   2.493   1.420  0.2161 -0.0509 -0.3557
 5153SOL    HW127095   4.631   2.404   1.446  1.8456 -0.1018 -1.7690
 5153SOL    HW227096   4.646   2.506   1.332 -1.6614  0.7409 -0.9813
 5154SOL     OW27097   1.616   4.713   6.415  0.1835 -0.7817  0.1514
 5154SOL    HW127098   1.563   4.634   6.414 -1.5166  0.3562  0.3077
 5154SOL    HW227099   1.659   4.698   6.331  0.7551  0.6155  0.1840
 5155SOL     OW27100   4.703   1.446  17.441  0.2278  0.1363 -0.1565
 5155SOL    HW127101   0.027   1.407  17.380  1.9833  0.6371  1.3255
 5155SOL    HW227102   0.019   1.456  17.519  0.7987  1.9317 -0.7845
 5156SOL     OW27103   3.472   2.029   7.170 -0.6877  0.0948  0.3047
 5156SOL    HW127104   3.504   2.105   7.121  1.2898 -0.4499  0.7274
 5156SOL    HW227105   3.538   2.035   7.239  0.3180  0.6139 -0.6943
 5157SOL     OW27106   4.645   3.613  16.562 -0.6035  0.4704  0.6376
 5157SOL    HW127107   4.605   3.681  16.509 -0.6679  1.3332  1.7807
 5157SOL    HW227108   4.731   3.621  16.520 -0.6482  0.2233  0.5002
 5158SOL     OW27109   2.954   1.026  13.289 -0.4327 -0.1407 -0.1992
 5158SOL    HW127110   2.989   1.113  13.310 -3.3393  0.5015  2.0083
 5158SOL    HW227111   2.942   0.998  13.380  1.7302  0.1757  0.1973
 5159SOL     OW27112   3.180   0.037   2.780 -0.5912  0.0579 -0.2583
 5159SOL    HW127113   3.260   0.063   2.825 -0.7458  0.1249 -0.0220
 5159SOL    HW227114   3.211   4.736   2.699 -0.7251 -0.5383 -0.0091
 5160SOL     OW27115   0.862   4.047  14.617 -0.5016  0.0633 -0.4216
 5160SOL    HW127116   0.835   3.992  14.544 -0.3347  0.2658 -0.6376
 5160SOL    HW227117   0.774   4.078  14.639  0.5402  1.4107  1.7962
 5161SOL     OW27118   0.949   0.552  12.909  0.5732  0.3860 -0.5327
 5161SOL    HW127119   0.882   0.517  12.850 -0.0662 -0.9638  1.0188
 5161SOL    HW227120   0.962   0.480  12.971  1.2479  0.2928 -0.7887
 5162SOL     OW27121   1.636   0.548   5.176 -0.0417  0.1997  0.2217
 5162SOL    HW127122   1.629   0.639   5.203 -4.1884  0.3384 -1.2735
 5162SOL    HW227123   1.551   0.533   5.134  0.2157  0.8936 -0.5571
 5163SOL     OW27124   0.279   2.953  13.479  0.6777  0.1803  0.2025
 5163SOL    HW127125   0.302   2.882  13.420 -2.2040  0.1963 -0.9351
 5163SOL    HW227126   0.198   2.919  13.517  2.1243  0.0530  3.1388
 5164SOL     OW27127   2.525   3.679  13.248  0.3672  0.3351  0.2157
 5164SOL    HW127128   2.560   3.698  13.161 -0.3921 -0.1966 -0.2121
 5164SOL    HW227129   2.471   3.757  13.262 -1.1530 -0.7483  0.4381
 5165SOL     OW27130   0.528   2.293   7.240 -0.3816  0.3325 -0.1838
 5165SOL    HW127131   0.540   2.235   7.315 -1.1349 -0.2107 -0.4908
 5165SOL    HW227132   0.553   2.378   7.277 -0.4209  0.0975  0.3802
 5166SOL     OW27133   1.353   1.320  13.939 -0.4978 -0.0214  0.4207
 5166SOL    HW127134   1.297   1.333  14.015  1.0781 -1.6211  1.8728
 5166SOL    HW227135   1.313   1.370  13.868 -0.0247  0.1194  0.2481
 5167SOL     OW27136   3.449   2.519   4.002  0.2749  0.0180  0.2136
 5167SOL    HW127137   3.359   2.539   3.974 -0.3210 -1.4434  1.0889
 5167SOL    HW227138   3.496   2.524   3.919 -0.7749 -0.5293 -0.4260
 5168SOL     OW27139   1.206   1.957   5.054 -0.0301 -0.3529 -0.5967
 5168SOL    HW127140   1.298   1.980   5.043 -0.1028 -0.1713 -0.8365
 5168SOL    HW227141   1.195   1.903   4.976 -2.5953 -0.0481 -0.4507
 5169SOL     OW27142   2.097   2.698   9.915  0.5838  0.1857  0.3706
 5169SOL    HW127143   2.049   2.772   9.879  1.5915  0.9787  0.6658
 5169SOL    HW227144   2.060   2.630   9.859  0.8267  0.1747  0.2247
 5170SOL     OW27145   3.860   0.436   0.801  0.3029 -0.1420 -0.4028
 5170SOL    HW127146   3.921   0.431   0.874 -0.2568 -4.1603 -0.2095
 5170SOL    HW227147   3.901   0.507   0.751 -1.4053  1.6766  0.7829
 5171SOL     OW27148   2.541   3.496   3.919 -0.7119 -0.0881  0.8159
 5171SOL    HW127149   2.578   3.584   3.923 -0.7579  0.0670 -2.6058
 5171SOL    HW227150   2.574   3.451   3.997  2.7920 -0.3467 -0.8557
 5172SOL     OW27151   2.242   4.724   8.034  0.1671  0.2244 -0.3012
 5172SOL    HW127152   2.318   4.670   8.012  0.7283  1.2483 -0.9350
 5172SOL    HW227153   2.287   0.070   8.030 -1.0069  0.7892 -1.3396
 5173SOL     OW27154   3.411   0.645   5.774  0.0920 -0.0055  0.1320
 5173SOL    HW127155   3.434   0.647   5.681 -0.1140 -0.3770  0.0753
 5173SOL    HW227156   3.455   0.569   5.813  2.7151  0.8438 -1.1804
 5174SOL     OW27157   2.066   1.898   3.473 -0.3938  0.3307 -0.2045
 5174SOL    HW127158   2.022   1.957   3.535 -0.1172 -0.0539  0.3535
 5174SOL    HW227159   2.074   1.966   3.406  1.0497  1.5419  1.1997
 5175SOL     OW27160   3.049   1.719   8.591  0.0704 -0.2917 -0.1527
 5175SOL    HW127161   3.049   1.814   8.583  2.5211 -0.4706 -2.3636
 5175SOL    HW227162   2.974   1.697   8.647  1.1759  1.0545  1.8219
 5176SOL     OW27163   2.144   0.609   5.208 -0.5077  0.3632  0.1738
 5176SOL    HW127164   2.162   0.691   5.161 -1.9327  1.2710  1.2082
 5176SOL    HW227165   2.064   0.633   5.255 -1.6561 -0.8056 -1.1999
 5177SOL     OW27166   2.447   1.191   7.325  0.1449  0.3755  0.4196
 5177SOL    HW127167   2.428   1.280   7.354 -1.5330  0.1626 -0.0256
 5177SOL    HW227168   2.419   1.198   7.234 -0.7451  0.4352  0.7004
 5178SOL     OW27169   2.752   0.099   8.368  0.2508 -0.4091  0.1874
 5178SOL    HW127170   2.790   0.013   8.351  1.2347  0.2737 -1.1207
 5178SOL    HW227171   2.810   0.165   8.330  1.2817 -1.8575 -0.7546
 5179SOL     OW27172   0.543   0.821   2.840 -0.0084 -0.4592 -0.3238
 5179SOL    HW127173   0.588   0.785   2.764 -1.2150 -3.8202  0.5428
 5179SOL    HW227174   0.470   0.759   2.835 -0.4317 -0.1335  1.6170
 5180SOL     OW27175   2.753   2.862  15.445 -0.2562  0.5211 -0.3298
 5180SOL    HW127176   2.790   2.814  15.371 -1.9031  1.2836 -1.6367
 5180SOL    HW227177   2.834   2.903  15.475 -1.2086  2.2508 -0.1053
 5181SOL     OW27178   1.494   1.286   7.020  0.1851 -0.0586  0.2665
 5181SOL    HW127179   1.556   1.310   7.089 -0.6575  1.1419  0.5948
 5181SOL    HW227180   1.522   1.195   7.011  1.8935  0.6539 -1.5008
 5182SOL     OW27181   0.268   1.871   9.934 -0.7490 -0.5112  0.2227
 5182SOL    HW127182   0.230   1.795   9.980 -0.1822  0.3751  2.1525
 5182SOL    HW227183   0.190   1.904   9.889  0.2239 -1.3498 -2.0780
 5183SOL     OW27184   4.682   0.604   5.550 -0.2185  0.2085  0.4406
 5183SOL    HW127185   0.016   0.594   5.611 -0.8104  0.5086  1.2114
 5183SOL    HW227186   4.623   0.648   5.612  1.7284  2.8218  0.4469
 5184SOL     OW27187   2.250   2.131   7.035 -0.4118 -0.1292  0.3113
 5184SOL    HW127188   2.231   2.045   6.996 -0.9834  0.2390 -0.2144
 5184SOL    HW227189   2.171   2.151   7.084 -0.0758  2.1193 -0.0820
 5185SOL     OW27190   4.605   0.439  10.617 -0.0854  0.0568  0.0327
 5185SOL    HW127191   4.513   0.416  10.631 -0.0212  0.8161  1.7505
 5185SOL    HW227192   4.658   0.388  10.677  0.6183  2.6639  1.6454
 5186SOL     OW27193   1.954   2.138   7.067 -0.7454 -0.2108 -0.4445
 5186SOL    HW127194   1.981   2.069   7.006  2.1428  1.0993 -0.6463
 5186SOL    HW227195   1.918   2.195   7.000 -1.0469 -0.0930 -0.1842
 5187SOL     OW27196   2.029   4.011   8.552 -0.4954  0.2936 -0.1549
 5187SOL    HW127197   2.054   3.926   8.590  1.8767  1.0135 -0.1272
 5187SOL    HW227198   2.046   3.989   8.461 -1.2544  1.4228 -0.5759
 5188SOL     OW27199   3.626   1.805   1.621  0.1721  0.0125  0.4489
 5188SOL    HW127200   3.573   1.845   1.690  0.0441 -0.5668  0.6888
 5188SOL    HW227201   3.686   1.757   1.679 -2.1383 -3.2762  0.1034
 5189SOL     OW27202   0.803   2.390   5.748  0.0751 -0.2057  0.6875
 5189SOL    HW127203   0.716   2.350   5.755 -1.3116  2.5842 -0.5178
 5189SOL    HW227204   0.831   2.405   5.838 -1.3739 -0.1763  1.1293
 5190SOL     OW27205   3.953   3.677   5.896  0.0431 -0.4834 -0.1850
 5190SOL    HW127206   3.969   3.749   5.835  0.9155  0.1220  0.7631
 5190SOL    HW227207   3.911   3.613   5.838 -1.9061  0.0516  0.6302
 5191SOL     OW27208   0.108   0.149   7.383  0.0660  0.6832  0.1396
 5191SOL    HW127209   0.090   0.162   7.290 -0.0929 -1.0782 -0.0865
 5191SOL    HW227210   0.162   0.223   7.410 -1.0206  1.8126 -0.8104
 5192SOL     OW27211   0.971   3.636   0.276  0.2290  0.7064 -0.8240
 5192SOL    HW127212   0.908   3.705   0.254 -1.3290 -0.8156 -1.1036
 5192SOL    HW227213   0.909   3.565   0.292  1.0514  0.8404  2.9573
 5193SOL     OW27214   3.013   2.949   4.770 -0.1417 -0.2741 -0.1732
 5193SOL    HW127215   2.992   2.880   4.707  0.3698 -0.3903 -0.2171
 5193SOL    HW227216   2.978   3.024   4.723 -0.1551 -0.4266 -0.4089
 5194SOL     OW27217   2.887   3.028  12.077 -0.1540 -0.3914 -0.5068
 5194SOL    HW127218   2.873   2.954  12.137  0.0401 -0.2621 -0.3072
 5194SOL    HW227219   2.892   3.107  12.130  1.9752 -0.4903 -0.5468
 5195SOL     OW27220   3.504   3.503   4.670  0.1036 -0.7209 -0.3091
 5195SOL    HW127221   3.480   3.489   4.761  0.7824 -2.2088 -0.3575
 5195SOL    HW227222   3.572   3.436   4.670  1.1541  0.3420  0.6523
 5196SOL     OW27223   0.130   3.761   6.650  0.5849  0.0014  0.1709
 5196SOL    HW127224   0.144   3.759   6.555  0.9772 -0.6113  0.2436
 5196SOL    HW227225   0.094   3.850   6.653  0.3491 -0.0013 -2.0904
 5197SOL     OW27226   4.495   0.584  17.703 -0.4227  0.2723 -0.1550
 5197SOL    HW127227   4.484   0.489  17.701  0.2086  0.2164 -0.6986
 5197SOL    HW227228   4.405   0.606  17.679 -0.8812 -2.1648 -0.6544
 5198SOL     OW27229   2.110   3.760   1.621  0.1255 -0.0238  0.0127
 5198SOL    HW127230   2.085   3.698   1.553 -2.0628  0.6236  0.2143
 5198SOL    HW227231   2.050   3.834   1.607 -2.0869 -1.6576  1.0205
 5199SOL     OW27232   2.055   3.599  15.706 -0.7764  0.0970  0.2302
 5199SOL    HW127233   2.014   3.586  15.791  0.7916  0.2301  1.0046
 5199SOL    HW227234   2.137   3.552  15.721 -1.2202 -0.7045  0.1097
 5200SOL     OW27235   2.121   3.429   3.573  0.2589  0.1250  0.7597
 5200SOL    HW127236   2.030   3.432   3.602  1.0604  0.9050  3.2328
 5200SOL    HW227237   2.169   3.396   3.649  0.4864 -2.5289 -0.5318
 5201SOL     OW27238   2.552   0.737  16.827  0.4382 -0.4760  0.1482
 5201SOL    HW127239   2.544   0.734  16.732 -1.2149  0.9143  0.2542
 5201SOL    HW227240   2.570   0.831  16.832  0.2754 -0.5395  2.0219
 5202SOL     OW27241   4.500   4.059   4.862  0.4372 -0.0253  0.0649
 5202SOL    HW127242   4.443   4.080   4.788  0.9077  3.3655  0.6745
 5202SOL    HW227243   4.546   3.979   4.838  0.1046  0.2283 -1.4187
 5203SOL     OW27244   0.369   3.367  10.755 -0.2802 -0.1561  0.2456
 5203SOL    HW127245   0.429   3.418  10.701 -2.1746  2.0324  0.2142
 5203SOL    HW227246   0.304   3.437  10.766  2.4553  2.4553 -0.3708
 5204SOL     OW27247   1.935   2.942   9.092 -0.4498  0.2266 -0.3128
 5204SOL    HW127248   1.840   2.942   9.081 -0.6625 -1.7319  1.4944
 5204SOL    HW227249   1.962   3.004   9.024  0.2994  0.2725  0.0256
 5205SOL     OW27250   0.742   0.998  15.225 -0.5419  0.3485 -0.0849
 5205SOL    HW127251   0.812   1.021  15.164 -0.1135  1.0598  0.6627
 5205SOL    HW227252   0.668   0.980  15.168  0.2087  0.1414 -0.9877
 5206SOL     OW27253   3.231   1.892   3.597 -0.4405 -0.1709 -0.1331
 5206SOL    HW127254   3.242   1.987   3.595  0.1857 -0.2460 -0.4433
 5206SOL    HW227255   3.220   1.873   3.690  0.5899  0.2086  0.0641
 5207SOL     OW27256   4.024   0.386  12.992 -0.0441  0.0596 -0.3717
 5207SOL    HW127257   4.049   0.474  13.019  0.3714 -0.0001 -0.5686
 5207SOL    HW227258   4.009   0.356  13.081  0.4606 -2.8896 -1.2958
 5208SOL     OW27259   4.179   0.307   8.825 -0.1765 -0.0739 -0.1075
 5208SOL    HW127260   4.170   0.299   8.730  0.8674  0.6012 -0.2605
 5208SOL    HW227261   4.127   0.230   8.844  0.1088 -0.1519  0.3560
 5209SOL     OW27262   1.303   3.539   4.025 -0.3072 -0.4321 -0.8034
 5209SOL    HW127263   1.234   3.516   4.087 -0.9635 -0.0570 -1.3831
 5209SOL    HW227264   1.280   3.630   4.004 -2.9201 -0.6926  1.0347
 5210SOL     OW27265   2.087   2.532   6.337  0.1160  0.1293 -0.1484
 5210SOL    HW127266   2.024   2.527   6.409 -1.0217  2.6735 -0.9427
 5210SOL    HW227267   2.054   2.611   6.294  1.6608  1.3749  0.9528
 5211SOL     OW27268   2.891   2.601   7.294  0.0989  0.5974 -0.0865
 5211SOL    HW127269   2.886   2.669   7.361 -0.9501  1.2385 -0.8091
 5211SOL    HW227270   2.853   2.528   7.344  0.1146 -0.2933 -1.3542
 5212SOL     OW27271   2.666   4.382   1.893 -0.1001 -0.2707  0.1432
 5212SOL    HW127272   2.693   4.435   1.818 -1.5889  0.6140  0.2287
 5212SOL    HW227273   2.627   4.305   1.851  0.7262 -0.6489  0.0752
 5213SOL     OW27274   1.018   4.219   0.706 -0.3335  0.2243 -0.2854
 5213SOL    HW127275   0.989   4.130   0.723 -1.3222  0.4636 -0.6653
 5213SOL    HW227276   1.024   4.221   0.611  0.9039 -0.5977 -0.2247
 5214SOL     OW27277   0.830   1.790   3.888  0.1366 -0.4439 -0.1472
 5214SOL    HW127278   0.818   1.699   3.914 -0.8337 -0.2324  0.1358
 5214SOL    HW227279   0.926   1.792   3.899  0.0535 -0.7692  0.6418
 5215SOL     OW27280   4.458   0.246   1.721  0.5255  0.0137 -0.3472
 5215SOL    HW127281   4.420   0.327   1.687  0.0256  0.4935  1.3873
 5215SOL    HW227282   4.389   0.203   1.772  2.9450  0.0697  2.9131
 5216SOL     OW27283   1.560   4.044   5.393  0.1945 -0.2948 -0.0525
 5216SOL    HW127284   1.543   4.034   5.487 -1.5819  2.3399 -0.0971
 5216SOL    HW227285   1.470   4.034   5.363  0.1137 -0.7826  0.3401
 5217SOL     OW27286   0.888   4.164   8.729 -0.2408  0.4803  0.3940
 5217SOL    HW127287   0.837   4.197   8.803  0.3037 -0.1936  1.0567
 5217SOL    HW227288   0.903   4.071   8.739  2.4272  1.0506  1.5170
 5218SOL     OW27289   0.305   1.779   8.379  0.7075  0.6427 -0.1916
 5218SOL    HW127290   0.353   1.696   8.382  1.1354  0.8653 -1.1287
 5218SOL    HW227291   0.309   1.810   8.289  2.0288 -2.3973 -1.1810
 5219SOL     OW27292   0.935   3.900   2.832  0.0053  0.2482 -0.3575
 5219SOL    HW127293   0.856   3.855   2.862  1.5066 -1.2533  1.2807
 5219SOL    HW227294   0.897   3.955   2.763  1.5347  0.2571 -1.1960
 5220SOL     OW27295   2.261   0.582   1.925  0.0153 -0.4580 -0.6966
 5220SOL    HW127296   2.225   0.667   1.952  0.1300 -0.1776 -1.4147
 5220SOL    HW227297   2.335   0.568   1.983  0.3333 -0.5784 -1.1348
 5221SOL     OW27298   3.645   0.085  11.344  0.3565  0.3252 -0.3028
 5221SOL    HW127299   3.582   0.060  11.412  0.7342  0.5273  0.1201
 5221SOL    HW227300   3.719   0.111  11.399 -0.6271  3.1624 -0.3323
 5222SOL     OW27301   1.228   3.914   4.815  0.0192 -0.3560  0.0515
 5222SOL    HW127302   1.217   3.911   4.720 -0.1254 -3.3402  0.1634
 5222SOL    HW227303   1.259   3.829   4.846 -1.2069 -1.4025 -1.6201
 5223SOL     OW27304   0.103   2.549   8.554 -0.4418 -0.0609 -0.3649
 5223SOL    HW127305   0.052   2.530   8.633 -0.3603  1.4210  0.0440
 5223SOL    HW227306   0.172   2.483   8.560  0.4040  0.9401  0.7039
 5224SOL     OW27307   3.552   4.358   8.250  0.5311  0.0681  0.2995
 5224SOL    HW127308   3.490   4.286   8.245  3.0961 -2.0655 -0.7352
 5224SOL    HW227309   3.622   4.316   8.301  1.1864 -0.1011 -0.7440
 5225SOL     OW27310   0.391   0.013   4.084  0.0382 -0.2035 -0.0852
 5225SOL    HW127311   0.457   4.688   4.060  0.2859  0.6455 -1.6889
 5225SOL    HW227312   0.335   4.697   4.139 -1.4175  1.2676 -0.0753
 5226SOL     OW27313   2.519   2.006  10.099  0.7505 -0.2904  0.6718
 5226SOL    HW127314   2.461   1.938  10.064 -0.4386 -0.4520  2.9706
 5226SOL    HW227315   2.449   2.057  10.138 -0.7860 -2.8492  1.2859
 5227SOL     OW27316   0.146   3.020  10.094 -0.3403 -0.1067 -0.1226
 5227SOL    HW127317   0.191   2.973  10.164 -1.9710 -1.6655 -0.1033
 5227SOL    HW227318   0.090   3.075  10.150  0.6019 -2.3155  2.9719
 5228SOL     OW27319   2.822   1.668   3.698 -0.0777 -0.7191  0.2686
 5228SOL    HW127320   2.909   1.706   3.714  0.6881 -2.8866  1.3030
 5228SOL    HW227321   2.832   1.647   3.605  0.2789 -1.5275  0.4913
 5229SOL     OW27322   0.935   3.071   5.847  0.0838 -0.1592  0.1326
 5229SOL    HW127323   0.839   3.068   5.844  0.1197  0.1983 -1.4350
 5229SOL    HW227324   0.959   3.046   5.758 -3.0433  1.0254 -1.0664
 5230SOL     OW27325   0.702   3.493   4.279  0.1545  0.0924  0.2747
 5230SOL    HW127326   0.690   3.459   4.190  0.2659  1.3383 -0.2204
 5230SOL    HW227327   0.625   3.549   4.283 -1.1198 -1.6247 -0.1717
 5231SOL     OW27328   4.185   3.557   6.441 -0.2156  0.5670  0.5442
 5231SOL    HW127329   4.197   3.464   6.426  3.6568  0.9331  1.3684
 5231SOL    HW227330   4.109   3.555   6.500  0.2593 -0.7835  1.1022
 5232SOL     OW27331   3.392   4.031   7.557 -0.0195 -0.0254 -0.0950
 5232SOL    HW127332   3.423   4.095   7.621 -0.3492 -0.6066  0.6523
 5232SOL    HW227333   3.464   4.035   7.495 -0.0308  0.7398 -0.0553
 5233SOL     OW27334   2.884   1.881   4.308 -0.2780 -0.5904 -0.2374
 5233SOL    HW127335   2.816   1.872   4.375 -0.8170  0.6662 -0.6147
 5233SOL    HW227336   2.851   1.874   4.219 -0.8563 -0.4323 -0.0346
 5234SOL     OW27337   3.640   2.325   4.820  0.1935  0.1844  0.0587
 5234SOL    HW127338   3.664   2.299   4.731 -0.0413  2.2765 -0.6137
 5234SOL    HW227339   3.621   2.239   4.858 -0.2265  0.3933  0.3154
 5235SOL     OW27340   2.112   1.372  13.060 -0.3324 -0.2413 -0.6362
 5235SOL    HW127341   2.190   1.393  13.111 -0.8948  2.6631 -0.9907
 5235SOL    HW227342   2.133   1.281  13.037 -0.2310 -0.3072 -0.2751
 5236SOL     OW27343   3.611   2.084   4.926  0.1387  0.4339  0.0110
 5236SOL    HW127344   3.550   2.131   4.983 -0.0811 -1.2213  1.1290
 5236SOL    HW227345   3.551   2.019   4.889  0.5805 -1.1749  2.1172
 5237SOL     OW27346   1.511   4.605   6.773 -0.0648 -0.3167 -0.3190
 5237SOL    HW127347   1.454   4.560   6.836 -0.4606  1.1147  0.3478
 5237SOL    HW227348   1.451   4.609   6.698  1.7092  1.5167 -1.6332
 5238SOL     OW27349   2.440   1.911   2.396  0.2939  0.6712  0.1905
 5238SOL    HW127350   2.453   1.988   2.340 -0.6688  0.8837  0.2585
 5238SOL    HW227351   2.424   1.954   2.479 -1.6638  0.8278 -0.2678
 5239SOL     OW27352   1.304   2.859  13.881 -0.4051 -0.1512  0.2092
 5239SOL    HW127353   1.330   2.767  13.879 -0.2103 -0.1045  0.6750
 5239SOL    HW227354   1.373   2.877  13.945 -0.0415 -0.6885 -0.0251
 5240SOL     OW27355   1.104   2.981   2.552  0.5371  0.5247  0.3782
 5240SOL    HW127356   1.075   3.056   2.499 -0.4173 -0.8751 -1.0724
 5240SOL    HW227357   1.161   2.933   2.493 -1.0889 -0.8230 -0.1055
 5241SOL     OW27358   4.304   4.543   9.668  0.1912 -0.1376 -0.5850
 5241SOL    HW127359   4.374   4.564   9.605 -0.7919 -0.1146 -1.6670
 5241SOL    HW227360   4.349   4.568   9.749 -0.6885  0.1404 -0.1884
 5242SOL     OW27361   4.113   0.370  12.435 -0.5905  0.2474 -0.3618
 5242SOL    HW127362   4.029   0.399  12.470 -0.8634 -1.1951  0.1586
 5242SOL    HW227363   4.085   0.353  12.345 -2.0999  0.4482  0.0772
 5243SOL     OW27364   2.880   2.531   7.704  0.7627  0.0285 -0.2514
 5243SOL    HW127365   2.798   2.489   7.680  0.3305  0.9627 -0.4160
 5243SOL    HW227366   2.863   2.548   7.797 -0.1029  0.5550 -0.5039
 5244SOL     OW27367   3.907   0.161   7.859 -0.1124 -0.3348 -0.1307
 5244SOL    HW127368   3.983   0.218   7.856  0.0154 -0.5692 -1.5047
 5244SOL    HW227369   3.849   0.218   7.808 -2.9925 -1.1947  2.1997
 5245SOL     OW27370   3.995   1.853   9.576 -0.2198 -0.1488  0.2179
 5245SOL    HW127371   3.946   1.774   9.600 -1.4451 -0.5389 -3.5708
 5245SOL    HW227372   3.924   1.917   9.587  2.0616  2.0710  1.8412
 5246SOL     OW27373   3.965   3.479   9.987 -0.6629 -0.1915  0.2150
 5246SOL    HW127374   3.974   3.446  10.076  0.0611 -1.3257 -0.2720
 5246SOL    HW227375   3.983   3.400   9.936 -1.6039 -0.9984  1.1424
 5247SOL     OW27376   1.011   1.495  11.942 -0.5836  0.4873  0.1428
 5247SOL    HW127377   1.037   1.537  11.860  2.2505  0.0281  0.7827
 5247SOL    HW227378   1.094   1.452  11.964 -0.7495 -0.7988 -1.7471
 5248SOL     OW27379   3.421   2.716  10.793  1.2677  0.0186  0.0957
 5248SOL    HW127380   3.500   2.723  10.740  0.2973 -0.7303 -1.4541
 5248SOL    HW227381   3.370   2.795  10.773  1.9532 -0.0643 -2.0217
 5249SOL     OW27382   4.691   4.080  14.630 -0.7811  0.2489 -0.5186
 5249SOL    HW127383   0.038   4.122  14.628 -0.7950  0.2639 -0.7404
 5249SOL    HW227384   4.645   4.136  14.692  0.5195 -0.7767  1.3938
 5250SOL     OW27385   2.237   1.995   3.829 -0.6316  0.1643  0.3001
 5250SOL    HW127386   2.243   1.923   3.766 -1.4790  0.5351 -0.2044
 5250SOL    HW227387   2.295   2.062   3.790 -0.4158 -0.2574 -0.1095
 5251SOL     OW27388   2.306   3.891   2.042 -0.1464  0.2503  0.5079
 5251SOL    HW127389   2.250   3.814   2.046  3.3132 -2.2886 -0.1819
 5251SOL    HW227390   2.393   3.851   2.041  0.1543  0.8982  0.5405
 5252SOL     OW27391   2.496   3.696   5.962 -0.3060  0.4280 -1.0028
 5252SOL    HW127392   2.520   3.788   5.967 -0.3111  0.4216 -0.8661
 5252SOL    HW227393   2.449   3.684   6.044  2.4582 -0.8318  0.3974
 5253SOL     OW27394   4.164   1.517   2.542 -0.4981 -0.1482  0.1374
 5253SOL    HW127395   4.075   1.552   2.541 -0.1542  0.7744  1.2338
 5253SOL    HW227396   4.135   1.426   2.541 -1.3848  0.1440 -0.8635
 5254SOL     OW27397   1.696   3.602   7.527 -0.1570  1.1143 -0.3393
 5254SOL    HW127398   1.679   3.694   7.507 -0.9616  0.4787 -2.5944
 5254SOL    HW227399   1.791   3.606   7.542 -0.5786  1.5150  2.2779
 5255SOL     OW27400   1.950   1.147  15.330  0.6217  0.0426  0.1701
 5255SOL    HW127401   2.039   1.176  15.349  0.8166  0.2409 -1.0878
 5255SOL    HW227402   1.899   1.198  15.393  0.9096  2.0536 -1.2320
 5256SOL     OW27403   2.925   4.622   4.709 -0.1946 -0.0010 -0.0373
 5256SOL    HW127404   2.921   4.529   4.730 -3.0636  0.4968  1.5108
 5256SOL    HW227405   3.019   4.639   4.700  0.0389 -0.5120  1.4082
 5257SOL     OW27406   4.498   0.422  16.966  0.0108  0.4142  0.2219
 5257SOL    HW127407   4.429   0.451  17.025  0.9705 -1.3012  2.1754
 5257SOL    HW227408   4.540   0.362  17.028 -1.7351 -0.5748  0.4553
 5258SOL     OW27409   1.364   2.584   8.689  0.2443 -0.0934 -0.2138
 5258SOL    HW127410   1.290   2.546   8.643  0.7041 -0.0886 -0.9543
 5258SOL    HW227411   1.318   2.613   8.768  0.5223 -0.5537  0.1164
 5259SOL     OW27412   2.546   1.448   1.380 -0.0675 -0.4049 -0.0568
 5259SOL    HW127413   2.462   1.409   1.358  0.6850 -3.5326  2.6383
 5259SOL    HW227414   2.513   1.525   1.426  0.2542  2.0428 -3.8876
 5260SOL     OW27415   0.292   3.558   5.733 -0.3571  0.7454  0.6528
 5260SOL    HW127416   0.351   3.628   5.758 -0.2037  1.4948 -1.7477
 5260SOL    HW227417   0.338   3.484   5.694 -1.7597  0.0203  0.3683
 5261SOL     OW27418   0.923   1.476   2.282 -0.1238  0.1272 -0.4761
 5261SOL    HW127419   0.863   1.550   2.292 -0.2517  0.0542 -0.7084
 5261SOL    HW227420   0.901   1.448   2.193  0.6288  2.1501 -1.2850
 5262SOL     OW27421   4.225   2.294   2.126 -0.6026 -0.0492 -0.7895
 5262SOL    HW127422   4.288   2.226   2.151  0.7514  1.5536  0.1858
 5262SOL    HW227423   4.150   2.245   2.093 -1.6967  0.4109  0.9951
 5263SOL     OW27424   2.573   1.653   5.792  0.7118  0.3131 -0.1318
 5263SOL    HW127425   2.625   1.573   5.801  1.0524  0.3055 -2.0119
 5263SOL    HW227426   2.630   1.716   5.746  1.2969 -1.8466 -2.3408
 5264SOL     OW27427   1.262   0.621  13.439 -0.4867 -0.2902  0.7920
 5264SOL    HW127428   1.196   0.682  13.405  0.2706  0.6983  1.1267
 5264SOL    HW227429   1.259   0.552  13.372  1.4605  0.9565 -0.5783
 5265SOL     OW27430   1.418   0.461   2.718 -0.1789  0.0434 -0.2652
 5265SOL    HW127431   1.403   0.552   2.692  1.4396  0.1813 -0.7048
 5265SOL    HW227432   1.496   0.444   2.666 -0.4260 -1.9944  0.0339
 5266SOL     OW27433   0.762   3.449   4.629  0.1661  0.3671  0.3544
 5266SOL    HW127434   0.689   3.509   4.615  1.4352  1.4797 -1.4738
 5266SOL    HW227435   0.811   3.492   4.698 -1.8122  0.1445  1.8884
 5267SOL     OW27436   1.798   0.001   4.005 -0.4241 -0.0909 -0.4571
 5267SOL    HW127437   1.797   4.661   4.057 -1.8210  0.7342  0.7582
 5267SOL    HW227438   1.870   0.053   4.041 -0.5867 -0.3070  0.1801
 5268SOL     OW27439   0.043   1.879   4.312  0.4299 -0.0509 -0.5797
 5268SOL    HW127440   4.718   1.845   4.249 -1.4919  0.6079  1.0383
 5268SOL    HW227441   0.097   1.801   4.328 -0.1429 -0.2595  0.3140
 5269SOL     OW27442   3.113   0.722  10.678 -0.1064  0.3735  0.1408
 5269SOL    HW127443   3.201   0.733  10.643 -1.4600  0.9751 -3.0556
 5269SOL    HW227444   3.093   0.813  10.700 -0.7546  0.3718 -0.4202
 5270SOL     OW27445   4.352   0.243   4.073  0.6407 -0.6487  0.2604
 5270SOL    HW127446   4.324   0.207   4.157 -0.7207 -0.7424 -0.2374
 5270SOL    HW227447   4.273   0.290   4.049 -0.7265 -1.9294  2.2511
 5271SOL     OW27448   2.178   1.764  15.386 -0.6012 -0.7126 -0.0781
 5271SOL    HW127449   2.258   1.715  15.370  0.5028  0.6530  1.2550
 5271SOL    HW227450   2.122   1.730  15.316  0.3421 -1.9882 -0.2264
 5272SOL     OW27451   3.184   2.696   3.108 -0.5294 -0.4081 -0.8728
 5272SOL    HW127452   3.159   2.702   3.015  0.3539  1.9575 -0.9489
 5272SOL    HW227453   3.106   2.659   3.149 -0.6199  0.5604 -0.1783
 5273SOL     OW27454   3.090   1.714   3.845  0.3268  0.0415 -0.4253
 5273SOL    HW127455   3.143   1.643   3.810  1.5798  1.3057 -1.1142
 5273SOL    HW227456   3.077   1.685   3.935 -1.5802 -0.9186 -1.0138
 5274SOL     OW27457   2.227   0.200   0.013  0.3885 -0.1254 -0.0431
 5274SOL    HW127458   2.205   0.175   0.102 -0.5396  0.2116 -0.1793
 5274SOL    HW227459   2.231   0.118  17.717  1.4476  0.1540 -0.3964
 5275SOL     OW27460   0.078   0.825   1.439  0.2270 -0.4090  0.6429
 5275SOL    HW127461   0.161   0.841   1.394 -1.6328  0.1252 -2.6220
 5275SOL    HW227462   0.082   0.733   1.412  0.3505 -0.5396  1.1124
 5276SOL     OW27463   1.258   3.754  10.590  0.1910  0.0149 -0.0917
 5276SOL    HW127464   1.190   3.819  10.604  0.3986  0.6733 -2.1547
 5276SOL    HW227465   1.235   3.711  10.507  1.2024  1.4779 -1.1216
 5277SOL     OW27466   0.791   1.504   3.936  0.1626  0.2305 -0.0411
 5277SOL    HW127467   0.813   1.446   3.863  0.2960 -1.0846  1.0475
 5277SOL    HW227468   0.805   1.449   4.013 -1.5097 -0.0875  0.0390
 5278SOL     OW27469   3.174   1.637  13.769  0.0984  0.1619  0.0758
 5278SOL    HW127470   3.257   1.613  13.810 -1.0525  0.4709  2.5628
 5278SOL    HW227471   3.142   1.710  13.821 -0.9060 -1.7235  2.0884
 5279SOL     OW27472   2.721   2.311   5.172  0.3813 -0.0017  0.0478
 5279SOL    HW127473   2.675   2.393   5.152 -0.4941 -0.3132  0.7926
 5279SOL    HW227474   2.676   2.257   5.107 -0.4145  0.4216  0.2519
 5280SOL     OW27475   0.440   3.003  15.692  0.3575  0.2482 -0.1867
 5280SOL    HW127476   0.465   2.984  15.601  3.2123  1.6300  0.3110
 5280SOL    HW227477   0.394   3.086  15.681 -2.7040 -1.1722  1.7282
 5281SOL     OW27478   3.544   4.162   2.496 -0.0623  0.0698 -0.0244
 5281SOL    HW127479   3.495   4.143   2.416  0.5402 -0.6728 -0.2172
 5281SOL    HW227480   3.627   4.180   2.452 -0.1674  0.0905 -0.2131
 5282SOL     OW27481   4.353   1.928   5.974 -0.0242 -0.5353  0.0291
 5282SOL    HW127482   4.444   1.956   5.978 -0.0268 -0.5481  0.1961
 5282SOL    HW227483   4.352   1.842   5.932  1.4877 -0.6240  0.1856
 5283SOL     OW27484   1.200   4.477   7.241 -0.2214  0.4398  0.2081
 5283SOL    HW127485   1.230   4.513   7.157  1.2826 -1.0340  0.1219
 5283SOL    HW227486   1.108   4.466   7.216  0.5684 -0.9275 -2.0766
 5284SOL     OW27487   4.569   2.692   2.061  0.5930  0.5407 -0.3784
 5284SOL    HW127488   4.507   2.619   2.054  0.1152  0.9881 -0.8710
 5284SOL    HW227489   4.612   2.671   2.144  0.9354 -1.0996 -0.9707
 5285SOL     OW27490   0.932   3.710   2.053  0.4854  0.3033 -0.5205
 5285SOL    HW127491   0.900   3.705   2.143 -0.0237 -2.7977 -0.8770
 5285SOL    HW227492   1.001   3.776   2.061  0.3098  0.5396 -0.9505
 5286SOL     OW27493   2.289   4.656   4.936 -0.2904 -0.2832 -1.0977
 5286SOL    HW127494   2.342   4.735   4.947 -2.2691  0.5841  2.0179
 5286SOL    HW227495   2.198   4.686   4.935 -0.5173 -0.9774 -2.4470
 5287SOL     OW27496   4.500   2.901   5.919 -0.3370  0.2732 -0.7063
 5287SOL    HW127497   4.592   2.882   5.904 -0.1670  0.0029  0.7213
 5287SOL    HW227498   4.498   2.869   6.009 -0.9393  2.1321 -0.0526
 5288SOL     OW27499   2.409   3.090  13.663  0.6189  0.0222 -0.2820
 5288SOL    HW127500   2.397   3.162  13.601 -1.2736  0.8031  1.0224
 5288SOL    HW227501   2.484   3.119  13.715  2.9367 -0.3214 -3.3478
 5289SOL     OW27502   1.360   4.189   5.964 -0.6220  0.1052 -0.1511
 5289SOL    HW127503   1.329   4.219   6.049  2.6343  2.3386  0.2540
 5289SOL    HW227504   1.321   4.261   5.916 -0.5300 -0.5972 -1.2838
 5290SOL     OW27505   1.089   4.574   8.618 -0.3645  0.1764  0.5197
 5290SOL    HW127506   1.075   4.668   8.606  2.3536  0.4844 -0.3632
 5290SOL    HW227507   1.003   4.542   8.593 -0.6191  0.0726  1.5383
 5291SOL     OW27508   4.604   1.621   6.834  0.0851  0.2191 -0.1854
 5291SOL    HW127509   4.566   1.683   6.771 -0.6764 -3.5434 -3.4417
 5291SOL    HW227510   4.695   1.652   6.835 -0.7464  2.6847 -1.3368
 5292SOL     OW27511   2.936   3.903   3.398  0.5054  0.2031 -0.0750
 5292SOL    HW127512   2.989   3.983   3.391  0.8074 -0.1327 -1.7498
 5292SOL    HW227513   2.999   3.840   3.432 -0.3157 -1.0966 -0.9280
 5293SOL     OW27514   0.663   3.199  16.974  0.7192  0.4829 -0.2301
 5293SOL    HW127515   0.674   3.190  16.879  1.6735 -0.7711 -0.0065
 5293SOL    HW227516   0.700   3.112  16.993  1.4743  0.3521 -2.2130
 5294SOL     OW27517   2.007   1.750  13.305  0.3175  0.1198  0.4922
 5294SOL    HW127518   2.080   1.783  13.252 -0.6945  0.3102 -0.7923
 5294SOL    HW227519   1.960   1.697  13.241 -0.0866  0.6867  0.3123
 5295SOL     OW27520   2.758   0.316   0.528 -0.3027  0.1745  0.1070
 5295SOL    HW127521   2.754   0.366   0.610 -1.4396 -2.2377  1.5058
 5295SOL    HW227522   2.791   0.235   0.567 -3.3843 -1.1789 -0.1042
 5296SOL     OW27523   2.002   4.008   6.503 -0.0354  0.7412 -0.1288
 5296SOL    HW127524   2.019   4.011   6.408  0.2130  1.9356 -0.0584
 5296SOL    HW227525   1.958   4.093   6.505  0.3322  0.9461 -0.5411
 5297SOL     OW27526   2.214   0.266   3.544 -0.3401  0.5393 -0.1818
 5297SOL    HW127527   2.144   0.309   3.595  1.7270  1.6775  1.6891
 5297SOL    HW227528   2.277   0.250   3.614  0.8879  1.6175 -1.0457
 5298SOL     OW27529   4.225   2.478   4.435  0.1942  0.1868  0.0369
 5298SOL    HW127530   4.309   2.515   4.462  1.3047 -3.2908  1.3197
 5298SOL    HW227531   4.251   2.464   4.344 -2.4944  0.1138 -0.7083
 5299SOL     OW27532   0.936   0.447  16.589 -0.4784  0.3780 -0.2464
 5299SOL    HW127533   0.999   0.433  16.519 -2.1625 -0.8895 -1.4839
 5299SOL    HW227534   0.948   0.367  16.640  0.0283 -0.7538 -2.1500
 5300SOL     OW27535   1.821   0.223   8.165 -0.2552  0.1303  0.0767
 5300SOL    HW127536   1.853   0.138   8.194 -2.3179  0.1614  2.3640
 5300SOL    HW227537   1.889   0.270   8.115 -2.1548  0.6730 -1.9942
 5301SOL     OW27538   1.177   2.788   9.337  0.0873  0.1802 -0.2747
 5301SOL    HW127539   1.235   2.839   9.393  0.1552 -1.0566  0.7629
 5301SOL    HW227540   1.102   2.783   9.395  0.2939  0.1933 -0.0089
 5302SOL     OW27541   1.989   0.379   3.935 -0.5395  0.2639  0.4647
 5302SOL    HW127542   1.922   0.386   4.003 -3.8355 -0.8299 -2.7002
 5302SOL    HW227543   2.039   0.456   3.961  0.5861  1.0787 -4.1022
 5303SOL     OW27544   3.314   1.659   6.151 -0.6038  0.0846 -0.0207
 5303SOL    HW127545   3.404   1.685   6.136  0.1561 -2.8651 -0.5434
 5303SOL    HW227546   3.324   1.591   6.085 -1.5274  0.7668 -0.8708
 5304SOL     OW27547   0.879   1.613   9.333  0.4010 -0.1865  0.1735
 5304SOL    HW127548   0.808   1.550   9.322 -0.1856 -0.0592  3.1609
 5304SOL    HW227549   0.858   1.681   9.270 -0.4432 -0.5868  0.0238
 5305SOL     OW27550   2.268   0.751   2.656 -0.0391  0.2258 -0.6334
 5305SOL    HW127551   2.321   0.693   2.601  1.8305 -0.3784  1.8260
 5305SOL    HW227552   2.209   0.787   2.590  1.2359  2.2706 -0.6541
 5306SOL     OW27553   1.406   0.356   7.561 -0.5889  0.2878 -0.9739
 5306SOL    HW127554   1.333   0.344   7.622 -0.8352  0.5069 -1.2265
 5306SOL    HW227555   1.484   0.348   7.615 -1.2165 -1.2388 -0.2685
 5307SOL     OW27556   3.615   1.726  14.343 -0.8204  0.1508  0.6729
 5307SOL    HW127557   3.685   1.700  14.401 -0.2278 -3.4630 -1.6718
 5307SOL    HW227558   3.646   1.807  14.301  3.9543 -1.1008  1.8136
 5308SOL     OW27559   0.927   2.169  17.201  0.3011 -0.3132  0.5022
 5308SOL    HW127560   0.872   2.111  17.254  0.0939 -1.1380 -0.5966
 5308SOL    HW227561   1.013   2.142  17.232  0.3231  0.2693  0.9433
 5309SOL     OW27562   2.561   0.135   3.377  0.0638  0.3170  0.0285
 5309SOL    HW127563   2.477   0.179   3.358 -0.1415 -0.7426 -1.5739
 5309SOL    HW227564   2.611   0.209   3.411  0.1158  0.0142  0.6123
 5310SOL     OW27565   2.297   0.328  16.765 -0.0482  0.0886 -0.1244
 5310SOL    HW127566   2.203   0.317  16.754 -0.2060  0.7711  0.4847
 5310SOL    HW227567   2.296   0.423  16.749 -0.6684 -0.1085 -1.2419
 5311SOL     OW27568   2.151   3.421   9.558  0.3680  0.0067  0.0887
 5311SOL    HW127569   2.117   3.368   9.630 -1.2875 -0.7506 -1.2299
 5311SOL    HW227570   2.195   3.349   9.512 -0.5039 -1.3806  1.4370
 5312SOL     OW27571   1.316   4.310   3.946  0.5063  0.0755  0.1939
 5312SOL    HW127572   1.390   4.371   3.938  0.9176 -0.2805  1.2247
 5312SOL    HW227573   1.238   4.364   3.934  1.2337  1.0872 -0.0200
 5313SOL     OW27574   4.141   4.300   4.892 -0.2223 -0.7874  0.1043
 5313SOL    HW127575   4.193   4.251   4.829  1.0028  0.4582  0.1400
 5313SOL    HW227576   4.118   4.385   4.855 -0.1212 -0.2212  1.3244
 5314SOL     OW27577   2.659   2.257   6.775  0.3694  0.4253  0.4610
 5314SOL    HW127578   2.722   2.308   6.826  1.4007 -2.0873  1.7045
 5314SOL    HW227579   2.625   2.212   6.853 -0.0747  0.1147  0.0897
 5315SOL     OW27580   1.061   1.997   7.795  0.3090 -0.0036  0.0831
 5315SOL    HW127581   1.131   1.944   7.758  0.4973 -0.5654  1.2319
 5315SOL    HW227582   1.107   2.013   7.878  3.2186  2.0634 -1.9602
 5316SOL     OW27583   1.842   2.063  12.822 -0.3999  0.0481 -0.4634
 5316SOL    HW127584   1.788   2.103  12.890  0.1204 -2.3600  1.3363
 5316SOL    HW227585   1.902   2.138  12.815  0.0112 -0.0782  1.8604
 5317SOL     OW27586   4.576   3.652   5.266  0.2924  0.1171  0.0690
 5317SOL    HW127587   4.642   3.716   5.291  0.7770  0.3542 -1.8276
 5317SOL    HW227588   4.612   3.570   5.301  1.1662 -0.2478 -1.7269
 5318SOL     OW27589   2.075   3.692   3.772 -0.0504 -0.0877  0.5969
 5318SOL    HW127590   2.150   3.719   3.825  0.2343 -0.5891  0.4511
 5318SOL    HW227591   2.042   3.624   3.831  0.8235 -0.0007  1.1986
 5319SOL     OW27592   0.963   0.397  17.477  0.0274  0.1759 -0.3027
 5319SOL    HW127593   0.913   0.337  17.422 -0.4181  2.1178 -1.9886
 5319SOL    HW227594   1.052   0.364  17.465 -0.5389 -1.1736 -0.8284
 5320SOL     OW27595   1.934   2.916   1.416 -0.4622 -0.0450  0.2087
 5320SOL    HW127596   1.910   2.824   1.429 -2.3773  0.7047  2.1264
 5320SOL    HW227597   1.998   2.923   1.487 -0.5071 -0.7114  0.3202
 5321SOL     OW27598   4.669   2.277   5.150 -0.5424  0.0557 -0.6283
 5321SOL    HW127599   4.625   2.357   5.178 -0.8026 -0.0840 -0.6362
 5321SOL    HW227600   4.628   2.209   5.203 -1.1673  0.7425 -0.2217
 5322SOL     OW27601   0.744   1.021   7.194  0.0716  0.7257 -0.1086
 5322SOL    HW127602   0.821   1.040   7.246 -0.0558  0.5357  0.1486
 5322SOL    HW227603   0.756   0.928   7.172  0.6162  1.1885 -1.7724
 5323SOL     OW27604   3.337   1.966   2.671  0.7573 -0.1110  0.1614
 5323SOL    HW127605   3.387   1.941   2.594 -0.9083 -0.9603 -0.6219
 5323SOL    HW227606   3.326   2.059   2.650  1.2689 -0.1169 -0.1211
 5324SOL     OW27607   3.736   1.674   3.306 -0.0556  0.2185  0.2076
 5324SOL    HW127608   3.698   1.624   3.378  2.5904  0.0776  1.5204
 5324SOL    HW227609   3.675   1.654   3.235  0.7527 -0.4469 -0.3101
 5325SOL     OW27610   1.748   2.585   3.622 -0.7145  0.7160 -0.2129
 5325SOL    HW127611   1.726   2.674   3.649 -0.3287  0.3602  1.2441
 5325SOL    HW227612   1.825   2.583   3.680  0.5157  1.7084 -1.8018
 5326SOL     OW27613   0.073   2.823  13.639  0.3950  0.2255 -0.0200
 5326SOL    HW127614   4.722   2.795  13.631  1.4389 -2.8133 -0.9851
 5326SOL    HW227615   0.091   2.771  13.718 -0.1056 -1.1693 -0.8237
 5327SOL     OW27616   4.678   1.645   2.090  0.5840  0.1588 -0.2207
 5327SOL    HW127617   4.678   1.718   2.152 -0.0151 -0.5127  0.5639
 5327SOL    HW227618   4.621   1.682   2.022  0.0281 -0.0667  0.1225
 5328SOL     OW27619   0.182   4.470   3.658  0.3400  0.6216 -0.3303
 5328SOL    HW127620   0.101   4.422   3.642  0.6669 -0.5499  1.4960
 5328SOL    HW227621   0.172   4.556   3.617  1.6291  1.1931  0.5405
 5329SOL     OW27622   0.279   0.800   1.899  0.1593 -0.4964 -0.0973
 5329SOL    HW127623   0.185   0.786   1.913 -0.0450  0.4158 -0.5325
 5329SOL    HW227624   0.282   0.866   1.829  1.2098  1.9875  2.2921
 5330SOL     OW27625   0.892   1.182  12.660  0.2608  0.0148  0.3586
 5330SOL    HW127626   0.829   1.253  12.646 -0.6318 -1.4355 -2.9035
 5330SOL    HW227627   0.839   1.103  12.650  1.8952 -1.0578  0.2711
 5331SOL     OW27628   2.556   1.357  15.771 -0.1295  0.8362 -0.3349
 5331SOL    HW127629   2.492   1.345  15.700 -0.2981  1.4738 -0.2963
 5331SOL    HW227630   2.541   1.451  15.784  0.5816  0.8139  0.5939
 5332SOL     OW27631   1.292   3.952   5.402  0.3947  0.3242  0.2374
 5332SOL    HW127632   1.253   3.868   5.427 -0.6825  0.6285 -0.3950
 5332SOL    HW227633   1.236   4.007   5.458 -0.7582  0.7826 -1.3479
 5333SOL     OW27634   2.892   1.082   4.653  0.3915 -0.2321 -0.1074
 5333SOL    HW127635   2.985   1.076   4.630  0.8100 -0.1498  1.5546
 5333SOL    HW227636   2.895   1.160   4.709 -1.5288  1.2211 -2.0181
 5334SOL     OW27637   2.902   3.949   9.695  0.0959 -0.2133 -0.3624
 5334SOL    HW127638   2.930   4.036   9.723  2.0865 -1.9267  3.0782
 5334SOL    HW227639   2.965   3.937   9.624 -1.9298  1.0878 -2.3440
 5335SOL     OW27640   3.824   0.575   4.269  0.0214  0.1162 -0.3181
 5335SOL    HW127641   3.762   0.572   4.341  0.6004 -1.4278  0.1248
 5335SOL    HW227642   3.881   0.507   4.305 -1.3209 -0.5644  0.5256
 5336SOL     OW27643   0.197   0.955   8.570  0.1316  0.4921 -0.7032
 5336SOL    HW127644   0.155   0.869   8.573 -0.7672  0.9048 -1.4770
 5336SOL    HW227645   0.144   0.997   8.638  1.4915  0.0585  0.6292
 5337SOL     OW27646   0.686   3.894   4.074 -0.4254 -0.0106  0.1019
 5337SOL    HW127647   0.707   3.956   4.145  1.2672 -0.5545  0.0769
 5337SOL    HW227648   0.601   3.926   4.044 -0.6261 -1.3116 -0.6885
 5338SOL     OW27649   2.531   2.485  10.272  0.1341  0.3368  0.0202
 5338SOL    HW127650   2.439   2.469  10.292  0.2580 -0.0310  0.2906
 5338SOL    HW227651   2.572   2.432  10.341 -0.0043 -1.2002 -1.0890
 5339SOL     OW27652   1.173   0.517   1.666  0.1315 -0.2290 -0.5172
 5339SOL    HW127653   1.147   0.578   1.596 -3.1609 -2.1601 -1.0095
 5339SOL    HW227654   1.259   0.556   1.678  0.7076 -1.7462  0.1655
 5340SOL     OW27655   3.842   1.533   2.458 -0.0232 -0.2990 -0.2358
 5340SOL    HW127656   3.842   1.452   2.407 -0.3186  0.0947 -0.8508
 5340SOL    HW227657   3.747   1.546   2.454 -0.1823 -0.8006  1.8708
 5341SOL     OW27658   3.404   3.861   4.735  0.0318  0.1416  0.5168
 5341SOL    HW127659   3.311   3.880   4.751 -0.0276  0.0153  0.3200
 5341SOL    HW227660   3.394   3.769   4.713  1.8484  0.4633 -1.6379
 5342SOL     OW27661   1.687   2.341   5.222 -0.0585 -0.0084  0.0266
 5342SOL    HW127662   1.634   2.417   5.245  0.6799 -0.1508  2.2008
 5342SOL    HW227663   1.689   2.350   5.127  0.9165 -1.0114 -0.0421
 5343SOL     OW27664   0.457   2.918   9.628  0.3138 -0.3485 -0.0540
 5343SOL    HW127665   0.429   2.948   9.542 -0.3962  1.3011  0.7713
 5343SOL    HW227666   0.423   2.828   9.620  0.2840 -0.4012  0.6678
 5344SOL     OW27667   2.196   0.823   5.017  0.0378  0.0472  0.4162
 5344SOL    HW127668   2.257   0.884   5.058  0.5946  0.7708 -1.4552
 5344SOL    HW227669   2.240   0.791   4.938  1.3472  0.5318  0.9494
 5345SOL     OW27670   2.098   2.003   7.594  0.1685  0.4394  0.0805
 5345SOL    HW127671   2.182   2.004   7.638 -0.3912  1.1053  1.1325
 5345SOL    HW227672   2.125   2.012   7.502  0.5436  1.7073  0.3170
 5346SOL     OW27673   4.691   4.550   8.105  0.4488  0.6595 -0.2431
 5346SOL    HW127674   4.718   4.485   8.170  4.1130  3.1598  0.7155
 5346SOL    HW227675   4.732   4.630   8.138 -0.3523  0.0396  2.2368
 5347SOL     OW27676   1.814   1.901   9.113 -0.0651 -0.0305 -0.2074
 5347SOL    HW127677   1.824   1.994   9.134  0.1770 -0.4022  1.2719
 5347SOL    HW227678   1.761   1.905   9.034 -1.1875  1.9178  0.6375
 5348SOL     OW27679   3.278   4.675   5.701  0.0760  0.3177 -0.0206
 5348SOL    HW127680   3.235   4.602   5.746 -1.3333  0.9548 -0.3367
 5348SOL    HW227681   3.371   4.651   5.697 -0.0329 -0.1449  0.2486
 5349SOL     OW27682   0.787   0.594  17.368 -0.1751  0.3709  0.0540
 5349SOL    HW127683   0.718   0.534  17.340 -0.5047 -0.6656  3.1800
 5349SOL    HW227684   0.864   0.536  17.363  0.3319  0.9804  0.7864
 5350SOL     OW27685   0.804   0.779   7.096  0.6564 -0.6276  0.2958
 5350SOL    HW127686   0.829   0.714   7.031 -0.3392  0.0566 -0.7606
 5350SOL    HW227687   0.869   0.845   7.071  0.7178 -1.1926 -1.0257
 5351SOL     OW27688   2.470   3.867  16.880 -0.0936 -0.8559 -0.2145
 5351SOL    HW127689   2.456   3.878  16.974 -1.4090 -2.3287 -0.2343
 5351SOL    HW227690   2.498   3.776  16.882  0.5106 -0.6978 -1.3550
 5352SOL     OW27691   2.434   3.276   6.087 -0.4202  0.9332 -0.2354
 5352SOL    HW127692   2.507   3.221   6.115 -1.6365  0.2854  1.6614
 5352SOL    HW227693   2.462   3.300   5.998  2.7415  0.9257  0.7462
 5353SOL     OW27694   4.333   1.920   8.338 -0.5483  0.2469  0.5937
 5353SOL    HW127695   4.248   1.898   8.301  0.0421  0.6216 -0.9627
 5353SOL    HW227696   4.305   1.972   8.414 -0.3313  0.2351  0.6817
 5354SOL     OW27697   0.836   0.588   0.596 -0.5073 -0.5377 -0.5831
 5354SOL    HW127698   0.911   0.629   0.639  0.4782 -2.5806 -0.3208
 5354SOL    HW227699   0.860   0.627   0.513  0.0778 -0.6022 -0.4454
 5355SOL     OW27700   1.722   2.850   3.662 -0.1802 -0.0281  0.9574
 5355SOL    HW127701   1.655   2.836   3.729 -0.5094  2.0693  1.0782
 5355SOL    HW227702   1.680   2.839   3.577 -1.4939 -2.0702  1.8780
 5356SOL     OW27703   0.116   2.408   7.311  0.4854 -0.4349 -0.1869
 5356SOL    HW127704   0.063   2.456   7.246  1.3323 -0.1582 -0.6780
 5356SOL    HW227705   0.060   2.413   7.388 -0.4900  1.4106 -1.0035
 5357SOL     OW27706   1.918   0.292   6.998 -0.2651  0.0379  0.1501
 5357SOL    HW127707   1.841   0.239   6.977 -0.3493  0.8096 -1.4990
 5357SOL    HW227708   1.920   0.280   7.093  0.8797  1.2014  0.2685
 5358SOL     OW27709   0.944   3.291   3.243  0.8718 -0.2167 -0.1484
 5358SOL    HW127710   0.971   3.277   3.152  2.3586  1.2122  0.0849
 5358SOL    HW227711   0.849   3.280   3.240  0.9674 -0.7401 -1.2281
 5359SOL     OW27712   0.633   3.984   5.015 -0.1738 -0.2053  0.5684
 5359SOL    HW127713   0.696   4.051   5.040 -0.4402  0.5562 -0.7670
 5359SOL    HW227714   0.575   4.043   4.967 -0.8003 -1.5612 -0.3486
 5360SOL     OW27715   3.182   0.377   8.544 -0.0009 -0.2864  0.5700
 5360SOL    HW127716   3.270   0.359   8.576  0.9983 -0.4474 -2.2794
 5360SOL    HW227717   3.128   0.328   8.607 -1.0025  1.3966  1.0140
 5361SOL     OW27718   2.656   0.470  16.177 -0.0417  0.3687 -0.4011
 5361SOL    HW127719   2.700   0.471  16.093 -0.1029  0.9501 -0.4296
 5361SOL    HW227720   2.611   0.387  16.164 -0.5165  0.9169 -2.2927
 5362SOL     OW27721   3.448   1.611   7.870  0.3729  0.7820 -0.3997
 5362SOL    HW127722   3.358   1.606   7.901  0.3122 -3.1522 -1.1145
 5362SOL    HW227723   3.452   1.701   7.839 -3.8946  0.5502 -1.6025
 5363SOL     OW27724   4.113   3.454   1.461  0.0448 -0.1948 -0.4602
 5363SOL    HW127725   4.183   3.414   1.512  0.6233  2.4606  0.8340
 5363SOL    HW227726   4.057   3.381   1.435 -1.8417  1.3091 -0.6687
 5364SOL     OW27727   3.278   4.540  11.006  0.7399  0.0700 -0.3131
 5364SOL    HW127728   3.245   4.577  11.088 -0.4899  0.6045 -1.0495
 5364SOL    HW227729   3.192   4.527  10.965  1.1191  1.1196 -1.4243
 5365SOL     OW27730   4.489   0.179   5.502  0.0202  0.5704  0.4663
 5365SOL    HW127731   4.424   0.245   5.478 -0.5797 -0.2814 -0.2549
 5365SOL    HW227732   4.570   0.225   5.481  0.1713  0.6582  1.2324
 5366SOL     OW27733   0.127   4.458   5.594  0.3442 -0.3839 -0.4008
 5366SOL    HW127734   0.091   4.379   5.635  2.9156 -0.0157  2.6143
 5366SOL    HW227735   0.127   4.432   5.502 -1.2633  0.3421 -0.6093
 5367SOL     OW27736   3.352   1.421  17.107  0.6314 -0.7848  0.2636
 5367SOL    HW127737   3.336   1.511  17.079  1.1215 -0.5896  0.6131
 5367SOL    HW227738   3.277   1.412  17.166  1.8067  1.9474  2.1757
 5368SOL     OW27739   3.702   2.866  16.714 -0.1178  0.1682  0.8411
 5368SOL    HW127740   3.655   2.908  16.786 -1.1461  0.1576  0.1828
 5368SOL    HW227741   3.674   2.774  16.710 -2.0040  0.6424  2.6360
 5369SOL     OW27742   0.454   1.119   3.829 -0.3573 -0.2819 -0.6651
 5369SOL    HW127743   0.490   1.198   3.869  0.2137 -1.3690  0.9569
 5369SOL    HW227744   0.526   1.056   3.834 -0.5755 -0.4419  0.3323
 5370SOL     OW27745   2.191   0.990   6.132  0.5035  0.0527  0.2575
 5370SOL    HW127746   2.138   0.923   6.091  1.0211  1.1931 -2.2899
 5370SOL    HW227747   2.132   1.036   6.192  1.1450 -1.8739  2.3664
 5371SOL     OW27748   0.649   0.060   5.666  0.5568  0.3254 -0.2709
 5371SOL    HW127749   0.571   0.049   5.719  2.1025 -3.4183  1.2411
 5371SOL    HW227750   0.703   0.091   5.739 -1.1663  0.6972  0.8203
 5372SOL     OW27751   2.972   0.708   5.608 -0.2576 -0.9332 -0.5116
 5372SOL    HW127752   2.940   0.686   5.695 -2.3077 -0.3186 -1.1043
 5372SOL    HW227753   2.890   0.703   5.559 -0.4772  1.4545 -0.4100
 5373SOL     OW27754   4.187   2.345   7.647  0.2200 -0.6084  0.4624
 5373SOL    HW127755   4.212   2.254   7.634  1.0316 -0.5024  1.3342
 5373SOL    HW227756   4.165   2.363   7.555  0.8855 -2.1756 -0.0068
 5374SOL     OW27757   4.654   0.380   8.538  0.2659 -0.0765  0.4543
 5374SOL    HW127758   4.609   0.302   8.506  1.8410 -0.0812 -1.7551
 5374SOL    HW227759   4.610   0.381   8.623 -0.4746  1.6546  0.0443
 5375SOL     OW27760   0.428   1.978   4.518  0.5234 -0.1880  0.2183
 5375SOL    HW127761   0.378   1.964   4.438  0.1280 -1.7412  0.7327
 5375SOL    HW227762   0.380   2.056   4.546  0.0174 -0.7502  0.9426
 5376SOL     OW27763   0.128   0.010   1.190  0.3142  0.4808 -0.4453
 5376SOL    HW127764   0.054   4.701   1.227  0.7114  0.7461  0.7052
 5376SOL    HW227765   0.122   0.090   1.243 -2.8207  1.8099 -2.8229
 5377SOL     OW27766   3.157   4.195  14.992  0.0636 -1.0716 -0.0544
 5377SOL    HW127767   3.218   4.235  14.930 -0.8323  2.6643  1.5271
 5377SOL    HW227768   3.160   4.104  14.961  1.4786 -0.8829 -0.4800
 5378SOL     OW27769   3.844   4.715   2.163 -0.3411  0.4174  0.2413
 5378SOL    HW127770   3.881   0.050   2.212  2.1467 -0.0121 -1.0445
 5378SOL    HW227771   3.800   4.667   2.233  0.5080 -1.7281 -0.7156
 5379SOL     OW27772   2.696   1.031  13.213 -0.1121  0.5502 -0.1198
 5379SOL    HW127773   2.788   1.013  13.235  0.0270  0.5473 -0.6989
 5379SOL    HW227774   2.675   0.949  13.169 -1.7431  0.3156  1.0962
 5380SOL     OW27775   4.256   3.815   3.903 -0.1789  0.0629 -0.2491
 5380SOL    HW127776   4.165   3.786   3.891  0.1280  0.2172 -2.7935
 5380SOL    HW227777   4.267   3.838   3.811 -2.1074 -1.3347 -0.8484
 5381SOL     OW27778   2.624   4.531   3.807  0.5614  0.2573  0.3497
 5381SOL    HW127779   2.662   4.557   3.722  0.4500 -1.4818 -0.2241
 5381SOL    HW227780   2.605   4.440   3.788 -1.4965  0.5767  0.9402
 5382SOL     OW27781   0.305   3.334   3.030  0.5802 -0.1233 -0.0142
 5382SOL    HW127782   0.266   3.322   2.944  1.4193  0.1610 -0.4231
 5382SOL    HW227783   0.260   3.265   3.080 -1.2575  2.9901  2.6492
 5383SOL     OW27784   2.068   1.984   9.943  0.0218  0.3043  0.0428
 5383SOL    HW127785   1.989   2.006   9.992 -0.2556 -0.7614  0.0844
 5383SOL    HW227786   2.027   1.930   9.875  0.5661 -0.4122  0.2802
 5384SOL     OW27787   1.964   3.689   7.418 -0.0061  0.6263 -0.0224
 5384SOL    HW127788   2.040   3.733   7.380  0.9847 -1.7002 -0.7359
 5384SOL    HW227789   1.956   3.612   7.362  0.8597  0.7229 -0.2764
 5385SOL     OW27790   4.038   3.082   4.429 -0.7237 -0.2247 -0.4409
 5385SOL    HW127791   3.980   3.033   4.488  0.1375 -0.9088 -0.1611
 5385SOL    HW227792   3.993   3.048   4.351  0.7536 -1.1925 -0.8685
 5386SOL     OW27793   1.044   3.003   8.194  0.0258 -0.1390  0.0909
 5386SOL    HW127794   0.964   2.989   8.143 -0.0176  0.2876  0.0404
 5386SOL    HW227795   1.076   3.085   8.156 -3.6875  1.2260 -0.0598
 5387SOL     OW27796   0.153   0.837   0.007  0.0575 -0.4818 -0.0303
 5387SOL    HW127797   0.065   0.811   0.036  0.2788 -1.6602 -0.4000
 5387SOL    HW227798   0.145   0.932   0.005 -0.9591 -0.6338 -2.5544
 5388SOL     OW27799   1.441   2.105  17.037  0.0167  0.5749  0.2890
 5388SOL    HW127800   1.525   2.104  17.082 -0.1789  0.1861  0.6473
 5388SOL    HW227801   1.464   2.098  16.945  1.4138 -0.5303  0.7097
 5389SOL     OW27802   4.185   2.700   7.973  0.6109 -0.5356  0.4241
 5389SOL    HW127803   4.227   2.626   7.928 -1.0681  0.2781 -2.5207
 5389SOL    HW227804   4.161   2.752   7.896  0.4312 -3.2548 -1.3572
 5390SOL     OW27805   1.988   3.457   0.430  0.2506  0.1152 -0.9136
 5390SOL    HW127806   1.930   3.531   0.446  0.3442 -0.2936  1.2925
 5390SOL    HW227807   1.964   3.390   0.495  3.0893 -1.0279 -1.0479
 5391SOL     OW27808   0.049   0.466  17.131  0.4160  0.0736  0.0714
 5391SOL    HW127809   0.012   0.390  17.086  0.1532  0.2460 -0.0048
 5391SOL    HW227810   4.711   0.514  17.161  0.3848  0.4261 -0.5840
 5392SOL     OW27811   2.314   1.903   8.748  0.4724 -0.4432 -0.0899
 5392SOL    HW127812   2.398   1.895   8.702 -0.2425 -1.6619 -1.1579
 5392SOL    HW227813   2.284   1.813   8.743  1.0076 -0.6196 -0.1957
 5393SOL     OW27814   0.815   1.501   9.587  0.0223 -0.3919  0.9695
 5393SOL    HW127815   0.840   1.555   9.662  0.9361  0.1750  0.2483
 5393SOL    HW227816   0.768   1.564   9.533  1.4729  0.7002  0.9942
 5394SOL     OW27817   0.331   1.347   7.546  0.2119  0.7810 -0.0710
 5394SOL    HW127818   0.252   1.359   7.493  0.1841 -0.2056 -0.2429
 5394SOL    HW227819   0.379   1.413   7.496  1.3186  0.1780  0.1960
 5395SOL     OW27820   1.136   0.554   5.671 -0.1963 -0.4437  0.3133
 5395SOL    HW127821   1.166   0.534   5.759  1.4584  0.7227  0.0196
 5395SOL    HW227822   1.206   0.510   5.623 -0.9308  0.4843 -1.6560
 5396SOL     OW27823   0.297   1.881   2.064  0.3660  0.3277 -0.8400
 5396SOL    HW127824   0.372   1.865   2.120 -1.5463  0.2767  1.7025
 5396SOL    HW227825   0.281   1.974   2.085  0.1205 -0.2611  1.5801
 5397SOL     OW27826   0.619   3.120   6.404  0.3169 -0.1162  0.2129
 5397SOL    HW127827   0.706   3.158   6.415 -0.1703  1.1475 -0.2743
 5397SOL    HW227828   0.557   3.189   6.428 -1.9099 -2.2005  0.5176
 5398SOL     OW27829   3.581   2.584  14.692  0.9713  0.2521 -0.1888
 5398SOL    HW127830   3.488   2.574  14.670  1.2767 -1.8479 -0.5662
 5398SOL    HW227831   3.599   2.668  14.649  3.5249  0.2041  0.7803
 5399SOL     OW27832   2.431   3.249   5.618  0.1469  0.2596  0.5010
 5399SOL    HW127833   2.357   3.271   5.675 -1.3473 -0.0240 -1.3367
 5399SOL    HW227834   2.397   3.232   5.530  0.1957 -1.5599  0.8337
 5400SOL     OW27835   2.891   3.064   6.892  0.0926 -0.5635 -0.0336
 5400SOL    HW127836   2.952   3.059   6.966 -0.1899 -1.2503  0.1501
 5400SOL    HW227837   2.828   3.129   6.921  0.4176 -0.2560 -0.0185
 5401SOL     OW27838   2.800   4.481   8.683  0.9478  0.8150  0.5734
 5401SOL    HW127839   2.728   4.534   8.647 -0.8520 -2.8108 -1.2534
 5401SOL    HW227840   2.881   4.527   8.660  2.0792 -1.3270  0.2641
 5402SOL     OW27841   2.785   1.597   3.106 -0.3121 -0.3981 -0.6321
 5402SOL    HW127842   2.696   1.583   3.074 -0.7823  0.9643  0.0907
 5402SOL    HW227843   2.813   1.673   3.054 -0.2006  0.1884  0.2740
 5403SOL     OW27844   4.343   0.397  10.660 -0.1754 -0.0710 -0.2221
 5403SOL    HW127845   4.288   0.457  10.710 -0.3611  1.5679 -2.3810
 5403SOL    HW227846   4.299   0.313  10.665  0.5634 -0.3682  1.2099
 5404SOL     OW27847   0.081   4.226   5.887 -0.2101 -0.1709  0.4005
 5404SOL    HW127848   0.151   4.165   5.911 -1.2338 -1.0064  1.2815
 5404SOL    HW227849   0.004   4.200   5.937  0.5910 -1.8805  0.7517
 5405SOL     OW27850   1.907   0.297   1.770 -0.3277 -0.3666  0.3635
 5405SOL    HW127851   1.918   0.374   1.713  0.4000 -0.6067  0.1778
 5405SOL    HW227852   1.817   0.309   1.802 -0.5684 -0.9576 -0.0757
 5406SOL     OW27853   1.197   3.249   7.937  0.0848 -0.3696 -0.4304
 5406SOL    HW127854   1.146   3.260   8.017 -2.1785 -1.2157 -1.7531
 5406SOL    HW227855   1.286   3.251   7.972 -0.2272 -0.9864  0.3774
 5407SOL     OW27856   3.482   4.333   0.760  0.4323  0.1728  0.0863
 5407SOL    HW127857   3.494   4.414   0.711 -0.6605  1.8221  2.5722
 5407SOL    HW227858   3.402   4.360   0.804  1.2550 -0.4223  1.9515
 5408SOL     OW27859   1.931   2.528   8.952 -0.2726 -0.4932  0.4079
 5408SOL    HW127860   1.967   2.594   9.011  0.6131 -1.0120  0.4407
 5408SOL    HW227861   1.838   2.550   8.963  0.3926  1.8337  1.4377
 5409SOL     OW27862   4.121   4.696  14.577  0.0807  0.0791 -0.5515
 5409SOL    HW127863   4.104   4.728  14.666  0.4460  0.2039 -0.5255
 5409SOL    HW227864   4.045   4.734  14.533  0.9137 -0.9145 -2.8290
 5410SOL     OW27865   4.727   4.104  11.441 -0.0710 -0.6143  0.4142
 5410SOL    HW127866   0.069   4.134  11.481 -0.5514  1.4276 -0.1180
 5410SOL    HW227867   0.030   4.035  11.390 -0.2643 -0.3250 -0.1359
 5411SOL     OW27868   0.735   3.471  15.890  0.0254  0.0690 -0.1692
 5411SOL    HW127869   0.701   3.539  15.948  1.6364  0.2233  0.5809
 5411SOL    HW227870   0.760   3.520  15.812  1.7884 -0.3395  0.1530
 5412SOL     OW27871   1.013   4.621   9.930 -0.0310 -0.5314 -0.1791
 5412SOL    HW127872   1.094   4.584   9.966 -0.8454 -2.7617 -0.6440
 5412SOL    HW227873   1.046   4.708   9.908 -1.5876  0.2734  0.6668
 5413SOL     OW27874   4.094   1.894   3.617 -0.1041 -0.0525 -0.0419
 5413SOL    HW127875   4.112   1.879   3.710 -0.8286 -0.1981  0.0765
 5413SOL    HW227876   3.999   1.886   3.625 -0.3065  2.1216 -0.4247
 5414SOL     OW27877   3.647   4.708   4.485 -0.2142 -0.4880 -0.2279
 5414SOL    HW127878   3.707   4.633   4.491  1.5107  0.9739  0.8861
 5414SOL    HW227879   3.570   4.665   4.450  0.6330 -2.6670  0.5224
 5415SOL     OW27880   1.198   0.504   4.534  0.1795 -0.2982  0.2797
 5415SOL    HW127881   1.114   0.530   4.494 -0.1652 -2.8082 -0.6174
 5415SOL    HW227882   1.254   0.527   4.460 -1.8468  1.3392 -0.7600
 5416SOL     OW27883   0.328   3.980   8.213  0.0328 -0.2223 -0.1020
 5416SOL    HW127884   0.238   4.007   8.227 -0.5674 -2.5688  0.5246
 5416SOL    HW227885   0.351   3.938   8.296  1.6584  2.6631  0.9179
 5417SOL     OW27886   1.599   3.813   2.398 -0.2163  0.0999  0.1359
 5417SOL    HW127887   1.629   3.739   2.451 -0.5387 -0.5028 -0.5194
 5417SOL    HW227888   1.517   3.835   2.440 -1.1065 -2.7947 -0.0857
 5418SOL     OW27889   3.454   4.587   4.086  0.4764 -0.0044 -0.2293
 5418SOL    HW127890   3.499   4.669   4.109 -0.9916  0.8404 -0.3509
 5418SOL    HW227891   3.531   4.532   4.074 -1.4377 -2.5401 -0.9838
 5419SOL     OW27892   1.146   3.330   6.359  0.2553  0.0298 -0.6460
 5419SOL    HW127893   1.159   3.366   6.271  0.4175 -0.9756 -1.0307
 5419SOL    HW227894   1.228   3.325   6.407 -1.6826 -0.6080  2.5924
 5420SOL     OW27895   1.406   2.585  12.905  1.1355  0.0576  0.1227
 5420SOL    HW127896   1.414   2.498  12.867  1.9125  0.3113 -0.3106
 5420SOL    HW227897   1.428   2.556  12.994 -1.3368 -0.6619  0.4842
 5421SOL     OW27898   0.331   3.024   3.690  0.4809 -0.0213 -0.1891
 5421SOL    HW127899   0.310   2.931   3.704  1.6104 -0.4752 -1.5454
 5421SOL    HW227900   0.263   3.065   3.744 -0.7574 -1.3009 -0.7687
 5422SOL     OW27901   3.600   3.398   4.203  0.1912  0.6590 -0.0829
 5422SOL    HW127902   3.551   3.450   4.268  2.1629 -0.0851  1.9927
 5422SOL    HW227903   3.536   3.328   4.189  2.3162 -1.6842  2.0033
 5423SOL     OW27904   2.147   0.262   6.174 -0.1942  0.0331  0.1361
 5423SOL    HW127905   2.216   0.210   6.131  0.1547  1.1590 -0.6596
 5423SOL    HW227906   2.188   0.348   6.184  0.7909 -0.5907  1.4693
 5424SOL     OW27907   1.465   3.578   8.801  0.0664 -0.1290  0.8504
 5424SOL    HW127908   1.436   3.545   8.716 -2.1500 -3.3868  2.8558
 5424SOL    HW227909   1.516   3.652   8.767 -0.4928  0.6602  1.7269
 5425SOL     OW27910   1.247   4.362   2.827  0.3516 -0.0391  0.5766
 5425SOL    HW127911   1.205   4.277   2.811  1.6768 -0.8388  1.2441
 5425SOL    HW227912   1.175   4.424   2.827 -0.1507 -0.6320  1.2906
 5426SOL     OW27913   2.243   3.815   8.017 -0.1908  0.1914  0.2187
 5426SOL    HW127914   2.227   3.759   8.093 -0.1969 -0.4405 -0.2482
 5426SOL    HW227915   2.329   3.793   7.981 -0.5151 -1.0276  0.1980
 5427SOL     OW27916   2.736   2.602   3.019 -0.2813 -0.4909  0.4560
 5427SOL    HW127917   2.718   2.696   3.020 -1.9995 -0.8002 -0.4980
 5427SOL    HW227918   2.656   2.556   3.046 -0.6054 -0.7291 -0.9304
 5428SOL     OW27919   2.455   0.279   7.190  0.4971 -0.0271  0.6086
 5428SOL    HW127920   2.385   0.337   7.160  0.4429 -2.5199 -4.1801
 5428SOL    HW227921   2.453   0.221   7.114  4.1275  1.8252 -0.9005
 5429SOL     OW27922   1.530   3.483   5.432  0.2573 -0.4280  0.1679
 5429SOL    HW127923   1.483   3.405   5.403  0.1279 -0.4102  0.3295
 5429SOL    HW227924   1.467   3.532   5.483 -0.5652 -1.3453  0.0270
 5430SOL     OW27925   0.172   0.305   6.427  0.5645  0.1689 -0.1706
 5430SOL    HW127926   0.150   0.212   6.437 -1.9825  0.9553  1.4939
 5430SOL    HW227927   0.264   0.309   6.450  1.1223 -2.6649 -1.8306
 5431SOL     OW27928   0.123   4.454   0.851 -0.3243 -0.0840  0.1845
 5431SOL    HW127929   0.158   4.541   0.835  3.5079 -1.7871 -0.6911
 5431SOL    HW227930   0.098   4.425   0.763  2.4825 -1.6230 -0.0938
 5432SOL     OW27931   0.495   3.793  10.579 -0.0530  0.2139  0.5899
 5432SOL    HW127932   0.403   3.803  10.600  0.4339 -1.3869  3.4977
 5432SOL    HW227933   0.520   3.783  10.671  3.6424  0.6624 -0.3693
 5433SOL     OW27934   2.680   2.118  14.812  0.9684  0.6392 -0.2686
 5433SOL    HW127935   2.613   2.184  14.794  0.5797  0.4435  0.4760
 5433SOL    HW227936   2.649   2.048  14.756 -0.3249 -1.1040  2.6246
 5434SOL     OW27937   3.505   2.228   7.012 -0.1380  0.0574  0.0011
 5434SOL    HW127938   3.580   2.286   7.027 -1.5000  2.2904 -1.6835
 5434SOL    HW227939   3.456   2.280   6.949  1.7014  2.4076  0.4888
 5435SOL     OW27940   1.055   0.767   4.295 -0.1362 -0.0798 -0.1581
 5435SOL    HW127941   0.995   0.704   4.333 -0.4141  0.5712  0.4731
 5435SOL    HW227942   1.092   0.724   4.217  0.5543 -0.2665  0.2700
 5436SOL     OW27943   0.607   0.733   6.669 -0.3198 -0.1228 -0.0163
 5436SOL    HW127944   0.531   0.740   6.727 -1.0968 -2.3372 -0.7409
 5436SOL    HW227945   0.553   0.743   6.590 -0.1533 -0.5300 -0.1799
 5437SOL     OW27946   2.980   0.675   9.134  0.8611 -0.7370 -0.0142
 5437SOL    HW127947   2.970   0.756   9.085  0.5675 -1.6607 -1.4770
 5437SOL    HW227948   2.918   0.616   9.091 -0.3013  1.1663 -0.9231
 5438SOL     OW27949   3.497   0.124  11.572  0.5011 -0.6405 -0.3160
 5438SOL    HW127950   3.449   0.200  11.541 -1.0096 -1.0170  1.0622
 5438SOL    HW227951   3.549   0.163  11.642 -0.4129 -1.1732  0.6570
 5439SOL     OW27952   1.886   4.379   2.764  0.4216 -0.4254  0.0011
 5439SOL    HW127953   1.949   4.437   2.722  1.6791 -1.9514 -0.2083
 5439SOL    HW227954   1.913   4.364   2.855 -0.7177 -1.0078  0.2460
 5440SOL     OW27955   1.974   3.072   1.216  0.3645  0.1924 -0.4236
 5440SOL    HW127956   1.949   3.148   1.269 -0.9391  1.3956 -2.7520
 5440SOL    HW227957   1.962   3.010   1.288 -0.3279  2.0468  1.0789
 5441SOL     OW27958   3.592   0.324   4.486  0.8252 -0.3478 -0.4004
 5441SOL    HW127959   3.612   0.414   4.460 -0.2737 -0.0492 -0.2348
 5441SOL    HW227960   3.529   0.312   4.416  1.1753  0.0606 -0.7890
 5442SOL     OW27961   4.734   0.875   9.139  0.3796  0.0020  0.0618
 5442SOL    HW127962   4.649   0.917   9.154 -0.0840 -1.2321  0.8730
 5442SOL    HW227963   4.705   0.784   9.132  0.5184 -0.2388  2.4603
 5443SOL     OW27964   2.717   0.294  10.987 -0.3906  0.7500 -0.4455
 5443SOL    HW127965   2.804   0.329  10.967 -0.0420 -1.1497 -2.1560
 5443SOL    HW227966   2.741   0.206  11.014 -1.6158  0.3771 -0.5930
 5444SOL     OW27967   0.707   2.473   9.239 -0.0245  0.3077 -0.0646
 5444SOL    HW127968   0.786   2.482   9.291  0.3015 -1.3635 -0.2456
 5444SOL    HW227969   0.685   2.380   9.248 -0.9059  0.7572  2.2258
 5445SOL     OW27970   2.671   2.981   8.487 -0.2068 -0.0441 -0.2824
 5445SOL    HW127971   2.711   3.017   8.566 -0.3555 -0.3974 -0.0417
 5445SOL    HW227972   2.744   2.966   8.428 -0.1136 -0.2756 -0.1078
 5446SOL     OW27973   2.702   3.945  10.928 -0.1573  0.4747  0.0291
 5446SOL    HW127974   2.716   3.890  10.850  1.0273  0.1038  0.5070
 5446SOL    HW227975   2.787   3.967  10.964  0.2313  0.5422 -0.9224
 5447SOL     OW27976   3.037   1.986   9.150  0.5129  0.3188 -0.1043
 5447SOL    HW127977   2.970   1.957   9.213 -1.0461  1.8434 -1.0573
 5447SOL    HW227978   3.033   1.917   9.084 -0.5140  0.4765 -0.2123
 5448SOL     OW27979   3.974   1.512   6.225  0.2462  0.4069 -0.2741
 5448SOL    HW127980   3.886   1.492   6.191  0.4248  0.5575 -0.8310
 5448SOL    HW227981   3.989   1.603   6.200 -1.0053  0.0123 -2.5237
 5449SOL     OW27982   1.811   1.175   7.348  0.2139 -0.1475 -0.2477
 5449SOL    HW127983   1.832   1.140   7.434  2.2487  0.7439 -0.3624
 5449SOL    HW227984   1.849   1.121   7.279  2.8995 -0.2906  1.3342
 5450SOL     OW27985   1.354   3.550   2.369  0.2169  0.0165 -0.6665
 5450SOL    HW127986   1.446   3.561   2.394 -0.2931  1.8589  0.4573
 5450SOL    HW227987   1.296   3.573   2.442 -1.9500 -2.4515 -1.6012
 5451SOL     OW27988   2.136   4.711   1.251 -0.2522 -0.1524 -0.2515
 5451SOL    HW127989   2.066   4.646   1.244 -0.2569 -0.1098 -0.5902
 5451SOL    HW227990   2.093   0.042   1.300  0.7831 -0.2590  0.8088
 5452SOL     OW27991   1.748   1.321   6.528 -0.3320 -0.0448 -0.2089
 5452SOL    HW127992   1.736   1.411   6.498  1.3599 -0.5932 -2.5658
 5452SOL    HW227993   1.655   1.299   6.538 -0.6240  0.3949 -1.8135
 5453SOL     OW27994   1.014   0.625   0.376  0.5941 -0.4816 -0.8009
 5453SOL    HW127995   0.966   0.650   0.297 -1.4645  0.6988  0.8193
 5453SOL    HW227996   1.049   0.541   0.347 -0.3637 -1.1634  0.0241
 5454SOL     OW27997   0.103   0.035   4.626  0.6495 -0.1893  0.0915
 5454SOL    HW127998   0.191   0.065   4.602  0.2978  1.2759  0.6223
 5454SOL    HW227999   0.090   0.102   4.693  1.1219 -0.2855  0.2838
 5455SOL     OW28000   1.677   0.918  13.784 -0.7521  0.8883  0.4692
 5455SOL    HW128001   1.652   0.941  13.695 -1.2680 -1.7665 -0.0814
 5455SOL    HW228002   1.628   0.988  13.827 -1.1429  0.2429  1.0680
 5456SOL     OW28003   0.980   2.898  11.448  0.4691  0.4440  1.0845
 5456SOL    HW128004   0.925   2.912  11.526 -1.3657  1.2622 -0.3431
 5456SOL    HW228005   0.988   2.988  11.415 -0.5555  0.4429  0.8179
 5457SOL     OW28006   3.515   4.275  14.423  0.0144 -0.1069 -0.4456
 5457SOL    HW128007   3.434   4.284  14.473  0.5862 -0.7160  0.6021
 5457SOL    HW228008   3.488   4.208  14.359  0.8866 -0.6035 -0.2934
 5458SOL     OW28009   2.683   1.822   4.996  0.1402  0.1527  0.3431
 5458SOL    HW128010   2.634   1.748   5.033 -0.4359  0.5465  0.3695
 5458SOL    HW228011   2.715   1.783   4.915  0.6448 -0.1843  0.7049
 5459SOL     OW28012   2.454   1.008  15.827  0.1177 -0.5991  0.0184
 5459SOL    HW128013   2.366   1.035  15.800  1.3604 -0.0779 -3.5959
 5459SOL    HW228014   2.511   1.003  15.750 -0.3161  1.4786 -0.4419
 5460SOL     OW28015   0.947   3.421  12.071 -0.0051  0.0110  0.1387
 5460SOL    HW128016   0.972   3.374  12.151 -0.8315 -2.5297 -1.0997
 5460SOL    HW228017   0.979   3.505  12.103 -1.3856  0.6034 -0.0254
 5461SOL     OW28018   4.211   4.439   5.627 -0.6795  0.3703  0.0937
 5461SOL    HW128019   4.265   4.369   5.663 -2.0964 -0.0597  1.3682
 5461SOL    HW228020   4.123   4.401   5.633 -0.5354 -0.0854 -0.6107
 5462SOL     OW28021   1.211   4.157   6.935 -0.4256 -0.2117  0.1245
 5462SOL    HW128022   1.216   4.071   6.895 -1.9900  1.5353 -3.8419
 5462SOL    HW228023   1.186   4.125   7.021 -0.8258  0.4521  0.2584
 5463SOL     OW28024   1.411   0.138   6.078 -0.1030  0.3904  0.4963
 5463SOL    HW128025   1.502   0.121   6.056 -0.0495  2.4921 -0.9122
 5463SOL    HW228026   1.428   0.224   6.114  0.4793  1.2814 -1.8698
 5464SOL     OW28027   0.978   3.782   4.042 -0.0050  0.5910  0.0395
 5464SOL    HW128028   0.977   3.830   3.959 -0.5539 -0.1189 -0.3617
 5464SOL    HW228029   0.892   3.813   4.073 -0.1563 -1.1479  1.3428
 5465SOL     OW28030   4.669   3.080   5.341  0.4045  0.3643 -0.1373
 5465SOL    HW128031   4.725   3.072   5.264 -1.7508 -0.3926 -1.6231
 5465SOL    HW228032   4.686   3.003   5.396 -2.3905  0.4023  0.7858
 5466SOL     OW28033   2.273   4.124   8.376 -0.2303  0.1517 -0.2919
 5466SOL    HW128034   2.268   4.087   8.464  4.0294 -1.0026 -0.5297
 5466SOL    HW228035   2.368   4.118   8.363 -0.0432 -1.0247  1.6859
 5467SOL     OW28036   4.247   1.319   4.098 -0.1252  0.6802  0.3365
 5467SOL    HW128037   4.161   1.288   4.129  0.4243  1.3523  2.5320
 5467SOL    HW228038   4.239   1.406   4.138  0.4656  1.0385 -0.3397
 5468SOL     OW28039   2.813   2.363   1.320 -0.3219 -0.3289 -0.2952
 5468SOL    HW128040   2.720   2.368   1.344 -0.4398 -3.1013 -0.2386
 5468SOL    HW228041   2.847   2.452   1.331 -1.7670  0.4181 -1.8493
 5469SOL     OW28042   0.282   3.386   1.138 -0.4095 -0.0782  0.6152
 5469SOL    HW128043   0.364   3.421   1.173 -0.2898  1.1265 -0.8546
 5469SOL    HW228044   0.217   3.434   1.189 -0.1497 -0.6560  1.4945
 5470SOL     OW28045   2.802   3.587   8.472  0.4249  0.3323  0.1031
 5470SOL    HW128046   2.860   3.619   8.541 -0.0604 -0.2097  0.7643
 5470SOL    HW228047   2.867   3.534   8.425  0.8248 -0.9051  2.0547
 5471SOL     OW28048   0.248   4.705   2.737 -0.0987 -0.1516 -0.9111
 5471SOL    HW128049   0.210   4.618   2.725 -1.5962  0.1905  1.2002
 5471SOL    HW228050   0.299   4.723   2.658  0.3453 -0.3901 -0.6792
 5472SOL     OW28051   0.492   0.987  17.437  0.7495  0.1696  0.5782
 5472SOL    HW128052   0.554   1.023  17.374 -0.5083  0.6625 -0.3615
 5472SOL    HW228053   0.525   0.897  17.441 -1.2088 -0.6481 -1.8000
 5473SOL     OW28054   1.334   2.196  11.592 -0.3350 -0.4022  0.1748
 5473SOL    HW128055   1.409   2.210  11.534 -0.1253  1.3949  0.8803
 5473SOL    HW228056   1.335   2.260  11.664 -1.3013  1.9915 -1.9335
 5474SOL     OW28057   2.489   1.719  11.610 -0.2481  0.6181  0.2977
 5474SOL    HW128058   2.487   1.754  11.521 -1.6851  1.8498  0.8039
 5474SOL    HW228059   2.394   1.710  11.623 -0.3808  1.2014 -0.2441
 5475SOL     OW28060   2.498   4.724   8.308  0.1200  0.4079 -0.1867
 5475SOL    HW128061   2.588   0.017   8.322 -0.6400  1.7128  1.7649
 5475SOL    HW228062   2.523   4.659   8.243 -0.0417 -1.3559  1.5274
 5476SOL     OW28063   1.172   3.622  10.369  0.1282 -0.2280 -0.8332
 5476SOL    HW128064   1.085   3.620  10.329 -0.7874 -0.2690  1.1894
 5476SOL    HW228065   1.191   3.529  10.385  0.1860 -0.1638 -0.5427
 5477SOL     OW28066   0.973   1.886   6.650  0.3397 -0.0159  0.6611
 5477SOL    HW128067   0.907   1.838   6.600  0.8870 -0.3968  0.3000
 5477SOL    HW228068   1.049   1.828   6.646  0.2695 -0.0902  0.3886
 5478SOL     OW28069   3.019   0.315   4.288  0.2485  0.2587 -0.4310
 5478SOL    HW128070   2.931   0.285   4.309  0.1728  1.2729  0.7685
 5478SOL    HW228071   3.008   0.410   4.276 -0.1883  0.0432 -1.6981
 5479SOL     OW28072   2.654   0.706  12.320  0.0906 -0.1950 -0.1752
 5479SOL    HW128073   2.596   0.779  12.338 -1.1133 -1.3834  0.7855
 5479SOL    HW228074   2.642   0.695  12.226 -1.5295 -2.0883  0.2411
 5480SOL     OW28075   0.681   1.864   4.528  0.5320 -0.0916  0.6148
 5480SOL    HW128076   0.604   1.920   4.534 -0.2381 -1.2489  1.4451
 5480SOL    HW228077   0.634   1.781   4.521 -1.1911  0.9076  0.3536
 5481SOL     OW28078   3.593   1.893  10.146 -0.1632  0.0336 -0.1490
 5481SOL    HW128079   3.661   1.897  10.213 -0.3275 -1.4265  0.1059
 5481SOL    HW228080   3.544   1.813  10.165 -1.2504  0.7225 -0.1224
 5482SOL     OW28081   2.530   0.698  11.819  0.3933  0.0159  0.8492
 5482SOL    HW128082   2.484   0.768  11.773 -1.3159 -0.6529  1.5288
 5482SOL    HW228083   2.469   0.625  11.812 -1.0908  1.2758  0.6627
 5483SOL     OW28084   3.259   2.750   3.678  0.1350 -0.0787 -0.5067
 5483SOL    HW128085   3.226   2.682   3.737 -2.4177 -1.1860 -3.2041
 5483SOL    HW228086   3.309   2.692   3.621  2.2548  1.0504  0.2165
 5484SOL     OW28087   4.467   0.083  14.307  0.2333 -0.1029 -0.0266
 5484SOL    HW128088   4.438   0.157  14.359 -0.8858 -1.8247  1.7938
 5484SOL    HW228089   4.445   0.016  14.371 -0.6286 -1.5177 -1.7809
 5485SOL     OW28090   0.373   4.612   5.439  0.0638  0.1252  0.6771
 5485SOL    HW128091   0.286   4.616   5.399  0.7476  0.7873 -0.7704
 5485SOL    HW228092   0.372   4.695   5.486  2.7080 -0.9545  2.6263
 5486SOL     OW28093   1.347   3.809   3.849 -0.3872 -0.0213 -0.5373
 5486SOL    HW128094   1.368   3.902   3.837 -1.3769  0.1645 -0.9046
 5486SOL    HW228095   1.435   3.774   3.839 -1.0265 -1.4481 -1.1855
 5487SOL     OW28096   2.151   3.740   2.877 -0.2529  0.0470 -0.0376
 5487SOL    HW128097   2.238   3.727   2.837 -0.0084  0.5029  0.3517
 5487SOL    HW228098   2.146   3.672   2.944  0.7761  1.5330  1.5598
 5488SOL     OW28099   0.557   1.499   1.778  0.2025 -0.5137 -0.7957
 5488SOL    HW128100   0.536   1.513   1.870 -0.3851  0.7957 -1.1235
 5488SOL    HW228101   0.607   1.580   1.765  1.9534 -1.4625  0.0595
 5489SOL     OW28102   4.265   0.959  12.083 -0.3929 -0.1294 -0.1116
 5489SOL    HW128103   4.218   1.042  12.089 -0.3828  0.0294 -2.1041
 5489SOL    HW228104   4.304   0.965  11.995 -1.5025  0.8011 -0.5446
 5490SOL     OW28105   3.676   1.763   5.108 -0.5816 -0.3660  0.1769
 5490SOL    HW128106   3.728   1.773   5.188 -0.3122  0.2271 -0.0757
 5490SOL    HW228107   3.618   1.839   5.109  0.0540  0.1295 -1.2909
 5491SOL     OW28108   1.160   0.552   3.335  0.1752 -0.2310  0.1222
 5491SOL    HW128109   1.237   0.495   3.333  1.6072  1.7978 -2.2090
 5491SOL    HW228110   1.114   0.506   3.265  0.8669 -1.7546  0.6672
 5492SOL     OW28111   0.011   3.173   7.146 -0.3578 -0.5277 -0.1647
 5492SOL    HW128112   0.024   3.258   7.104  0.1954 -0.8350 -0.6240
 5492SOL    HW228113   0.100   3.140   7.161 -0.1417 -0.1587 -0.6516
 5493SOL     OW28114   4.082   3.615   8.740  0.1083  0.1693 -0.6119
 5493SOL    HW128115   4.085   3.700   8.784 -1.9529  0.2424 -0.5912
 5493SOL    HW228116   4.167   3.580   8.767  0.3121  1.8319  0.9396
 5494SOL     OW28117   1.828   1.008   6.754  0.6834 -0.3927 -0.0875
 5494SOL    HW128118   1.888   0.991   6.681 -0.5450  3.3696 -1.9888
 5494SOL    HW228119   1.759   0.944   6.737  0.7603 -0.8876  1.4284
 5495SOL     OW28120   1.595   2.782   3.427  0.3060 -0.6390  0.3096
 5495SOL    HW128121   1.565   2.692   3.411  0.0542 -0.6837  1.0096
 5495SOL    HW228122   1.629   2.811   3.343 -0.1574  0.1286  0.3906
 5496SOL     OW28123   3.629   0.552  11.436  0.1500 -0.6176  0.3081
 5496SOL    HW128124   3.692   0.525  11.369 -0.3680  1.0771 -0.8828
 5496SOL    HW228125   3.694   0.560  11.506  1.2756 -0.0840 -0.8089
 5497SOL     OW28126   2.492   0.625  13.106  0.1606 -0.9220  0.6433
 5497SOL    HW128127   2.416   0.658  13.154  0.2308  0.3423 -0.0938
 5497SOL    HW228128   2.448   0.559  13.053  3.2506  0.2964 -3.4346
 5498SOL     OW28129   2.785   0.567   6.603  0.5193  0.2710 -0.2114
 5498SOL    HW128130   2.848   0.506   6.641  1.3124 -0.7246 -3.1451
 5498SOL    HW228131   2.781   0.631   6.675 -1.8864 -0.3827  0.2315
 5499SOL     OW28132   4.229   0.732   1.417 -0.1338 -0.1807 -0.2364
 5499SOL    HW128133   4.172   0.670   1.463 -1.2675  1.7047  0.9344
 5499SOL    HW228134   4.275   0.674   1.357  2.2266 -1.7172  3.0884
 5500SOL     OW28135   2.916   4.584   6.615  0.2627  0.3907  0.0167
 5500SOL    HW128136   2.871   4.601   6.697  0.4374  1.4742 -0.1116
 5500SOL    HW228137   2.901   4.490   6.628 -1.6606  0.6956  0.0841
 5501SOL     OW28138   0.220   4.092  15.526 -0.4077  0.2454 -0.1778
 5501SOL    HW128139   0.281   4.088  15.453 -1.0197 -2.8713 -0.5315
 5501SOL    HW228140   0.190   4.001  15.523  0.7257 -0.1121 -0.8143
 5502SOL     OW28141   3.395   0.301   9.005  0.0622 -0.2089 -0.1434
 5502SOL    HW128142   3.330   0.364   9.036  0.3727 -0.1002  0.2931
 5502SOL    HW228143   3.448   0.292   9.085  1.0074 -0.7780 -0.8258
 5503SOL     OW28144   3.701   2.612   4.158  0.0525 -0.4069 -0.5604
 5503SOL    HW128145   3.792   2.612   4.127  1.1306 -1.2510  2.6088
 5503SOL    HW228146   3.672   2.527   4.123  2.8876 -0.7168 -2.1701
 5504SOL     OW28147   3.903   1.861   5.451  0.2485 -0.1299  0.1839
 5504SOL    HW128148   3.968   1.792   5.462 -0.5653 -0.9616 -0.1898
 5504SOL    HW228149   3.826   1.818   5.487 -0.6164 -1.4966 -3.3438
 5505SOL     OW28150   2.748   0.719   6.348  0.5696  0.0753 -0.5735
 5505SOL    HW128151   2.764   0.637   6.395  0.0530  0.6189  0.5472
 5505SOL    HW228152   2.833   0.763   6.351  1.0933 -0.9161 -0.8502
 5506SOL     OW28153   2.545   3.979   7.029  0.9503 -0.8675 -0.2258
 5506SOL    HW128154   2.623   4.015   7.071  0.9828 -1.5507  0.3035
 5506SOL    HW228155   2.568   3.889   7.054 -0.9385 -0.5289  2.7337
 5507SOL     OW28156   0.933   4.137   2.231  0.2222 -0.2162  0.0164
 5507SOL    HW128157   0.893   4.119   2.146  0.8781  1.1846 -0.5664
 5507SOL    HW228158   0.860   4.172   2.283 -0.6226 -1.1305 -0.5342
 5508SOL     OW28159   4.209   2.904   3.232  0.1542  0.0149  0.6437
 5508SOL    HW128160   4.210   2.999   3.241 -2.4471  0.1139 -0.2018
 5508SOL    HW228161   4.300   2.883   3.211  0.1161  0.2310  0.2621
 5509SOL     OW28162   2.678   3.919  17.476 -0.0869  0.4198 -0.1164
 5509SOL    HW128163   2.622   3.854  17.520  2.6365 -1.9142 -0.1213
 5509SOL    HW228164   2.656   4.005  17.511  3.0404  2.2850 -2.7461
 5510SOL     OW28165   2.300   1.477   0.834  1.0808  0.4998  0.0457
 5510SOL    HW128166   2.360   1.406   0.814 -1.6130 -1.9830  0.7922
 5510SOL    HW228167   2.282   1.449   0.924  0.4329 -0.3678 -0.3613
 5511SOL     OW28168   0.070   1.595   2.947 -0.2130 -0.0493  0.2124
 5511SOL    HW128169   0.107   1.508   2.962 -0.3738  0.1454  1.7536
 5511SOL    HW228170   0.001   1.566   2.888  1.6760 -1.6086 -1.2547
 5512SOL     OW28171   3.318   1.773   4.784  0.4790 -0.3011 -0.1032
 5512SOL    HW128172   3.284   1.728   4.862  1.2871 -0.2990  0.2446
 5512SOL    HW228173   3.263   1.852   4.785  0.9983  0.0364  1.7185
 5513SOL     OW28174   1.909   3.030   4.822 -0.1952  0.1988  0.0880
 5513SOL    HW128175   1.862   2.977   4.886 -0.9150  0.8727  0.1171
 5513SOL    HW228176   1.905   2.972   4.745  0.0171  1.4814 -0.8964
 5514SOL     OW28177   0.339   1.328  12.698  0.0126  0.1505 -0.0507
 5514SOL    HW128178   0.260   1.336  12.645 -0.8876 -3.4039  0.7134
 5514SOL    HW228179   0.384   1.263  12.644 -1.5329  0.1706 -1.3436
 5515SOL     OW28180   0.512   0.460   4.735  0.3459 -0.2803 -0.2591
 5515SOL    HW128181   0.569   0.503   4.671  0.6960  0.7946  0.7770
 5515SOL    HW228182   0.450   0.421   4.675 -0.8474  1.6254 -0.2633
 5516SOL     OW28183   0.120   3.080   1.914  0.2427  0.2021 -0.3621
 5516SOL    HW128184   0.026   3.061   1.911  0.0743  0.7600  1.8520
 5516SOL    HW228185   0.140   3.104   1.823 -2.6047  1.1960 -0.7565
 5517SOL     OW28186   3.248   0.724   8.483 -0.2982 -0.1644  0.4376
 5517SOL    HW128187   3.247   0.699   8.575  0.3255  1.1377  0.7990
 5517SOL    HW228188   3.208   0.654   8.431 -1.6065  0.8152  0.1046
 5518SOL     OW28189   3.989   3.374   4.008  0.0489  0.0200  0.5373
 5518SOL    HW128190   3.992   3.462   4.045  2.6792 -0.7629  2.1988
 5518SOL    HW228191   3.942   3.328   4.077  0.4659  0.2740  0.9951
 5519SOL     OW28192   2.719   0.427  15.916  0.5590 -0.1506  0.0917
 5519SOL    HW128193   2.798   0.408  15.864 -0.4181 -4.3359  0.1789
 5519SOL    HW228194   2.650   0.416  15.851 -2.2933  0.8411  3.0091
 5520SOL     OW28195   0.591   3.333   7.709 -0.2527 -0.0923 -0.4376
 5520SOL    HW128196   0.646   3.255   7.718 -0.1436 -0.1136 -1.2395
 5520SOL    HW228197   0.547   3.316   7.626 -1.3865 -1.1717  0.3901
 5521SOL     OW28198   2.090   2.607  10.858  0.4674  0.1680 -0.2843
 5521SOL    HW128199   2.127   2.593  10.945 -0.7655  0.0140  0.2017
 5521SOL    HW228200   2.054   2.695  10.869  0.5642  0.3776 -1.6066
 5522SOL     OW28201   0.509   0.722  17.367  0.0131 -0.1559 -0.2132
 5522SOL    HW128202   0.585   0.709  17.310  0.3280  2.5063 -0.4005
 5522SOL    HW228203   0.444   0.665  17.327 -0.4639  0.7420 -0.7101
 5523SOL     OW28204   2.245   1.193   6.827  0.0295  0.3613 -0.0475
 5523SOL    HW128205   2.214   1.153   6.745 -1.6183 -1.7141  1.5947
 5523SOL    HW228206   2.188   1.269   6.819  0.2422  0.4703 -0.5203
 5524SOL     OW28207   3.827   0.519   3.597 -0.0790  0.3454 -0.8963
 5524SOL    HW128208   3.805   0.522   3.504 -1.4558 -2.9732 -0.6743
 5524SOL    HW228209   3.770   0.588   3.632 -2.4967 -1.3144 -1.5486
 5525SOL     OW28210   1.300   1.239   7.253 -0.5829  0.0651  0.1922
 5525SOL    HW128211   1.345   1.161   7.220 -3.6672 -1.7807  0.4217
 5525SOL    HW228212   1.379   1.293   7.255 -0.3226 -0.2608 -1.2979
 5526SOL     OW28213   0.678   3.255   5.166  0.1418  0.4099 -0.0172
 5526SOL    HW128214   0.660   3.172   5.122  1.3040 -0.2983  0.8423
 5526SOL    HW228215   0.643   3.308   5.094  0.9308  0.3360 -0.4448
 5527SOL     OW28216   3.926   2.989  16.635 -0.0956  0.3771 -0.0867
 5527SOL    HW128217   3.879   3.065  16.601 -0.4515  1.4933  2.9064
 5527SOL    HW228218   3.854   2.935  16.666 -0.6090  1.0057 -0.1922
 5528SOL     OW28219   4.643   4.274   2.659 -0.3129 -0.4993 -0.3674
 5528SOL    HW128220   4.564   4.318   2.690 -0.2591  0.5186 -1.6818
 5528SOL    HW228221   4.615   4.182   2.662 -0.6199 -0.3487  1.9949
 5529SOL     OW28222   4.188   1.485   1.856 -0.3339 -0.1107 -0.1890
 5529SOL    HW128223   4.180   1.578   1.877  0.2016 -0.2704  0.7150
 5529SOL    HW228224   4.280   1.467   1.872 -0.6818 -0.5810  1.3076
 5530SOL     OW28225   0.827   2.303   9.937 -0.0095  0.4290  0.0406
 5530SOL    HW128226   0.776   2.275   9.860  1.2935 -0.4904 -0.4997
 5530SOL    HW228227   0.826   2.398   9.925  1.3818  0.7559  2.5753
 5531SOL     OW28228   0.885   2.447   2.271 -0.2155 -0.1978 -0.3426
 5531SOL    HW128229   0.805   2.493   2.293 -0.8417 -1.4800  0.0916
 5531SOL    HW228230   0.895   2.376   2.335  1.7307  0.4440  0.0777
 5532SOL     OW28231   2.289   3.673   3.951 -0.2664 -0.3512 -0.1107
 5532SOL    HW128232   2.262   3.598   4.003  1.0203 -0.3996  0.4880
 5532SOL    HW228233   2.357   3.718   4.002  1.4510 -0.8720 -1.9643
 5533SOL     OW28234   4.249   4.534   3.792  0.0677 -0.2482  0.1334
 5533SOL    HW128235   4.265   4.628   3.783 -0.4074  0.0729  2.4846
 5533SOL    HW228236   4.327   4.500   3.748  1.0566  2.1875 -0.0476
 5534SOL     OW28237   4.201   2.861   7.722  0.0096  0.1299 -0.1668
 5534SOL    HW128238   4.250   2.916   7.783 -0.0817 -1.0034  0.9370
 5534SOL    HW228239   4.148   2.926   7.677  0.8717  0.3337 -0.8798
 5535SOL     OW28240   2.485   3.589  10.757 -0.0425 -0.5691  0.0187
 5535SOL    HW128241   2.499   3.624  10.845 -0.2692  1.2448 -0.6583
 5535SOL    HW228242   2.406   3.639  10.737  0.2522 -0.6267 -1.2785
 5536SOL     OW28243   1.733   2.645  15.425  0.4741  0.3944  0.2612
 5536SOL    HW128244   1.757   2.719  15.479  0.5134  0.0570  0.7060
 5536SOL    HW228245   1.708   2.582  15.493 -0.9078 -0.5946 -1.1451
 5537SOL     OW28246   1.394   2.976   3.507  0.6085 -0.4026  0.2290
 5537SOL    HW128247   1.404   3.026   3.426  0.2097 -1.8101 -0.6942
 5537SOL    HW228248   1.455   2.905   3.485  1.3990  0.4113 -0.2198
 5538SOL     OW28249   3.563   3.065   2.210  0.3672  0.2038  0.0211
 5538SOL    HW128250   3.658   3.075   2.200  0.3569 -1.7187 -1.8686
 5538SOL    HW228251   3.533   3.047   2.121  2.5613 -0.7960 -0.5152
 5539SOL     OW28252   0.990   0.490   3.546  0.9347  0.4446 -0.5951
 5539SOL    HW128253   1.023   0.405   3.519 -1.4338 -0.4451 -0.6640
 5539SOL    HW228254   1.024   0.536   3.469  1.2173  1.6630  0.2485
 5540SOL     OW28255   4.089   0.771   0.538 -0.2330  0.6347 -0.0159
 5540SOL    HW128256   4.101   0.748   0.630 -3.2433 -0.4068  0.1211
 5540SOL    HW228257   4.160   0.721   0.496  1.1258  1.0666  1.7965
 5541SOL     OW28258   3.428   3.953  15.344 -0.4377 -0.2882  0.6266
 5541SOL    HW128259   3.353   3.984  15.294  1.7757  0.0267 -2.5277
 5541SOL    HW228260   3.486   4.026  15.324 -1.1693  0.8008  2.4162
 5542SOL     OW28261   3.265   3.625   4.600 -0.0224  0.5627 -0.2337
 5542SOL    HW128262   3.238   3.534   4.612 -0.4194  0.5163 -1.4840
 5542SOL    HW228263   3.357   3.599   4.602  0.1147  0.8906 -1.6645
 5543SOL     OW28264   1.403   2.792   7.371 -0.2365  0.5914  0.5272
 5543SOL    HW128265   1.398   2.794   7.275  0.6787  0.2100  0.4649
 5543SOL    HW228266   1.466   2.864   7.379  0.0754  0.2228  1.2986
 5544SOL     OW28267   3.132   0.397   4.519 -0.1762 -0.1248 -0.1905
 5544SOL    HW128268   3.112   0.343   4.442  0.0691 -1.2506  0.5408
 5544SOL    HW228269   3.180   0.333   4.571  0.1540  1.1966  1.1166
 5545SOL     OW28270   4.491   2.345   4.620  0.4237  0.3031  0.0100
 5545SOL    HW128271   4.466   2.253   4.615  0.9009  0.1001  1.5472
 5545SOL    HW228272   4.564   2.343   4.681 -0.7195 -1.0366  1.3377
 5546SOL     OW28273   1.512   4.449   0.443 -0.1517 -0.2882  0.3850
 5546SOL    HW128274   1.520   4.529   0.495 -1.6788  0.2311 -0.1730
 5546SOL    HW228275   1.447   4.400   0.493 -0.2494  0.6333  1.1439
 5547SOL     OW28276   2.664   4.012   2.631 -0.3540 -0.3216 -0.1079
 5547SOL    HW128277   2.754   4.013   2.664 -0.8786 -0.1617  1.3179
 5547SOL    HW228278   2.624   4.035   2.715  0.9589 -0.6797  0.6082
 5548SOL     OW28279   1.306   4.673  13.895 -0.0483  0.2048 -0.6221
 5548SOL    HW128280   1.389   4.655  13.941 -0.3839  2.7859  1.0116
 5548SOL    HW228281   1.259   4.723  13.962  0.2905 -1.6827  1.0428
 5549SOL     OW28282   2.318   2.440   9.946 -0.1524  0.5805 -0.2468
 5549SOL    HW128283   2.323   2.344   9.940 -1.6712  0.4114  1.1425
 5549SOL    HW228284   2.287   2.462   9.859  1.0641 -0.7358 -1.0182
 5550SOL     OW28285   3.031   2.802   5.193 -0.2192  0.5082  0.6884
 5550SOL    HW128286   2.961   2.857   5.229 -2.7008 -1.2408 -1.4486
 5550SOL    HW228287   2.991   2.716   5.204 -0.7520  0.8471  1.3832
 5551SOL     OW28288   0.995   0.582   2.484  0.1480 -0.0882  0.5136
 5551SOL    HW128289   0.988   0.527   2.407 -1.2288 -0.6262  1.0113
 5551SOL    HW228290   1.088   0.572   2.504  0.1009 -1.1147  0.2004
 5552SOL     OW28291   4.423   4.347   4.507 -0.4833  0.6160  0.1746
 5552SOL    HW128292   4.489   4.305   4.451 -1.1876 -0.3541  0.0698
 5552SOL    HW228293   4.348   4.336   4.449 -0.3453  0.2758  0.0607
 5553SOL     OW28294   0.664   0.723   1.943 -0.3498  1.0142  0.2095
 5553SOL    HW128295   0.640   0.784   1.873 -0.9729  1.4555  0.8144
 5553SOL    HW228296   0.577   0.709   1.979  0.3274 -1.2974  0.9543
 5554SOL     OW28297   3.192   2.822   8.369 -0.2145  0.1775  0.1766
 5554SOL    HW128298   3.220   2.779   8.288 -0.8416  0.1648 -0.0327
 5554SOL    HW228299   3.236   2.765   8.432  0.9288  0.5523 -0.2950
 5555SOL     OW28300   3.720   4.563   2.372  0.2583  0.1032  0.1084
 5555SOL    HW128301   3.763   4.485   2.407  1.2889  0.2450 -0.8129
 5555SOL    HW228302   3.628   4.536   2.378  0.6779 -1.5609 -0.9005
 5556SOL     OW28303   1.192   0.855   7.559  0.5651 -0.0624 -0.4811
 5556SOL    HW128304   1.170   0.805   7.638  0.8899  1.0368  0.2910
 5556SOL    HW228305   1.183   0.782   7.498 -1.6264  0.9456 -1.3494
 5557SOL     OW28306   1.044   3.623   6.932  0.1594  0.5167 -0.5270
 5557SOL    HW128307   1.088   3.539   6.947 -0.9951  0.0466  0.1567
 5557SOL    HW228308   0.960   3.599   6.893  0.2415  0.1914 -0.5027
 5558SOL     OW28309   2.141   0.688   8.879  0.0661  0.0723 -0.3944
 5558SOL    HW128310   2.058   0.651   8.907  0.8978 -2.4716 -1.2840
 5558SOL    HW228311   2.135   0.689   8.783 -1.4934 -0.6647 -0.3028
 5559SOL     OW28312   1.825   2.414   3.932 -0.0237 -0.1875  0.3920
 5559SOL    HW128313   1.842   2.320   3.929  0.4879 -0.1583  2.1051
 5559SOL    HW228314   1.891   2.432   3.866 -1.7844  0.5925 -1.1312
 5560SOL     OW28315   1.707   0.717   8.541 -0.0857  0.4265 -0.2295
 5560SOL    HW128316   1.766   0.728   8.616  1.5960  0.4109 -1.5437
 5560SOL    HW228317   1.676   0.626   8.543  0.7296  0.1245 -1.0019
 5561SOL     OW28318   3.458   3.102   5.035  0.1865 -0.0762  0.3619
 5561SOL    HW128319   3.493   3.070   4.952 -0.1429  0.3981  0.0424
 5561SOL    HW228320   3.537   3.143   5.072  1.4983 -0.2535 -2.2569
 5562SOL     OW28321   4.276   2.302   2.403  0.2041 -0.3077 -0.4362
 5562SOL    HW128322   4.215   2.344   2.343  0.4734 -2.0907 -1.9751
 5562SOL    HW228323   4.290   2.229   2.342  0.9932 -0.8022  0.3417
 5563SOL     OW28324   1.954   1.440  10.458 -0.0275  0.5016 -0.2921
 5563SOL    HW128325   1.869   1.417  10.496 -0.4322  0.8102 -1.0179
 5563SOL    HW228326   1.923   1.477  10.376 -0.3882  1.4137  0.2640
 5564SOL     OW28327   1.589   2.363  11.984  0.3745 -0.3713 -0.0760
 5564SOL    HW128328   1.666   2.348  11.929  0.7822  1.6995 -0.0686
 5564SOL    HW228329   1.572   2.456  11.972 -0.7936 -0.2423  2.6371
 5565SOL     OW28330   0.162   0.507   7.339 -0.3599 -0.5222 -0.2729
 5565SOL    HW128331   0.216   0.567   7.287 -0.6625  0.1218  0.1631
 5565SOL    HW228332   0.158   0.554   7.422  0.1299 -1.5326  0.3117
 5566SOL     OW28333   4.476   0.155   7.936  0.0472 -0.2157  0.1594
 5566SOL    HW128334   4.492   0.068   7.899 -0.4770  0.8055 -2.5078
 5566SOL    HW228335   4.472   0.142   8.030 -1.3937 -1.4505 -0.0662
 5567SOL     OW28336   4.653   3.605  16.196  0.2631 -0.2400 -0.2520
 5567SOL    HW128337   4.622   3.517  16.218  1.2342 -0.2218  1.1442
 5567SOL    HW228338   4.663   3.651  16.279  0.7370 -1.6271  0.4475
 5568SOL     OW28339   4.309   4.552  15.524  0.1052  0.1920  0.5045
 5568SOL    HW128340   4.386   4.596  15.559  0.5597 -0.1669 -0.0424
 5568SOL    HW228341   4.340   4.461  15.523 -1.8550 -0.4847  1.9907
 5569SOL     OW28342   3.425   3.338   2.202 -0.3728  0.3030 -0.4782
 5569SOL    HW128343   3.346   3.342   2.149 -0.9300 -1.4089  0.2268
 5569SOL    HW228344   3.482   3.293   2.140 -0.9456  0.6153 -1.2209
 5570SOL     OW28345   1.481   1.286   6.574 -0.4882  0.8548  0.0545
 5570SOL    HW128346   1.395   1.253   6.546 -0.5176 -1.3220  2.6600
 5570SOL    HW228347   1.492   1.238   6.656 -0.0068 -1.3699 -1.3002
 5571SOL     OW28348   0.233   0.822   8.964 -0.3973  0.1997 -0.6622
 5571SOL    HW128349   0.181   0.892   8.925 -1.7009 -0.1136  0.5219
 5571SOL    HW228350   0.177   0.745   8.959 -0.0386  0.0597 -2.5765
 5572SOL     OW28351   0.692   1.496   8.016  0.0534  0.2869 -0.3302
 5572SOL    HW128352   0.626   1.504   7.947  1.8240  2.8376 -1.7229
 5572SOL    HW228353   0.684   1.583   8.053  0.4995 -0.2050  0.9216
 5573SOL     OW28354   2.972   2.820   4.373 -0.2452  0.1102 -0.3455
 5573SOL    HW128355   3.064   2.801   4.393 -0.5807  2.8691  3.7455
 5573SOL    HW228356   2.919   2.835   4.451  0.9899 -0.6852  0.6659
 5574SOL     OW28357   2.161   1.180   5.743 -0.1390  0.1326  0.6306
 5574SOL    HW128358   2.241   1.172   5.690 -0.4460 -0.5007  0.2712
 5574SOL    HW228359   2.111   1.237   5.684  0.5195  0.4737  0.3954
 5575SOL     OW28360   1.595   3.291   7.574  0.2765  0.5091 -0.5843
 5575SOL    HW128361   1.505   3.265   7.593  0.6038  1.6592  2.5731
 5575SOL    HW228362   1.585   3.386   7.569  1.4102  0.6346 -0.4949
 5576SOL     OW28363   1.393   4.075   8.552 -0.0904 -0.3766 -0.5336
 5576SOL    HW128364   1.333   4.150   8.548  1.4362  0.9033  0.3934
 5576SOL    HW228365   1.374   4.047   8.641  1.3779  0.9948  0.2221
 5577SOL     OW28366   3.104   0.817   2.696 -0.1176 -0.8312  0.1765
 5577SOL    HW128367   3.163   0.892   2.690 -0.0530 -0.9737 -1.0263
 5577SOL    HW228368   3.017   0.850   2.675  0.1015  1.3203  2.7440
 5578SOL     OW28369   3.452   3.284  15.816  0.3499  0.1118  0.3921
 5578SOL    HW128370   3.510   3.221  15.858  0.5849  1.7242  2.4684
 5578SOL    HW228371   3.372   3.232  15.824 -1.4703  3.1876  1.9995
 5579SOL     OW28372   4.232   2.777  16.327 -0.4767  0.5631  0.0289
 5579SOL    HW128373   4.164   2.843  16.326 -1.1437 -0.1117  0.9329
 5579SOL    HW228374   4.207   2.728  16.249 -1.6411 -0.5871  1.1243
 5580SOL     OW28375   1.103   1.394   7.969  0.1702 -0.9023 -0.2576
 5580SOL    HW128376   1.119   1.371   8.060  1.0930 -0.2966 -0.2668
 5580SOL    HW228377   1.191   1.413   7.938  0.4589  1.6494  2.1839
 5581SOL     OW28378   4.358   3.512   2.786  0.3475  0.3947 -0.1590
 5581SOL    HW128379   4.371   3.442   2.722 -0.5800 -2.5779  2.9711
 5581SOL    HW228380   4.276   3.493   2.832  0.2876  0.9469 -0.0297
 5582SOL     OW28381   2.534   2.819   2.047 -0.4018 -0.2796  1.4352
 5582SOL    HW128382   2.450   2.846   2.011  0.4456  1.7418  0.9541
 5582SOL    HW228383   2.583   2.899   2.066  1.6925 -0.5804 -2.6229
 5583SOL     OW28384   3.434   4.499   6.191  0.3472 -0.3879 -0.5122
 5583SOL    HW128385   3.518   4.461   6.167  0.8553  0.1783  0.3849
 5583SOL    HW228386   3.467   4.560   6.256 -0.3945  1.2839 -1.7186
 5584SOL     OW28387   0.503   0.972  10.129 -0.0372 -0.5519 -0.0674
 5584SOL    HW128388   0.548   1.042  10.083 -2.3593  1.0172  0.0442
 5584SOL    HW228389   0.547   0.898  10.085  1.4298 -0.4694  1.2810
 5585SOL     OW28390   3.071   0.333   7.545 -1.1046  0.3697 -0.8921
 5585SOL    HW128391   3.130   0.370   7.480 -1.2914  1.0315 -0.6861
 5585SOL    HW228392   3.049   0.250   7.503  1.5009 -0.6118 -0.2695
 5586SOL     OW28393   0.536   3.243   6.936 -0.1723  0.8392  0.2587
 5586SOL    HW128394   0.502   3.238   6.847 -0.3967  0.4047  0.3718
 5586SOL    HW228395   0.559   3.151   6.948 -0.3704  0.5621 -1.5400
 5587SOL     OW28396   3.912   4.581   4.502 -0.4739  0.2247 -0.1536
 5587SOL    HW128397   3.932   4.504   4.449 -0.7313  1.1496 -1.6091
 5587SOL    HW228398   3.973   4.585   4.576 -1.2147 -2.8612  0.6120
 5588SOL     OW28399   1.305   2.325  11.969  0.3886  0.0245 -0.4900
 5588SOL    HW128400   1.303   2.388  12.041  0.5087 -1.7209  1.0677
 5588SOL    HW228401   1.400   2.324  11.957  0.4586  1.3365 -0.0327
 5589SOL     OW28402   1.491   3.878  10.658 -0.2590  0.0862  0.0017
 5589SOL    HW128403   1.512   3.920  10.575  0.1131  0.0940  0.0971
 5589SOL    HW228404   1.412   3.832  10.630  0.4899 -2.1444  1.4901
 5590SOL     OW28405   2.669   4.538   8.114  0.5373 -0.1303 -0.1188
 5590SOL    HW128406   2.730   4.609   8.095  0.2176  0.3913  0.8067
 5590SOL    HW228407   2.729   4.476   8.154 -0.1861 -0.0640  1.0746
 5591SOL     OW28408   3.098   4.388   8.978  0.2632 -0.4131  0.1680
 5591SOL    HW128409   3.073   4.327   8.908 -0.9856 -0.2709  0.4905
 5591SOL    HW228410   3.073   4.476   8.949 -0.8105 -0.5953  0.5576
 5592SOL     OW28411   0.651   3.681   2.769 -0.0826 -0.8420  0.2578
 5592SOL    HW128412   0.584   3.741   2.737 -0.3729 -1.5511 -0.4469
 5592SOL    HW228413   0.594   3.617   2.811 -1.7337 -1.2114 -2.5905
 5593SOL     OW28414   0.053   3.505   6.792 -0.4753  0.0796  0.0749
 5593SOL    HW128415   0.049   3.593   6.756  0.0538  0.3855  0.7782
 5593SOL    HW228416   0.146   3.499   6.814 -0.2725 -0.0117 -0.8025
 5594SOL     OW28417   1.203   1.694   8.388 -0.3789  0.3446 -0.0271
 5594SOL    HW128418   1.154   1.643   8.323  0.0549 -0.5339  0.3231
 5594SOL    HW228419   1.289   1.673   8.352 -1.9527 -1.2876 -2.8310
 5595SOL     OW28420   0.686   2.096   6.591  0.5051 -0.2519  0.3633
 5595SOL    HW128421   0.711   2.007   6.617 -2.0577 -0.2739  2.7525
 5595SOL    HW228422   0.740   2.119   6.515  0.7090 -0.7995  0.3420
 5596SOL     OW28423   1.517   3.625  17.049  0.5142  0.1232  0.0678
 5596SOL    HW128424   1.585   3.634  16.983 -1.1479 -2.5241 -2.0179
 5596SOL    HW228425   1.469   3.545  17.026 -0.3477  0.6592  0.0046
 5597SOL     OW28426   3.492   4.643   9.136  0.3343  0.2429  0.3768
 5597SOL    HW128427   3.462   4.579   9.071  2.7387  0.1709 -0.6906
 5597SOL    HW228428   3.423   4.708   9.123 -0.2609 -0.6632 -1.0999
 5598SOL     OW28429   3.084   3.806   9.317 -0.4436 -0.8635  0.0104
 5598SOL    HW128430   3.053   3.854   9.394 -0.5173 -0.9200  0.0164
 5598SOL    HW228431   3.155   3.853   9.274 -0.6800 -0.8900 -0.4083
 5599SOL     OW28432   2.652   4.554  10.641  0.2169  0.2789  0.3789
 5599SOL    HW128433   2.704   4.626  10.675  1.0204  0.1182 -0.5069
 5599SOL    HW228434   2.703   4.518  10.568  0.3312 -1.1256  1.1573
 5600SOL     OW28435   0.094   3.533   8.041 -0.0112 -0.1270  0.1999
 5600SOL    HW128436   0.056   3.502   7.958  0.8595 -1.4447  0.2922
 5600SOL    HW228437   0.189   3.531   8.029  0.0244  2.1042  0.1851
 5601SOL     OW28438   0.033   2.762   6.391  0.4931  0.4876 -0.6664
 5601SOL    HW128439   0.043   2.761   6.486 -3.0892 -0.9092 -0.3323
 5601SOL    HW228440   0.062   2.850   6.366 -1.5695  1.4591  0.3667
 5602SOL     OW28441   4.603   0.349   5.166  0.6466  0.0010  0.5832
 5602SOL    HW128442   4.648   0.269   5.139 -2.2238 -1.9317  1.4108
 5602SOL    HW228443   4.641   0.409   5.102  1.3862 -0.3122  0.7272
 5603SOL     OW28444   4.219   1.726   9.637  0.1495 -0.5534  0.0435
 5603SOL    HW128445   4.233   1.698   9.546  1.5979  1.5548 -0.3798
 5603SOL    HW228446   4.142   1.780   9.626  0.3564 -0.3511 -0.4039
 5604SOL     OW28447   4.352   1.953  16.086 -0.0273  0.0106  0.2535
 5604SOL    HW128448   4.271   1.990  16.051 -0.3708  0.3406  1.3942
 5604SOL    HW228449   4.381   2.029  16.137  1.0005  1.0703 -1.9243
 5605SOL     OW28450   1.806   3.289   9.101  0.6081  0.8329 -0.0476
 5605SOL    HW128451   1.711   3.299   9.108  0.0266 -2.9615 -2.9464
 5605SOL    HW228452   1.805   3.233   9.024 -0.8895 -0.0700  0.6293
 5606SOL     OW28453   4.561   4.729  10.719  0.1523  0.4603  0.0344
 5606SOL    HW128454   4.576   4.639  10.690  0.6319 -0.0143  1.7345
 5606SOL    HW228455   4.492   4.710  10.782  0.0493 -1.5063 -0.6692
 5607SOL     OW28456   1.780   0.671   8.130  0.3046 -0.7597  0.1283
 5607SOL    HW128457   1.732   0.742   8.174  2.6472  0.8164  0.0991
 5607SOL    HW228458   1.824   0.720   8.061 -0.1932 -2.0024 -1.0761
 5608SOL     OW28459   2.999   2.286  10.923 -0.1669 -0.4447 -0.1723
 5608SOL    HW128460   2.929   2.338  10.962  0.2532 -0.7495  1.0009
 5608SOL    HW228461   3.055   2.290  11.001  1.0099 -0.2086 -1.0247
 5609SOL     OW28462   2.246   0.442   7.233 -0.8199  0.1889  0.9075
 5609SOL    HW128463   2.212   0.507   7.296 -1.0173  0.5112  0.4673
 5609SOL    HW228464   2.283   0.498   7.164  0.9993 -0.6487  1.1931
 5610SOL     OW28465   3.319   2.733   0.308 -0.2239  0.1431  0.2544
 5610SOL    HW128466   3.392   2.795   0.316 -1.0005  1.0588  0.1967
 5610SOL    HW228467   3.306   2.759   0.217  1.9086 -0.2515 -0.1603
 5611SOL     OW28468   2.531   4.460   2.621  0.0400  0.0267  0.1332
 5611SOL    HW128469   2.436   4.460   2.634  0.0715 -0.2150  0.3665
 5611SOL    HW228470   2.554   4.398   2.553  0.3118 -0.0318  0.2768
 5612SOL     OW28471   4.296   1.307   3.139  0.6522 -0.4131  0.0345
 5612SOL    HW128472   4.269   1.215   3.137 -1.5758  0.3065 -2.3585
 5612SOL    HW228473   4.386   1.307   3.107  0.9961  1.4109  1.0378
 5613SOL     OW28474   3.011   0.928   3.230 -0.0997  0.0890 -0.0620
 5613SOL    HW128475   2.984   1.019   3.244  1.3902  0.7125 -1.3222
 5613SOL    HW228476   2.935   0.890   3.186  0.2635  0.9513 -1.4243
 5614SOL     OW28477   0.331   4.503  12.777 -0.3867  0.0633  0.4127
 5614SOL    HW128478   0.247   4.538  12.745  0.4268  0.5851 -1.1704
 5614SOL    HW228479   0.396   4.553  12.728  0.4451  0.1363  1.5868
 5615SOL     OW28480   2.927   3.436   1.528 -0.5529 -0.0731 -0.5544
 5615SOL    HW128481   2.901   3.487   1.604  0.9024  1.2891 -0.9683
 5615SOL    HW228482   3.011   3.481   1.520 -0.6955  0.4120  0.6770
 5616SOL     OW28483   3.126   0.616  17.377 -0.0031 -0.4272  0.0790
 5616SOL    HW128484   3.060   0.605  17.308  0.3812 -3.0036  0.1088
 5616SOL    HW228485   3.065   0.642  17.445  0.8467 -0.0545  0.7005
 5617SOL     OW28486   0.515   3.096   3.014  0.5007  0.1516  0.1755
 5617SOL    HW128487   0.526   3.190   3.023  0.1954  0.4475 -2.4741
 5617SOL    HW228488   0.595   3.058   3.051  1.3350  2.2541  0.5330
 5618SOL     OW28489   0.586   4.695   5.227 -0.4821 -0.4731  0.5440
 5618SOL    HW128490   0.609   0.019   5.296  0.0623 -1.1949  1.0226
 5618SOL    HW228491   0.540   4.623   5.268 -0.7946 -0.2366  0.6073
 5619SOL     OW28492   4.679   0.945   5.695 -0.6293  0.4148  0.0303
 5619SOL    HW128493   4.609   1.007   5.713 -1.1183  0.3342 -1.5470
 5619SOL    HW228494   4.635   0.860   5.698 -0.9083  0.6023  1.2985
 5620SOL     OW28495   0.642   4.227   7.950 -0.5137  0.1147 -0.1111
 5620SOL    HW128496   0.564   4.257   7.997 -1.0955  0.0740 -1.0695
 5620SOL    HW228497   0.658   4.299   7.890  1.8898 -1.0187 -0.8314
 5621SOL     OW28498   3.319   2.509   5.042  0.2821 -0.0977  0.6016
 5621SOL    HW128499   3.259   2.580   5.019  1.1399 -0.2042 -1.9677
 5621SOL    HW228500   3.281   2.475   5.123 -0.7287 -0.7204 -0.1310
 5622SOL     OW28501   3.615   0.304   2.000 -0.5086  0.2664  0.3725
 5622SOL    HW128502   3.598   0.394   2.027  0.1373  0.5040  0.0121
 5622SOL    HW228503   3.576   0.300   1.912 -0.1170 -0.6879  0.2391
 5623SOL     OW28504   0.655   3.488  15.497 -0.5029 -0.1844 -0.0937
 5623SOL    HW128505   0.722   3.460  15.560  0.2248 -0.4165 -0.9802
 5623SOL    HW228506   0.576   3.498  15.551 -0.2526  0.1300  0.2164
 5624SOL     OW28507   3.519   1.470   6.309  0.1135 -0.3083 -0.1311
 5624SOL    HW128508   3.586   1.524   6.351  0.1186 -0.3259 -0.1166
 5624SOL    HW228509   3.478   1.535   6.252 -2.4496 -1.1127  0.8014
 5625SOL     OW28510   0.417   1.988   5.786 -0.6910 -0.1656 -1.1164
 5625SOL    HW128511   0.500   1.965   5.745 -0.3515 -2.3216  0.7870
 5625SOL    HW228512   0.390   2.061   5.730 -2.7534 -0.5695 -0.6583
 5626SOL     OW28513   1.198   3.209   2.212  0.2242  0.4753  0.1781
 5626SOL    HW128514   1.227   3.217   2.303  1.9990  0.7028 -0.3961
 5626SOL    HW228515   1.224   3.295   2.178  1.1134 -0.8260 -2.4693
 5627SOL     OW28516   3.527   0.662  14.514  0.1503  0.0356  0.2012
 5627SOL    HW128517   3.546   0.730  14.449 -1.1774 -1.7033 -2.0060
 5627SOL    HW228518   3.436   0.685  14.535 -0.2039  0.1096 -1.4302
 5628SOL     OW28519   3.236   0.611   3.437 -0.2810 -0.7728  0.2058
 5628SOL    HW128520   3.183   0.639   3.363  0.6774  1.6648  0.4396
 5628SOL    HW228521   3.189   0.529   3.452 -1.5696 -0.2054 -0.7923
 5629SOL     OW28522   3.041   2.788   3.454 -0.1179  0.0267 -0.9563
 5629SOL    HW128523   3.120   2.762   3.502  1.6090  0.7695 -3.4127
 5629SOL    HW228524   3.005   2.859   3.509  0.5696  1.1961 -2.0177
 5630SOL     OW28525   4.671   3.022   6.785  0.1420  0.0760  0.1687
 5630SOL    HW128526   4.666   3.012   6.880 -1.1010 -0.5866  0.0200
 5630SOL    HW228527   4.633   3.109   6.778 -0.6338 -0.4952 -2.8511
 5631SOL     OW28528   0.974   1.367  13.821  0.0195  0.2018  0.1073
 5631SOL    HW128529   0.913   1.393  13.752 -0.7312 -1.6168  0.0995
 5631SOL    HW228530   1.046   1.429  13.809 -0.2633  0.6792  0.8811
 5632SOL     OW28531   1.123   2.455   3.484 -0.8638 -0.1015 -0.2669
 5632SOL    HW128532   1.094   2.474   3.395  2.6291 -0.1580 -1.4106
 5632SOL    HW228533   1.171   2.373   3.470 -1.0177 -0.1471 -0.5248
 5633SOL     OW28534   0.755   3.428  16.832  0.0189 -0.5977  0.3761
 5633SOL    HW128535   0.719   3.401  16.917 -3.6410  0.5391 -0.8044
 5633SOL    HW228536   0.848   3.434  16.851  0.5292 -0.4065 -2.2996
 5634SOL     OW28537   0.728   4.508  17.510 -0.2286 -0.2689 -0.5260
 5634SOL    HW128538   0.822   4.510  17.491 -0.2103 -2.1421 -0.5977
 5634SOL    HW228539   0.704   4.600  17.518  0.3142 -0.1950  0.2602
 5635SOL     OW28540   1.825   3.368   0.184  0.7554  0.7320  0.0725
 5635SOL    HW128541   1.853   3.376   0.275 -0.9483 -0.8986  0.7455
 5635SOL    HW228542   1.851   3.278   0.163 -1.7829 -0.1966  0.9241
 5636SOL     OW28543   1.001   4.488   0.756  0.4657 -0.0658  0.1344
 5636SOL    HW128544   0.994   4.397   0.725  0.2520 -0.8338  2.4139
 5636SOL    HW228545   1.086   4.502   0.799  1.0155  0.0497 -1.0034
 5637SOL     OW28546   2.914   3.178  13.041 -0.4032  0.6581 -0.2610
 5637SOL    HW128547   2.993   3.182  13.095  0.2020  1.4600 -1.1951
 5637SOL    HW228548   2.908   3.086  13.014  0.3704  0.2562  0.9308
 5638SOL     OW28549   2.523   0.645  14.927 -0.2175 -0.1380  0.5950
 5638SOL    HW128550   2.586   0.692  14.981  0.0082 -0.6163  0.7441
 5638SOL    HW228551   2.537   0.694  14.846 -2.3643  0.9085  0.8478
 5639SOL     OW28552   1.257   3.116   7.239 -0.4454 -0.1520  0.0032
 5639SOL    HW128553   1.319   3.126   7.311 -0.6486  1.4106 -0.0513
 5639SOL    HW228554   1.220   3.203   7.227 -0.3618 -0.0855  0.2281
 5640SOL     OW28555   3.750   1.328   8.033 -0.4825  0.0827  0.2321
 5640SOL    HW128556   3.705   1.246   8.012  1.2285 -0.2172 -2.2779
 5640SOL    HW228557   3.740   1.327   8.129  0.4084  0.8657  0.3263
 5641SOL     OW28558   2.258   2.220   6.215 -0.4324  0.1477 -0.3030
 5641SOL    HW128559   2.249   2.256   6.127  1.6276  1.0365 -0.1697
 5641SOL    HW228560   2.236   2.127   6.207  2.2290 -0.4722 -0.4624
 5642SOL     OW28561   0.838   1.823   6.076  0.1436  0.2288  0.8762
 5642SOL    HW128562   0.833   1.860   5.988 -0.4225 -2.2095 -0.1168
 5642SOL    HW228563   0.914   1.767   6.059 -0.2657  0.0435 -0.3325
 5643SOL     OW28564   0.653   1.318   6.790  0.5187  0.1606 -0.7219
 5643SOL    HW128565   0.676   1.320   6.697  0.1303 -2.6059 -0.8756
 5643SOL    HW228566   0.740   1.282   6.808  0.0996 -0.7153 -0.4225
 5644SOL     OW28567   2.052   3.448   7.745 -0.7052  0.0617  0.3458
 5644SOL    HW128568   2.067   3.530   7.698 -0.5118 -0.0595  0.1987
 5644SOL    HW228569   2.136   3.436   7.790 -0.6030 -1.1543 -0.1675
 5645SOL     OW28570   2.348   4.457   3.549  0.3319  0.1830  0.5279
 5645SOL    HW128571   2.343   4.442   3.644  1.2329 -1.4842  0.3073
 5645SOL    HW228572   2.338   4.552   3.544 -0.7398 -0.0129 -0.8132
 5646SOL     OW28573   0.486   4.064  13.936 -0.3684  0.2137 -0.4713
 5646SOL    HW128574   0.516   3.974  13.948  2.3244  1.0548 -0.8700
 5646SOL    HW228575   0.559   4.122  13.915  1.2077 -0.9890  1.7183
 5647SOL     OW28576   3.704   1.178   8.308 -0.1283 -0.2177 -0.7044
 5647SOL    HW128577   3.681   1.219   8.391  0.0112 -1.1294 -0.2224
 5647SOL    HW228578   3.659   1.095   8.318  1.0074 -0.3944  2.8673
 5648SOL     OW28579   2.575   1.926  11.816 -0.4876  0.4166 -0.5196
 5648SOL    HW128580   2.541   1.842  11.784 -3.3281  0.0879  3.3901
 5648SOL    HW228581   2.653   1.951  11.766  0.1303 -0.7174 -0.1403
 5649SOL     OW28582   3.080   4.704   6.434 -0.2003  0.0663 -0.6715
 5649SOL    HW128583   3.046   4.626   6.478 -0.4545  0.8177  0.4543
 5649SOL    HW228584   3.002   0.013   6.407 -0.3919 -0.4761 -1.0993
 5650SOL     OW28585   3.528   3.755   7.857  0.0004 -0.1584  0.0917
 5650SOL    HW128586   3.590   3.758   7.931  0.0229 -0.6075  0.0930
 5650SOL    HW228587   3.456   3.809   7.888 -0.9052  0.5081 -3.2292
 5651SOL     OW28588   4.733   4.361  16.186 -0.3346  0.3927  0.4295
 5651SOL    HW128589   0.007   4.357  16.280 -0.9571 -2.1123  0.4186
 5651SOL    HW228590   0.012   4.454  16.175 -0.5767  0.2091 -1.5159
 5652SOL     OW28591   1.282   0.466   8.417  0.3842 -0.4337 -0.3087
 5652SOL    HW128592   1.288   0.537   8.480 -0.1213 -1.3749  0.8118
 5652SOL    HW228593   1.209   0.493   8.362  0.1035  1.5834  1.0894
 5653SOL     OW28594   0.986   0.428   8.970 -0.6718 -0.5555  0.3715
 5653SOL    HW128595   0.903   0.432   8.924 -0.5524  1.4653  0.3450
 5653SOL    HW228596   1.025   0.367   8.907 -1.7902 -0.0235 -0.8168
 5654SOL     OW28597   3.472   1.892   3.167 -0.0600  0.3701 -0.0980
 5654SOL    HW128598   3.496   1.985   3.163 -0.5918  0.5797  1.8104
 5654SOL    HW228599   3.460   1.878   3.260  1.4154  0.5262  0.1199
 5655SOL     OW28600   3.485   2.865   7.209 -0.4667 -0.2059  0.0465
 5655SOL    HW128601   3.395   2.896   7.201 -1.3722 -2.1406  3.0154
 5655SOL    HW228602   3.476   2.778   7.171 -1.2628  0.0388 -0.3186
 5656SOL     OW28603   2.489   1.197  10.079 -0.1010  0.5381 -0.3075
 5656SOL    HW128604   2.498   1.267  10.015 -1.7179  0.1489 -0.9661
 5656SOL    HW228605   2.396   1.172  10.074  0.5200 -1.7425 -0.4883
 5657SOL     OW28606   3.127   1.992   1.398  0.4187  0.1822 -0.2038
 5657SOL    HW128607   3.188   1.958   1.333 -0.3037  1.0550 -1.3246
 5657SOL    HW228608   3.100   2.071   1.352  0.9719  1.3419  1.4554
 5658SOL     OW28609   0.626   4.080   5.684  0.9986  0.2532  0.1047
 5658SOL    HW128610   0.697   4.050   5.627  0.5952 -2.6598  1.1053
 5658SOL    HW228611   0.558   4.082   5.616  0.0706  3.2481  1.1243
 5659SOL     OW28612   2.833   0.087   6.261  0.0745  0.2399 -0.4301
 5659SOL    HW128613   2.815   0.178   6.236 -1.7692  0.0151  0.0844
 5659SOL    HW228614   2.904   0.074   6.197 -1.2658  0.9093 -2.0482
 5660SOL     OW28615   2.214   3.332   1.049 -0.4506 -0.0741 -0.0673
 5660SOL    HW128616   2.119   3.343   1.044 -0.3035  0.9808 -0.6313
 5660SOL    HW228617   2.220   3.286   1.132  0.7734  0.7513  0.3095
 5661SOL     OW28618   2.805   2.915   1.492 -0.3516  0.2683  0.3819
 5661SOL    HW128619   2.835   2.875   1.574 -0.8669 -2.0321 -0.5527
 5661SOL    HW228620   2.840   3.004   1.488 -1.7679  0.7478 -1.1436
 5662SOL     OW28621   0.991   4.469   4.832  0.4987 -0.3414 -0.1511
 5662SOL    HW128622   1.034   4.388   4.858  2.0895  0.5531 -0.0390
 5662SOL    HW228623   1.011   4.475   4.739  1.7409  1.4645  0.2365
 5663SOL     OW28624   2.883   0.095   3.119  0.4589  0.1865 -0.0125
 5663SOL    HW128625   2.843   0.025   3.171  1.2010  0.3052  0.7197
 5663SOL    HW228626   2.893   0.042   3.040 -2.2438 -0.3301  0.0046
 5664SOL     OW28627   0.542   0.867   3.524 -0.2617 -0.6506 -0.2230
 5664SOL    HW128628   0.599   0.936   3.491 -0.1628 -0.8097 -0.3881
 5664SOL    HW228629   0.456   0.886   3.487  0.1715  0.7466 -0.5021
 5665SOL     OW28630   2.100   0.684  10.652 -0.0588 -0.2677 -0.4415
 5665SOL    HW128631   2.136   0.771  10.632  2.7803 -0.6748  2.8128
 5665SOL    HW228632   2.126   0.672  10.744  1.6570 -2.5481 -1.2218
 5666SOL     OW28633   4.283   1.654   2.948 -0.0306  0.3356 -0.0501
 5666SOL    HW128634   4.191   1.682   2.954 -0.1988 -0.1741 -0.2094
 5666SOL    HW228635   4.279   1.574   3.001  1.4249  0.0142 -0.4207
 5667SOL     OW28636   2.603   1.772   1.786 -0.4833 -0.2625 -0.1460
 5667SOL    HW128637   2.609   1.866   1.805 -0.9671 -0.4484  0.9318
 5667SOL    HW228638   2.679   1.762   1.729 -1.0333  2.2123 -1.3065
 5668SOL     OW28639   3.188   0.125  10.303  0.6920 -0.1594  0.1177
 5668SOL    HW128640   3.181   0.031  10.316  0.4551 -0.5104 -2.5553
 5668SOL    HW228641   3.148   0.142  10.218  1.7246 -0.0907 -0.3500
 5669SOL     OW28642   0.528   0.703  17.660  0.0862  0.6517  0.9105
 5669SOL    HW128643   0.571   0.618  17.664 -0.0243  0.5009 -0.9816
 5669SOL    HW228644   0.522   0.714  17.565  0.4927 -1.4669  0.6530
 5670SOL     OW28645   0.081   3.998  17.197  0.3010  0.4266 -0.4673
 5670SOL    HW128646   0.131   4.036  17.125  2.5567 -0.6890  0.5154
 5670SOL    HW228647   0.138   3.926  17.223  1.4680  0.6980 -2.3085
 5671SOL     OW28648   0.579   0.995  14.989 -0.4714  0.2427  0.2831
 5671SOL    HW128649   0.618   1.062  14.933 -0.6022  1.6088  1.8068
 5671SOL    HW228650   0.486   1.001  14.967 -0.0832  0.7860 -1.2019
 5672SOL     OW28651   0.600   2.891   1.288  0.5386 -0.4917  0.0428
 5672SOL    HW128652   0.587   2.800   1.263 -1.0461 -0.2601 -0.0135
 5672SOL    HW228653   0.694   2.905   1.291  0.7244 -1.6136 -0.4527
 5673SOL     OW28654   4.404   0.930   3.920  0.0389  0.3546  0.1839
 5673SOL    HW128655   4.360   0.966   3.997  0.5241 -1.4421  1.2914
 5673SOL    HW228656   4.327   0.885   3.885  1.4297 -0.7837 -1.4384
 5674SOL     OW28657   2.327   2.089   9.532  0.2259 -0.5117  0.6985
 5674SOL    HW128658   2.341   2.008   9.482 -1.0771  0.0575 -0.5801
 5674SOL    HW228659   2.288   2.046   9.609 -1.2244  1.6268  1.1542
 5675SOL     OW28660   2.274   0.144   8.573 -0.5625  0.6451  0.3504
 5675SOL    HW128661   2.311   0.085   8.638 -0.2635 -0.1107 -0.5005
 5675SOL    HW228662   2.245   0.087   8.502  1.3032  2.4799 -1.8852
 5676SOL     OW28663   3.850   0.247   4.532  0.3245 -0.2650  0.3136
 5676SOL    HW128664   3.860   0.243   4.627 -0.5945 -4.0923  0.2418
 5676SOL    HW228665   3.758   0.271   4.521  0.0338 -1.1421  0.8107
 5677SOL     OW28666   3.389   1.244   6.712 -0.0151  0.7835  0.2087
 5677SOL    HW128667   3.467   1.299   6.717  0.8621 -0.4861  0.3020
 5677SOL    HW228668   3.327   1.294   6.658  0.6066  1.2154 -0.1120
 5678SOL     OW28669   3.571   2.838   5.492  0.2139  0.0956  0.6420
 5678SOL    HW128670   3.506   2.869   5.429  0.6121 -2.7059 -1.1312
 5678SOL    HW228671   3.628   2.915   5.504  0.2848 -0.1581  1.9370
 5679SOL     OW28672   2.544   4.296   3.667  0.2016  0.0728  0.3764
 5679SOL    HW128673   2.510   4.339   3.589 -1.0303  1.6177  1.7485
 5679SOL    HW228674   2.459   4.259   3.691 -1.0438  2.2484 -0.6774
 5680SOL     OW28675   3.668   2.030  16.238 -0.7201 -0.1339  0.2599
 5680SOL    HW128676   3.668   1.936  16.218  1.1419  0.4698 -2.5206
 5680SOL    HW228677   3.580   2.053  16.210 -0.4903  1.1627  0.6122
 5681SOL     OW28678   0.239   2.189   2.156 -0.2921 -0.4829 -0.0834
 5681SOL    HW128679   0.228   2.274   2.113 -2.4757 -0.6648  0.0984
 5681SOL    HW228680   0.274   2.235   2.232  0.6835  0.9708 -1.4102
 5682SOL     OW28681   1.430   1.611   9.372 -0.3945 -0.0900  0.4943
 5682SOL    HW128682   1.365   1.638   9.437 -0.4229  0.2773  0.3130
 5682SOL    HW228683   1.489   1.687   9.368  0.6899 -0.8781  1.4006
 5683SOL     OW28684   2.418   2.483   2.518 -0.5269 -0.1062  0.2354
 5683SOL    HW128685   2.486   2.549   2.504  0.8606 -0.5669  4.9694
 5683SOL    HW228686   2.352   2.520   2.459  1.4739  4.6837  0.9250
 5684SOL     OW28687   2.899   0.787  14.533 -0.0765 -0.2263  0.7691
 5684SOL    HW128688   2.983   0.743  14.544 -0.3647 -1.1502 -0.6592
 5684SOL    HW228689   2.904   0.825  14.445 -0.1587 -0.2688  0.7455
 5685SOL     OW28690   2.061   4.583   2.808  0.4210 -0.2531  0.0523
 5685SOL    HW128691   2.002   4.635   2.862  0.6061 -1.6735  1.6005
 5685SOL    HW228692   2.027   4.623   2.728 -0.7086 -0.0037  0.6624
 5686SOL     OW28693   3.034   1.587   4.092 -0.0951 -0.3179  0.0974
 5686SOL    HW128694   3.084   1.580   4.174 -0.0185  0.5860  0.1338
 5686SOL    HW228695   3.011   1.496   4.074  0.2465 -0.8737  2.4632
 5687SOL     OW28696   4.427   4.073   2.481 -0.2924 -0.3157 -0.7939
 5687SOL    HW128697   4.346   4.121   2.497 -0.8202 -0.8436 -1.8536
 5687SOL    HW228698   4.449   4.041   2.568 -0.3855 -2.5738 -1.6008
 5688SOL     OW28699   4.254   2.961   2.247 -0.2352  0.0151  0.1387
 5688SOL    HW128700   4.322   2.959   2.180  0.2511  0.9608  0.6065
 5688SOL    HW228701   4.252   2.870   2.278  3.5511  0.7111  2.2870
 5689SOL     OW28702   0.267   4.350  15.554  0.0884  0.1368 -0.3476
 5689SOL    HW128703   0.252   4.256  15.543 -0.2440  0.1985 -0.4271
 5689SOL    HW228704   0.297   4.349  15.644 -1.1945 -2.0714  0.0655
 5690SOL     OW28705   2.592   3.997  16.084  0.1048  0.0268 -0.1112
 5690SOL    HW128706   2.569   3.929  16.147  1.2367  0.6810  1.0175
 5690SOL    HW228707   2.626   4.071  16.134 -0.5375  1.5413 -1.8824
 5691SOL     OW28708   2.492   4.026   8.283  0.3852 -0.3996 -0.5324
 5691SOL    HW128709   2.461   3.952   8.230  1.9087 -1.4884  0.0868
 5691SOL    HW228710   2.584   4.004   8.299  1.0004  1.3649 -1.6592
 5692SOL     OW28711   0.742   3.125   1.983  0.1148 -0.5361  0.5278
 5692SOL    HW128712   0.677   3.061   2.013 -0.9474  0.4782  0.4250
 5692SOL    HW228713   0.824   3.078   1.992  0.0591 -0.6353  0.5150
 5693SOL     OW28714   3.612   0.727  16.396 -0.0683 -0.2101  0.3673
 5693SOL    HW128715   3.543   0.701  16.457  0.1122 -1.5142  0.0192
 5693SOL    HW228716   3.637   0.819  16.403 -2.0059  0.3849 -0.2774
 5694SOL     OW28717   2.876   0.408   7.961 -0.5506  0.7096  0.9561
 5694SOL    HW128718   2.959   0.455   7.963  0.2498 -0.6144 -1.5345
 5694SOL    HW228719   2.846   0.442   7.876  1.6473 -0.6411 -0.3431
 5695SOL     OW28720   0.958   4.411  13.181 -0.2189  0.3959  0.7710
 5695SOL    HW128721   0.863   4.399  13.179 -0.4007  1.6328  1.5093
 5695SOL    HW228722   0.981   4.376  13.267  1.1958  2.7914  1.4003
 5696SOL     OW28723   3.735   3.346   4.671 -0.4030 -0.2551  0.5596
 5696SOL    HW128724   3.762   3.438   4.661 -0.0603 -0.2207  1.8438
 5696SOL    HW228725   3.820   3.305   4.654  0.2625  0.5293  1.9716
 5697SOL     OW28726   1.314   0.091   4.872  0.0601 -0.2442  0.5089
 5697SOL    HW128727   1.330   0.026   4.942  1.5689  0.9043  1.2360
 5697SOL    HW228728   1.220   0.077   4.868  0.4517 -2.4199 -0.9375
 5698SOL     OW28729   2.269   3.692   7.570 -0.2470  0.3793 -0.0358
 5698SOL    HW128730   2.276   3.762   7.505 -0.4246  1.4837  1.1268
 5698SOL    HW228731   2.266   3.613   7.517 -1.0821 -1.3035  2.5343
 5699SOL     OW28732   2.935   2.922   2.084  0.4498  0.0750  0.1458
 5699SOL    HW128733   2.847   2.958   2.100  0.8877  1.0045  0.4753
 5699SOL    HW228734   2.976   2.929   2.170 -2.0638  0.0614  1.3627
 5700SOL     OW28735   0.025   2.781   6.686  0.0293 -0.7515 -0.6777
 5700SOL    HW128736   0.011   2.868   6.723 -0.1624 -0.7111 -0.8450
 5700SOL    HW228737   4.680   2.736   6.700  0.6196 -1.2740  1.2236
 5701SOL     OW28738   4.092   2.993  11.682 -0.2910 -0.0086  0.5113
 5701SOL    HW128739   4.140   2.961  11.606 -2.0169  0.7732 -0.9017
 5701SOL    HW228740   4.133   3.078  11.698 -1.9398  0.4073  2.4950
 5702SOL     OW28741   3.732   0.970   1.455  0.0701 -0.1714  0.4760
 5702SOL    HW128742   3.675   1.046   1.443  0.5247 -0.2885 -2.3013
 5702SOL    HW228743   3.784   1.008   1.526  0.9523 -0.4178 -0.0396
 5703SOL     OW28744   1.702   0.065   8.905 -0.4441  0.6166  0.3219
 5703SOL    HW128745   1.748   0.129   8.960  0.1531  1.1978 -0.8708
 5703SOL    HW228746   1.747   4.727   8.940 -2.5353 -1.2609 -1.1235
 5704SOL     OW28747   3.290   0.758   7.876  0.0207  0.0083 -0.3429
 5704SOL    HW128748   3.324   0.773   7.788  0.2339 -0.5530 -0.3526
 5704SOL    HW228749   3.209   0.807   7.862 -0.0166  0.0341 -0.0193
 5705SOL     OW28750   2.374   1.905   4.213  0.4861  0.4660 -0.3065
 5705SOL    HW128751   2.395   1.893   4.306  0.1397 -2.7947 -0.6685
 5705SOL    HW228752   2.382   2.001   4.206  0.7262  0.7320  3.6594
 5706SOL     OW28753   3.982   0.777   2.772 -0.4982 -0.8293 -0.0181
 5706SOL    HW128754   4.041   0.849   2.796 -0.8458 -1.1376  1.8178
 5706SOL    HW228755   4.036   0.698   2.770 -0.3766 -0.7419 -0.1701
 5707SOL     OW28756   4.559   4.057   2.119 -0.4660  0.0721 -0.2470
 5707SOL    HW128757   4.473   4.074   2.079  0.6490  2.8082 -1.5092
 5707SOL    HW228758   4.559   3.963   2.104 -0.8739 -0.0417  0.4835
 5708SOL     OW28759   1.819   4.192  16.282  0.0891 -0.3646 -0.0303
 5708SOL    HW128760   1.746   4.217  16.226  0.2866 -0.8176 -0.4892
 5708SOL    HW228761   1.853   4.280  16.298  3.3669 -1.8264  1.0073
 5709SOL     OW28762   0.064   0.692   6.629  0.1864 -0.3283 -0.1551
 5709SOL    HW128763   0.062   0.780   6.590 -0.6729 -0.9974 -1.6009
 5709SOL    HW228764   4.726   0.690   6.684  0.4768 -0.4586  0.2479
 5710SOL     OW28765   1.145   1.237   5.995  0.5033  0.1286  0.1493
 5710SOL    HW128766   1.068   1.205   6.043  0.8424 -0.1889  0.4877
 5710SOL    HW228767   1.118   1.211   5.908  0.6388  0.6932 -0.0611
 5711SOL     OW28768   1.593   0.035   9.792 -0.2243 -0.1407 -0.2035
 5711SOL    HW128769   1.559   4.731   9.870  2.9910 -1.9854  0.1892
 5711SOL    HW228770   1.607   0.120   9.832 -0.3377 -0.7459  1.1275
 5712SOL     OW28771   2.541   0.905   8.014 -0.1233 -0.6391  0.2439
 5712SOL    HW128772   2.555   0.833   7.952 -0.7728 -0.0464 -0.6018
 5712SOL    HW228773   2.535   0.983   7.958 -3.2066 -0.4484  0.8454
 5713SOL     OW28774   0.414   3.685  11.257 -0.9734  0.2825 -0.0567
 5713SOL    HW128775   0.345   3.643  11.204 -1.8920  1.9186 -0.1453
 5713SOL    HW228776   0.474   3.612  11.275 -0.5756  0.6273  0.0106
 5714SOL     OW28777   1.811   3.565   9.113  0.1815 -0.7926  0.0123
 5714SOL    HW128778   1.828   3.471   9.109  1.2544 -0.4803 -2.8637
 5714SOL    HW228779   1.893   3.590   9.158 -0.2961 -0.1760  0.5356
 5715SOL     OW28780   1.185   4.648  14.309 -0.0602 -0.4058  0.6750
 5715SOL    HW128781   1.179   4.689  14.223  1.5018 -1.1632  0.1938
 5715SOL    HW228782   1.199   4.720  14.371 -0.9813 -0.3012  0.7522
 5716SOL     OW28783   1.799   1.884   2.914  1.1379 -0.6905 -0.1496
 5716SOL    HW128784   1.761   1.880   3.002  4.8909  0.0970  1.5101
 5716SOL    HW228785   1.864   1.954   2.921  1.6721 -1.2126  0.1564
 5717SOL     OW28786   1.775   3.328   6.541  0.3115  0.7778 -0.2146
 5717SOL    HW128787   1.721   3.265   6.493 -0.9313  3.0369 -1.7556
 5717SOL    HW228788   1.849   3.340   6.482  1.1254 -1.7057  0.3003
 5718SOL     OW28789   2.672   4.051   4.993  0.1427 -0.0339 -0.2212
 5718SOL    HW128790   2.674   4.104   5.073  1.3886  0.3669 -0.5100
 5718SOL    HW228791   2.657   4.119   4.928 -5.0791  1.1720  2.2579
 5719SOL     OW28792   2.011   1.240  16.972 -0.4816 -0.0936 -0.5100
 5719SOL    HW128793   1.959   1.221  16.894  0.1785  1.8506 -1.4379
 5719SOL    HW228794   2.003   1.158  17.020  1.9826 -0.3193 -0.4896
 5720SOL     OW28795   0.845   0.713   3.552  0.4581  0.4191  0.3173
 5720SOL    HW128796   0.890   0.630   3.568  0.2289  0.2373  0.0246
 5720SOL    HW228797   0.805   0.679   3.472  0.4125 -2.8040  1.7090
 5721SOL     OW28798   3.234   0.527  11.944 -0.0322  0.0933  0.2009
 5721SOL    HW128799   3.313   0.498  11.899  0.1571 -0.7028  1.0396
 5721SOL    HW228800   3.256   0.615  11.975  0.2983  1.2837 -3.4334
 5722SOL     OW28801   0.519   3.293   7.428 -0.0200  0.7453  0.0743
 5722SOL    HW128802   0.488   3.339   7.349 -2.3768 -0.1709  0.4966
 5722SOL    HW228803   0.612   3.309   7.412  0.2811 -1.6932 -0.5365
 5723SOL     OW28804   2.529   4.251  16.634  0.4950  0.5285 -0.0650
 5723SOL    HW128805   2.491   4.261  16.721  1.0105  0.2965  0.1879
 5723SOL    HW228806   2.456   4.233  16.575  0.7774  1.3498 -0.6622
 5724SOL     OW28807   4.150   3.679   9.955 -0.2473  0.1316  0.4577
 5724SOL    HW128808   4.074   3.621   9.963  0.7881 -1.2256  0.4599
 5724SOL    HW228809   4.189   3.636   9.879 -0.5133  4.4647 -2.0731
 5725SOL     OW28810   4.070   0.018   4.099  0.5918 -0.8150  0.4921
 5725SOL    HW128811   4.037   4.700   4.030 -0.7897  0.4343  0.1139
 5725SOL    HW228812   3.996   0.018   4.159  0.4729  2.1135  0.3270
 5726SOL     OW28813   1.077   2.977   5.178  0.3182  0.0570  0.1862
 5726SOL    HW128814   1.008   3.020   5.230 -0.1137 -1.8413  1.1790
 5726SOL    HW228815   1.055   3.001   5.088  0.1107 -1.3055 -0.1263
 5727SOL     OW28816   1.582   3.709   3.800  0.1397  0.4867  0.3311
 5727SOL    HW128817   1.663   3.734   3.844  0.6104 -0.9621  0.2810
 5727SOL    HW228818   1.594   3.614   3.799  0.2797  0.5056 -0.2989
 5728SOL     OW28819   2.439   0.755   6.628 -0.3408 -0.0187  0.1325
 5728SOL    HW128820   2.464   0.670   6.592 -0.6563 -0.0228 -0.0781
 5728SOL    HW228821   2.505   0.812   6.588 -0.6904 -1.1720 -2.0600
 5729SOL     OW28822   3.573   2.379   3.711 -0.1122  0.0668  0.3275
 5729SOL    HW128823   3.577   2.470   3.682 -0.8852  0.5784  1.8553
 5729SOL    HW228824   3.637   2.335   3.655  0.3009  1.4270 -0.2729
 5730SOL     OW28825   3.106   4.414  14.353  0.3462 -0.0051  0.0895
 5730SOL    HW128826   3.063   4.500  14.353  0.4062  0.0227  0.8766
 5730SOL    HW228827   3.030   4.360  14.332 -0.6915  1.3856  0.2860
 5731SOL     OW28828   4.697   3.770   8.103  0.5850 -0.1932 -0.3533
 5731SOL    HW128829   0.027   3.703   8.101 -2.3433 -3.2146  0.6895
 5731SOL    HW228830   4.682   3.781   8.009 -0.9696  2.0895  0.1739
 5732SOL     OW28831   2.190   2.696  11.817  0.0679  0.0312  0.1215
 5732SOL    HW128832   2.225   2.639  11.886  0.5958  0.9222  0.5838
 5732SOL    HW228833   2.238   2.777  11.835 -2.0264  1.5430 -1.1992
 5733SOL     OW28834   1.914   4.606   6.367 -0.4937  0.4013 -0.0696
 5733SOL    HW128835   1.847   4.663   6.403 -0.2982  0.9721 -0.6060
 5733SOL    HW228836   1.977   4.671   6.336 -0.9085  0.7213 -0.2254
 5734SOL     OW28837   0.001   1.751   5.034 -0.1632 -0.1832 -0.6261
 5734SOL    HW128838   0.091   1.761   5.065 -0.4119  1.1935 -0.3560
 5734SOL    HW228839   4.733   1.813   4.961 -0.0092  0.3937 -0.1538
 5735SOL     OW28840   2.660   1.475   6.680  0.4563 -0.2095 -0.0957
 5735SOL    HW128841   2.570   1.454   6.656  0.6845 -2.0045  0.5630
 5735SOL    HW228842   2.675   1.558   6.636 -1.8733 -0.0481 -0.6031
 5736SOL     OW28843   3.562   0.937   9.717  0.6038  0.1396 -0.1557
 5736SOL    HW128844   3.614   0.858   9.705 -0.8912 -0.8316 -0.1391
 5736SOL    HW228845   3.626   0.994   9.759  0.3394  0.3060  0.0240
 5737SOL     OW28846   1.327   3.142  10.376  0.0091 -0.2170  0.8885
 5737SOL    HW128847   1.291   3.225  10.407  1.2101  0.8258 -0.5437
 5737SOL    HW228848   1.369   3.101  10.451  0.7496 -0.9853  0.0446
 5738SOL     OW28849   2.195   1.389   0.601  0.0524  0.0294 -0.4029
 5738SOL    HW128850   2.101   1.393   0.584 -0.3489  2.7668  2.3660
 5738SOL    HW228851   2.219   1.451   0.670  0.4470 -0.1577 -0.3683
 5739SOL     OW28852   3.773   1.426   1.251 -0.2267 -0.6099 -0.1370
 5739SOL    HW128853   3.790   1.383   1.167  0.4269  0.4777 -0.5523
 5739SOL    HW228854   3.859   1.456   1.280 -0.9608  1.2400  0.1142
 5740SOL     OW28855   1.012   3.612   7.245 -0.3043 -0.1847  0.4626
 5740SOL    HW128856   1.020   3.538   7.185 -0.3107  0.1065  0.1051
 5740SOL    HW228857   1.072   3.668   7.195  0.8534  0.3703  2.4838
 5741SOL     OW28858   3.397   1.845  12.744  0.2874 -0.4037 -0.0189
 5741SOL    HW128859   3.438   1.927  12.771 -1.1552  0.1179  0.6147
 5741SOL    HW228860   3.320   1.839  12.800  1.8356  0.1159  2.1720
 5742SOL     OW28861   1.763   1.777   5.306  0.0238 -0.3628 -0.2319
 5742SOL    HW128862   1.683   1.749   5.350 -0.0838 -1.7222 -1.3015
 5742SOL    HW228863   1.753   1.870   5.284  1.1226 -0.6692 -1.9985
 5743SOL     OW28864   1.785   0.167   4.642 -0.3301  0.0897 -0.1119
 5743SOL    HW128865   1.792   0.099   4.708 -1.1986  0.3281  0.2301
 5743SOL    HW228866   1.734   0.230   4.693  2.1514  2.8553 -1.0741
 5744SOL     OW28867   1.733   1.131   2.589 -1.0333 -0.5978  0.1854
 5744SOL    HW128868   1.689   1.081   2.657  2.5371 -1.7983  1.6458
 5744SOL    HW228869   1.674   1.203   2.568 -1.5081 -1.1066 -0.2225
 5745SOL     OW28870   1.099   3.011   0.900  0.5062  0.2346  0.0448
 5745SOL    HW128871   1.177   2.956   0.892  0.4596  0.3234 -1.0381
 5745SOL    HW228872   1.123   3.093   0.855 -0.6212  0.2653 -0.4949
 5746SOL     OW28873   3.189   1.157   6.275  0.2120  0.0295 -0.2240
 5746SOL    HW128874   3.283   1.174   6.287  0.8884 -3.5431 -0.4299
 5746SOL    HW228875   3.200   1.069   6.239  0.3935 -0.2026  0.4119
 5747SOL     OW28876   2.610   2.032   3.132 -0.3913 -0.2461 -0.3018
 5747SOL    HW128877   2.577   2.050   3.044 -0.2628 -0.2000 -0.3396
 5747SOL    HW228878   2.653   2.111   3.164  2.4341 -1.6432 -0.7307
 5748SOL     OW28879   0.632   0.923   6.381  0.6147 -0.2384  0.2472
 5748SOL    HW128880   0.651   0.968   6.298  0.6910 -2.9475 -1.2293
 5748SOL    HW228881   0.604   0.836   6.352 -1.2829  0.3687  0.2562
 5749SOL     OW28882   2.731   0.357   3.424 -0.3370  0.3671 -0.6021
 5749SOL    HW128883   2.684   0.440   3.435 -2.3003 -0.8349  0.0736
 5749SOL    HW228884   2.741   0.354   3.329  1.5249 -0.1099 -0.3827
 5750SOL     OW28885   3.997   4.155   8.701 -0.3499 -0.2441  0.3570
 5750SOL    HW128886   4.081   4.193   8.674 -1.3575  1.6501 -0.1634
 5750SOL    HW228887   4.001   4.158   8.797 -0.9146  0.8914  0.3567
 5751SOL     OW28888   3.404   0.385  11.485 -0.0274 -0.3137 -0.0903
 5751SOL    HW128889   3.396   0.341  11.400 -1.6664  0.3430 -0.2758
 5751SOL    HW228890   3.468   0.453  11.464  0.3152 -0.1047  1.7029
 5752SOL     OW28891   2.186   0.963   7.003  0.3241  0.1070  0.3437
 5752SOL    HW128892   2.244   0.927   6.936  0.4730  2.8460 -1.0071
 5752SOL    HW228893   2.176   1.050   6.966 -1.1559  0.1896  0.9405
 5753SOL     OW28894   0.172   2.637   2.428  0.6897  0.0174  0.3779
 5753SOL    HW128895   0.145   2.616   2.517  2.0578  1.3419  1.1156
 5753SOL    HW228896   0.229   2.714   2.437  0.8255  0.0626 -0.8896
 5754SOL     OW28897   0.689   1.075   3.422 -0.1900 -0.3134  0.5156
 5754SOL    HW128898   0.646   1.143   3.369 -0.9269 -0.3850  1.0128
 5754SOL    HW228899   0.767   1.062   3.368  0.0537  1.5341  0.4167
 5755SOL     OW28900   1.061   0.371  13.629  0.1105  0.3265  0.4989
 5755SOL    HW128901   1.107   0.301  13.676 -0.2111 -0.6947 -0.7378
 5755SOL    HW228902   1.102   0.452  13.660  1.3319 -0.5890  1.2837
 5756SOL     OW28903   1.447   2.448  13.544  0.5244 -0.2020  0.4811
 5756SOL    HW128904   1.425   2.403  13.625  0.0108 -0.5560  0.1420
 5756SOL    HW228905   1.424   2.540  13.556 -1.7840 -0.6439 -0.7053
 5757SOL     OW28906   1.143   4.595   2.514 -0.3770 -0.0355 -0.2972
 5757SOL    HW128907   1.202   4.570   2.444  0.1865  0.1831  0.1035
 5757SOL    HW228908   1.092   4.660   2.466  2.1712  0.7100 -1.9706
 5758SOL     OW28909   3.952   0.197   6.642 -0.2162  0.4440 -0.4669
 5758SOL    HW128910   3.998   0.113   6.651 -0.3457  0.3733 -0.4772
 5758SOL    HW228911   3.862   0.167   6.649 -0.5269  1.0406 -2.0039
 5759SOL     OW28912   0.939   0.889  15.373 -0.0884  0.4742  0.0787
 5759SOL    HW128913   0.915   0.946  15.300 -0.6257  0.5237  0.2930
 5759SOL    HW228914   0.861   0.875  15.426 -0.3702  0.1479 -0.4272
 5760SOL     OW28915   0.841   4.655   4.218  0.0362  0.1456  0.2422
 5760SOL    HW128916   0.786   4.680   4.143 -0.4171 -0.2343  0.4501
 5760SOL    HW228917   0.861   4.562   4.211 -1.4362 -0.0497 -1.4177
 5761SOL     OW28918   2.475   2.471   3.208 -0.3392 -0.4762 -0.1239
 5761SOL    HW128919   2.484   2.564   3.230 -1.8848  0.1843 -2.2517
 5761SOL    HW228920   2.383   2.456   3.231 -0.6078 -1.4886 -1.9150
 5762SOL     OW28921   4.331   2.842  15.921 -0.0510  0.1358 -0.1480
 5762SOL    HW128922   4.293   2.872  15.838 -0.5387  3.1642  1.1765
 5762SOL    HW228923   4.258   2.865  15.979  1.5169  0.6526  1.6257
 5763SOL     OW28924   3.339   1.634   2.300 -0.4705  0.2936 -0.0247
 5763SOL    HW128925   3.269   1.692   2.272  0.4414  1.4245  0.0522
 5763SOL    HW228926   3.404   1.640   2.230 -0.1583  0.1787  0.2563
 5764SOL     OW28927   4.661   3.206  16.498 -0.7629  0.0232  0.4130
 5764SOL    HW128928   4.605   3.217  16.575 -0.5207 -0.4290  0.6545
 5764SOL    HW228929   4.734   3.262  16.524  0.0325 -1.3034  1.0448
 5765SOL     OW28930   3.029   2.780  15.951  0.6585  0.6516 -0.3950
 5765SOL    HW128931   3.040   2.873  15.934  1.9120  0.1616 -2.2462
 5765SOL    HW228932   2.998   2.759  15.863 -0.1809  1.7287 -0.3532
 5766SOL     OW28933   0.214   2.565  14.982 -0.1868 -0.5597  0.0901
 5766SOL    HW128934   0.262   2.570  14.899  1.0199  0.9933  0.8645
 5766SOL    HW228935   0.245   2.648  15.020  1.4108 -0.8492 -0.5916
 5767SOL     OW28936   1.646   2.690  14.373 -0.6870  0.2542  0.7544
 5767SOL    HW128937   1.717   2.693  14.437  1.6944  1.5966 -1.9761
 5767SOL    HW228938   1.580   2.637  14.419 -0.9662  0.7761  0.9639
 5768SOL     OW28939   1.918   4.206   3.010  0.2577  0.1093  0.9680
 5768SOL    HW128940   1.883   4.126   2.970 -1.7725  1.4200  0.1433
 5768SOL    HW228941   2.010   4.183   2.999  1.3254  2.7220  4.3345
 5769SOL     OW28942   3.138   2.142  11.623 -0.0409 -0.0746 -0.3029
 5769SOL    HW128943   3.221   2.179  11.593 -0.1492 -1.4025 -2.2690
 5769SOL    HW228944   3.101   2.106  11.542  2.0655 -0.1182 -1.2364
 5770SOL     OW28945   4.377   0.927  12.340 -0.3174  0.0443 -1.1585
 5770SOL    HW128946   4.336   0.937  12.254 -1.9665  0.6958 -0.2970
 5770SOL    HW228947   4.298   0.911  12.392  0.0037  1.0431 -0.3592
 5771SOL     OW28948   0.821   0.165   5.849 -0.1126  0.0078 -0.2345
 5771SOL    HW128949   0.910   0.146   5.818 -0.2614 -3.7107  1.6293
 5771SOL    HW228950   0.815   0.260   5.857  1.8377  0.0547  0.8850
 5772SOL     OW28951   1.396   3.077  10.624 -0.7303  0.3810  0.0948
 5772SOL    HW128952   1.323   3.131  10.653  0.1974  1.7650 -0.1492
 5772SOL    HW228953   1.450   3.071  10.703  0.8096  1.7557 -0.8557
 5773SOL     OW28954   0.985   4.293   3.801 -0.1474 -0.5606 -0.1391
 5773SOL    HW128955   0.927   4.247   3.862 -1.5010  0.3444 -0.7607
 5773SOL    HW228956   1.002   4.366   3.860 -1.2344 -0.6351  0.2678
 5774SOL     OW28957   2.713   2.961   4.746  0.5078 -0.6029 -0.0238
 5774SOL    HW128958   2.718   3.050   4.783  0.1228 -1.2382  1.5671
 5774SOL    HW228959   2.743   2.978   4.657  0.1781  0.8185  0.1418
 5775SOL     OW28960   3.584   1.875  10.954  0.0300  0.0694 -0.4527
 5775SOL    HW128961   3.527   1.874  11.031 -0.2714  2.2716 -0.6659
 5775SOL    HW228962   3.554   1.960  10.923 -1.0441 -0.6934 -1.4906
 5776SOL     OW28963   2.867   0.580  17.194 -0.2751 -0.0934 -0.2224
 5776SOL    HW128964   2.775   0.583  17.222  0.0355 -2.2144  0.9785
 5776SOL    HW228965   2.874   0.485  17.198 -2.0376 -0.2472 -0.6691
 5777SOL     OW28966   2.164   0.847  12.987  0.2344  0.0534 -0.1727
 5777SOL    HW128967   2.205   0.846  12.901  3.6318 -1.6754  1.5036
 5777SOL    HW228968   2.078   0.814  12.961  0.6277 -2.2776  1.5920
 5778SOL     OW28969   0.262   4.301  17.411 -0.1790 -0.4216 -0.4312
 5778SOL    HW128970   0.292   4.211  17.397 -0.3210 -0.2592 -1.7088
 5778SOL    HW228971   0.331   4.340  17.466 -1.6296  1.5653 -0.0458
 5779SOL     OW28972   0.451   2.129   6.053 -1.1791 -0.4923 -0.4649
 5779SOL    HW128973   0.499   2.056   6.093 -0.2710 -0.0799 -0.7964
 5779SOL    HW228974   0.388   2.077   6.003 -1.2376 -1.3691  0.5195
 5780SOL     OW28975   3.126   0.687   3.190  0.0385  0.3572  0.1350
 5780SOL    HW128976   3.084   0.649   3.113  0.2745  1.4998 -0.5607
 5780SOL    HW228977   3.100   0.779   3.185  1.6450  0.9443  2.4591
 5781SOL     OW28978   0.198   3.482   6.470 -0.0637 -0.2382  0.9208
 5781SOL    HW128979   0.135   3.417   6.439  1.0602 -1.7373  1.8238
 5781SOL    HW228980   0.138   3.551   6.501  1.5217  1.9758 -0.8863
 5782SOL     OW28981   4.262   2.592   0.544  0.3313 -0.6459  0.3324
 5782SOL    HW128982   4.338   2.589   0.485  0.6552 -0.4197  0.7398
 5782SOL    HW228983   4.225   2.676   0.516 -0.6440 -2.1823 -3.0210
 5783SOL     OW28984   2.206   1.163   3.568  0.0223 -0.3306 -0.0426
 5783SOL    HW128985   2.241   1.242   3.526  1.9483 -2.0716 -1.6874
 5783SOL    HW228986   2.118   1.195   3.588  0.5718  1.1400  0.0534
 5784SOL     OW28987   3.832   2.740   7.897 -0.1114 -0.3416 -0.3341
 5784SOL    HW128988   3.868   2.823   7.928 -1.3144 -0.2010  0.7299
 5784SOL    HW228989   3.867   2.732   7.809  1.2433  2.1319  0.0069
 5785SOL     OW28990   2.577   1.255   7.627 -0.8357 -0.2677  0.3935
 5785SOL    HW128991   2.669   1.276   7.641 -1.3184  1.5965  0.7569
 5785SOL    HW228992   2.560   1.322   7.562  2.7249  0.1478 -0.1229
 5786SOL     OW28993   2.016   2.935  14.904  0.0824 -0.0818 -0.0592
 5786SOL    HW128994   2.019   2.930  14.808  1.8844 -1.0304  0.0563
 5786SOL    HW228995   2.031   2.845  14.932  0.7638 -0.9162 -3.0736
 5787SOL     OW28996   0.360   1.701   7.135  0.4500  0.1328  0.2738
 5787SOL    HW128997   0.403   1.676   7.217 -2.0588 -0.2129  1.4724
 5787SOL    HW228998   0.332   1.788   7.163  1.0465 -0.1101  1.6318
 5788SOL     OW28999   4.102   0.160   7.214 -0.3368 -0.1314 -0.2991
 5788SOL    HW129000   4.137   0.104   7.283 -0.6940  0.4269  0.3463
 5788SOL    HW229001   4.113   0.108   7.135 -1.6420  1.8077 -1.7504
 5789SOL     OW29002   3.565   3.402   3.544  0.5536 -0.2160 -0.5716
 5789SOL    HW129003   3.474   3.413   3.516  0.0009  0.7048  1.5885
 5789SOL    HW229004   3.559   3.314   3.582  0.2040  0.1142  0.1240
 5790SOL     OW29005   1.446   0.721   2.687 -0.0835 -0.1783 -0.2072
 5790SOL    HW129006   1.436   0.803   2.737  3.2367  1.6637 -2.5870
 5790SOL    HW229007   1.525   0.686   2.728  0.9672  1.9792 -0.3813
 5791SOL     OW29008   0.537   4.062  11.538 -0.2801 -0.4406 -0.0158
 5791SOL    HW129009   0.472   3.992  11.538  1.3880 -1.9772 -1.4350
 5791SOL    HW229010   0.600   4.026  11.601  1.9067  0.3852 -1.7266
 5792SOL     OW29011   3.285   0.817  12.518 -0.4009  0.1155  0.7181
 5792SOL    HW129012   3.271   0.911  12.503 -2.6748 -0.5079 -1.0020
 5792SOL    HW229013   3.338   0.796  12.441 -2.1857  1.2393 -0.8134
 5793SOL     OW29014   1.037   0.828  10.238  0.2309  0.0249 -0.6912
 5793SOL    HW129015   0.998   0.741  10.249 -2.0118  1.1722  0.4747
 5793SOL    HW229016   1.016   0.846  10.146  0.2094 -0.5164 -0.7904
 5794SOL     OW29017   4.124   3.313   2.747 -0.0586  0.1440 -0.3614
 5794SOL    HW129018   4.176   3.234   2.737 -1.7254 -0.7680 -1.8487
 5794SOL    HW229019   4.115   3.347   2.658  1.0515 -0.0294 -0.5391
 5795SOL     OW29020   3.190   2.847   7.684  0.2942  0.3296  0.2211
 5795SOL    HW129021   3.232   2.912   7.740 -1.8347  0.6519  1.4435
 5795SOL    HW229022   3.166   2.784   7.752  0.8108  0.8691  0.8925
 5796SOL     OW29023   4.574   4.156   5.987  0.2159  0.2269 -0.3856
 5796SOL    HW129024   4.610   4.098   6.054  2.2712 -0.4698 -2.0553
 5796SOL    HW229025   4.496   4.111   5.957 -1.3850  3.8619 -1.7226
 5797SOL     OW29026   0.942   4.423   7.928  0.4435 -0.0520  0.0362
 5797SOL    HW129027   0.909   4.490   7.869 -2.2651 -2.1140 -0.8016
 5797SOL    HW229028   0.887   4.448   8.003  1.4650 -0.1461  0.8074
 5798SOL     OW29029   0.510   0.539   8.103  0.4877  0.0181  0.3527
 5798SOL    HW129030   0.583   0.574   8.155 -0.9938  4.1835 -0.3353
 5798SOL    HW229031   0.526   0.446   8.114 -0.6518 -0.1672  0.4605
 5799SOL     OW29032   2.098   4.160  16.143  0.4702 -0.1034  0.7417
 5799SOL    HW129033   2.016   4.208  16.130 -0.9210 -2.8099 -0.4576
 5799SOL    HW229034   2.083   4.097  16.072 -2.0019  0.6245  0.5997
 5800SOL     OW29035   3.653   3.738   4.527  0.8809  0.4447 -0.3594
 5800SOL    HW129036   3.728   3.694   4.487  1.4971  1.0994  0.0767
 5800SOL    HW229037   3.654   3.690   4.610 -0.7483 -1.5453 -1.4985
 5801SOL     OW29038   1.525   4.565   7.839  0.7640 -0.3233 -0.1847
 5801SOL    HW129039   1.574   4.549   7.758 -0.0882 -0.9562 -0.5658
 5801SOL    HW229040   1.576   4.639   7.871 -0.0194 -0.3110  1.0203
 5802SOL     OW29041   2.018   2.896   3.568 -0.1411  0.3859 -0.2049
 5802SOL    HW129042   2.034   2.926   3.479 -0.6189  0.6531 -0.2010
 5802SOL    HW229043   1.925   2.913   3.584 -0.1764  0.0041 -0.0034
 5803SOL     OW29044   2.197   1.764   6.722  0.3604  0.1260 -0.2714
 5803SOL    HW129045   2.141   1.690   6.699 -0.8180  1.2011 -0.8592
 5803SOL    HW229046   2.228   1.779   6.633 -0.9422  0.5834 -0.6417
 5804SOL     OW29047   4.441   1.888   7.931 -0.4873  0.2139 -0.3785
 5804SOL    HW129048   4.505   1.957   7.917 -0.0212 -0.6300 -2.4817
 5804SOL    HW229049   4.468   1.844   8.011 -0.1824  1.6078  0.2771
 5805SOL     OW29050   0.542   2.103   5.398  0.0151  0.2562 -0.4114
 5805SOL    HW129051   0.582   2.021   5.369  1.2217  0.3989  0.8450
 5805SOL    HW229052   0.620   2.147   5.432  0.1176 -0.1988 -0.0696
 5806SOL     OW29053   3.685   4.607   9.332  0.1814 -0.4204 -0.1712
 5806SOL    HW129054   3.634   4.566   9.402  0.5233 -1.4987 -0.5592
 5806SOL    HW229055   3.613   4.608   9.268  0.1385 -2.4499 -0.1294
 5807SOL     OW29056   2.487   4.523   3.129  0.1388  0.5257 -0.4050
 5807SOL    HW129057   2.458   4.432   3.132  0.7282  0.3312 -0.8826
 5807SOL    HW229058   2.441   4.559   3.053  0.6641  2.7518  0.3338
 5808SOL     OW29059   1.304   4.520   8.453  0.2239 -0.0234  0.2612
 5808SOL    HW129060   1.241   4.531   8.525 -2.5230  0.4994 -2.2385
 5808SOL    HW229061   1.244   4.543   8.383  1.7356 -0.5017 -1.1813
 5809SOL     OW29062   1.105   1.091   8.006 -0.1990 -0.2019  0.1104
 5809SOL    HW129063   1.097   1.186   8.010 -1.5374 -0.3101 -0.0877
 5809SOL    HW229064   1.148   1.076   7.921 -2.5889  2.2841 -1.5321
 5810SOL     OW29065   0.355   1.144   9.383  0.0365  0.0284 -0.5079
 5810SOL    HW129066   0.425   1.155   9.319 -0.6343  1.1228 -1.0498
 5810SOL    HW229067   0.305   1.077   9.336 -0.5984  1.7025 -2.2348
 5811SOL     OW29068   0.978   0.187   3.201  0.4846  0.7622 -0.0246
 5811SOL    HW129069   1.063   0.151   3.227  0.1828  0.0946  0.0477
 5811SOL    HW229070   0.938   0.198   3.287 -0.3992 -0.1413 -0.3172
 5812SOL     OW29071   0.909   1.484   6.542 -0.1081  0.0246  0.0913
 5812SOL    HW129072   0.896   1.562   6.487  0.6677  0.4141  0.4564
 5812SOL    HW229073   0.989   1.456   6.498  0.7759 -1.0713  2.4352
 5813SOL     OW29074   2.784   0.974  15.212 -0.1621  0.2451 -0.0889
 5813SOL    HW129075   2.850   1.026  15.257  0.1683 -1.3762  1.2603
 5813SOL    HW229076   2.726   1.042  15.176  1.5802  0.6487 -2.1184
 5814SOL     OW29077   0.514   0.492   2.889 -0.2056 -0.0669 -0.0402
 5814SOL    HW129078   0.587   0.438   2.919  0.1504 -0.3110 -1.3318
 5814SOL    HW229079   0.476   0.431   2.826  0.9783  2.2360 -3.0220
 5815SOL     OW29080   4.673   2.627  12.305  0.2119  0.1430  0.8314
 5815SOL    HW129081   4.648   2.614  12.214  0.6316 -0.1881  0.7631
 5815SOL    HW229082   4.611   2.696  12.331 -1.1778 -0.1453 -1.7385
 5816SOL     OW29083   3.421   1.134  16.316  0.3740 -0.4297 -0.2949
 5816SOL    HW129084   3.329   1.127  16.341  0.8161  0.1903  1.4599
 5816SOL    HW229085   3.404   1.144  16.222 -1.4836  0.4365  0.1373
 5817SOL     OW29086   3.476   3.437   7.076 -0.1664 -0.2223  0.6658
 5817SOL    HW129087   3.395   3.446   7.127 -1.0524  0.4723 -0.8722
 5817SOL    HW229088   3.471   3.501   7.005  0.2221  0.8782  1.6184
 5818SOL     OW29089   2.930   4.592   4.425  0.2336 -0.3330  0.2627
 5818SOL    HW129090   2.987   4.515   4.428  1.6914  0.7938  1.6009
 5818SOL    HW229091   2.940   4.628   4.513 -0.9324 -1.2562  0.7650
 5819SOL     OW29092   1.818   1.182   6.199 -0.1333  0.8595  0.1100
 5819SOL    HW129093   1.744   1.243   6.204 -1.9740 -1.2437 -1.5100
 5819SOL    HW229094   1.801   1.125   6.124  0.7155  2.0507 -1.0108
 5820SOL     OW29095   3.432   3.809  11.186 -0.2466  0.1041  0.0908
 5820SOL    HW129096   3.431   3.860  11.105  2.0026 -0.1742 -0.0952
 5820SOL    HW229097   3.515   3.840  11.222 -0.2567  1.1063 -0.7539
 5821SOL     OW29098   2.934   4.488   2.665  0.2416  0.1714 -0.8542
 5821SOL    HW129099   2.922   4.411   2.720  0.3240  0.0202 -1.0440
 5821SOL    HW229100   2.862   4.544   2.693  1.4375 -0.6036  3.7324
 5822SOL     OW29101   1.690   2.149   2.792  0.3156  0.0761  0.6283
 5822SOL    HW129102   1.740   2.132   2.712 -0.4798  0.5450  0.0320
 5822SOL    HW229103   1.632   2.073   2.795  1.8997 -1.1524  0.1736
 5823SOL     OW29104   1.899   1.266   3.389  0.1749  0.6758 -0.7867
 5823SOL    HW129105   1.908   1.209   3.466  0.5636  2.9157  0.8241
 5823SOL    HW229106   1.814   1.242   3.353  0.1567  0.1175 -0.3678
 5824SOL     OW29107   4.225   3.594   9.699  0.0668  0.0438  0.9458
 5824SOL    HW129108   4.175   3.531   9.647 -0.3795 -0.2625  1.7433
 5824SOL    HW229109   4.279   3.627   9.627 -0.5963 -1.5706 -0.2737
 5825SOL     OW29110   3.112   2.216   9.010 -0.4657  0.7220 -0.0957
 5825SOL    HW129111   3.040   2.230   8.948 -1.5412  1.5951  1.3608
 5825SOL    HW229112   3.094   2.131   9.051  2.1581  0.3746  0.3388
 5826SOL     OW29113   2.023   2.803   5.495  0.0096 -0.1421 -0.1147
 5826SOL    HW129114   2.022   2.890   5.455 -1.9628  0.7138  1.7543
 5826SOL    HW229115   2.073   2.751   5.432 -0.3117  0.1836 -0.6254
 5827SOL     OW29116   4.319   0.746  11.307 -0.6895  0.0189 -0.1747
 5827SOL    HW129117   4.310   0.830  11.351 -2.4028 -0.2934  0.0662
 5827SOL    HW229118   4.364   0.688  11.370 -0.7765 -1.0638 -1.1136
 5828SOL     OW29119   1.237   1.870   3.714  0.6704 -0.0025  0.8005
 5828SOL    HW129120   1.187   1.896   3.637 -1.4041 -0.5956  1.9495
 5828SOL    HW229121   1.230   1.951   3.765 -1.3484  0.7139 -0.6355
 5829SOL     OW29122   1.581   4.271   7.116 -0.2984  0.4216  0.1283
 5829SOL    HW129123   1.574   4.218   7.195 -0.5443  0.6458  0.2578
 5829SOL    HW229124   1.580   4.355   7.162  0.8788 -1.0290  2.8345
 5830SOL     OW29125   1.488   2.964   2.675 -0.3381 -0.1999  0.1860
 5830SOL    HW129126   1.436   2.964   2.595 -1.0827 -0.0248  0.6739
 5830SOL    HW229127   1.429   3.020   2.726 -1.2258 -0.5974 -0.4083
 5831SOL     OW29128   1.276   3.433   3.514 -0.0927 -0.2445 -0.0696
 5831SOL    HW129129   1.329   3.381   3.575 -0.8037  0.7969  1.4423
 5831SOL    HW229130   1.271   3.516   3.562  2.6967  0.5038 -1.0656
 5832SOL     OW29131   3.240   1.953   9.849  0.4268  0.2993  0.8891
 5832SOL    HW129132   3.211   1.862   9.854  0.4824  0.2768  0.8046
 5832SOL    HW229133   3.166   2.001   9.887 -0.8734 -0.5607 -0.5564
 5833SOL     OW29134   1.132   4.103   5.543 -0.1932 -0.1958 -0.7635
 5833SOL    HW129135   1.063   4.036   5.546 -0.7784  0.3899 -0.9579
 5833SOL    HW229136   1.072   4.175   5.566 -0.3694 -0.3137 -0.8509
 5834SOL     OW29137   1.068   3.508   3.327 -0.4259 -0.1135  0.6707
 5834SOL    HW129138   1.120   3.485   3.403  1.1314 -2.3425 -1.0827
 5834SOL    HW229139   1.055   3.421   3.289 -1.1896 -0.1605  1.0252
 5835SOL     OW29140   1.279   4.115   9.131  0.0526  0.0065 -0.3005
 5835SOL    HW129141   1.241   4.047   9.076  2.6913  0.4520 -2.6874
 5835SOL    HW229142   1.281   4.076   9.218  0.6463  0.9902  0.1326
 5836SOL     OW29143   1.463   4.358   8.320 -0.0246  0.5367 -1.1563
 5836SOL    HW129144   1.552   4.391   8.304  0.8832 -0.6775  1.4425
 5836SOL    HW229145   1.431   4.436   8.364  0.2216  0.6086 -1.1021
 5837SOL     OW29146   1.476   1.349   1.529 -0.7140  0.2295 -0.7717
 5837SOL    HW129147   1.511   1.413   1.466 -0.4644  1.0353  0.1944
 5837SOL    HW229148   1.482   1.394   1.613  0.6313  1.8625 -1.7253
 5838SOL     OW29149   4.398   3.028  14.336 -0.7919 -0.1929 -0.0647
 5838SOL    HW129150   4.304   3.047  14.329 -0.6288  0.7733  0.3998
 5838SOL    HW229151   4.412   2.954  14.277 -1.4068 -0.0835 -0.3470
 5839SOL     OW29152   0.207   4.106  13.952  0.1788  0.3217  0.3636
 5839SOL    HW129153   0.123   4.082  13.912  0.0493 -0.3884  1.0648
 5839SOL    HW229154   0.280   4.062  13.909  0.9718 -0.0105  2.1006
 5840SOL     OW29155   4.019   2.625   6.109 -0.4197 -0.1137  0.5844
 5840SOL    HW129156   3.995   2.687   6.041  0.4975  0.6423  0.9552
 5840SOL    HW229157   3.938   2.595   6.150  0.1776  0.0848  1.9390
 5841SOL     OW29158   2.199   2.899   8.408  0.1414  0.3030  0.2090
 5841SOL    HW129159   2.193   2.858   8.322 -1.0748  2.0331 -0.5293
 5841SOL    HW229160   2.195   2.990   8.378  3.4758  1.2209  2.5591
 5842SOL     OW29161   0.828   3.384  11.671 -0.4629  0.5755  0.0246
 5842SOL    HW129162   0.923   3.394  11.673 -0.6515  2.3392 -0.3547
 5842SOL    HW229163   0.800   3.381  11.762 -2.1591  1.0300 -0.4806
 5843SOL     OW29164   3.754   2.297   6.121 -0.0272 -0.1340 -0.7645
 5843SOL    HW129165   3.697   2.228   6.154  0.6259 -0.1544  0.3387
 5843SOL    HW229166   3.723   2.382   6.154  2.2530  1.3003 -2.2603
 5844SOL     OW29167   0.448   2.735   6.887 -0.1944 -0.1652  0.2812
 5844SOL    HW129168   0.395   2.688   6.951 -2.1467  3.9326  1.6299
 5844SOL    HW229169   0.412   2.696   6.807 -0.6887 -0.7348  0.7826
 5845SOL     OW29170   0.368   1.330   6.733  0.2386 -0.4042 -0.3456
 5845SOL    HW129171   0.334   1.383   6.805 -1.8415  0.0741 -1.6604
 5845SOL    HW229172   0.458   1.325   6.764  0.3267  1.1711 -0.3742
 5846SOL     OW29173   3.821   3.519   8.682  0.7947 -0.3166  0.4914
 5846SOL    HW129174   3.908   3.556   8.673  0.2549  0.8749  0.2250
 5846SOL    HW229175   3.820   3.443   8.623 -0.6422  0.0295  0.0649
 5847SOL     OW29176   2.782   2.284   4.796 -0.5727 -0.3679  0.1637
 5847SOL    HW129177   2.802   2.194   4.770  2.1973  0.3849 -0.2938
 5847SOL    HW229178   2.866   2.331   4.795 -1.8457  1.9739  4.8673
 5848SOL     OW29179   2.531   2.389   1.389  0.3073  0.3780  0.1400
 5848SOL    HW129180   2.547   2.326   1.460 -0.1870  0.1053  0.0139
 5848SOL    HW229181   2.456   2.434   1.428  1.4038 -0.0735  2.7534
 5849SOL     OW29182   3.964   3.098   5.452 -0.0362  0.4107  0.0001
 5849SOL    HW129183   3.923   3.103   5.538 -1.6973  0.0318 -0.7712
 5849SOL    HW229184   3.976   3.003   5.455  0.6144  0.5345  1.2718
 5850SOL     OW29185   1.192   4.451  12.187 -0.4408 -0.4216 -0.1411
 5850SOL    HW129186   1.236   4.366  12.193  0.5718  0.1887  1.1499
 5850SOL    HW229187   1.244   4.480  12.112  0.1153  0.8215  0.7219
 5851SOL     OW29188   3.239   0.282   1.012 -0.2151  0.0550  0.2060
 5851SOL    HW129189   3.283   0.204   1.046  3.8666  2.0557 -0.3709
 5851SOL    HW229190   3.194   0.241   0.939  3.2930 -0.8977 -1.4339
 5852SOL     OW29191   2.512   2.990   4.248 -0.4388 -0.0438  0.1969
 5852SOL    HW129192   2.585   2.999   4.187  0.1253  2.5608  1.2272
 5852SOL    HW229193   2.495   2.897   4.239 -0.0510  0.1610 -2.4303
 5853SOL     OW29194   3.358   1.701   5.802 -0.1991  0.0493  0.4735
 5853SOL    HW129195   3.431   1.755   5.770 -0.3289  0.0497  0.1754
 5853SOL    HW229196   3.396   1.637   5.862  0.1675  0.2331  0.4372
 5854SOL     OW29197   2.795   0.187   3.663  0.6841  0.6565  0.9685
 5854SOL    HW129198   2.801   0.257   3.598 -0.3469 -2.2199 -2.1885
 5854SOL    HW229199   2.832   0.112   3.617 -2.3397  1.6872 -3.0551
 5855SOL     OW29200   4.394   0.617  16.665 -0.2126  0.1450 -0.1723
 5855SOL    HW129201   4.369   0.697  16.712  1.0164 -0.9877  2.4711
 5855SOL    HW229202   4.309   0.590  16.631 -0.3737  1.0366 -0.4756
 5856SOL     OW29203   0.193   1.797   3.091 -0.2437 -0.1247  0.7416
 5856SOL    HW129204   0.133   1.805   3.164 -1.2038  3.5375 -0.4596
 5856SOL    HW229205   0.153   1.719   3.052  1.8070 -0.6553 -0.3135
 5857SOL     OW29206   1.572   3.332  10.387 -0.0850  0.0580  0.7111
 5857SOL    HW129207   1.607   3.281  10.460  0.1333 -0.5005  0.2149
 5857SOL    HW229208   1.541   3.272  10.319  1.3313 -1.2513  1.2139
 5858SOL     OW29209   4.119   2.301  10.230 -0.0219  0.3502 -0.1343
 5858SOL    HW129210   4.047   2.336  10.177  1.3109 -1.3004 -3.0123
 5858SOL    HW229211   4.117   2.207  10.213 -0.5742  0.2830  0.2859
 5859SOL     OW29212   3.522   1.932  13.130 -0.0177 -0.2409 -0.1797
 5859SOL    HW129213   3.556   1.912  13.043  0.5825  2.9805 -0.6775
 5859SOL    HW229214   3.459   1.860  13.138 -1.4447  1.0803  0.4975
 5860SOL     OW29215   3.585   4.463   4.339 -0.4946  0.4838  0.3874
 5860SOL    HW129216   3.658   4.469   4.276 -1.5035 -1.3424 -0.9685
 5860SOL    HW229217   3.544   4.380   4.316  2.0960 -0.3822 -1.2596
 5861SOL     OW29218   1.129   4.668   6.401 -0.0493 -0.0094 -0.1819
 5861SOL    HW129219   1.152   4.601   6.465 -0.2474  2.4769  2.5098
 5861SOL    HW229220   1.175   0.009   6.425  0.1219 -0.3898  0.7825
 5862SOL     OW29221   0.786   0.562   6.928  0.4662 -0.4316 -0.3002
 5862SOL    HW129222   0.766   0.468   6.926  0.5444 -0.4964  1.9284
 5862SOL    HW229223   0.699   0.601   6.927 -0.8439 -3.2537  0.8219
 5863SOL     OW29224   3.243   2.668   6.615  0.6032 -0.1451  0.3456
 5863SOL    HW129225   3.223   2.708   6.531 -2.7454 -0.3283  1.0472
 5863SOL    HW229226   3.206   2.579   6.612 -0.7861  0.5405 -3.0879
 5864SOL     OW29227   0.302   3.974   3.821  0.2071 -0.0912  0.5615
 5864SOL    HW129228   0.256   3.938   3.896 -2.0468 -0.3232 -0.9424
 5864SOL    HW229229   0.240   3.952   3.751  0.6983  0.5809 -0.0853
 5865SOL     OW29230   1.770   3.277   6.814 -0.1590  0.6206 -0.2921
 5865SOL    HW129231   1.767   3.189   6.851  1.9352  0.2727 -0.9355
 5865SOL    HW229232   1.775   3.258   6.720  0.7259  1.4099 -0.3939
 5866SOL     OW29233   3.770   0.934  14.745 -0.0332 -0.1475 -0.2233
 5866SOL    HW129234   3.851   0.916  14.793 -0.7987  0.8306  1.4674
 5866SOL    HW229235   3.776   0.863  14.681  3.2504  1.4658 -1.7229
 5867SOL     OW29236   1.063   0.789  13.307  0.3732 -0.0447 -0.5012
 5867SOL    HW129237   1.080   0.883  13.301 -0.3277  0.1943  1.0766
 5867SOL    HW229238   0.993   0.775  13.243  0.4756 -1.9424 -0.2026
 5868SOL     OW29239   4.007   1.707   2.943 -0.1798 -0.0089 -0.1855
 5868SOL    HW129240   3.973   1.629   2.987 -0.0411 -0.3940 -0.7608
 5868SOL    HW229241   3.932   1.766   2.955 -0.0789  0.2255 -0.7038
 5869SOL     OW29242   1.970   0.953   4.141  0.4724  0.1290 -0.3227
 5869SOL    HW129243   1.970   1.004   4.222  0.0249 -2.1447  1.1235
 5869SOL    HW229244   1.981   0.866   4.180  1.6464  0.0475 -0.8443
 5870SOL     OW29245   2.789   1.726   6.469 -0.0496 -0.1407 -0.1161
 5870SOL    HW129246   2.748   1.812   6.472  0.6983  0.2558 -1.4839
 5870SOL    HW229247   2.832   1.721   6.555 -0.6913 -1.8540  0.0982
 5871SOL     OW29248   3.919   3.176   2.592  0.0607  0.3888 -0.3319
 5871SOL    HW129249   3.950   3.221   2.514 -3.0909  0.4769 -1.5513
 5871SOL    HW229250   4.006   3.145   2.617  0.0754  1.1896  0.6448
 5872SOL     OW29251   3.354   0.047   7.310 -0.2260 -0.0805 -0.5958
 5872SOL    HW129252   3.363   0.042   7.215 -0.8178  0.5835 -0.6898
 5872SOL    HW229253   3.443   0.038   7.342 -0.5334  2.7031  0.9980
 5873SOL     OW29254   3.800   3.174  15.506 -0.2047 -0.0426  0.1689
 5873SOL    HW129255   3.821   3.236  15.436 -2.1070  2.1045  1.4757
 5873SOL    HW229256   3.774   3.238  15.572 -0.8063 -0.1658  0.0487
 5874SOL     OW29257   2.968   3.010   3.016  0.0783  0.4046  0.0369
 5874SOL    HW129258   3.014   3.040   3.095 -2.0382  1.9031  0.6948
 5874SOL    HW229259   3.031   3.044   2.953  0.0887 -1.3643 -0.8917
 5875SOL     OW29260   2.720   0.150  14.783  0.0112 -0.7317 -0.1813
 5875SOL    HW129261   2.801   0.160  14.833  1.2881  0.4109 -2.5180
 5875SOL    HW229262   2.691   0.241  14.777  1.2923 -0.3051  0.2124
 5876SOL     OW29263   2.513   0.890  13.009  0.5014  0.1560 -0.3895
 5876SOL    HW129264   2.605   0.864  13.000 -0.1765 -1.7400 -1.9556
 5876SOL    HW229265   2.479   0.816  13.060 -2.1524  2.2880  0.9257
 5877SOL     OW29266   3.053   4.033   6.629  0.1622  0.0925  0.2098
 5877SOL    HW129267   2.982   4.041   6.565 -1.8573  1.3369  2.6205
 5877SOL    HW229268   3.117   4.094   6.591  0.9311 -1.3922 -0.8778
 5878SOL     OW29269   2.985   0.042   2.403  0.0981 -0.7899 -0.0658
 5878SOL    HW129270   2.983   0.116   2.343 -2.5437 -0.8868 -0.0728
 5878SOL    HW229271   3.011   4.717   2.336 -0.9893  0.0185 -1.2503
 5879SOL     OW29272   3.235   0.093   6.155  0.2211 -0.6049 -0.2372
 5879SOL    HW129273   3.321   0.127   6.180  0.8509 -1.8494 -0.7394
 5879SOL    HW229274   3.189   0.167   6.195  1.9997  0.1919  0.3492
 5880SOL     OW29275   1.603   3.161  13.916  0.1885  0.1343  0.1194
 5880SOL    HW129276   1.694   3.191  13.914  0.9609 -2.1763  1.2349
 5880SOL    HW229277   1.582   3.142  13.825  1.6049  1.7046 -0.5303
 5881SOL     OW29278   0.048   3.128   6.063  0.2215  0.0583  0.2308
 5881SOL    HW129279   0.058   3.222   6.051  0.9460 -0.2719 -1.7072
 5881SOL    HW229280   0.058   3.093   5.975 -1.5416 -1.0166  0.4628
 5882SOL     OW29281   4.629   1.122  10.989 -0.0532  0.0587 -0.0778
 5882SOL    HW129282   4.702   1.138  11.048 -1.2280 -1.1506  1.6969
 5882SOL    HW229283   4.574   1.082  11.056  0.4048  0.1868  0.3727
 5883SOL     OW29284   0.487   0.985   5.236  0.5450  0.2257  0.0351
 5883SOL    HW129285   0.571   1.029   5.253  1.4931 -1.8188  0.6271
 5883SOL    HW229286   0.451   0.965   5.323  0.3876 -0.9898 -0.3214
 5884SOL     OW29287   2.531   1.506   4.456  0.1133 -0.3282 -0.0958
 5884SOL    HW129288   2.468   1.455   4.407  2.2109 -3.5741  0.5765
 5884SOL    HW229289   2.607   1.505   4.398 -0.9792  0.4400 -1.5216
 5885SOL     OW29290   4.644   3.888   9.243 -0.2594  0.3506 -0.2033
 5885SOL    HW129291   4.656   3.899   9.337 -1.2752  2.3893 -0.3152
 5885SOL    HW229292   4.549   3.898   9.241 -0.1733  0.9902 -1.3387
 5886SOL     OW29293   1.973   3.150   3.787 -0.2126  0.1620  0.6153
 5886SOL    HW129294   1.931   3.156   3.872  0.6842  2.5415  0.8947
 5886SOL    HW229295   1.901   3.166   3.726 -1.1019 -1.3333  1.2904
 5887SOL     OW29296   2.204   3.162  12.444  0.3868  0.4343  0.6492
 5887SOL    HW129297   2.194   3.077  12.402 -1.5063  0.4880  0.9729
 5887SOL    HW229298   2.289   3.194  12.413 -0.2974 -0.0236 -1.7431
 5888SOL     OW29299   3.456   0.757  13.799  0.5999  0.2291 -0.4239
 5888SOL    HW129300   3.399   0.771  13.875 -0.6813  2.3666 -1.8049
 5888SOL    HW229301   3.432   0.669  13.770 -1.1853  0.7312 -0.4555
 5889SOL     OW29302   1.731   2.370   8.057  0.5275 -0.2662  0.0857
 5889SOL    HW129303   1.661   2.422   8.097  0.2534 -0.3899 -0.2272
 5889SOL    HW229304   1.702   2.280   8.073  0.6273 -0.3219 -0.0536
 5890SOL     OW29305   1.459   0.625   6.297 -0.3586  0.1900  0.3391
 5890SOL    HW129306   1.484   0.717   6.307  2.3406 -0.1963 -2.9940
 5890SOL    HW229307   1.411   0.617   6.379 -2.0502 -2.1886 -0.8829
 5891SOL     OW29308   1.648   2.719  10.930  0.1381  0.2141  0.2522
 5891SOL    HW129309   1.704   2.664  10.985 -0.3721  0.3546  0.9058
 5891SOL    HW229310   1.559   2.683  10.938  0.4897 -0.9255 -0.9588
 5892SOL     OW29311   3.871   1.247   4.855  0.7098 -0.1423  0.1871
 5892SOL    HW129312   3.902   1.333   4.883 -0.0112  0.0034  0.5234
 5892SOL    HW229313   3.919   1.246   4.772  0.5048 -1.5973  0.0879
 5893SOL     OW29314   2.039   3.942   8.286 -0.4978  0.3613  0.0164
 5893SOL    HW129315   2.116   3.979   8.243  0.1404 -1.0394 -0.0725
 5893SOL    HW229316   1.975   3.993   8.237  0.5026  0.6398 -1.0094
 5894SOL     OW29317   3.608   1.139   4.786 -0.0905 -0.2831 -0.2598
 5894SOL    HW129318   3.638   1.055   4.751  0.7647  0.5910 -1.6092
 5894SOL    HW229319   3.684   1.171   4.836 -1.4803 -0.0409  1.6968
 5895SOL     OW29320   2.378   3.477   0.581  0.4680 -0.4363  0.1212
 5895SOL    HW129321   2.410   3.558   0.621 -1.8361 -0.0392  1.1733
 5895SOL    HW229322   2.306   3.462   0.643 -0.0014  0.6409 -0.1600
 5896SOL     OW29323   2.057   0.457   3.034  0.0352  0.3319 -0.7102
 5896SOL    HW129324   2.062   0.491   3.123  0.8462 -2.2408  0.2353
 5896SOL    HW229325   2.100   0.524   2.981 -0.8299  1.0588 -0.4740
 5897SOL     OW29326   3.763   2.159   1.095  0.2591 -0.3438  0.1998
 5897SOL    HW129327   3.740   2.066   1.098 -0.1066 -0.2739 -0.5493
 5897SOL    HW229328   3.857   2.149   1.083  0.0995 -0.8931 -0.5856
 5898SOL     OW29329   2.558   3.218   3.407 -0.3035 -0.0048 -0.3484
 5898SOL    HW129330   2.474   3.263   3.404 -0.3637 -0.0562  0.3996
 5898SOL    HW229331   2.549   3.163   3.485 -1.8243 -0.2040 -0.6668
 5899SOL     OW29332   1.413   0.343   4.593 -0.1106 -0.1704  0.1541
 5899SOL    HW129333   1.317   0.346   4.590 -0.1895 -0.6576  2.1600
 5899SOL    HW229334   1.429   0.348   4.687 -1.8699 -0.4949  0.4704
 5900SOL     OW29335   2.011   2.169  15.147  0.0298  0.1533 -0.0117
 5900SOL    HW129336   1.925   2.140  15.176  1.1236 -2.1187  0.9381
 5900SOL    HW229337   2.052   2.088  15.175  2.3786  1.7077  0.9702
 5901SOL     OW29338   2.478   1.125   7.844 -0.5869 -0.0804  0.2804
 5901SOL    HW129339   2.520   1.169   7.770 -1.5939 -1.6220 -1.1984
 5901SOL    HW229340   2.388   1.152   7.825 -0.1372  1.8300  0.8700
 5902SOL     OW29341   4.565   2.530   5.238 -0.0363  0.2415  0.4902
 5902SOL    HW129342   4.522   2.614   5.252  2.8764  1.5537  1.5561
 5902SOL    HW229343   4.494   2.484   5.282 -0.6289  0.5290 -0.1628
 5903SOL     OW29344   3.045   1.788   8.950 -0.6809 -0.5385 -0.1579
 5903SOL    HW129345   3.084   1.719   9.004  1.1752  0.1595 -0.5824
 5903SOL    HW229346   2.993   1.730   8.894 -2.7409  0.8848  0.2876
 5904SOL     OW29347   4.503   1.412   9.449  0.3837  0.7305  0.5736
 5904SOL    HW129348   4.513   1.506   9.437  1.8453  0.3575 -1.0604
 5904SOL    HW229349   4.503   1.414   9.545 -0.9316 -2.0148  0.6105
 5905SOL     OW29350   1.125   1.928  12.703  0.0750  0.3355  0.0538
 5905SOL    HW129351   1.170   1.852  12.739 -0.9200 -0.3693 -0.1716
 5905SOL    HW229352   1.044   1.921  12.755 -0.8390  2.3759 -1.0949
 5906SOL     OW29353   1.322   2.247   4.402  0.0142 -0.0840  0.2012
 5906SOL    HW129354   1.294   2.180   4.465 -3.0459 -0.4680 -1.5850
 5906SOL    HW229355   1.364   2.307   4.465  1.0678 -0.8712  0.2452
 5907SOL     OW29356   1.420   3.389  16.956  0.3092  0.1405  0.4706
 5907SOL    HW129357   1.460   3.367  16.872  0.3654 -1.6112  0.9679
 5907SOL    HW229358   1.381   3.310  16.992  1.2449 -0.2807  0.5592
 5908SOL     OW29359   0.253   0.954   5.064  0.1643  0.4842  0.2961
 5908SOL    HW129360   0.318   1.006   5.111 -1.1207  0.5904  1.9395
 5908SOL    HW229361   0.295   0.870   5.047 -0.4994  0.4923 -1.3656
 5909SOL     OW29362   2.855   0.630   9.898  0.1863 -0.2799  0.7032
 5909SOL    HW129363   2.916   0.703   9.890 -0.6579  0.3706  0.2252
 5909SOL    HW229364   2.782   0.654   9.956  0.7678 -0.2989  1.4511
 5910SOL     OW29365   4.199   0.687  16.481  0.8052 -0.6764 -0.4004
 5910SOL    HW129366   4.123   0.681  16.424 -0.8826 -0.0458  1.7982
 5910SOL    HW229367   4.255   0.753  16.440 -1.2810  0.4593 -1.3889
 5911SOL     OW29368   3.887   3.163   6.797 -0.1891 -0.1900  0.4446
 5911SOL    HW129369   3.957   3.222   6.825  0.1439 -0.1625 -0.4434
 5911SOL    HW229370   3.817   3.203   6.848 -0.4904  2.0864 -1.7482
 5912SOL     OW29371   1.950   3.479   2.866 -0.0337 -0.1943  0.6507
 5912SOL    HW129372   1.998   3.521   2.938  0.9427  1.7698 -1.1127
 5912SOL    HW229373   2.014   3.410   2.853 -0.3687  0.1751 -3.1201
 5913SOL     OW29374   1.023   2.461  11.120  0.2279  1.0072 -0.2573
 5913SOL    HW129375   1.082   2.525  11.160 -0.3335  0.9481  0.6811
 5913SOL    HW229376   0.966   2.514  11.063 -1.3994 -0.4163  0.0543
 5914SOL     OW29377   3.308   1.164   7.716 -0.1490 -0.2537 -0.2639
 5914SOL    HW129378   3.369   1.234   7.740  1.3360 -1.2796 -1.0457
 5914SOL    HW229379   3.343   1.100   7.778  1.7403 -0.3429 -1.4332
 5915SOL     OW29380   0.152   1.343   2.995 -0.1721 -0.5723  0.0744
 5915SOL    HW129381   0.149   1.251   2.970  1.8249 -0.2660 -1.3241
 5915SOL    HW229382   0.155   1.344   3.091  2.3620  3.7174 -0.0170
 5916SOL     OW29383   0.768   4.692   4.792 -0.1535  0.5431 -0.0137
 5916SOL    HW129384   0.679   4.673   4.762  0.0644  0.0165 -0.3353
 5916SOL    HW229385   0.751   0.007   4.869  0.8418  1.1073 -0.1757
 5917SOL     OW29386   0.298   4.270   4.046  0.1345 -0.9373 -0.4625
 5917SOL    HW129387   0.207   4.289   4.024  0.0969 -1.6194 -0.8690
 5917SOL    HW229388   0.352   4.323   3.988 -1.8602 -1.1377 -2.4866
 5918SOL     OW29389   2.127   1.408   3.821  0.2347 -0.2308  0.2542
 5918SOL    HW129390   2.086   1.460   3.752  0.0093  0.8370  1.1831
 5918SOL    HW229391   2.206   1.455   3.845 -0.2993  0.2891  1.0148
 5919SOL     OW29392   4.416   3.378   8.356 -0.1635 -0.1087 -0.4411
 5919SOL    HW129393   4.393   3.465   8.321  0.8904 -0.2169 -1.3788
 5919SOL    HW229394   4.500   3.375   8.312  0.1639 -0.9831  0.2391
 5920SOL     OW29395   2.421   3.274   2.216 -0.4057 -0.0802 -0.1873
 5920SOL    HW129396   2.377   3.190   2.231 -1.7431  0.7234  0.3487
 5920SOL    HW229397   2.438   3.280   2.122 -0.6991 -0.1101 -0.2436
 5921SOL     OW29398   1.866   2.146   5.897  0.5378  0.0564  0.1602
 5921SOL    HW129399   1.785   2.127   5.849 -0.3368 -2.0077  2.4510
 5921SOL    HW229400   1.826   2.220   5.943 -2.6068 -1.0875 -0.6951
 5922SOL     OW29401   0.036   0.423  16.012 -0.6451  0.2402  0.6662
 5922SOL    HW129402   0.064   0.494  16.070  0.7608  0.5334 -0.3451
 5922SOL    HW229403   0.115   0.427  15.958 -0.5503  2.2223  0.9471
 5923SOL     OW29404   0.992   3.028   6.666  0.2683 -0.1368 -0.0374
 5923SOL    HW129405   1.056   3.028   6.737  1.2960 -1.1692 -0.9536
 5923SOL    HW229406   0.915   3.035   6.722  1.5730  1.7028  1.5405
 5924SOL     OW29407   3.240   2.216   7.679  0.0668 -0.2360 -0.4508
 5924SOL    HW129408   3.262   2.244   7.768 -0.7366  0.3033 -0.4229
 5924SOL    HW229409   3.297   2.268   7.622  0.4551  0.9383  0.9725
 5925SOL     OW29410   3.784   0.181   8.330  0.4818 -0.4817 -0.3621
 5925SOL    HW129411   3.873   0.168   8.297  0.5208  0.5435 -0.6491
 5925SOL    HW229412   3.792   0.107   8.389 -5.2858 -0.0288  0.9602
 5926SOL     OW29413   0.704   3.517   8.368 -0.7877  0.2641  0.4350
 5926SOL    HW129414   0.782   3.474   8.402 -0.1464  0.5057 -0.7410
 5926SOL    HW229415   0.686   3.476   8.284 -0.1183 -0.6852  0.7594
 5927SOL     OW29416   3.126   2.043  12.551 -0.3510 -0.0517 -0.4460
 5927SOL    HW129417   3.129   2.038  12.456 -0.0278 -1.4822 -0.3726
 5927SOL    HW229418   3.087   1.956  12.563 -0.4476  0.0911  0.2668
 5928SOL     OW29419   2.265   4.211   4.030  0.0165 -0.0506  0.4042
 5928SOL    HW129420   2.174   4.237   4.014  0.0236 -0.8534 -0.9903
 5928SOL    HW229421   2.299   4.297   4.056  3.1749 -1.4386  0.8694
 5929SOL     OW29422   2.520   0.219  17.548 -0.1617 -0.3564 -0.1978
 5929SOL    HW129423   2.473   0.140  17.571 -0.5110 -0.5523 -1.5842
 5929SOL    HW229424   2.499   0.288  17.612 -2.0614  0.6582 -1.9223
 5930SOL     OW29425   3.225   1.589   4.336 -0.1476  0.2276 -0.4093
 5930SOL    HW129426   3.305   1.633   4.366  0.2276  0.5573 -1.8693
 5930SOL    HW229427   3.263   1.560   4.253  1.9090 -0.0196  0.6252
 5931SOL     OW29428   1.149   2.392   3.083 -0.0450  0.1671 -0.5512
 5931SOL    HW129429   1.074   2.398   3.142 -0.7067  0.2724 -1.4039
 5931SOL    HW229430   1.121   2.330   3.016 -2.7979 -0.1571  0.8830
 5932SOL     OW29431   3.281   3.493   6.287  0.6255  0.3615  0.5392
 5932SOL    HW129432   3.262   3.565   6.226  1.5169 -1.4460 -1.8712
 5932SOL    HW229433   3.191   3.463   6.297  0.8074 -0.5256 -0.4347
 5933SOL     OW29434   1.741   1.573   9.886  0.0080  0.9219  0.7151
 5933SOL    HW129435   1.749   1.668   9.897  2.6484  0.6487  1.0654
 5933SOL    HW229436   1.728   1.567   9.791  1.0367  1.9222  0.5021
 5934SOL     OW29437   1.388   3.867  12.637 -0.0195  0.1081 -0.0648
 5934SOL    HW129438   1.388   3.958  12.666 -0.5961  0.3397 -0.7913
 5934SOL    HW229439   1.327   3.832  12.703 -0.0099 -0.3724 -0.3076
 5935SOL     OW29440   3.728   2.048   4.316  0.5572 -0.5953  0.3887
 5935SOL    HW129441   3.642   2.090   4.323 -0.3792 -1.9042 -3.2442
 5935SOL    HW229442   3.727   1.999   4.398  1.3661 -0.2273  0.6127
 5936SOL     OW29443   1.370   3.863  17.068  0.0493  0.1231 -0.2351
 5936SOL    HW129444   1.415   3.784  17.098  0.0321  1.3551  3.1295
 5936SOL    HW229445   1.336   3.896  17.152  0.1570 -0.6097  0.0986
 5937SOL     OW29446   2.221   0.501  12.518  0.5239  0.6370  0.2481
 5937SOL    HW129447   2.215   0.411  12.550 -1.4601  0.5710 -0.3052
 5937SOL    HW229448   2.313   0.524  12.533  0.2872  1.3595  0.5991
 5938SOL     OW29449   2.976   0.450  12.007  0.1433  0.2201  0.6874
 5938SOL    HW129450   3.051   0.493  11.966 -0.3130 -0.0326 -0.4246
 5938SOL    HW229451   2.909   0.519  12.002  2.1611  2.0753 -0.3787
 5939SOL     OW29452   0.228   2.485   7.632 -0.1465 -0.2193 -1.1136
 5939SOL    HW129453   0.258   2.548   7.566 -0.0115 -1.0177 -1.8149
 5939SOL    HW229454   0.308   2.463   7.680  0.4358 -0.2083 -2.0667
 5940SOL     OW29455   3.847   3.318  11.407 -0.6261  0.1064 -0.4883
 5940SOL    HW129456   3.823   3.369  11.329  0.8758 -1.0229 -1.6940
 5940SOL    HW229457   3.850   3.386  11.475  1.5414 -1.3351  0.8457
 5941SOL     OW29458   2.211   4.434   7.479 -0.1867  0.0384  0.3855
 5941SOL    HW129459   2.256   4.513   7.510  2.5276 -0.0695 -3.4143
 5941SOL    HW229460   2.160   4.414   7.558 -0.3435  0.1034  0.3009
 5942SOL     OW29461   1.195   4.659  16.320 -0.0406  0.3570 -0.1870
 5942SOL    HW129462   1.118   4.706  16.291  0.4615  2.4521  1.8349
 5942SOL    HW229463   1.151   4.627  16.399  0.3543  0.0490 -0.0899
 5943SOL     OW29464   0.419   2.764   6.308 -0.2734 -0.0331  0.2743
 5943SOL    HW129465   0.481   2.770   6.235 -1.9106  0.9480 -1.0431
 5943SOL    HW229466   0.379   2.851   6.297  0.2053  0.4471  2.3920
 5944SOL     OW29467   1.977   2.611  14.390  0.0734 -0.0913  0.8493
 5944SOL    HW129468   2.005   2.618  14.481 -0.9868  2.0984  1.0160
 5944SOL    HW229469   1.938   2.525  14.377  0.9879 -0.3911  0.1004
 5945SOL     OW29470   4.482   2.662   4.401 -0.2726  0.1414 -0.3272
 5945SOL    HW129471   4.553   2.602   4.426  0.3427  0.1610 -2.0037
 5945SOL    HW229472   4.494   2.733   4.464  1.0546 -1.3422  1.0838
 5946SOL     OW29473   2.205   1.354   1.743 -0.1929  0.2064  0.6060
 5946SOL    HW129474   2.225   1.445   1.766 -0.8449  0.4552  0.1991
 5946SOL    HW229475   2.274   1.308   1.790 -1.6316 -0.8774  1.6626
 5947SOL     OW29476   1.747   4.259   7.881 -0.1262  0.3706 -0.4240
 5947SOL    HW129477   1.761   4.258   7.975  1.3366  0.2347 -0.6512
 5947SOL    HW229478   1.721   4.351   7.870 -1.6206  0.0604  0.5173
 5948SOL     OW29479   3.261   1.814  14.417 -0.0451 -0.1489  0.6434
 5948SOL    HW129480   3.280   1.823  14.324 -0.3691 -0.5950  0.5364
 5948SOL    HW229481   3.327   1.746  14.432 -0.7283 -1.4042 -2.0781
 5949SOL     OW29482   3.149   2.090  14.050 -0.1097 -0.1947 -0.3588
 5949SOL    HW129483   3.062   2.130  14.045 -0.9947 -1.9884  0.2704
 5949SOL    HW229484   3.212   2.155  14.019  0.4569 -0.0635  1.0694
 5950SOL     OW29485   3.829   3.335  14.866 -0.3003 -0.5115 -0.9552
 5950SOL    HW129486   3.751   3.368  14.911  0.0814  0.6341 -1.1172
 5950SOL    HW229487   3.838   3.255  14.918  1.0989  0.7757  0.7894
 5951SOL     OW29488   2.578   1.497   2.751 -0.7994  0.0543 -0.4404
 5951SOL    HW129489   2.534   1.571   2.711 -0.0282  0.1153 -1.1603
 5951SOL    HW229490   2.503   1.439   2.764 -0.5048 -0.3803 -0.6580
 5952SOL     OW29491   1.662   2.337   7.032 -0.3392 -0.1376 -0.2800
 5952SOL    HW129492   1.729   2.306   6.971  1.1960 -0.7025  1.7200
 5952SOL    HW229493   1.604   2.261   7.024  1.5802 -1.6809  0.3821
 5953SOL     OW29494   3.078   1.234   4.827  0.2242 -0.5135 -0.0604
 5953SOL    HW129495   3.112   1.152   4.862 -0.8977 -1.5440 -1.3721
 5953SOL    HW229496   3.147   1.286   4.786  0.1188 -1.0250 -0.8941
 5954SOL     OW29497   2.349   1.314   9.849  0.2893  0.6136  0.5299
 5954SOL    HW129498   2.263   1.284   9.876 -0.1661  0.5597 -0.9830
 5954SOL    HW229499   2.344   1.408   9.869 -1.2393  0.6999 -0.2452
 5955SOL     OW29500   1.271   3.904   4.125  0.6353 -0.2923 -0.2813
 5955SOL    HW129501   1.293   3.889   4.033 -0.4799  3.1777 -1.1246
 5955SOL    HW229502   1.183   3.869   4.120  1.2377 -1.5184 -2.0099
 5956SOL     OW29503   2.783   2.174  17.113  0.3778  0.2437  0.7186
 5956SOL    HW129504   2.751   2.208  17.196  2.3773  2.4194  0.6097
 5956SOL    HW229505   2.859   2.233  17.107  1.5484 -1.7412 -3.9447
 5957SOL     OW29506   1.236   0.598  15.820 -0.3016  0.1175 -0.4002
 5957SOL    HW129507   1.154   0.609  15.772 -0.6751  1.8438  0.6538
 5957SOL    HW229508   1.296   0.623  15.750  1.2016  1.2240  1.2636
 5958SOL     OW29509   2.425   2.023   9.254  0.0927 -0.0912 -0.5895
 5958SOL    HW129510   2.349   2.034   9.196 -0.3708 -4.1582 -0.7620
 5958SOL    HW229511   2.433   2.107   9.299 -2.0407  0.3151 -0.9784
 5959SOL     OW29512   4.031   2.546  16.966  0.4404  0.5732  0.2951
 5959SOL    HW129513   4.074   2.627  16.941 -0.5218  0.8228 -0.5460
 5959SOL    HW229514   4.062   2.490  16.895 -3.0902 -0.1752 -0.6418
 5960SOL     OW29515   3.798   1.549   3.795  0.5129 -0.1426 -0.6701
 5960SOL    HW129516   3.889   1.570   3.775  0.0386  1.2514 -1.3387
 5960SOL    HW229517   3.810   1.459   3.824 -0.2829 -0.6376 -1.8710
 5961SOL     OW29518   4.317   2.491   5.814  0.1548  0.3588 -0.1059
 5961SOL    HW129519   4.308   2.573   5.766 -2.4253 -0.0116 -0.2911
 5961SOL    HW229520   4.235   2.446   5.793 -0.5625  1.8305 -0.4363
 5962SOL     OW29521   1.470   0.282   1.574  0.6450  0.1619 -0.3679
 5962SOL    HW129522   1.380   0.250   1.572  1.3163 -1.7017 -0.5141
 5962SOL    HW229523   1.481   0.288   1.669  2.3714 -0.8232 -0.4920
 5963SOL     OW29524   3.625   2.489   8.210  0.9900 -0.4085 -0.5510
 5963SOL    HW129525   3.637   2.400   8.240  2.5895  0.3933  1.1721
 5963SOL    HW229526   3.685   2.485   8.136  0.1287 -0.3983 -1.2560
 5964SOL     OW29527   4.099   0.493   5.553  0.2546 -0.2155 -0.1409
 5964SOL    HW129528   4.067   0.505   5.464  0.2726  0.8585 -0.0029
 5964SOL    HW229529   4.112   0.586   5.573 -0.4776  0.3473 -2.2888
 5965SOL     OW29530   1.554   1.804  11.850 -0.0165 -0.4204 -0.1921
 5965SOL    HW129531   1.475   1.853  11.872 -0.3284 -1.2952  0.6300
 5965SOL    HW229532   1.578   1.747  11.923  0.6138 -1.9082 -1.5365
 5966SOL     OW29533   2.132   4.701   6.001 -0.2849 -0.4204  0.1349
 5966SOL    HW129534   2.183   0.026   5.953 -0.0081 -0.2252  0.6850
 5966SOL    HW229535   2.053   0.015   6.003 -0.0572 -0.1983  3.7135
 5967SOL     OW29536   3.343   2.680   8.554 -0.7106 -0.2067  0.3440
 5967SOL    HW129537   3.329   2.620   8.627  2.2969 -1.5021 -0.1420
 5967SOL    HW229538   3.438   2.678   8.559 -0.7174 -2.1537  0.0302
 5968SOL     OW29539   4.651   3.814   2.394 -0.3053 -0.5353  0.5624
 5968SOL    HW129540   4.645   3.798   2.300  0.0521  4.2144 -0.2708
 5968SOL    HW229541   4.691   3.901   2.399  1.0850 -1.1793  0.5949
 5969SOL     OW29542   0.794   3.640  10.193  0.7885  0.6342 -0.1887
 5969SOL    HW129543   0.788   3.723  10.145 -1.8073  0.4551 -0.1955
 5969SOL    HW229544   0.752   3.662  10.276  0.3066 -2.0682  0.2615
 5970SOL     OW29545   0.195   3.585  13.358  0.5969  0.6755 -0.8054
 5970SOL    HW129546   0.210   3.509  13.302  0.8037 -0.4841  0.8096
 5970SOL    HW229547   0.279   3.586  13.404 -1.2175  0.3053  2.5452
 5971SOL     OW29548   4.008   3.057   4.865  0.1748  0.2156  0.2717
 5971SOL    HW129549   4.024   2.963   4.855  3.2708  0.4968  2.3816
 5971SOL    HW229550   4.057   3.069   4.947 -0.6352  1.0374  0.6307
 5972SOL     OW29551   2.846   0.873   0.049 -0.0081 -0.1857  0.7342
 5972SOL    HW129552   2.833   0.870  17.709 -1.7095  0.1846  0.9539
 5972SOL    HW229553   2.803   0.958   0.058 -0.1966 -0.5393  3.1127
 5973SOL     OW29554   0.413   0.974   5.754  0.0052 -0.2365 -0.1937
 5973SOL    HW129555   0.329   0.928   5.753  0.4107 -0.9735 -0.3991
 5973SOL    HW229556   0.423   1.005   5.844 -1.2880  1.6486 -0.6942
 5974SOL     OW29557   3.679   0.227   8.957 -0.2822  0.2504 -0.4742
 5974SOL    HW129558   3.591   0.197   8.934 -1.3860  0.9438  2.8570
 5974SOL    HW229559   3.720   0.204   8.874 -3.8619 -2.3569 -1.5329
 5975SOL     OW29560   2.163   2.042  17.219 -0.6703  0.2081 -0.6787
 5975SOL    HW129561   2.139   1.950  17.208 -0.2780  0.2080 -1.6158
 5975SOL    HW229562   2.255   2.028  17.242 -0.8108 -0.1482 -0.3427
 5976SOL     OW29563   4.265   0.533   6.592 -0.3323  1.0411 -0.4968
 5976SOL    HW129564   4.349   0.499   6.560 -0.0004  1.8600 -0.4743
 5976SOL    HW229565   4.271   0.518   6.686 -0.1737  1.3234 -0.4620
 5977SOL     OW29566   3.005   4.569   7.120  0.1165  0.1910  0.3094
 5977SOL    HW129567   2.942   4.501   7.144 -1.2092  0.4554 -2.3339
 5977SOL    HW229568   3.083   4.531   7.159  0.8109  0.0815 -1.1634
 5978SOL     OW29569   1.004   3.931   8.306 -0.4874  0.3707  0.0072
 5978SOL    HW129570   1.096   3.920   8.280  0.0408  0.1718  2.0043
 5978SOL    HW229571   0.992   3.837   8.301  1.1330  0.1424  0.4284
 5979SOL     OW29572   3.581   2.984  10.419 -0.3769 -0.2123  0.4678
 5979SOL    HW129573   3.561   3.063  10.369 -1.2552 -2.7433 -3.1839
 5979SOL    HW229574   3.552   2.910  10.365 -2.7200  2.3673 -1.7972
 5980SOL     OW29575   2.502   1.219   3.717  0.6918  0.3116  0.3008
 5980SOL    HW129576   2.419   1.215   3.669  1.1318  0.0630 -0.4395
 5980SOL    HW229577   2.490   1.156   3.788 -1.4769  0.2654 -0.0987
 5981SOL     OW29578   3.678   4.458   5.884  0.0475 -0.6707  0.1638
 5981SOL    HW129579   3.768   4.436   5.863 -1.1639 -3.7039 -1.8961
 5981SOL    HW229580   3.643   4.377   5.922  0.9681 -1.4075 -0.5722
 5982SOL     OW29581   1.871   1.634   2.313  0.6867 -0.3788 -0.3279
 5982SOL    HW129582   1.910   1.574   2.249 -0.4033 -0.0614 -1.2972
 5982SOL    HW229583   1.910   1.597   2.392 -0.4126  0.6644  0.7062
 5983SOL     OW29584   0.929   2.730   4.468 -0.0064 -0.1961  0.1092
 5983SOL    HW129585   0.866   2.709   4.537  0.9151 -1.0085  0.7121
 5983SOL    HW229586   0.906   2.659   4.408 -0.6155 -0.6390  0.8660
 5984SOL     OW29587   1.773   1.048   0.084 -0.3341 -0.0747  0.3373
 5984SOL    HW129588   1.720   1.122   0.056  1.1230  1.2822  1.1974
 5984SOL    HW229589   1.787   0.988   0.010  3.2985  0.5001  0.5579
 5985SOL     OW29590   2.391   2.894  11.858 -0.2182 -0.3708  0.0507
 5985SOL    HW129591   2.475   2.856  11.830 -1.1835 -3.2140  0.9751
 5985SOL    HW229592   2.420   2.939  11.936 -0.1677  0.4198 -0.4259
 5986SOL     OW29593   1.887   1.265   0.215  0.8745 -0.0046  0.0175
 5986SOL    HW129594   1.849   1.321   0.147  1.2770  1.8672  1.3483
 5986SOL    HW229595   1.864   1.184   0.169 -1.3622  1.3089 -1.1356
 5987SOL     OW29596   2.702   0.793   3.327 -0.6207  0.0949 -0.0639
 5987SOL    HW129597   2.705   0.789   3.232 -0.5313  3.2123 -0.1746
 5987SOL    HW229598   2.652   0.874   3.337 -0.1843  0.6021 -2.1624
 5988SOL     OW29599   0.094   3.289   9.130 -0.0943  0.1292 -0.2490
 5988SOL    HW129600   0.158   3.359   9.145  0.1496  0.3957 -2.5668
 5988SOL    HW229601   0.156   3.217   9.143 -2.0547 -1.4671  0.1737
 5989SOL     OW29602   3.593   2.173   8.261 -0.1022 -0.2511 -0.0698
 5989SOL    HW129603   3.508   2.159   8.302 -0.8396  0.2410 -1.4132
 5989SOL    HW229604   3.641   2.099   8.297  2.1438  2.0967  1.7729
 5990SOL     OW29605   3.518   2.035   2.457 -0.0990  0.2755  0.2047
 5990SOL    HW129606   3.433   2.030   2.414  0.3105  3.3446 -1.0202
 5990SOL    HW229607   3.503   2.121   2.496 -1.3520 -0.6430  1.7237
 5991SOL     OW29608   1.131   0.805   5.064 -0.0521  0.4347  0.7301
 5991SOL    HW129609   1.046   0.849   5.067  0.1305  0.6905  1.9825
 5991SOL    HW229610   1.108   0.713   5.053 -1.1179  0.5821  1.6938
 5992SOL     OW29611   1.701   3.183   3.108 -0.0833 -0.1632 -0.1163
 5992SOL    HW129612   1.626   3.126   3.094  0.3590 -0.9871  0.8483
 5992SOL    HW229613   1.670   3.268   3.079  1.8848  0.1841 -1.1704
 5993SOL     OW29614   0.884   1.059   2.517  0.1934 -0.0093  0.5589
 5993SOL    HW129615   0.924   1.057   2.430 -3.0184 -0.2098 -0.9363
 5993SOL    HW229616   0.868   0.966   2.536  0.1914 -0.3712 -1.2077
 5994SOL     OW29617   3.785   0.203   8.716 -0.2545 -0.3534  0.6470
 5994SOL    HW129618   3.767   0.152   8.637  2.1510 -0.7028  0.3064
 5994SOL    HW229619   3.852   0.150   8.760  0.2258  0.1992  0.5837
 5995SOL     OW29620   0.804   0.314   4.669  0.2118  0.1764  0.9068
 5995SOL    HW129621   0.710   0.299   4.674  0.3383 -0.4850  1.3081
 5995SOL    HW229622   0.834   0.242   4.613 -0.8644 -1.7860  2.8690
 5996SOL     OW29623   0.388   3.590   8.040  0.1711 -0.2239  0.5016
 5996SOL    HW129624   0.440   3.656   7.995 -0.9453  1.2874  1.4212
 5996SOL    HW229625   0.413   3.601   8.131  1.2536  0.9505  0.0570
 5997SOL     OW29626   3.002   3.199   6.689 -0.6536  0.6182  0.2347
 5997SOL    HW129627   2.981   3.134   6.756  0.4375 -1.3394 -1.2979
 5997SOL    HW229628   2.916   3.238   6.674 -0.6306  0.2684 -0.8799
 5998SOL     OW29629   1.130   1.968   8.988  0.1340  0.4534  0.3175
 5998SOL    HW129630   1.062   2.017   9.036  0.1693  1.3806 -0.5733
 5998SOL    HW229631   1.166   1.917   9.060  2.1495  1.6215  0.1478
 5999SOL     OW29632   2.202   2.563  11.536 -0.0419 -0.1619 -0.0024
 5999SOL    HW129633   2.296   2.552  11.524 -0.2538 -1.9399  0.0348
 5999SOL    HW229634   2.206   2.624  11.609  1.4606 -1.1142  0.6962
 6000SOL     OW29635   2.130   2.576   4.352 -0.1235 -0.1738 -0.6107
 6000SOL    HW129636   2.105   2.620   4.271 -0.2547  1.3379  0.2486
 6000SOL    HW229637   2.109   2.485   4.332  0.0292 -0.4608  0.5070
 6001SOL     OW29638   4.506   0.707   5.727 -0.2269  0.3536 -0.6352
 6001SOL    HW129639   4.535   0.668   5.809 -0.4230 -0.2580 -0.8625
 6001SOL    HW229640   4.411   0.698   5.727 -0.0057 -1.8850  0.7157
 6002SOL     OW29641   3.905   0.510  12.562  0.2489 -0.2557 -0.2053
 6002SOL    HW129642   3.892   0.476  12.651 -0.1446 -1.2056 -0.6277
 6002SOL    HW229643   3.959   0.583  12.591 -0.8628  0.1734  0.7858
 6003SOL     OW29644   1.905   2.515   6.827  0.0228  0.3429  0.0287
 6003SOL    HW129645   1.911   2.527   6.922  1.1010  1.8706 -0.2222
 6003SOL    HW229646   1.922   2.422   6.815 -0.0236  0.1114  1.6840
 6004SOL     OW29647   3.001   4.229   6.221  0.3190  0.0353 -0.1994
 6004SOL    HW129648   3.063   4.258   6.289 -0.9332 -0.0596  0.9909
 6004SOL    HW229649   2.954   4.310   6.199 -0.0692 -0.7666 -2.3004
 6005SOL     OW29650   1.082   4.223  10.795  0.0206  0.0738  0.2641
 6005SOL    HW129651   1.158   4.166  10.788 -0.0940 -0.0163 -0.1893
 6005SOL    HW229652   1.033   4.174  10.861  1.0603 -0.5909  0.5377
 6006SOL     OW29653   1.122   4.439  12.935 -0.1165  0.0341 -0.2305
 6006SOL    HW129654   1.149   4.454  12.844 -2.7609  1.0712 -0.8329
 6006SOL    HW229655   1.153   4.516  12.983 -1.3444  1.3252 -1.5212
 6007SOL     OW29656   2.677   2.705   7.115  0.1119  0.0494  0.2527
 6007SOL    HW129657   2.752   2.658   7.152  0.3147  0.5220  0.4297
 6007SOL    HW229658   2.608   2.666   7.170  0.7268  0.6002  1.4130
 6008SOL     OW29659   1.185   2.360   7.272  0.2188 -0.5194  0.3423
 6008SOL    HW129660   1.192   2.379   7.179 -0.8937  0.9628  0.5737
 6008SOL    HW229661   1.118   2.292   7.261  0.0121 -0.3497  0.5424
 6009SOL     OW29662   4.318   4.670  10.876  0.8234 -0.0400  0.2706
 6009SOL    HW129663   4.285   0.018  10.854 -0.6246 -0.8457 -0.7538
 6009SOL    HW229664   4.240   4.625  10.908  0.5884 -0.3894 -0.8298
 6010SOL     OW29665   3.455   4.265   3.779 -0.6943 -0.1303 -0.3328
 6010SOL    HW129666   3.518   4.326   3.740  0.3844 -0.4892  0.8428
 6010SOL    HW229667   3.373   4.310   3.761  0.3955  1.9928  0.0273
 6011SOL     OW29668   1.796   4.651   5.707  0.0045 -0.1457 -0.1982
 6011SOL    HW129669   1.759   4.571   5.745  3.2131 -0.9980  1.1211
 6011SOL    HW229670   1.879   4.654   5.755  0.7618 -0.8339 -1.4479
 6012SOL     OW29671   0.941   0.197   8.324  0.1075 -0.2407  0.0504
 6012SOL    HW129672   0.901   0.133   8.266 -2.4028 -0.0027  1.4987
 6012SOL    HW229673   0.905   0.279   8.290  0.4122 -0.5654 -1.0531
 6013SOL     OW29674   3.695   3.268   6.268 -1.0571  0.0212 -0.6195
 6013SOL    HW129675   3.695   3.180   6.229 -1.6807  0.4522 -1.5935
 6013SOL    HW229676   3.695   3.324   6.191  1.7466 -0.7683 -1.1927
 6014SOL     OW29677   3.793   3.104   9.636 -0.5334  0.0971 -0.3126
 6014SOL    HW129678   3.704   3.079   9.661 -1.5068  2.2851 -1.6758
 6014SOL    HW229679   3.852   3.031   9.657  0.4450  1.3808  1.4388
 6015SOL     OW29680   0.784   1.395   5.666  0.3211 -0.2081  0.6346
 6015SOL    HW129681   0.692   1.375   5.679  0.5457 -0.2502  2.2209
 6015SOL    HW229682   0.779   1.440   5.582 -1.3671 -0.6642  0.4951
 6016SOL     OW29683   1.833   4.473   7.406  0.0583 -0.0501 -0.3534
 6016SOL    HW129684   1.885   4.551   7.386  0.9184 -1.1045 -2.1772
 6016SOL    HW229685   1.884   4.405   7.362 -2.2274 -2.1147  0.1560
 6017SOL     OW29686   0.564   4.534   4.051 -0.0658 -0.8476 -0.1202
 6017SOL    HW129687   0.523   4.482   3.982 -1.2916  0.4050 -0.3356
 6017SOL    HW229688   0.651   4.545   4.012 -0.8796  1.1355 -1.3405
 6018SOL     OW29689   2.065   4.608  11.882  0.2525 -0.0608  0.8034
 6018SOL    HW129690   2.035   4.659  11.957 -1.9843 -1.0845  0.6137
 6018SOL    HW229691   2.142   4.660  11.860  0.5894 -1.0590 -0.3617
 6019SOL     OW29692   0.181   3.753   4.223 -0.2667  0.0597  0.3555
 6019SOL    HW129693   0.144   3.675   4.264  0.2614 -0.4934 -0.2257
 6019SOL    HW229694   0.127   3.766   4.145  0.5845 -0.0465 -0.2522
 6020SOL     OW29695   3.639   4.126   5.180  0.2064  0.5723 -0.2143
 6020SOL    HW129696   3.581   4.174   5.121 -0.5858 -0.9492 -0.6763
 6020SOL    HW229697   3.602   4.039   5.166  2.1818 -0.4146  0.7483
 6021SOL     OW29698   4.727   2.506  11.515 -0.3194 -0.1341 -0.3092
 6021SOL    HW129699   0.012   2.596  11.493 -1.9932  1.0390  2.6816
 6021SOL    HW229700   4.679   2.523  11.596 -2.3664 -0.4824 -1.4452
 6022SOL     OW29701   3.211   2.914  11.706 -0.5605  0.9236 -0.4399
 6022SOL    HW129702   3.283   2.923  11.643 -0.4072 -0.2120 -0.4155
 6022SOL    HW229703   3.221   2.994  11.758  2.7507  0.8008 -0.8809
 6023SOL     OW29704   2.604   3.917  15.556 -0.5058  0.2686  0.6054
 6023SOL    HW129705   2.697   3.936  15.546 -0.0395 -1.3382  2.0890
 6023SOL    HW229706   2.593   3.871  15.473  1.1498 -2.7029  2.0432
 6024SOL     OW29707   2.947   0.332  14.114 -0.2784  0.3658 -0.3650
 6024SOL    HW129708   2.979   0.367  14.197 -0.1884  1.6689 -0.9526
 6024SOL    HW229709   2.999   0.254  14.097 -0.8669 -0.4049  1.3514
 6025SOL     OW29710   2.966   1.691  11.724 -0.1001  0.1290 -0.6944
 6025SOL    HW129711   2.899   1.636  11.684 -0.1844  0.9734 -1.7171
 6025SOL    HW229712   3.040   1.687  11.663  0.8138  0.5199  0.3751
 6026SOL     OW29713   2.144   4.161   2.722  0.0956 -0.8025  0.0318
 6026SOL    HW129714   2.162   4.236   2.778 -0.1738 -1.7718  1.4238
 6026SOL    HW229715   2.078   4.114   2.773  0.5567 -2.0324 -0.4936
 6027SOL     OW29716   0.630   2.781   6.114  0.6061  0.4082  0.1616
 6027SOL    HW129717   0.699   2.751   6.173 -0.3494  0.1532  1.1584
 6027SOL    HW229718   0.669   2.830   6.042 -1.9246  3.1795  0.6443
 6028SOL     OW29719   3.504   3.386  11.466  0.1420 -0.2141 -0.4149
 6028SOL    HW129720   3.499   3.331  11.388  1.2725 -0.5463 -0.2483
 6028SOL    HW229721   3.561   3.459  11.442 -0.3819  1.2663  2.9474
 6029SOL     OW29722   0.764   3.547   3.111 -0.5803 -0.1577  1.1380
 6029SOL    HW129723   0.670   3.552   3.126 -0.8726  0.0517 -0.7800
 6029SOL    HW229724   0.779   3.636   3.079  0.1866 -1.2492 -1.5261
 6030SOL     OW29725   2.344   3.486   8.531 -0.0444  0.1013 -0.5036
 6030SOL    HW129726   2.358   3.566   8.480 -1.2744  0.9338  0.4526
 6030SOL    HW229727   2.431   3.450   8.513  0.5647  1.4967 -0.3504
 6031SOL     OW29728   2.171   3.541   3.036  0.3472 -0.5608  0.2473
 6031SOL    HW129729   2.244   3.487   3.004  2.0375  0.8748  1.6400
 6031SOL    HW229730   2.171   3.528   3.131  0.8601  0.6755  0.4170
 6032SOL     OW29731   1.409   4.723  16.495  0.3693  0.0982 -0.2005
 6032SOL    HW129732   1.494   4.680  16.509  0.9835  1.7325  1.0601
 6032SOL    HW229733   1.341   4.657  16.506  1.3930 -0.8581  0.3774
 6033SOL     OW29734   0.568   4.151   6.328 -0.2258  0.1831  0.0778
 6033SOL    HW129735   0.652   4.188   6.355  0.4136 -0.8706 -0.4524
 6033SOL    HW229736   0.536   4.125   6.414 -1.9194  1.2071 -0.2373
 6034SOL     OW29737   2.877   2.423   3.374  0.7099  0.1245  0.0540
 6034SOL    HW129738   2.882   2.501   3.320  1.2806 -1.1853 -1.8141
 6034SOL    HW229739   2.829   2.360   3.319  1.3232 -0.9617  0.7649
 6035SOL     OW29740   4.214   2.256  15.221  0.0183  0.1162 -0.5488
 6035SOL    HW129741   4.209   2.322  15.291 -0.7532 -2.1079  1.4771
 6035SOL    HW229742   4.147   2.287  15.159  0.0590 -0.9925 -1.1407
 6036SOL     OW29743   2.300   2.524   8.823  0.2282 -0.0762 -0.4022
 6036SOL    HW129744   2.299   2.582   8.899 -1.3466  0.1335 -0.5862
 6036SOL    HW229745   2.262   2.579   8.755 -1.8663  0.0316  0.8784
 6037SOL     OW29746   0.754   3.062  12.750  0.6310 -0.2121  0.4168
 6037SOL    HW129747   0.730   3.110  12.829  0.3954  0.5886 -0.1397
 6037SOL    HW229748   0.777   2.973  12.778 -0.0934 -1.0832 -1.7682
 6038SOL     OW29749   3.307   4.087   0.788 -0.1364  0.0864 -0.4310
 6038SOL    HW129750   3.385   4.143   0.787 -0.4891  0.5784 -0.3655
 6038SOL    HW229751   3.350   4.006   0.814 -2.1501 -1.9412 -3.3515
 6039SOL     OW29752   4.504   2.489   2.480  0.4509 -0.4126  0.5043
 6039SOL    HW129753   4.451   2.455   2.553  0.5873  0.4097  0.9866
 6039SOL    HW229754   4.439   2.466   2.414  0.4416 -0.8283  0.6600
 6040SOL     OW29755   3.035   4.085   6.971 -0.5585  0.7903 -1.0073
 6040SOL    HW129756   3.116   4.132   6.992  0.6938 -1.7010 -0.2982
 6040SOL    HW229757   3.027   4.122   6.883 -0.0414  0.8667 -1.0263
 6041SOL     OW29758   3.541   1.891   4.725 -0.0527 -0.3840 -0.1029
 6041SOL    HW129759   3.467   1.846   4.766 -1.0316 -0.1405 -1.6140
 6041SOL    HW229760   3.485   1.932   4.659 -0.1569 -1.8149 -0.9159
 6042SOL     OW29761   1.689   3.039  15.381  0.4144 -0.3996 -0.0255
 6042SOL    HW129762   1.603   3.006  15.406 -0.6410  0.3331 -2.6873
 6042SOL    HW229763   1.751   2.979  15.422  0.1715 -0.7378 -0.1610
 6043SOL     OW29764   3.535   3.344  16.853  0.1536 -0.4950 -0.3593
 6043SOL    HW129765   3.445   3.314  16.846  0.1402 -0.7912  1.0976
 6043SOL    HW229766   3.534   3.431  16.812 -1.2334 -0.7262 -0.8048
 6044SOL     OW29767   2.197   2.438   3.288 -0.5165  0.6881  0.6764
 6044SOL    HW129768   2.174   2.427   3.196  2.0607 -2.3968  0.4323
 6044SOL    HW229769   2.126   2.492   3.322 -2.5588 -1.0156 -0.8792
 6045SOL     OW29770   4.313   0.388  11.524 -0.1844  0.0010 -0.5300
 6045SOL    HW129771   4.346   0.347  11.605 -0.0347 -0.7040 -0.9434
 6045SOL    HW229772   4.399   0.403  11.484  0.7371  0.3589  1.5538
 6046SOL     OW29773   0.695   0.289   2.972  0.4085 -0.1122 -0.0708
 6046SOL    HW129774   0.658   0.230   3.038  2.0400  0.3382  1.2330
 6046SOL    HW229775   0.789   0.278   2.987  0.5113  0.8338 -0.0163
 6047SOL     OW29776   1.959   1.499   4.496 -0.4762  0.1619 -0.4258
 6047SOL    HW129777   1.923   1.427   4.548  2.0006  1.9831  3.8270
 6047SOL    HW229778   1.960   1.452   4.413  0.7937 -1.2477  0.3916
 6048SOL     OW29779   4.228   3.205  11.529  0.3905 -0.0122 -0.4773
 6048SOL    HW129780   4.204   3.295  11.551  1.3410  0.3527 -0.9184
 6048SOL    HW229781   4.156   3.169  11.476 -1.2240  0.4624  1.3857
 6049SOL     OW29782   2.407   1.843   5.947 -0.2068 -0.0024  0.3738
 6049SOL    HW129783   2.494   1.820   5.914 -0.7478  0.6318 -1.5256
 6049SOL    HW229784   2.360   1.873   5.869 -0.2979 -2.9260 -0.6994
 6050SOL     OW29785   3.608   0.363   0.764  0.3890 -0.4582 -0.5228
 6050SOL    HW129786   3.591   0.435   0.704  0.4895  1.6959  2.0046
 6050SOL    HW229787   3.685   0.407   0.799  2.2288 -2.6030 -1.9002
 6051SOL     OW29788   3.773   3.538   5.749  0.0428  0.0959  0.2565
 6051SOL    HW129789   3.730   3.623   5.746  0.1575  0.1857  1.4027
 6051SOL    HW229790   3.697   3.481   5.764  1.3108 -1.7122 -0.1014
 6052SOL     OW29791   4.484   2.964  16.137 -0.4061  0.2184  0.5057
 6052SOL    HW129792   4.477   2.896  16.069 -0.2721 -1.2295  1.9326
 6052SOL    HW229793   4.492   2.916  16.220 -0.5414  0.6246  0.7537
 6053SOL     OW29794   1.941   1.852   2.140 -0.1611  0.5523  0.5153
 6053SOL    HW129795   2.034   1.837   2.124 -0.2584  1.4246 -0.8839
 6053SOL    HW229796   1.920   1.772   2.186 -4.5394  1.7181  0.5551
 6054SOL     OW29797   4.350   4.347   6.893 -0.0975 -0.3638 -0.1469
 6054SOL    HW129798   4.430   4.312   6.933 -0.8916  0.0707  1.8117
 6054SOL    HW229799   4.380   4.436   6.875  0.4369 -0.8629 -1.7858
 6055SOL     OW29800   2.392   1.094   5.980  0.2921 -0.0362 -0.3492
 6055SOL    HW129801   2.471   1.048   6.006  0.7370  0.9981  0.1396
 6055SOL    HW229802   2.322   1.052   6.029 -0.4771  0.1830 -1.2614
 6056SOL     OW29803   3.163   2.734   4.959 -0.2857  0.5383 -0.5100
 6056SOL    HW129804   3.092   2.777   4.911 -0.4732  1.2149  0.3727
 6056SOL    HW229805   3.138   2.755   5.049 -4.4741  0.7005 -1.6924
 6057SOL     OW29806   3.232   0.383   6.843  0.0547  0.4480  0.1097
 6057SOL    HW129807   3.280   0.316   6.794  1.8315  0.1663  2.2277
 6057SOL    HW229808   3.282   0.382   6.925  0.2434  0.6224 -0.0027
 6058SOL     OW29809   3.340   1.680   2.730 -0.5993 -0.3784  0.1197
 6058SOL    HW129810   3.330   1.658   2.638 -0.5176  1.3600 -0.2850
 6058SOL    HW229811   3.370   1.770   2.721  0.8449 -0.9966 -1.2929
 6059SOL     OW29812   1.621   3.783   2.923  0.3195  0.3032  0.4399
 6059SOL    HW129813   1.564   3.840   2.872 -1.8973 -0.5309  1.9616
 6059SOL    HW229814   1.649   3.842   2.992 -0.6132 -0.3049  1.3405
 6060SOL     OW29815   2.508   2.006   9.761  0.1649  0.7351  0.4363
 6060SOL    HW129816   2.522   1.915   9.733 -1.6310  0.6931 -0.2933
 6060SOL    HW229817   2.413   1.999   9.768 -0.1216  2.2137 -2.1333
 6061SOL     OW29818   2.781   0.201  12.464  0.1104 -0.4027  0.4055
 6061SOL    HW129819   2.713   0.163  12.409  0.8145 -1.4339  0.2418
 6061SOL    HW229820   2.758   0.293  12.478  2.0850  0.0613  0.5715
 6062SOL     OW29821   2.984   1.693   2.081 -0.0857  0.5119 -0.1571
 6062SOL    HW129822   2.988   1.602   2.111 -0.5162  0.7022  0.4846
 6062SOL    HW229823   2.891   1.715   2.073 -0.1976  0.6742  1.6256
 6063SOL     OW29824   4.288   1.970   9.376  0.5328  0.0848  0.3960
 6063SOL    HW129825   4.343   1.940   9.448  1.8478 -1.9631 -1.4704
 6063SOL    HW229826   4.215   1.914   9.404  1.0649 -1.4236 -1.2146
 6064SOL     OW29827   3.804   0.513   5.100  0.2093 -0.4087 -0.6750
 6064SOL    HW129828   3.797   0.496   5.006  1.3543  1.6037 -1.1134
 6064SOL    HW229829   3.731   0.462   5.136  1.8571 -1.4798  1.1550
 6065SOL     OW29830   2.495   0.473   2.159  0.3460 -0.2500  0.7443
 6065SOL    HW129831   2.563   0.413   2.129 -2.6146 -2.2538 -1.9575
 6065SOL    HW229832   2.428   0.412   2.190 -0.0411  0.1289  0.6477
 6066SOL     OW29833   0.562   0.869   7.476  0.0477 -0.1881  0.3940
 6066SOL    HW129834   0.618   0.945   7.485 -0.8969  0.8773 -2.5511
 6066SOL    HW229835   0.615   0.804   7.522  1.7106  1.4999  0.8780
 6067SOL     OW29836   0.340   1.120   6.289  0.3637 -0.0680  0.4509
 6067SOL    HW129837   0.349   1.046   6.348  1.5257  1.5987  2.3904
 6067SOL    HW229838   0.347   1.194   6.350  0.5324  0.1354  0.1891
 6068SOL     OW29839   0.095   2.775   4.044  0.0156  0.2739  0.0712
 6068SOL    HW129840   0.138   2.854   4.010 -1.6724  1.7460  1.3327
 6068SOL    HW229841   0.005   2.804   4.031 -0.7762 -3.3451 -2.3573
 6069SOL     OW29842   4.430   1.654   5.773  0.0524  0.1489 -0.1839
 6069SOL    HW129843   4.376   1.642   5.851 -0.5418 -0.3569 -0.6695
 6069SOL    HW229844   4.369   1.626   5.705 -1.3769 -0.7123  1.4539
 6070SOL     OW29845   4.277   2.970   1.840  0.2148  0.3389  0.1503
 6070SOL    HW129846   4.245   3.040   1.783 -1.0044 -1.6426 -1.5822
 6070SOL    HW229847   4.320   2.911   1.778  0.7737 -1.0749  1.9064
 6071SOL     OW29848   0.844   1.808   9.153 -0.3451 -0.0740  0.0949
 6071SOL    HW129849   0.881   1.867   9.087  1.2881 -1.1449  0.0514
 6071SOL    HW229850   0.750   1.827   9.159 -0.4311 -0.7245  0.7476
 6072SOL     OW29851   0.984   3.830   6.768 -0.5667 -0.7156 -0.2818
 6072SOL    HW129852   1.060   3.883   6.744 -0.8022 -0.3635 -0.2408
 6072SOL    HW229853   1.019   3.763   6.826 -2.5868 -1.0404  0.5736
 6073SOL     OW29854   1.362   0.076   8.194  0.5343 -0.2988 -0.0694
 6073SOL    HW129855   1.429   0.096   8.128 -0.2164  3.2568  0.2408
 6073SOL    HW229856   1.351   4.722   8.177 -0.9073 -0.0675 -0.4227
 6074SOL     OW29857   4.323   0.058  14.062 -0.1005 -0.4720  0.2088
 6074SOL    HW129858   4.281   4.721  14.101  0.0697 -0.3816  0.5696
 6074SOL    HW229859   4.372   0.090  14.138  0.7847  0.0954 -0.5986
 6075SOL     OW29860   3.407   2.445  15.173  0.3142 -0.5054 -0.1747
 6075SOL    HW129861   3.427   2.538  15.172 -0.3499 -0.3606  1.1463
 6075SOL    HW229862   3.470   2.422  15.241 -0.4896 -2.1442  0.0101
 6076SOL     OW29863   1.228   2.562   7.971  0.0700  0.5972 -0.3595
 6076SOL    HW129864   1.162   2.538   8.035 -0.1311 -0.3475 -0.9203
 6076SOL    HW229865   1.227   2.658   7.969 -0.8867  0.5638 -1.4176
 6077SOL     OW29866   1.578   3.029  17.268 -0.1331 -0.4672 -0.2768
 6077SOL    HW129867   1.483   3.039  17.278  0.3025  0.8667  2.6965
 6077SOL    HW229868   1.590   3.111  17.220  2.0107 -0.8196 -0.3076
 6078SOL     OW29869   0.649   1.169   6.187  0.3986 -0.6489  0.4176
 6078SOL    HW129870   0.562   1.198   6.215  0.3556  0.5246 -0.9072
 6078SOL    HW229871   0.662   1.237   6.121 -0.8749  0.5277  1.3806
 6079SOL     OW29872   0.367   4.348   8.032  0.8617 -0.3575  0.1987
 6079SOL    HW129873   0.284   4.323   7.991  0.4473 -0.3284  1.0070
 6079SOL    HW229874   0.350   4.318   8.122  1.3225  1.9478  1.0674
 6080SOL     OW29875   4.029   0.360   4.362 -0.2401  0.1907 -0.3572
 6080SOL    HW129876   4.103   0.301   4.380 -0.2480  0.1422 -0.4867
 6080SOL    HW229877   3.974   0.328   4.434  2.2893  2.3462  2.5659
 6081SOL     OW29878   2.665   4.474   7.079 -0.0050 -0.2274 -0.1455
 6081SOL    HW129879   2.679   4.434   7.165  0.0027  1.3472  0.5909
 6081SOL    HW229880   2.571   4.466   7.064 -0.1104 -0.4050  0.5866
 6082SOL     OW29881   4.491   0.166   7.159  0.2697 -0.7779 -0.3386
 6082SOL    HW129882   4.453   0.081   7.133 -1.2472 -0.6313  1.3609
 6082SOL    HW229883   4.538   0.198   7.082  0.1999 -0.4201 -0.2282
 6083SOL     OW29884   4.366   3.385   2.180  0.1497  0.3689  0.6488
 6083SOL    HW129885   4.427   3.433   2.124 -0.3435 -1.4392 -1.4472
 6083SOL    HW229886   4.294   3.354   2.125  1.0302 -0.8363  0.1704
 6084SOL     OW29887   4.641   4.523   3.065  0.2327  0.1951 -0.0279
 6084SOL    HW129888   4.620   4.517   2.972 -0.4776 -0.5487  0.1875
 6084SOL    HW229889   4.671   4.612   3.082  4.0266 -0.6303 -2.2476
 6085SOL     OW29890   1.799   0.393   5.013  0.8039  0.0854 -0.3185
 6085SOL    HW129891   1.742   0.448   5.066  0.1152  0.6624 -1.6428
 6085SOL    HW229892   1.839   0.340   5.082  0.3879  0.3069  0.0883
 6086SOL     OW29893   3.626   3.448   3.172 -0.1600  0.5810  0.1005
 6086SOL    HW129894   3.561   3.397   3.220  0.8942  0.4421  1.3740
 6086SOL    HW229895   3.660   3.518   3.228  0.1783  1.4254 -1.1533
 6087SOL     OW29896   4.159   4.566   7.510 -0.1484  0.1783  0.2858
 6087SOL    HW129897   4.109   4.491   7.541 -1.4074  0.1879 -1.6863
 6087SOL    HW229898   4.134   4.628   7.578  1.4803  0.6406  0.4718
 6088SOL     OW29899   0.137   0.295   7.133 -0.1345 -0.2519 -0.0270
 6088SOL    HW129900   0.136   0.358   7.060 -0.9680 -2.0010 -1.5191
 6088SOL    HW229901   0.138   0.353   7.209  1.0750  0.4475 -0.5676
 6089SOL     OW29902   3.001   0.851  11.568 -0.3510  0.2357  0.0112
 6089SOL    HW129903   2.918   0.898  11.559 -0.9537 -1.1698 -1.8268
 6089SOL    HW229904   3.029   0.843  11.477 -0.7617  2.2209 -0.2873
 6090SOL     OW29905   1.372   0.219  14.284  0.2788 -0.0620  0.0461
 6090SOL    HW129906   1.459   0.209  14.246  0.4052  0.1585  0.2750
 6090SOL    HW229907   1.368   0.152  14.352  1.4088 -0.1654  0.0165
 6091SOL     OW29908   2.220   1.882   2.048 -0.3659  0.5318 -0.4936
 6091SOL    HW129909   2.272   1.957   2.079  2.0828 -1.5093  0.2904
 6091SOL    HW229910   2.198   1.914   1.961  0.6441 -0.8286 -1.2422
 6092SOL     OW29911   0.016   0.855  17.218 -0.1837  0.0560  0.3477
 6092SOL    HW129912   4.731   0.777  17.168  0.8192 -0.0016 -0.0495
 6092SOL    HW229913   0.111   0.859  17.223 -0.1275 -1.0178 -0.0167
 6093SOL     OW29914   3.490   2.444   0.481  0.3045  0.4630 -0.2544
 6093SOL    HW129915   3.421   2.383   0.453  1.0607 -1.4794  2.1396
 6093SOL    HW229916   3.444   2.517   0.524 -0.1062  1.7645 -2.9342
 6094SOL     OW29917   1.758   3.958   8.560 -0.1062 -0.4088 -0.2544
 6094SOL    HW129918   1.722   4.020   8.497 -2.3476  0.6724  2.0922
 6094SOL    HW229919   1.849   3.987   8.554 -0.3803  0.7031  0.7242
 6095SOL     OW29920   1.336   4.065  11.739 -0.0364 -0.4049  0.5119
 6095SOL    HW129921   1.414   4.068  11.684  0.2348 -0.4705  0.8854
 6095SOL    HW229922   1.368   4.023  11.819 -0.5640  1.6488  1.8096
 6096SOL     OW29923   0.925   4.612  12.227  0.1146 -0.0523  0.2184
 6096SOL    HW129924   0.947   4.645  12.314  0.1488 -0.3077  0.3050
 6096SOL    HW229925   0.841   4.568  12.241  0.0051 -0.5877 -2.0930
 6097SOL     OW29926   2.401   2.235   5.188  0.1115 -0.1670 -0.2065
 6097SOL    HW129927   2.329   2.179   5.159 -1.6635  1.4626  1.1105
 6097SOL    HW229928   2.454   2.239   5.109  2.0974  0.8834  1.1884
 6098SOL     OW29929   1.031   0.510  13.952 -0.1566 -0.1269 -0.1516
 6098SOL    HW129930   1.048   0.598  13.986 -0.7998 -0.4008  0.8746
 6098SOL    HW229931   1.095   0.508  13.881 -0.5468  0.5390 -0.5247
 6099SOL     OW29932   2.686   0.969  14.487 -0.7519  0.3459  0.6472
 6099SOL    HW129933   2.746   1.038  14.515 -1.9943  1.3143  0.9623
 6099SOL    HW229934   2.746   0.898  14.470 -0.0123  0.4571  2.7297
 6100SOL     OW29935   4.685   2.847   8.143  0.1772  0.5372  0.1122
 6100SOL    HW129936   0.015   2.911   8.125  1.2514 -0.6099  0.1405
 6100SOL    HW229937   4.722   2.792   8.212  0.2517 -3.1367 -2.8174
 6101SOL     OW29938   3.623   4.049   4.771 -0.5237 -0.4779 -0.4719
 6101SOL    HW129939   3.681   3.984   4.730  1.3281 -1.3979  3.5815
 6101SOL    HW229940   3.535   4.013   4.756 -0.8393 -0.8518  2.2536
 6102SOL     OW29941   3.801   1.951   8.308  0.3982 -0.1955  0.3771
 6102SOL    HW129942   3.843   1.965   8.223  0.6497 -0.6945  0.4219
 6102SOL    HW229943   3.745   1.876   8.287 -1.0304  0.7934  0.6662
 6103SOL     OW29944   2.978   1.613  16.993  0.7449  0.1233  0.3803
 6103SOL    HW129945   3.063   1.634  17.031 -0.0026 -1.6578  3.0314
 6103SOL    HW229946   2.994   1.530  16.948  0.3789 -0.4592  1.3217
 6104SOL     OW29947   2.707   4.051   5.386  0.0084  0.9485 -0.1366
 6104SOL    HW129948   2.737   4.069   5.297 -0.1395  1.7076 -0.0360
 6104SOL    HW229949   2.770   4.099   5.439 -0.2953  0.6582  0.4932
 6105SOL     OW29950   1.594   0.381   3.765 -0.2600 -0.1459 -0.5899
 6105SOL    HW129951   1.576   0.311   3.827 -1.8002  1.0344  0.2803
 6105SOL    HW229952   1.564   0.463   3.804  1.0239  0.7975 -1.5516
 6106SOL     OW29953   2.459   2.648   3.547 -0.3585  0.7972 -0.2160
 6106SOL    HW129954   2.538   2.702   3.550  0.0689  0.2112 -0.8551
 6106SOL    HW229955   2.489   2.570   3.501 -0.3641  1.2551 -0.9997
 6107SOL     OW29956   2.979   2.635   1.292 -0.2241 -0.3483 -0.5828
 6107SOL    HW129957   3.023   2.640   1.207  1.4384 -0.5062  0.2616
 6107SOL    HW229958   3.054   2.648   1.350 -1.1399  1.7312  0.1493
 6108SOL     OW29959   3.838   1.545  10.034  0.2062  0.3694 -0.4339
 6108SOL    HW129960   3.748   1.549  10.067 -0.0626 -2.6792 -0.8676
 6108SOL    HW229961   3.860   1.452  10.030  1.5000  0.6987 -0.9699
 6109SOL     OW29962   0.415   4.307   1.899  0.0794  0.3767 -0.0407
 6109SOL    HW129963   0.320   4.296   1.895 -0.0986  2.7596 -2.0290
 6109SOL    HW229964   0.449   4.272   1.816  2.8752  1.3422  0.7015
 6110SOL     OW29965   2.624   1.998  12.095 -0.0676  0.3217  0.3093
 6110SOL    HW129966   2.568   1.962  12.026 -0.6081  1.8610 -0.0380
 6110SOL    HW229967   2.703   1.944  12.089 -0.4266 -0.5310  3.1517
 6111SOL     OW29968   1.820   1.033   5.985  0.1316 -0.0148 -0.1547
 6111SOL    HW129969   1.759   1.040   5.911 -0.8777 -2.4203  0.4412
 6111SOL    HW229970   1.895   0.995   5.939 -0.2244  0.9660 -1.5528
 6112SOL     OW29971   3.005   2.074   9.966  0.3130  0.6238 -0.0130
 6112SOL    HW129972   2.945   2.045   9.898 -1.0766 -1.3391  2.0360
 6112SOL    HW229973   2.968   2.029  10.042  1.5022 -0.6732 -0.1967
 6113SOL     OW29974   3.564   2.248   1.603 -0.1443  0.5412  0.1271
 6113SOL    HW129975   3.632   2.216   1.544  0.4304  0.0414  1.0534
 6113SOL    HW229976   3.499   2.218   1.539 -0.0350 -1.3844  0.9212
 6114SOL     OW29977   3.134   3.025   4.214 -0.2070 -0.1985 -0.6687
 6114SOL    HW129978   3.059   3.082   4.229 -2.4195 -2.0356 -4.6908
 6114SOL    HW229979   3.135   2.976   4.297 -2.8925  1.4665  0.3459
 6115SOL     OW29980   2.019   1.650   3.988 -0.3027  0.4549 -0.1782
 6115SOL    HW129981   2.038   1.743   3.975 -0.9794  0.6807  0.4039
 6115SOL    HW229982   2.095   1.606   3.952 -1.3528 -0.7173 -0.9542
 6116SOL     OW29983   2.422   4.495   8.033  0.4006  0.3907 -0.3114
 6116SOL    HW129984   2.503   4.490   8.083 -1.0166  1.7123  2.1111
 6116SOL    HW229985   2.363   4.441   8.085  0.2482  1.1089  0.2692
 6117SOL     OW29986   4.321   0.423  10.373 -0.2822 -0.2564 -0.0360
 6117SOL    HW129987   4.378   0.371  10.316  1.3951  0.8924  0.5763
 6117SOL    HW229988   4.361   0.426  10.460  1.3255  1.3120 -0.8227
 6118SOL     OW29989   3.082   4.154   4.594 -0.3961  0.1996  0.2571
 6118SOL    HW129990   3.178   4.160   4.599 -0.5394  1.3809  1.4462
 6118SOL    HW229991   3.055   4.227   4.540 -0.7767  0.0073  0.1899
 6119SOL     OW29992   2.351   2.093   2.115  0.1118 -0.2230  0.4498
 6119SOL    HW129993   2.365   2.166   2.176 -0.6776  1.6907 -1.6337
 6119SOL    HW229994   2.402   2.127   2.041  1.5322 -0.7242  1.2000
 6120SOL     OW29995   1.401   2.208   4.944  0.3355  0.5835  0.2695
 6120SOL    HW129996   1.336   2.224   4.875  0.4386 -1.6954 -0.3448
 6120SOL    HW229997   1.443   2.294   4.948  0.2313  0.4790  3.4255
 6121SOL     OW29998   3.203   2.092  14.347  0.9659 -0.8616  0.6541
 6121SOL    HW129999   3.196   2.002  14.380 -2.6863 -0.4788  0.9262
 6121SOL    HW230000   3.192   2.082  14.253 -1.5412 -0.8312  0.9412
 6122SOL     OW30001   4.605   3.636   3.353 -0.4918  0.6524  0.1087
 6122SOL    HW130002   4.512   3.649   3.333 -0.1160  1.8291 -0.8830
 6122SOL    HW230003   4.643   3.647   3.266 -1.3482 -1.5064 -0.5442
 6123SOL     OW30004   1.544   0.597  15.400  0.1704  0.5755 -0.1819
 6123SOL    HW130005   1.597   0.520  15.419  1.1390  0.9407 -1.4789
 6123SOL    HW230006   1.607   0.667  15.381  0.9596  0.1016  0.6974
 6124SOL     OW30007   3.128   2.865  10.240  0.1721  0.2539  0.1410
 6124SOL    HW130008   3.209   2.903  10.204  0.0823  0.1916 -0.1253
 6124SOL    HW230009   3.094   2.944  10.282  0.0349  0.0070  0.4959
 6125SOL     OW30010   4.374   3.787   4.366 -0.1459  0.0223 -0.0401
 6125SOL    HW130011   4.386   3.798   4.460 -0.9382 -0.8348  0.1555
 6125SOL    HW230012   4.321   3.708   4.364 -0.7860  0.3901  2.3538
 6126SOL     OW30013   3.825   1.367  12.498 -0.6705 -0.1442  0.1433
 6126SOL    HW130014   3.752   1.422  12.528 -1.1373 -0.7735  0.1571
 6126SOL    HW230015   3.886   1.439  12.480  0.7516 -1.3885  0.0794
 6127SOL     OW30016   0.005   1.838   3.725 -0.0606  0.3848  0.2213
 6127SOL    HW130017   0.005   1.888   3.643  3.4446 -0.7120 -0.4525
 6127SOL    HW230018   0.040   1.912   3.773  0.0796  0.7940 -0.5062
 6128SOL     OW30019   4.403   0.865   7.998  0.1541 -0.2331  0.1076
 6128SOL    HW130020   4.420   0.945   7.947 -0.6644 -0.0639  0.1038
 6128SOL    HW230021   4.496   0.858   8.019 -0.0310 -2.6235  0.0949
 6129SOL     OW30022   3.197   2.266   2.334  0.0129  0.2602  0.3735
 6129SOL    HW130023   3.249   2.310   2.266 -1.5291  0.0914 -0.8861
 6129SOL    HW230024   3.113   2.312   2.328  0.1208  0.3222 -0.6324
 6130SOL     OW30025   2.800   1.002  11.509  0.1144  0.4009  0.0788
 6130SOL    HW130026   2.812   1.069  11.576  1.7234 -4.3678  4.6265
 6130SOL    HW230027   2.784   1.065  11.439 -2.0970 -2.6684 -2.1623
 6131SOL     OW30028   1.278   2.628   7.597 -0.3694 -0.0303  0.3716
 6131SOL    HW130029   1.198   2.602   7.552 -0.5285  0.7627  0.1964
 6131SOL    HW230030   1.328   2.657   7.520 -2.9383 -0.7483 -1.5633
 6132SOL     OW30031   1.693   3.483   5.680 -0.2901  0.1690  0.3849
 6132SOL    HW130032   1.632   3.545   5.720  0.4706  2.0694 -1.3898
 6132SOL    HW230033   1.677   3.483   5.585 -1.1169 -0.8410  0.5203
 6133SOL     OW30034   0.000   2.623   4.762  0.1945  0.1343  0.6318
 6133SOL    HW130035   4.669   2.559   4.766 -0.8671  1.4251  2.3771
 6133SOL    HW230036   0.074   2.562   4.758  0.2532  0.3793 -2.1681
 6134SOL     OW30037   4.338   4.407  15.263  0.2332  0.3060 -0.4733
 6134SOL    HW130038   4.365   4.379  15.350 -0.6487 -0.9978 -0.6038
 6134SOL    HW230039   4.304   4.494  15.280 -0.2203 -0.4442  2.4226
 6135SOL     OW30040   0.123   1.731   9.230 -0.3163  0.2193  0.7017
 6135SOL    HW130041   0.069   1.793   9.279 -1.4082  2.1214 -2.8945
 6135SOL    HW230042   0.208   1.743   9.271  1.0059  1.4132 -2.4244
 6136SOL     OW30043   2.031   1.745   7.508  0.2001 -0.1541  0.5419
 6136SOL    HW130044   2.047   1.836   7.532  2.2550 -0.0513 -1.2710
 6136SOL    HW230045   2.120   1.718   7.484 -0.7079 -1.0450 -1.9101
 6137SOL     OW30046   1.599   2.096   0.478 -0.1907  0.8484 -0.2684
 6137SOL    HW130047   1.657   2.121   0.550  2.4316  0.0859 -2.0760
 6137SOL    HW230048   1.670   2.066   0.420 -1.0256 -0.1668 -0.7623
 6138SOL     OW30049   2.358   3.700   2.686 -0.2355 -0.1272  0.1859
 6138SOL    HW130050   2.354   3.707   2.590  1.9637  2.7638  0.2840
 6138SOL    HW230051   2.452   3.707   2.698 -0.0958  0.8462 -1.4793
 6139SOL     OW30052   3.846   1.208   6.609 -0.1703 -0.6066  0.0120
 6139SOL    HW130053   3.937   1.180   6.616 -0.7592 -2.5432 -0.0350
 6139SOL    HW230054   3.815   1.233   6.697  0.2542 -1.0436  0.2864
 6140SOL     OW30055   1.451   0.658   8.196 -0.6252 -0.0447 -0.9175
 6140SOL    HW130056   1.438   0.687   8.106 -1.6438  1.2180 -0.3680
 6140SOL    HW230057   1.455   0.563   8.194  0.1772 -0.0467  0.6480
 6141SOL     OW30058   0.323   3.701  16.206 -0.5209 -0.0644  0.5322
 6141SOL    HW130059   0.249   3.649  16.237 -0.3985  0.0234  0.9792
 6141SOL    HW230060   0.277   3.749  16.138  0.6829 -1.0094 -0.9425
 6142SOL     OW30061   3.855   3.767   8.311 -0.0706  0.6087 -0.1169
 6142SOL    HW130062   3.895   3.683   8.290  2.2538  2.2019 -2.1297
 6142SOL    HW230063   3.797   3.740   8.382  1.1713 -1.8666 -0.0426
 6143SOL     OW30064   1.153   4.206   2.008 -0.3843  0.2934  0.1847
 6143SOL    HW130065   1.078   4.221   1.951  0.3196 -0.7935 -1.0377
 6143SOL    HW230066   1.209   4.148   1.956  1.1374  1.3539  0.6151
 6144SOL     OW30067   0.722   3.752  10.745 -0.2160  0.0952 -0.3205
 6144SOL    HW130068   0.694   3.728  10.834 -0.1719  1.6028  0.0931
 6144SOL    HW230069   0.806   3.793  10.761 -0.1630  0.3371 -1.2593
 6145SOL     OW30070   2.596   3.495   7.826 -1.1257 -0.0774  0.3585
 6145SOL    HW130071   2.583   3.590   7.826  0.1558  0.0994  1.6526
 6145SOL    HW230072   2.690   3.489   7.811 -1.3732  0.5090 -1.4646
 6146SOL     OW30073   2.565   0.927  16.046 -0.2354  0.3087 -0.2555
 6146SOL    HW130074   2.509   0.957  15.975 -1.2134 -1.6448 -0.2762
 6146SOL    HW230075   2.609   0.854  16.003  1.8965  0.2712  1.9478
 6147SOL     OW30076   3.280   0.997   7.178 -0.1702 -0.0173  0.0516
 6147SOL    HW130077   3.270   1.083   7.139 -0.3858  0.5854  1.4160
 6147SOL    HW230078   3.208   0.992   7.242  0.8362  0.2867  1.2078
 6148SOL     OW30079   4.382   3.895   8.330 -0.3294  0.1000  0.1539
 6148SOL    HW130080   4.308   3.945   8.365 -0.6787 -0.5525  0.3594
 6148SOL    HW230081   4.458   3.942   8.364  0.8137 -1.3886 -0.3341
 6149SOL     OW30082   2.360   3.878   3.371 -0.2307  0.5770 -0.1930
 6149SOL    HW130083   2.335   3.840   3.455  0.3351  0.1627 -0.2097
 6149SOL    HW230084   2.453   3.895   3.391  0.5836 -1.2603 -2.4407
 6150SOL     OW30085   2.569   4.178  15.653 -0.2530  0.3410 -0.7225
 6150SOL    HW130086   2.576   4.097  15.602  0.7181  0.6673 -1.1090
 6150SOL    HW230087   2.651   4.181  15.704 -0.7303 -2.4004  0.2354
 6151SOL     OW30088   4.307   2.309   9.435 -0.4260 -0.2320 -0.3932
 6151SOL    HW130089   4.227   2.310   9.488  1.0185  0.7546  1.7737
 6151SOL    HW230090   4.366   2.256   9.488 -1.4970 -0.2895  0.7511
 6152SOL     OW30091   3.975   3.551   5.372  0.4559  0.6036 -0.2492
 6152SOL    HW130092   4.035   3.559   5.446 -0.1372 -2.5408  0.5814
 6152SOL    HW230093   4.003   3.626   5.319 -0.4435  2.3242  1.7000
 6153SOL     OW30094   0.965   3.478   2.532 -0.0740 -0.4857  0.4891
 6153SOL    HW130095   0.995   3.502   2.620  1.4503  0.5941 -0.3436
 6153SOL    HW230096   1.029   3.519   2.475 -3.0982  2.2461 -0.9450
 6154SOL     OW30097   0.441   1.301  17.206 -0.0678  0.1902  0.2626
 6154SOL    HW130098   0.491   1.228  17.241  1.6242  0.9255 -0.5820
 6154SOL    HW230099   0.462   1.308  17.113 -1.7373 -2.3921 -0.2873
 6155SOL     OW30100   0.319   0.664   5.288  0.3488 -0.4719 -0.1501
 6155SOL    HW130101   0.379   0.653   5.362  0.4939  1.5878  0.0591
 6155SOL    HW230102   0.288   0.750   5.319  0.7174 -0.5049  0.3048
 6156SOL     OW30103   2.238   0.971   2.045 -0.8492  0.4762  0.2120
 6156SOL    HW130104   2.287   0.958   1.963  0.0641  0.0654  0.8234
 6156SOL    HW230105   2.159   0.921   2.022 -0.3369  0.0933 -0.7224
 6157SOL     OW30106   1.526   3.947   3.633 -0.3359 -0.7106 -0.1433
 6157SOL    HW130107   1.542   3.902   3.550  2.0438 -0.4617  0.1742
 6157SOL    HW230108   1.539   3.873   3.692 -0.9198 -1.0831 -0.4886
 6158SOL     OW30109   2.614   3.738  12.998 -0.3301  0.5822 -0.6732
 6158SOL    HW130110   2.694   3.788  12.982  1.0109 -1.4292 -0.2537
 6158SOL    HW230111   2.562   3.744  12.918 -1.1170 -1.7048 -0.3237
 6159SOL     OW30112   2.559   3.862   5.567 -0.3231  0.2152  0.1101
 6159SOL    HW130113   2.606   3.891   5.489  0.9517  1.2186  1.2562
 6159SOL    HW230114   2.589   3.772   5.571 -1.5084 -0.2631 -1.5860
 6160SOL     OW30115   3.649   3.789   8.089 -0.5434  0.2839 -0.3415
 6160SOL    HW130116   3.720   3.793   8.153  0.0808  0.9515 -1.0722
 6160SOL    HW230117   3.649   3.878   8.054 -1.6846  0.4844  0.1655
 6161SOL     OW30118   0.725   2.489   9.592  0.4847  0.7937 -0.0605
 6161SOL    HW130119   0.802   2.480   9.537 -0.9568 -1.5311 -1.7506
 6161SOL    HW230120   0.697   2.576   9.565 -0.8434  0.2628 -0.4146
 6162SOL     OW30121   2.438   2.381   7.243  0.2331  0.6954 -0.2598
 6162SOL    HW130122   2.504   2.428   7.294  1.1427 -2.2729  1.2664
 6162SOL    HW230123   2.361   2.417   7.286 -0.2679 -0.5777 -0.0773
 6163SOL     OW30124   1.260   3.816  16.819  0.2997 -0.4719  0.4589
 6163SOL    HW130125   1.316   3.880  16.776 -0.8577 -0.3820 -0.9138
 6163SOL    HW230126   1.289   3.816  16.910  0.9077 -5.3963  0.2716
 6164SOL     OW30127   0.644   3.413   8.091 -0.6514 -0.2984  0.2452
 6164SOL    HW130128   0.722   3.451   8.051 -0.6684  0.5262  1.0055
 6164SOL    HW230129   0.580   3.449   8.028 -2.8325  3.1751  4.4637
 6165SOL     OW30130   4.352   4.468   4.736  0.0055  0.2184  0.1720
 6165SOL    HW130131   4.424   4.436   4.791  1.3266  3.3931  0.2780
 6165SOL    HW230132   4.382   4.432   4.653  0.1960  2.9932 -0.9506
 6166SOL     OW30133   0.487   2.389   5.670 -0.2868  0.7658 -0.7592
 6166SOL    HW130134   0.429   2.325   5.629  0.4522 -0.2276 -0.2631
 6166SOL    HW230135   0.424   2.462   5.669 -0.3180  0.6970 -3.6676
 6167SOL     OW30136   4.719   4.675  14.354 -0.3131 -0.3251  0.1431
 6167SOL    HW130137   4.722   4.579  14.355  0.3539 -0.2853  2.0064
 6167SOL    HW230138   4.625   4.692  14.363 -0.6140 -1.2510 -1.3757
 6168SOL     OW30139   3.556   3.492   1.299  0.6195 -0.5439  0.4120
 6168SOL    HW130140   3.647   3.521   1.307  0.7431 -0.6125 -0.7388
 6168SOL    HW230141   3.564   3.452   1.212  2.3149  4.3081 -1.6733
 6169SOL     OW30142   4.339   3.202   7.581 -0.0451  0.2106 -0.2307
 6169SOL    HW130143   4.249   3.228   7.601  0.6286  2.6654 -0.4641
 6169SOL    HW230144   4.322   3.108   7.572  0.2860  0.1870 -0.6555
 6170SOL     OW30145   2.539   0.147   7.619  0.0792  0.6176 -0.0631
 6170SOL    HW130146   2.599   0.100   7.561 -1.9434 -1.4077 -0.4729
 6170SOL    HW230147   2.499   0.210   7.560  1.8291  1.0733 -0.7808
 6171SOL     OW30148   3.814   1.963   7.127 -0.3321 -0.4252 -0.3983
 6171SOL    HW130149   3.801   2.035   7.189 -0.2665 -1.0792  0.3756
 6171SOL    HW230150   3.844   1.889   7.180  0.8066 -1.3808 -2.3770
 6172SOL     OW30151   0.964   1.617   4.626 -1.0556  0.1000 -0.1650
 6172SOL    HW130152   0.980   1.550   4.691  0.8187  0.7395  0.0230
 6172SOL    HW230153   0.929   1.690   4.677 -0.2063  0.5005 -0.1597
 6173SOL     OW30154   3.607   0.589   1.861 -0.1774  0.6612 -0.1059
 6173SOL    HW130155   3.641   0.669   1.900 -1.1622  0.6475  0.7815
 6173SOL    HW230156   3.526   0.618   1.819  0.6850 -0.8190 -2.7640
 6174SOL     OW30157   0.515   1.754   8.693  0.9332  0.7238  0.2278
 6174SOL    HW130158   0.551   1.665   8.696 -2.1416 -0.5205  0.4164
 6174SOL    HW230159   0.568   1.805   8.632 -0.9331  1.3242 -0.8577
 6175SOL     OW30160   1.405   1.026   4.346  0.0033 -0.3127  0.0474
 6175SOL    HW130161   1.436   1.095   4.404  0.2801 -0.5031  0.1265
 6175SOL    HW230162   1.436   1.062   4.263  1.9175 -0.4611  0.6890
 6176SOL     OW30163   3.128   0.296   6.313  0.5546  0.5388  0.0507
 6176SOL    HW130164   3.057   0.361   6.315  0.0235  0.0126 -1.5619
 6176SOL    HW230165   3.131   0.279   6.407 -1.0372 -0.5290 -0.0987
 6177SOL     OW30166   2.606   2.873   7.902 -0.2160  0.0115 -0.5002
 6177SOL    HW130167   2.551   2.857   7.826 -0.5776  0.6383 -0.3729
 6177SOL    HW230168   2.562   2.938   7.956  0.0692  0.3658 -0.6987
 6178SOL     OW30169   0.272   3.683   6.046  0.3502  0.3069  0.0108
 6178SOL    HW130170   0.324   3.618   6.093 -0.7602 -0.7936 -0.3051
 6178SOL    HW230171   0.329   3.698   5.971 -0.8136  0.7494 -0.7857
 6179SOL     OW30172   4.208   2.223   6.449  0.0804 -0.4321 -0.5973
 6179SOL    HW130173   4.283   2.279   6.428  1.3443 -1.7867  0.3090
 6179SOL    HW230174   4.229   2.141   6.405 -3.3131 -2.1024  0.9083
 6180SOL     OW30175   3.464   1.965   5.224  0.2291  0.0425 -0.1614
 6180SOL    HW130176   3.402   2.022   5.180  0.8284 -0.2009 -1.3025
 6180SOL    HW230177   3.442   1.963   5.318 -2.7104  0.2696 -0.8232
 6181SOL     OW30178   4.136   1.523   7.162 -0.1588  0.2521  0.5131
 6181SOL    HW130179   4.169   1.580   7.094 -0.4217  1.1244  1.1165
 6181SOL    HW230180   4.220   1.494   7.197 -0.2019 -1.6940 -0.9785
 6182SOL     OW30181   3.948   2.873   9.699  0.5640 -0.2119 -0.1765
 6182SOL    HW130182   4.034   2.909   9.675  0.2223  1.2399  0.8018
 6182SOL    HW230183   3.966   2.779   9.708 -0.6773 -0.3116  1.2551
 6183SOL     OW30184   3.682   4.475   3.335 -0.3199 -0.2990  0.2479
 6183SOL    HW130185   3.627   4.541   3.293 -0.2665  1.8157  3.4495
 6183SOL    HW230186   3.744   4.457   3.264 -0.2573  0.2511  0.1595
 6184SOL     OW30187   3.029   4.435   0.375  0.4842 -0.4654  0.3416
 6184SOL    HW130188   3.078   4.362   0.338 -0.2064 -0.1433 -1.2238
 6184SOL    HW230189   3.070   4.517   0.347 -0.7148 -0.2310 -0.6863
 6185SOL     OW30190   0.770   2.723   6.363  0.3355  0.1212 -0.2989
 6185SOL    HW130191   0.731   2.717   6.450  0.3022 -0.6674 -0.3698
 6185SOL    HW230192   0.762   2.633   6.331  0.0157  0.1829 -0.3982
 6186SOL     OW30193   0.310   0.705   3.263 -0.3033  0.3544  0.1967
 6186SOL    HW130194   0.279   0.770   3.325  0.7540  1.0882 -0.0427
 6186SOL    HW230195   0.401   0.702   3.291 -0.5258 -0.8491  0.7742
 6187SOL     OW30196   1.371   3.281   5.402  0.4064  0.3263  0.6548
 6187SOL    HW130197   1.277   3.288   5.383  0.7584  2.7396 -0.1597
 6187SOL    HW230198   1.400   3.198   5.363  0.3947  0.3227  0.6539
 6188SOL     OW30199   2.669   0.392   5.129  0.3801 -0.1340 -0.2616
 6188SOL    HW130200   2.688   0.301   5.106 -1.9657 -0.1492 -2.1861
 6188SOL    HW230201   2.619   0.417   5.051  0.9714  0.4175 -0.4628
 6189SOL     OW30202   1.809   0.716   3.985 -0.2191  0.1101  0.2322
 6189SOL    HW130203   1.878   0.776   4.011 -1.4187  1.0861  1.1791
 6189SOL    HW230204   1.744   0.787   3.981  1.9822  2.0858 -0.5134
 6190SOL     OW30205   2.633   1.577   8.412 -0.0237 -0.3611 -0.2500
 6190SOL    HW130206   2.572   1.598   8.341  0.7608 -1.9742 -1.4058
 6190SOL    HW230207   2.685   1.650   8.379 -1.4788  0.7322 -0.1489
 6191SOL     OW30208   3.795   2.049   5.805  0.5884 -0.0896 -0.4128
 6191SOL    HW130209   3.762   2.139   5.797  3.4289  1.1295  1.5089
 6191SOL    HW230210   3.762   2.006   5.726  1.2177 -1.0029 -0.1763
 6192SOL     OW30211   1.149   4.414   6.840  0.1599 -0.6703  0.1880
 6192SOL    HW130212   1.206   4.464   6.898 -0.0557 -1.5310  1.1342
 6192SOL    HW230213   1.168   4.327   6.876 -0.5879 -0.0392  2.1314
 6193SOL     OW30214   3.694   4.362   6.663 -0.2933 -0.5273  0.8451
 6193SOL    HW130215   3.659   4.302   6.729  0.3717 -1.7505  0.1000
 6193SOL    HW230216   3.694   4.317   6.578  1.7248 -1.3240  1.2671
 6194SOL     OW30217   1.156   4.046   7.194  0.1438  0.2683 -0.2723
 6194SOL    HW130218   1.188   4.095   7.270 -3.0254 -1.0004  1.9138
 6194SOL    HW230219   1.064   4.072   7.204 -0.4545 -0.9633 -2.4676
 6195SOL     OW30220   1.253   2.041   4.575 -0.1425 -0.0331  0.8665
 6195SOL    HW130221   1.346   2.055   4.594  1.3160 -1.0304 -5.5017
 6195SOL    HW230222   1.216   2.106   4.634  1.6751  1.1984  0.6823
 6196SOL     OW30223   1.127   0.464   2.707 -0.0677 -0.0370 -0.0975
 6196SOL    HW130224   1.062   0.400   2.681 -0.5223  0.2202  0.4155
 6196SOL    HW230225   1.204   0.419   2.673 -1.0038 -1.0265 -0.9017
 6197SOL     OW30226   4.505   1.030  11.206  0.6279  0.2432 -0.3686
 6197SOL    HW130227   4.442   1.101  11.215 -0.8246 -1.0946  0.0244
 6197SOL    HW230228   4.490   0.978  11.285  1.0095  1.4464  0.4977
 6198SOL     OW30229   4.647   3.755  17.329 -0.0117 -0.2696  0.5972
 6198SOL    HW130230   4.600   3.814  17.269 -1.0037  0.9371  2.5481
 6198SOL    HW230231   4.727   3.805  17.342 -0.3604  0.8956 -1.8168
 6199SOL     OW30232   2.522   1.962   4.774 -0.3820  0.8106  0.4387
 6199SOL    HW130233   2.546   1.871   4.757  1.6159  1.4467 -0.0615
 6199SOL    HW230234   2.450   1.953   4.836  2.2453 -1.0918  3.2001
 6200SOL     OW30235   0.353   2.193  16.596  0.5497 -0.0043 -0.6009
 6200SOL    HW130236   0.382   2.282  16.579  0.1671  0.4979  1.3297
 6200SOL    HW230237   0.422   2.155  16.651  0.9571 -0.7092 -1.5924
 6201SOL     OW30238   3.124   4.119   2.833  0.0904 -0.1709  0.0323
 6201SOL    HW130239   3.106   4.031   2.799 -1.8383  0.1740  0.1640
 6201SOL    HW230240   3.198   4.142   2.777 -0.7375 -0.0763 -1.0218
 6202SOL     OW30241   0.118   0.155   2.402  0.0603  0.4420  0.5180
 6202SOL    HW130242   0.188   0.162   2.466 -0.8359  0.1971  1.5347
 6202SOL    HW230243   0.128   0.240   2.360  1.0250  0.1692  0.2083
 6203SOL     OW30244   1.500   3.429  14.900  0.5142 -0.6573 -0.9690
 6203SOL    HW130245   1.562   3.380  14.954  1.1322  2.7190  1.4329
 6203SOL    HW230246   1.517   3.393  14.813  2.3753  1.2832 -1.4109
 6204SOL     OW30247   1.333   4.616   0.218  0.5658 -0.0103  0.1743
 6204SOL    HW130248   1.250   4.645   0.180  0.8301  1.9969  1.1297
 6204SOL    HW230249   1.370   4.696   0.256  0.2033  0.2408 -0.0029
 6205SOL     OW30250   4.254   4.013   8.547 -0.0729 -0.1554  0.0628
 6205SOL    HW130251   4.185   3.978   8.491 -2.1876  1.8836  1.4201
 6205SOL    HW230252   4.244   3.948   8.616  2.6354  0.2533  0.8557
 6206SOL     OW30253   0.640   3.973  11.994  0.0581  0.2525  0.2637
 6206SOL    HW130254   0.730   4.003  12.007  0.4370 -1.8685  2.5683
 6206SOL    HW230255   0.647   3.936  11.906 -2.0157  2.6774 -0.8959
 6207SOL     OW30256   2.923   2.545  12.145 -0.2142  0.6365 -0.3212
 6207SOL    HW130257   2.957   2.472  12.093 -0.3100  0.9734 -0.8602
 6207SOL    HW230258   2.829   2.545  12.129 -0.0447  1.8135 -1.3599
 6208SOL     OW30259   1.509   1.903   9.024 -0.1500  0.2867 -0.3965
 6208SOL    HW130260   1.464   1.972   9.074 -0.6554 -1.6094  1.7556
 6208SOL    HW230261   1.442   1.897   8.955 -0.3725  1.5406 -0.2916
 6209SOL     OW30262   0.612   4.115  14.702 -0.2250 -0.5830  0.0444
 6209SOL    HW130263   0.556   4.176  14.654 -2.3792 -1.9977  0.7322
 6209SOL    HW230264   0.560   4.098  14.781 -0.2406  0.7825  0.3214
 6210SOL     OW30265   3.188   4.623   4.636 -0.0235  0.6554  0.2736
 6210SOL    HW130266   3.242   4.608   4.559  0.5324  0.2424  0.7407
 6210SOL    HW230267   3.262   4.632   4.697  1.5953 -3.4471 -1.1274
 6211SOL     OW30268   3.322   3.435   9.659 -0.7314  0.5025  0.1884
 6211SOL    HW130269   3.397   3.416   9.603  0.6755  0.8503  1.9586
 6211SOL    HW230270   3.289   3.351   9.691  1.6160 -1.2456 -1.9687
 6212SOL     OW30271   1.973   2.333   7.587  0.4068 -0.5377 -0.4149
 6212SOL    HW130272   2.044   2.273   7.609  0.1002 -0.5309  0.6196
 6212SOL    HW230273   1.949   2.373   7.671  0.8793  1.1337 -1.0628
 6213SOL     OW30274   2.145   3.161   8.269  0.6276  0.1018  0.3127
 6213SOL    HW130275   2.207   3.171   8.197 -0.0727 -0.7143 -0.4091
 6213SOL    HW230276   2.064   3.171   8.220  1.5048  2.2198 -0.7010
 6214SOL     OW30277   3.407   1.013  15.069  0.1368 -0.4642  0.6628
 6214SOL    HW130278   3.474   0.955  15.107  1.0607 -0.6390 -1.2213
 6214SOL    HW230279   3.464   1.089  15.057  0.0352 -0.3523  0.8779
 6215SOL     OW30280   2.964   3.620   3.895 -0.4040  0.4350  0.2527
 6215SOL    HW130281   3.029   3.661   3.838  1.4806 -0.6584  1.6121
 6215SOL    HW230282   2.924   3.701   3.928 -1.7222 -1.1534  2.5246
 6216SOL     OW30283   1.572   3.375   4.213  0.8373 -0.7177  0.2855
 6216SOL    HW130284   1.629   3.307   4.247 -0.2651 -0.7442  2.0763
 6216SOL    HW230285   1.488   3.329   4.205  0.2385  0.0888  1.7758
 6217SOL     OW30286   2.050   3.983   6.218  0.5672 -0.1997 -0.3172
 6217SOL    HW130287   1.963   4.021   6.223  0.3581 -0.5227 -1.3966
 6217SOL    HW230288   2.097   4.049   6.167 -0.4006  0.9532  0.3056
 6218SOL     OW30289   4.184   2.749   8.505  0.4212  0.0725  0.5771
 6218SOL    HW130290   4.278   2.761   8.492  0.1663  1.8315  0.3862
 6218SOL    HW230291   4.160   2.734   8.413  2.0058  0.5143  0.0907
 6219SOL     OW30292   2.470   4.128   6.817  0.2612  0.2684  0.7832
 6219SOL    HW130293   2.528   4.202   6.798  1.5256 -0.4778  1.7133
 6219SOL    HW230294   2.503   4.090   6.899 -0.9525 -1.4129  0.4953
 6220SOL     OW30295   1.630   1.876   6.824  0.3634  0.8498  0.5606
 6220SOL    HW130296   1.682   1.859   6.902  0.3521 -0.4229  0.3039
 6220SOL    HW230297   1.589   1.960   6.840 -0.5301  0.6953 -0.8953
 6221SOL     OW30298   0.293   0.702   5.011 -0.2613  0.1572 -0.3442
 6221SOL    HW130299   0.296   0.666   5.100 -1.1295  0.8321 -0.0347
 6221SOL    HW230300   0.317   0.625   4.959  0.5084 -1.7782  2.8481
 6222SOL     OW30301   0.402   0.573   1.951  0.5165  0.0459 -0.3468
 6222SOL    HW130302   0.359   0.654   1.926 -0.8689 -0.5964 -0.0055
 6222SOL    HW230303   0.382   0.512   1.880  0.4968 -0.4404  0.0726
 6223SOL     OW30304   0.165   2.186   3.107  0.1758  0.3391  0.2874
 6223SOL    HW130305   0.070   2.192   3.113  0.1107 -0.8997  0.6658
 6223SOL    HW230306   0.170   2.122   3.036 -3.1517  1.5911 -1.0411
 6224SOL     OW30307   3.566   4.208   6.856 -0.0195  0.2026  0.7440
 6224SOL    HW130308   3.655   4.172   6.862  0.2065  0.5653 -0.5214
 6224SOL    HW230309   3.525   4.169   6.934 -0.2003 -1.7510 -0.3321
 6225SOL     OW30310   2.210   1.124  15.750 -0.0367 -0.3464  0.2494
 6225SOL    HW130311   2.183   1.212  15.724 -0.1826 -1.1412 -2.3473
 6225SOL    HW230312   2.136   1.089  15.800 -0.3002 -0.7042 -0.3903
 6226SOL     OW30313   4.668   2.019   7.252  0.2213 -0.5336  0.1599
 6226SOL    HW130314   4.668   2.057   7.340 -2.6804  0.1750 -0.1387
 6226SOL    HW230315   4.600   2.075   7.213  1.8655  0.8364 -0.7342
 6227SOL     OW30316   1.095   1.268  12.514 -0.0038  0.3815 -0.0481
 6227SOL    HW130317   1.029   1.226  12.569  1.4187 -2.0112 -0.1814
 6227SOL    HW230318   1.144   1.192  12.481 -0.8651 -1.1402  2.2125
 6228SOL     OW30319   0.372   2.719   5.999 -0.0706  0.0019  0.7586
 6228SOL    HW130320   0.366   2.777   5.924 -0.0998 -0.5951  0.2934
 6228SOL    HW230321   0.458   2.737   6.037 -0.0191 -2.4968  1.8539
 6229SOL     OW30322   3.263   3.127   2.405 -0.4340 -0.4879 -0.0708
 6229SOL    HW130323   3.317   3.174   2.342 -0.1654  1.0186  1.2832
 6229SOL    HW230324   3.240   3.202   2.459  0.4821  0.6174 -1.2228
 6230SOL     OW30325   0.136   4.002   4.699 -0.3914 -0.1367 -0.3253
 6230SOL    HW130326   0.219   3.975   4.739  0.9019 -0.9050 -3.4649
 6230SOL    HW230327   0.137   3.970   4.609  2.7471 -0.6059 -0.1221
 6231SOL     OW30328   4.477   4.404   8.031 -0.1206  0.2986 -0.2716
 6231SOL    HW130329   4.527   4.483   8.051  0.5335 -0.1240 -0.2434
 6231SOL    HW230330   4.494   4.347   8.106  0.6756  0.7765 -0.0878
 6232SOL     OW30331   3.988   3.542  16.069 -0.5272  0.3531 -0.1857
 6232SOL    HW130332   3.941   3.618  16.036  1.3655  2.7100  2.5397
 6232SOL    HW230333   3.919   3.509  16.126 -0.3269  1.1890  0.5407
 6233SOL     OW30334   0.797   0.224   6.138  0.4343 -0.8416 -0.4563
 6233SOL    HW130335   0.852   0.146   6.127  1.8360  0.3874 -2.1474
 6233SOL    HW230336   0.805   0.258   6.049 -2.2001 -0.8600 -0.7144
 6234SOL     OW30337   4.565   0.372   2.998 -0.4003 -0.1138 -0.0852
 6234SOL    HW130338   4.538   0.399   3.085 -0.3064  0.2672 -0.1746
 6234SOL    HW230339   4.546   0.279   3.014 -0.3061  0.1075  1.3248
 6235SOL     OW30340   3.167   3.480   9.318 -0.4161  0.2386 -0.6275
 6235SOL    HW130341   3.127   3.523   9.393 -1.7016 -0.0836 -1.1092
 6235SOL    HW230342   3.127   3.533   9.249 -1.6434 -0.8172 -0.7372
 6236SOL     OW30343   1.177   1.788   8.645  0.2349  0.6715 -0.6176
 6236SOL    HW130344   1.172   1.737   8.565 -2.0077  0.1809 -0.1761
 6236SOL    HW230345   1.163   1.874   8.606  1.0508  1.6640  1.2594
 6237SOL     OW30346   1.696   0.237   1.433 -0.5741  0.5610  0.3739
 6237SOL    HW130347   1.619   0.254   1.487 -0.1255  0.4642  1.0441
 6237SOL    HW230348   1.651   0.192   1.362 -1.4119  0.1865  1.1361
 6238SOL     OW30349   0.045   4.354   4.008 -0.4231 -0.0523  0.4913
 6238SOL    HW130350   0.013   4.372   3.920 -1.0404  1.6482  1.0543
 6238SOL    HW230351   4.715   4.301   4.048  0.7268 -1.5142  0.5471
 6239SOL     OW30352   0.792   4.464   9.425 -0.1103 -0.0159  0.1075
 6239SOL    HW130353   0.806   4.400   9.495  1.2161  0.1826  0.0266
 6239SOL    HW230354   0.696   4.463   9.423 -0.0861  0.6471 -2.2841
 6240SOL     OW30355   4.652   0.349   1.244 -0.0053  0.4461 -0.2532
 6240SOL    HW130356   4.652   0.416   1.175 -2.1421  0.5070 -0.2056
 6240SOL    HW230357   4.559   0.343   1.264 -0.1876 -0.0291 -1.2529
 6241SOL     OW30358   1.018   3.454   3.760 -0.4429 -0.0759 -0.2069
 6241SOL    HW130359   1.075   3.522   3.725 -0.4096  0.2391  0.4730
 6241SOL    HW230360   0.952   3.502   3.810 -0.7214 -2.8063  2.0396
 6242SOL     OW30361   1.590   0.562   6.594  0.3935 -0.2659  0.1961
 6242SOL    HW130362   1.499   0.578   6.570  0.5624 -0.5818 -0.6578
 6242SOL    HW230363   1.567   0.512   6.673  2.4877  0.4800  1.2740
 6243SOL     OW30364   1.993   2.220  14.858 -0.1729  0.4443  0.3093
 6243SOL    HW130365   2.009   2.201  14.950  1.5441  0.2283 -0.0359
 6243SOL    HW230366   1.957   2.309  14.867  1.1252  0.8406  1.5223
 6244SOL     OW30367   3.070   0.542   2.176  0.5336  0.2683  0.1950
 6244SOL    HW130368   3.101   0.619   2.128 -1.1108  1.3879  0.9297
 6244SOL    HW230369   2.999   0.513   2.118  2.0037  0.5776 -1.7377
 6245SOL     OW30370   2.234   3.132   8.935  0.1230 -0.4153 -0.1739
 6245SOL    HW130371   2.277   3.051   8.907 -0.6928 -0.6288 -0.8069
 6245SOL    HW230372   2.261   3.140   9.026  0.2714  1.0500 -0.3481
 6246SOL     OW30373   4.104   1.803   8.291 -0.0232 -0.2036  0.2866
 6246SOL    HW130374   4.032   1.809   8.229 -1.1545  0.5079  1.6785
 6246SOL    HW230375   4.073   1.732   8.348 -1.1821  0.9142  1.0372
 6247SOL     OW30376   4.012   1.998   6.254 -0.1082 -0.1484  0.1636
 6247SOL    HW130377   4.105   2.010   6.239  0.1888  0.3320  2.4103
 6247SOL    HW230378   3.969   2.010   6.169  0.7916 -2.6605 -0.6282
 6248SOL     OW30379   2.495   1.196  15.409  0.2308 -0.6841  0.1030
 6248SOL    HW130380   2.439   1.274  15.422  0.6517 -0.6140  1.5249
 6248SOL    HW230381   2.438   1.121  15.427 -0.4731  0.1153  1.2692
 6249SOL     OW30382   0.383   3.777   2.078 -0.3046  0.9497 -0.0866
 6249SOL    HW130383   0.340   3.705   2.124  0.3628  0.2297 -0.5877
 6249SOL    HW230384   0.406   3.723   2.002 -2.4863 -0.9488  0.5854
 6250SOL     OW30385   2.746   2.797   7.456  0.2559  0.1578  0.8307
 6250SOL    HW130386   2.777   2.807   7.545 -0.8774  1.4238  1.0812
 6250SOL    HW230387   2.696   2.877   7.438  0.9318  1.0056  2.7538
 6251SOL     OW30388   2.877   1.403   8.251 -0.5464 -0.4377  0.0008
 6251SOL    HW130389   2.957   1.446   8.281 -1.0871 -0.1533  1.0290
 6251SOL    HW230390   2.829   1.417   8.332  1.7460 -1.5400  1.5519
 6252SOL     OW30391   3.282   3.697  13.976 -0.4608  0.1963  0.5406
 6252SOL    HW130392   3.327   3.624  14.019  1.4823 -0.8471 -3.2890
 6252SOL    HW230393   3.242   3.746  14.048 -1.0346  0.4276  0.0644
 6253SOL     OW30394   0.576   2.832   4.588 -0.0551 -0.1232 -0.3927
 6253SOL    HW130395   0.633   2.907   4.567 -2.1463  1.1063 -1.6981
 6253SOL    HW230396   0.515   2.827   4.515 -0.3366 -0.4993 -0.1327
 6254SOL     OW30397   2.139   3.507   4.366  0.3068  0.1130  1.0904
 6254SOL    HW130398   2.149   3.592   4.323 -2.3729  0.0662  0.3489
 6254SOL    HW230399   2.050   3.509   4.402 -0.0801  0.4310  0.1114
 6255SOL     OW30400   2.053   0.344   8.922  0.1882  0.2515  0.3942
 6255SOL    HW130401   2.073   0.345   8.828  1.2766 -0.9560  0.6197
 6255SOL    HW230402   1.992   0.271   8.924  1.6038 -0.8931  1.3873
 6256SOL     OW30403   3.816   3.608   4.359  1.0095  0.1205 -0.4689
 6256SOL    HW130404   3.774   3.655   4.286 -3.4094 -1.1376  1.2438
 6256SOL    HW230405   3.804   3.518   4.329 -1.2456  1.1975 -2.8913
 6257SOL     OW30406   2.303   1.031   3.178 -0.1000 -0.1027 -0.2640
 6257SOL    HW130407   2.247   1.100   3.214 -1.0314 -1.4258  0.8159
 6257SOL    HW230408   2.254   0.952   3.203  0.2520  0.0516  0.9064
 6258SOL     OW30409   2.346   3.374   3.796  0.4098  0.5042 -0.0791
 6258SOL    HW130410   2.406   3.430   3.847  0.3105 -0.3518  0.9775
 6258SOL    HW230411   2.303   3.338   3.873  1.4267  3.6920  2.0074
 6259SOL     OW30412   1.752   0.407   6.410  0.0964  0.2007  0.2127
 6259SOL    HW130413   1.736   0.464   6.335 -1.6643  0.9933  1.1979
 6259SOL    HW230414   1.700   0.455   6.474  0.8331  2.1547 -0.6661
 6260SOL     OW30415   1.964   3.419  15.443  0.2244 -0.8746  0.4811
 6260SOL    HW130416   2.042   3.403  15.390  0.8017  1.8698  0.4826
 6260SOL    HW230417   1.951   3.514  15.438  0.5798 -0.7959  1.0297
 6261SOL     OW30418   2.037   1.004   3.870 -0.1751  0.5273  0.2968
 6261SOL    HW130419   2.037   0.994   3.965 -1.8139 -2.3723 -0.0189
 6261SOL    HW230420   1.944   0.988   3.854  0.1662 -1.0262 -0.1055
 6262SOL     OW30421   2.604   0.731  16.543 -0.0844  0.1119  0.3200
 6262SOL    HW130422   2.624   0.639  16.530 -0.1730  0.1276  0.0738
 6262SOL    HW230423   2.578   0.763  16.457  2.2067  1.4223  0.1073
 6263SOL     OW30424   2.649   1.740   1.288 -0.5002  0.0823  0.3936
 6263SOL    HW130425   2.699   1.814   1.321 -1.7206  1.2515 -0.3518
 6263SOL    HW230426   2.714   1.705   1.227  0.1829  1.9401  0.0508
 6264SOL     OW30427   3.934   4.708   3.217  0.2299  0.7778 -0.0296
 6264SOL    HW130428   3.968   4.654   3.288  1.5328  0.2915 -1.0086
 6264SOL    HW230429   3.955   0.056   3.252 -1.2538  1.1048  0.0357
 6265SOL     OW30430   2.089   1.863   8.331 -0.6575  0.0099 -0.0540
 6265SOL    HW130431   2.104   1.902   8.417 -0.1088  0.8878 -0.5521
 6265SOL    HW230432   2.160   1.799   8.337  0.8670  1.9064  2.0218
 6266SOL     OW30433   0.691   1.961   5.711 -0.0175  0.6027 -0.1327
 6266SOL    HW130434   0.742   1.978   5.631  0.1785 -1.7082 -0.4953
 6266SOL    HW230435   0.752   1.990   5.778  0.0634 -0.8577  0.4229
 6267SOL     OW30436   2.729   0.094   4.788 -0.2411  0.2134 -0.0175
 6267SOL    HW130437   2.790   0.022   4.803 -0.5741 -0.2811 -1.0259
 6267SOL    HW230438   2.672   0.052   4.723 -0.0471 -1.8877  1.1548
 6268SOL     OW30439   0.169   0.994   7.518  0.1939  0.3284  0.7163
 6268SOL    HW130440   0.222   0.962   7.445  0.5498 -2.9545  2.4290
 6268SOL    HW230441   0.247   1.018   7.569  1.7802 -1.2721 -0.9422
 6269SOL     OW30442   1.526   2.682   2.720 -0.1510  0.7101  0.5714
 6269SOL    HW130443   1.502   2.774   2.730 -0.0768  0.8927 -1.0581
 6269SOL    HW230444   1.488   2.670   2.633 -0.6971  3.0640  0.4806
 6270SOL     OW30445   3.965   3.072   3.739  0.4158  0.1455  0.6853
 6270SOL    HW130446   3.895   3.093   3.801 -0.3270  0.4806 -0.2564
 6270SOL    HW230447   3.908   3.067   3.662 -1.0701  3.1343  1.5410
 6271SOL     OW30448   2.622   0.782   9.777  0.1909  0.0801  0.7765
 6271SOL    HW130449   2.545   0.836   9.763 -0.5370 -0.9491  0.8326
 6271SOL    HW230450   2.633   0.793   9.871 -0.0708  0.9831  0.7060
 6272SOL     OW30451   0.430   0.374   6.507  0.0944  0.0410  0.5743
 6272SOL    HW130452   0.515   0.361   6.550  0.9027  1.8777 -0.4586
 6272SOL    HW230453   0.454   0.364   6.415 -1.5398  1.5359  0.0047
 6273SOL     OW30454   0.789   2.551  16.543  0.6228  0.2742  0.0860
 6273SOL    HW130455   0.843   2.508  16.476  3.4034  2.6222  0.7922
 6273SOL    HW230456   0.745   2.611  16.483  0.3732 -1.2633 -1.2747
 6274SOL     OW30457   4.423   3.965   7.223 -0.1112 -0.0057  0.1995
 6274SOL    HW130458   4.458   4.045   7.185  1.9283  0.0432  2.1689
 6274SOL    HW230459   4.458   3.965   7.312  1.8327 -2.1857 -0.5391
 6275SOL     OW30460   2.847   3.567  15.575  0.0986  0.4074  0.3884
 6275SOL    HW130461   2.771   3.543  15.523  0.2120 -0.7762  0.7613
 6275SOL    HW230462   2.919   3.559  15.512  0.2583  0.1939  0.5957
 6276SOL     OW30463   2.983   2.369  17.075 -0.1938 -0.4978 -0.0825
 6276SOL    HW130464   2.985   2.462  17.054  0.7252 -0.4708  0.0938
 6276SOL    HW230465   2.980   2.332  16.987 -0.1268 -0.3953 -0.1281
 6277SOL     OW30466   3.918   0.591   3.927  0.1529  0.2612  0.2636
 6277SOL    HW130467   3.959   0.574   4.012 -0.0623 -2.7187 -0.2083
 6277SOL    HW230468   3.986   0.558   3.868  1.0667  0.4659  1.1971
 6278SOL     OW30469   4.265   2.938  10.899 -0.2246 -0.5195 -0.1881
 6278SOL    HW130470   4.330   2.894  10.843 -0.1245 -0.1955 -0.3304
 6278SOL    HW230471   4.190   2.951  10.841  0.4175 -1.0996 -1.1603
 6279SOL     OW30472   3.942   2.809  11.040  0.0542 -0.3933  0.2173
 6279SOL    HW130473   4.007   2.801  10.970 -0.7329 -0.8430 -0.4538
 6279SOL    HW230474   3.970   2.759  11.117 -0.8319  0.6881  1.2439
 6280SOL     OW30475   3.568   0.600   9.150 -0.0339 -0.1045  0.1634
 6280SOL    HW130476   3.621   0.621   9.227 -0.6265 -1.7536  1.0238
 6280SOL    HW230477   3.515   0.680   9.141 -1.4443 -1.1428 -0.6652
 6281SOL     OW30478   2.430   2.172   4.295 -0.2500  0.1223  0.1381
 6281SOL    HW130479   2.383   2.245   4.336 -1.1849 -0.5241  0.2333
 6281SOL    HW230480   2.504   2.162   4.354  0.3057 -0.1929 -0.6169
 6282SOL     OW30481   2.849   2.273   9.639  0.1213  0.2688  0.2848
 6282SOL    HW130482   2.754   2.258   9.634  0.3189 -1.0407  0.4119
 6282SOL    HW230483   2.886   2.194   9.677 -0.3822  0.2298  0.7025
 6283SOL     OW30484   1.105   0.545   6.608 -0.1873 -0.0324 -0.5322
 6283SOL    HW130485   1.025   0.580   6.649  1.1543  3.8685 -1.2257
 6283SOL    HW230486   1.140   0.495   6.682  1.3250 -0.3239 -1.4484
 6284SOL     OW30487   3.443   1.897   1.806  0.3489 -0.2945 -0.0721
 6284SOL    HW130488   3.377   1.870   1.871 -0.1781 -0.1088 -0.5316
 6284SOL    HW230489   3.392   1.913   1.727 -1.7846 -1.1480  1.1028
 6285SOL     OW30490   3.296   4.420   7.572 -0.6303  0.0232 -0.2634
 6285SOL    HW130491   3.253   4.348   7.525  0.7105 -1.8054  1.3078
 6285SOL    HW230492   3.248   4.496   7.538 -0.9811 -1.6261 -3.4358
 6286SOL     OW30493   3.384   1.397   1.442 -0.1085 -0.0670 -0.1884
 6286SOL    HW130494   3.321   1.425   1.375 -0.7594 -1.6107 -0.2239
 6286SOL    HW230495   3.406   1.481   1.482  0.7855  0.0116 -0.8569
 6287SOL     OW30496   3.987   2.754   7.093  0.7506  0.0025 -0.8048
 6287SOL    HW130497   3.970   2.732   7.185 -0.0746  1.1021 -0.6984
 6287SOL    HW230498   3.938   2.834   7.077 -0.1432 -0.3210  0.3068
 6288SOL     OW30499   1.880   0.439  17.723 -0.0705  0.0463 -0.3327
 6288SOL    HW130500   1.879   0.344  17.716 -0.9622 -0.1616  2.5197
 6288SOL    HW230501   1.945   0.453   0.038  1.6493 -1.0676 -1.7143
 6289SOL     OW30502   2.293   2.433   8.361  0.6650 -0.1241  0.2468
 6289SOL    HW130503   2.335   2.456   8.443  0.4954  0.0441  0.2855
 6289SOL    HW230504   2.361   2.459   8.298 -1.5812  1.2875 -1.6012
 6290SOL     OW30505   2.231   3.959   5.935  0.3342  0.2153 -0.1545
 6290SOL    HW130506   2.224   3.914   6.019  2.0802 -0.7961 -0.5452
 6290SOL    HW230507   2.232   4.048   5.970 -0.8443  0.2626 -0.2399
 6291SOL     OW30508   3.363   4.281   8.695  0.0154 -0.0481  0.2440
 6291SOL    HW130509   3.442   4.227   8.681  0.8227  1.2844 -0.3406
 6291SOL    HW230510   3.400   4.341   8.760 -0.6436  1.3293 -0.6466
 6292SOL     OW30511   0.246   2.686  10.673  0.2891  0.2037  0.2879
 6292SOL    HW130512   0.305   2.724  10.739  1.7358  0.7873 -1.3240
 6292SOL    HW230513   0.237   2.756  10.608  0.8389 -0.2162 -0.2419
 6293SOL     OW30514   0.941   1.269   3.865  0.2336 -0.2626  0.2937
 6293SOL    HW130515   1.026   1.304   3.891  0.1835 -0.9826  1.4572
 6293SOL    HW230516   0.953   1.272   3.770  1.7364 -0.6671  0.4783
 6294SOL     OW30517   2.629   4.089   5.747 -0.2349  0.2512  0.5801
 6294SOL    HW130518   2.635   4.035   5.669 -2.2244  1.5936 -0.5162
 6294SOL    HW230519   2.716   4.129   5.750 -0.3783  0.7173 -1.5884
 6295SOL     OW30520   1.552   4.426  12.229 -0.1765 -0.4602 -0.3493
 6295SOL    HW130521   1.531   4.460  12.141  1.9906  1.1126 -0.2642
 6295SOL    HW230522   1.636   4.381  12.217 -1.3288 -2.2460 -1.7173
 6296SOL     OW30523   1.583   1.315   7.262 -0.0420  0.1703 -0.5473
 6296SOL    HW130524   1.543   1.279   7.341 -0.2975  0.4422 -0.5487
 6296SOL    HW230525   1.671   1.285   7.282 -0.3581 -0.0579  0.5057
 6297SOL     OW30526   2.075   4.558   3.885  0.0346  0.1896 -0.0213
 6297SOL    HW130527   2.131   4.635   3.882 -0.5874  0.6681  0.6732
 6297SOL    HW230528   2.078   4.542   3.979  0.7762 -2.0299 -0.4040
 6298SOL     OW30529   3.649   0.021   3.761  0.4370  0.0715 -0.1203
 6298SOL    HW130530   3.694   0.055   3.838  1.0118  2.4286 -1.5100
 6298SOL    HW230531   3.637   0.098   3.705  3.8854 -0.2744 -1.3185
 6299SOL     OW30532   1.877   4.373   9.201  0.6583 -0.1802  0.2809
 6299SOL    HW130533   1.782   4.380   9.192  0.8678  0.5650 -1.3282
 6299SOL    HW230534   1.904   4.287   9.169  0.3520 -0.2023  0.0799
 6300SOL     OW30535   1.348   4.230   4.508  0.3412  0.3200 -0.1197
 6300SOL    HW130536   1.315   4.194   4.426 -1.1576 -0.6681  0.9208
 6300SOL    HW230537   1.290   4.305   4.525 -1.3587 -0.8651 -0.7497
 6301SOL     OW30538   4.330   4.553  13.668  0.4050 -0.0389 -0.0313
 6301SOL    HW130539   4.402   4.566  13.607  0.9716  1.1883  0.8920
 6301SOL    HW230540   4.354   4.470  13.708  0.0804 -0.2667 -0.3106
 6302SOL     OW30541   0.382   3.783   7.494 -0.3523  0.1182 -0.0843
 6302SOL    HW130542   0.359   3.780   7.586 -1.3239 -0.6923 -0.3518
 6302SOL    HW230543   0.424   3.698   7.481 -2.0446 -0.7670  0.2294
 6303SOL     OW30544   2.122   2.022  15.651 -0.5065 -0.3939  0.0195
 6303SOL    HW130545   2.135   1.944  15.705 -2.3961  0.9203  2.3373
 6303SOL    HW230546   2.177   2.089  15.692  0.0197 -1.1018  0.4767
 6304SOL     OW30547   2.466   4.408   4.509  0.3835 -0.4355  0.3986
 6304SOL    HW130548   2.402   4.435   4.574 -1.0935 -2.6329 -0.1276
 6304SOL    HW230549   2.477   4.313   4.521  2.4162  0.1155  2.8514
 6305SOL     OW30550   0.143   4.082   9.253  0.2231 -0.0697 -0.0918
 6305SOL    HW130551   0.235   4.079   9.280  1.2038 -0.1913 -3.5610
 6305SOL    HW230552   0.143   4.003   9.200  0.9516  1.0986 -1.8080
 6306SOL     OW30553   4.552   3.927  17.127 -0.0568  0.0389  0.0950
 6306SOL    HW130554   4.531   3.973  17.046 -0.8795 -1.4523 -0.5414
 6306SOL    HW230555   4.636   3.966  17.151 -0.9589  2.0425  0.0034
 6307SOL     OW30556   2.837   2.804   1.764 -0.1735  0.0532  0.1125
 6307SOL    HW130557   2.743   2.816   1.767 -0.0911  0.7463 -0.0818
 6307SOL    HW230558   2.826   2.763   1.850  1.8398 -0.3462  0.1892
 6308SOL     OW30559   1.281   3.662   5.175  0.2690 -0.4788  0.2161
 6308SOL    HW130560   1.372   3.693   5.179 -0.0568  0.9796 -3.1864
 6308SOL    HW230561   1.289   3.607   5.097  0.8196 -0.6743  0.4055
 6309SOL     OW30562   3.298   2.606  11.998 -0.1498 -0.4940 -0.0908
 6309SOL    HW130563   3.306   2.586  11.905 -2.4862 -1.8677  0.0151
 6309SOL    HW230564   3.257   2.525  12.027 -1.5760  0.2119 -0.1551
 6310SOL     OW30565   3.515   0.693   6.148  0.3790  0.3972  0.3873
 6310SOL    HW130566   3.434   0.743   6.141 -1.5394 -2.8357 -0.7509
 6310SOL    HW230567   3.502   0.626   6.081 -0.4240  0.7842  0.1584
 6311SOL     OW30568   4.382   3.702   2.452 -0.3529 -0.4767 -0.1779
 6311SOL    HW130569   4.410   3.611   2.453 -0.6914 -0.5524  1.3838
 6311SOL    HW230570   4.467   3.737   2.478  0.4593 -1.0884 -1.9786
 6312SOL     OW30571   1.715   4.070   8.918  0.9031  0.3128 -0.4917
 6312SOL    HW130572   1.650   4.140   8.919  3.1296  2.4107 -1.3359
 6312SOL    HW230573   1.686   4.020   8.842  0.9257  1.1911 -1.0834
 6313SOL     OW30574   2.760   1.275   2.318  0.2504 -0.4372 -0.7491
 6313SOL    HW130575   2.672   1.294   2.286  0.2283  0.2382 -0.2686
 6313SOL    HW230576   2.735   1.218   2.391 -0.8169  0.6766 -0.2408
 6314SOL     OW30577   2.407   4.499   7.006 -0.1184  0.3124 -0.1567
 6314SOL    HW130578   2.429   4.558   6.934  4.1427 -2.2078 -0.9001
 6314SOL    HW230579   2.341   4.448   6.960 -0.2815 -1.2338  1.7804
 6315SOL     OW30580   2.010   0.514   6.705 -0.4902  0.4003 -0.1467
 6315SOL    HW130581   2.101   0.526   6.734  0.2001  0.5954 -2.4416
 6315SOL    HW230582   2.001   0.418   6.705 -3.9245  0.7240 -2.6827
 6316SOL     OW30583   2.870   3.640   4.825 -0.2043  0.3454  0.8090
 6316SOL    HW130584   2.837   3.710   4.769 -1.0291 -0.3851  0.3791
 6316SOL    HW230585   2.909   3.585   4.757 -0.6047  1.2906 -0.1859
 6317SOL     OW30586   1.876   1.027  17.090 -0.1498  0.2985 -0.0943
 6317SOL    HW130587   1.921   0.971  17.153 -0.9654 -0.5584 -0.2645
 6317SOL    HW230588   1.785   0.995  17.084 -0.6572  1.5970  0.6516
 6318SOL     OW30589   2.527   0.386   6.303 -0.1284 -0.2017 -0.0051
 6318SOL    HW130590   2.523   0.437   6.383  0.3025  0.8763 -0.6654
 6318SOL    HW230591   2.462   0.321   6.330  0.8640 -0.7979  0.9129
 6319SOL     OW30592   1.190   4.271   6.447 -0.2582 -0.1964 -0.0086
 6319SOL    HW130593   1.127   4.333   6.483  0.0783  0.8733 -1.2838
 6319SOL    HW230594   1.268   4.278   6.503 -0.5282 -1.5228  0.5522
 6320SOL     OW30595   2.453   1.187   5.733  0.1543 -0.2122 -0.0635
 6320SOL    HW130596   2.499   1.108   5.707 -4.6823 -2.6550 -1.2225
 6320SOL    HW230597   2.432   1.163   5.824 -0.4331 -0.5554 -0.2873
 6321SOL     OW30598   1.087   1.415  15.431 -0.0406  0.1317  0.6165
 6321SOL    HW130599   1.048   1.455  15.353 -0.2677  0.3132  0.8219
 6321SOL    HW230600   1.180   1.408  15.409 -0.3559 -3.0307  0.2438
 6322SOL     OW30601   2.541   1.302   3.243 -0.4142 -0.1328  0.3153
 6322SOL    HW130602   2.500   1.333   3.162  0.6349  0.5369  0.0386
 6322SOL    HW230603   2.516   1.367   3.309 -0.7279  1.0206 -0.9404
 6323SOL     OW30604   2.399   0.552   7.603 -0.9297  0.0011 -0.1040
 6323SOL    HW130605   2.430   0.468   7.571 -0.6327 -0.5531  1.5985
 6323SOL    HW230606   2.401   0.602   7.521  1.7099  1.2675  0.7156
 6324SOL     OW30607   1.501   0.360   1.873 -0.1836 -0.0431  0.2102
 6324SOL    HW130608   1.482   0.437   1.820 -0.2850 -0.6787 -0.6794
 6324SOL    HW230609   1.412   0.338   1.900  0.4929 -2.3556  0.5818
 6325SOL     OW30610   2.327   2.557  12.023  0.6544 -0.2589  0.0562
 6325SOL    HW130611   2.399   2.602  12.068 -1.3835  1.5369  1.5407
 6325SOL    HW230612   2.342   2.464  12.034 -3.5657 -1.0042 -0.4505
 6326SOL     OW30613   4.411   0.986   5.418 -0.2137 -0.0189  0.3923
 6326SOL    HW130614   4.401   0.914   5.480  2.0141 -0.3775  0.3663
 6326SOL    HW230615   4.393   1.063   5.471 -0.2850 -1.4151  2.3704
 6327SOL     OW30616   1.052   0.933  17.633 -0.1922 -0.1269 -0.2491
 6327SOL    HW130617   1.025   1.009  17.581 -2.0664 -0.5287  0.1467
 6327SOL    HW230618   1.129   0.894  17.591 -0.7369 -0.9371 -0.5024
 6328SOL     OW30619   3.304   3.405   5.554 -0.4284  0.2990 -0.2173
 6328SOL    HW130620   3.284   3.491   5.519 -0.0242  0.5461  0.1466
 6328SOL    HW230621   3.273   3.349   5.483 -0.3113  0.4118 -0.3573
 6329SOL     OW30622   3.725   2.858   2.407  0.4042 -0.2589 -0.0692
 6329SOL    HW130623   3.658   2.926   2.404  0.9329  0.3573  2.4415
 6329SOL    HW230624   3.766   2.859   2.493  1.5827 -0.5114 -0.6117
 6330SOL     OW30625   0.053   4.692   7.038 -0.0963  0.5794 -0.1783
 6330SOL    HW130626   0.048   0.046   7.015 -0.8832  0.2638 -1.2173
 6330SOL    HW230627   0.069   4.654   6.952  0.4184  0.9039 -0.2269
 6331SOL     OW30628   3.567   3.003   8.360 -0.2305  0.4739  0.5837
 6331SOL    HW130629   3.582   2.968   8.448  1.9819 -1.0443 -0.3805
 6331SOL    HW230630   3.655   2.999   8.323 -0.4474  0.2116  0.0893
 6332SOL     OW30631   1.411   0.700   7.271  0.1797  0.2773 -0.0446
 6332SOL    HW130632   1.368   0.774   7.229 -0.7675 -0.7312 -0.8652
 6332SOL    HW230633   1.338   0.639   7.283  1.2430 -0.6015  1.8445
 6333SOL     OW30634   3.361   1.463   5.968 -0.0864  0.1473  0.8610
 6333SOL    HW130635   3.283   1.415   5.939  1.7517 -2.1857 -0.2817
 6333SOL    HW230636   3.431   1.404   5.940  0.2851  0.3139  1.4412
 6334SOL     OW30637   1.605   3.353  14.611 -0.3134 -0.1117  0.7404
 6334SOL    HW130638   1.597   3.398  14.527  0.5289  0.7494  1.1182
 6334SOL    HW230639   1.678   3.406  14.642 -0.9137 -0.1378  2.1883
 6335SOL     OW30640   4.706   1.060   7.206  0.4569 -0.0320 -0.2400
 6335SOL    HW130641   4.671   1.097   7.287  1.7823 -0.8503  0.7223
 6335SOL    HW230642   4.730   0.971   7.234 -0.9204 -0.3752 -0.1710
 6336SOL     OW30643   3.577   2.228   0.867  0.0911 -0.2230  0.2220
 6336SOL    HW130644   3.623   2.163   0.921 -1.2695 -0.0041  1.6266
 6336SOL    HW230645   3.633   2.224   0.789  1.8991  0.2101  1.4930
 6337SOL     OW30646   0.310   1.141   4.180  0.0111  0.3445 -0.5527
 6337SOL    HW130647   0.283   1.226   4.144  0.5698  1.5132  1.7943
 6337SOL    HW230648   0.227   1.093   4.173 -0.6124  1.0370  1.9983
 6338SOL     OW30649   0.397   2.805   4.796  0.0517  0.1370  0.4777
 6338SOL    HW130650   0.445   2.735   4.841 -0.2497  1.7959  3.3937
 6338SOL    HW230651   0.462   2.815   4.727 -1.9121  0.4499 -1.3105
 6339SOL     OW30652   4.507   0.013   2.847 -0.6796 -0.2418 -0.2447
 6339SOL    HW130653   4.476   0.102   2.829 -1.3084 -0.6345 -1.1108
 6339SOL    HW230654   4.601   0.028   2.851 -0.9497  0.6568  2.4057
 6340SOL     OW30655   3.663   0.748   8.202 -0.2177 -0.0202  0.5344
 6340SOL    HW130656   3.735   0.775   8.259  0.7079  1.1168 -1.1818
 6340SOL    HW230657   3.688   0.785   8.117 -0.0326 -0.1328  0.5389
 6341SOL     OW30658   1.459   1.393   2.658  0.9333  0.0051 -0.7376
 6341SOL    HW130659   1.439   1.459   2.725 -2.6726 -1.6227 -0.1945
 6341SOL    HW230660   1.497   1.321   2.708 -0.8362 -0.2571  0.2456
 6342SOL     OW30661   1.973   2.977   6.749  0.0140  0.1921 -0.0431
 6342SOL    HW130662   1.942   3.012   6.832  0.6788  0.2101  0.1969
 6342SOL    HW230663   1.981   2.882   6.761 -0.9979  0.1845  0.5339
 6343SOL     OW30664   0.314   4.416   2.442 -0.1155 -0.0246 -0.0024
 6343SOL    HW130665   0.390   4.379   2.489 -0.4967 -3.3529 -2.0052
 6343SOL    HW230666   0.239   4.365   2.471  0.4440  0.3920  2.2082
 6344SOL     OW30667   3.909   2.975   8.866  0.0589 -0.4561 -0.5254
 6344SOL    HW130668   3.855   2.904   8.902 -0.0766 -0.0526  0.0777
 6344SOL    HW230669   3.971   2.926   8.812  1.2189  0.5243 -0.0857
 6345SOL     OW30670   0.371   1.962  11.290 -0.0063  0.2891 -0.3361
 6345SOL    HW130671   0.320   1.985  11.212 -0.4389 -1.1984 -0.5033
 6345SOL    HW230672   0.343   1.873  11.311 -0.7052  0.4140 -0.7148
 6346SOL     OW30673   1.401   0.432   0.476  0.4576  0.2966 -0.5152
 6346SOL    HW130674   1.408   0.497   0.406 -0.4143  0.7343 -0.1961
 6346SOL    HW230675   1.430   0.479   0.554  0.1087  1.0011 -0.8116
 6347SOL     OW30676   3.804   1.056   0.417 -0.1958  0.2495  0.4473
 6347SOL    HW130677   3.824   1.139   0.460  2.1511 -0.3112  0.4300
 6347SOL    HW230678   3.714   1.070   0.387  0.6772 -0.1014 -2.3331
 6348SOL     OW30679   2.938   1.524   6.345 -0.3718 -0.1710  0.0272
 6348SOL    HW130680   2.880   1.587   6.389 -1.1409 -2.2409  1.9842
 6348SOL    HW230681   3.020   1.570   6.332 -1.5871  2.0355  0.0731
 6349SOL     OW30682   0.752   0.840  15.601  0.6487  0.1331 -0.5510
 6349SOL    HW130683   0.688   0.897  15.557 -1.6119 -0.2534  2.2197
 6349SOL    HW230684   0.815   0.904  15.634  0.2233  0.4432 -0.3479
 6350SOL     OW30685   3.926   1.308   7.551  0.1729 -0.0082 -0.1670
 6350SOL    HW130686   3.983   1.370   7.505  0.5998 -1.6627 -1.8587
 6350SOL    HW230687   3.938   1.315   7.646  3.0310 -0.6246 -0.4697
 6351SOL     OW30688   0.687   3.915   7.468  0.2669  0.2998 -0.4226
 6351SOL    HW130689   0.742   3.969   7.525 -0.0144 -0.4560  0.5672
 6351SOL    HW230690   0.648   3.854   7.531  0.6889 -0.2087 -0.6571
 6352SOL     OW30691   4.205   0.599  13.006  0.1413 -0.4782 -0.3783
 6352SOL    HW130692   4.164   0.683  12.990  0.3685 -0.5609 -1.3805
 6352SOL    HW230693   4.297   0.626  13.009  0.0914 -0.7287  3.9980
 6353SOL     OW30694   3.458   3.010   1.956  0.1803 -0.3750  0.5731
 6353SOL    HW130695   3.412   3.056   1.885  0.5171 -1.1806 -0.1728
 6353SOL    HW230696   3.383   2.955   1.981 -2.6440  2.6146 -1.2505
 6354SOL     OW30697   2.530   2.732   8.274 -0.8177  0.3816 -0.2195
 6354SOL    HW130698   2.546   2.655   8.220 -0.3845  0.2315  0.1228
 6354SOL    HW230699   2.448   2.771   8.244 -1.2647  0.7136  1.4321
 6355SOL     OW30700   2.411   3.519   1.104 -0.0710 -0.5106  0.0455
 6355SOL    HW130701   2.371   3.598   1.066  0.8484 -0.2027 -0.2828
 6355SOL    HW230702   2.368   3.446   1.060  0.7929 -1.0246  0.0688
 6356SOL     OW30703   1.857   1.311  12.118  1.1447  0.2542  0.1915
 6356SOL    HW130704   1.826   1.334  12.206  0.6083  0.5565 -0.0793
 6356SOL    HW230705   1.950   1.287  12.124  0.7046 -1.9875 -2.1688
 6357SOL     OW30706   2.057   3.951   0.909  0.1754 -0.2370  0.3798
 6357SOL    HW130707   2.062   4.040   0.876 -0.3501  0.1496  1.3344
 6357SOL    HW230708   1.962   3.946   0.914  0.1758  1.0465  1.5956
 6358SOL     OW30709   3.499   2.392   2.281 -0.8208 -0.4804 -0.1213
 6358SOL    HW130710   3.519   2.342   2.360 -0.0313 -0.0819 -0.0703
 6358SOL    HW230711   3.534   2.479   2.302 -1.0415 -0.5659  0.6034
 6359SOL     OW30712   2.570   0.028   4.296  0.1949 -0.0855 -0.2257
 6359SOL    HW130713   2.525   4.705   4.239 -0.0133 -2.1155  2.1443
 6359SOL    HW230714   2.607   4.724   4.373  0.6677 -0.4728 -0.6670
 6360SOL     OW30715   1.820   4.370   3.222 -0.0171  0.0484 -0.1663
 6360SOL    HW130716   1.871   4.448   3.241 -1.1666  0.5239  0.9554
 6360SOL    HW230717   1.857   4.337   3.140  0.1805 -1.2923  0.4602
 6361SOL     OW30718   2.956   2.413   4.553 -0.6768  0.3373  0.1503
 6361SOL    HW130719   2.941   2.354   4.479 -1.0142 -0.3204  0.7400
 6361SOL    HW230720   2.867   2.426   4.586 -1.9086  0.7570 -3.3882
 6362SOL     OW30721   1.265   1.016  13.408 -0.1282  0.4427  0.1773
 6362SOL    HW130722   1.223   1.043  13.327 -2.4434 -0.5381  1.0482
 6362SOL    HW230723   1.221   1.085  13.458  0.0861  1.8184 -1.5148
 6363SOL     OW30724   4.084   0.407   6.196 -0.2342 -0.2688 -0.8170
 6363SOL    HW130725   4.146   0.334   6.194  0.7616  0.5813 -0.6905
 6363SOL    HW230726   4.025   0.378   6.265 -0.3946  0.8163 -0.4978
 6364SOL     OW30727   1.887   4.020   2.801 -0.4757 -0.0713 -0.4913
 6364SOL    HW130728   1.882   3.926   2.818 -0.5099 -0.1061 -0.6945
 6364SOL    HW230729   1.796   4.042   2.779 -0.6804  0.3692  0.8104
 6365SOL     OW30730   0.280   1.889   8.609 -0.3517  0.1197 -0.0773
 6365SOL    HW130731   0.346   1.834   8.651 -0.6097  0.0058  0.1756
 6365SOL    HW230732   0.298   1.859   8.520 -1.2617 -2.4944  0.6313
 6366SOL     OW30733   3.435   2.627   3.519  0.3190  0.1943  0.0023
 6366SOL    HW130734   3.481   2.668   3.446  1.3601 -1.1325 -0.0762
 6366SOL    HW230735   3.501   2.644   3.586  0.2989  0.2708  0.0032
 6367SOL     OW30736   0.973   1.893   0.350  0.3958  0.0270 -0.9275
 6367SOL    HW130737   1.035   1.820   0.352 -1.0223 -1.1611 -0.1202
 6367SOL    HW230738   0.894   1.842   0.369  2.7966 -2.6601  1.8421
 6368SOL     OW30739   2.087   0.023  12.622  0.7014  0.0988 -0.5083
 6368SOL    HW130740   2.023   4.726  12.561  1.4564 -1.7592 -0.2053
 6368SOL    HW230741   2.095   4.690  12.684 -0.5660  1.0283  0.7470
 6369SOL     OW30742   2.871   3.490   5.213 -0.2757  0.1609  0.5220
 6369SOL    HW130743   2.834   3.404   5.232  1.1318 -0.3277  0.9943
 6369SOL    HW230744   2.921   3.463   5.136 -1.4955 -1.0359  0.1396
 6370SOL     OW30745   4.122   2.393   7.391 -0.2851 -0.1632  0.3436
 6370SOL    HW130746   4.195   2.447   7.359  0.2954 -1.5533 -0.6544
 6370SOL    HW230747   4.051   2.458   7.391 -0.3147 -0.1872  1.0871
 6371SOL     OW30748   2.965   3.315   1.927  0.1341 -0.3688  0.5694
 6371SOL    HW130749   2.971   3.369   1.848 -2.1391  1.4327  1.6537
 6371SOL    HW230750   2.935   3.228   1.898 -1.4091  0.4426 -0.2779
 6372SOL     OW30751   3.107   3.324   3.236 -0.2465 -0.6856 -0.1466
 6372SOL    HW130752   3.025   3.304   3.282  1.0395 -4.9579  0.2429
 6372SOL    HW230753   3.089   3.413   3.205 -1.6745 -1.3420 -1.1862
 6373SOL     OW30754   2.641   0.159   1.132 -0.0336 -0.4128  0.6210
 6373SOL    HW130755   2.702   0.086   1.141  1.2886  0.3975 -1.6622
 6373SOL    HW230756   2.561   0.120   1.165 -1.1474  1.2332 -0.1511
 6374SOL     OW30757   2.317   0.891   9.342  0.2351 -0.0075 -0.3527
 6374SOL    HW130758   2.268   0.834   9.283  2.3880 -1.1374 -1.0228
 6374SOL    HW230759   2.368   0.827   9.391  0.3846  2.1230  2.2981
 6375SOL     OW30760   0.718   0.788   1.265  0.1415 -1.1438 -0.4382
 6375SOL    HW130761   0.664   0.775   1.188 -1.0589  0.0935  0.1966
 6375SOL    HW230762   0.684   0.727   1.330  1.2350 -1.5443 -0.2314
 6376SOL     OW30763   4.689   0.900   3.630 -0.9233  0.6818 -0.6216
 6376SOL    HW130764   4.723   0.854   3.553 -1.1422 -0.4309 -0.0563
 6376SOL    HW230765   4.598   0.905   3.599 -1.2120 -3.2377 -0.4142
 6377SOL     OW30766   0.249   3.837  10.622 -0.2279 -0.2263  0.3830
 6377SOL    HW130767   0.212   3.909  10.674  0.8860  1.3857 -1.0722
 6377SOL    HW230768   0.194   3.766  10.656 -1.0989  0.4970  0.5017
 6378SOL     OW30769   1.808   3.507  14.725  0.1275 -0.7338  0.0224
 6378SOL    HW130770   1.819   3.603  14.727 -2.6854 -0.4240  0.9150
 6378SOL    HW230771   1.902   3.487  14.728  0.4273  0.6703  0.4945
 6379SOL     OW30772   0.755   1.705   0.099  0.0650  0.0730 -0.0918
 6379SOL    HW130773   0.791   1.753   0.024 -0.1769 -0.2189 -0.3937
 6379SOL    HW230774   0.822   1.638   0.110 -0.7170 -0.8886 -1.1252
 6380SOL     OW30775   1.114   0.884  13.665 -0.0981 -0.9106  0.6178
 6380SOL    HW130776   1.023   0.859  13.680 -0.7030  0.7627 -0.3490
 6380SOL    HW230777   1.159   0.800  13.680  2.2595 -0.0408 -1.6067
 6381SOL     OW30778   0.262   2.430   1.933 -0.0809  0.3642  0.1953
 6381SOL    HW130779   0.241   2.518   1.902  1.1342  0.1563 -1.1965
 6381SOL    HW230780   0.281   2.443   2.026  5.7487  0.2263 -1.0008
 6382SOL     OW30781   1.980   1.124   5.367 -0.0857  0.7968 -0.4447
 6382SOL    HW130782   2.071   1.097   5.362  0.6442  3.1552  0.1589
 6382SOL    HW230783   1.945   1.126   5.277  1.3695  0.4481 -1.0056
 6383SOL     OW30784   1.236   0.841  10.912  0.5332  0.1749  0.1559
 6383SOL    HW130785   1.149   0.877  10.931  0.7633  0.0235  1.4872
 6383SOL    HW230786   1.235   0.765  10.971 -1.3825  0.7267  0.8388
 6384SOL     OW30787   4.150   2.177   8.254 -0.0609  0.5997 -0.4157
 6384SOL    HW130788   4.087   2.107   8.232  1.6384 -1.1683  0.3318
 6384SOL    HW230789   4.093   2.254   8.252 -2.0918 -0.8618  0.3896
 6385SOL     OW30790   3.387   1.304   8.087 -0.2292  0.0727  0.3072
 6385SOL    HW130791   3.324   1.307   8.016  0.3122  2.0391 -0.0928
 6385SOL    HW230792   3.467   1.277   8.041 -0.2288 -0.0501  0.3789
 6386SOL     OW30793   3.522   1.075   7.334  0.5005  0.1353  0.6718
 6386SOL    HW130794   3.483   1.161   7.350  1.7267  0.2817  2.7198
 6386SOL    HW230795   3.463   1.033   7.270 -1.7851  0.1016  2.8055
 6387SOL     OW30796   1.728   0.099   2.495  0.7208 -0.0801  0.0347
 6387SOL    HW130797   1.719   0.004   2.486  1.4616 -0.0632 -0.9619
 6387SOL    HW230798   1.760   0.110   2.584 -1.6610 -0.8816  0.9849
 6388SOL     OW30799   0.656   2.579   8.328  0.3868  0.2968  0.2934
 6388SOL    HW130800   0.740   2.535   8.311 -0.8755 -1.2166 -1.9631
 6388SOL    HW230801   0.673   2.672   8.342  1.3939 -0.3295  3.3023
 6389SOL     OW30802   0.991   4.571  14.493 -0.0577 -0.4928 -0.6757
 6389SOL    HW130803   1.034   4.588  14.409  1.1435  0.1233  0.0712
 6389SOL    HW230804   1.056   4.509  14.526  0.9725  0.8087 -0.2843
 6390SOL     OW30805   2.369   2.275  12.060 -0.0313  0.0887  0.0730
 6390SOL    HW130806   2.454   2.261  12.100 -0.6740  0.9540  1.7345
 6390SOL    HW230807   2.374   2.215  11.986 -3.1320  0.7180 -0.6494
 6391SOL     OW30808   4.407   4.207  17.564  0.1924  0.2915 -0.2266
 6391SOL    HW130809   4.373   4.127  17.522 -0.1397  0.1808  0.2594
 6391SOL    HW230810   4.331   4.234  17.615  0.5564 -0.9844  0.9898
 6392SOL     OW30811   1.742   0.924  12.866  0.0086 -0.5188  0.4974
 6392SOL    HW130812   1.721   1.017  12.869  0.5555 -0.3489 -1.5626
 6392SOL    HW230813   1.714   0.901  12.955 -2.4337  3.0570  0.6563
 6393SOL     OW30814   3.332   3.351   2.745 -0.0023  0.0714 -0.4371
 6393SOL    HW130815   3.411   3.381   2.789 -0.2194 -1.2106  0.8265
 6393SOL    HW230816   3.335   3.255   2.744 -0.1807  0.0640 -0.1999
 6394SOL     OW30817   0.756   3.367  10.953 -0.5923  0.3311  0.6334
 6394SOL    HW130818   0.784   3.277  10.934 -0.3995  0.0478  2.2975
 6394SOL    HW230819   0.763   3.403  10.864  0.7351 -1.8422 -0.1606
 6395SOL     OW30820   2.795   2.514   1.607 -0.0880  0.0741 -0.5094
 6395SOL    HW130821   2.806   2.421   1.585  0.7503 -0.0085  0.2420
 6395SOL    HW230822   2.885   2.545   1.593 -0.0228 -0.2809 -0.8664
 6396SOL     OW30823   2.982   2.305  11.798  0.4154  0.1946  0.0587
 6396SOL    HW130824   3.038   2.280  11.872  0.7529  0.6229 -0.0486
 6396SOL    HW230825   3.012   2.250  11.726 -0.3016  0.6311 -0.5744
 6397SOL     OW30826   3.424   0.254   8.626  0.1586 -0.1522  0.1095
 6397SOL    HW130827   3.418   0.159   8.615  3.0908 -0.2706 -0.4256
 6397SOL    HW230828   3.501   0.275   8.574 -0.9467  0.0800 -1.4393
 6398SOL     OW30829   3.532   0.097   0.835 -0.7727  0.5279 -0.1309
 6398SOL    HW130830   3.561   0.187   0.819 -0.0842  0.5783  1.4024
 6398SOL    HW230831   3.487   0.107   0.919 -1.2958 -0.0292 -0.3479
 6399SOL     OW30832   0.560   3.420   9.138 -0.0824 -0.0774  0.1703
 6399SOL    HW130833   0.561   3.497   9.195  0.4434  2.1175 -2.7679
 6399SOL    HW230834   0.648   3.383   9.145 -0.0072  0.3665  1.6413
 6400SOL     OW30835   0.219   1.056   4.804 -0.4678 -0.1989 -0.0045
 6400SOL    HW130836   0.221   1.143   4.843 -1.7566  0.2523 -0.9436
 6400SOL    HW230837   0.202   1.005   4.883  1.5535 -3.1557 -1.4502
 6401SOL     OW30838   2.784   0.172   6.580 -0.3811  0.0917  0.2677
 6401SOL    HW130839   2.818   0.083   6.587  0.2491 -0.0242 -4.3522
 6401SOL    HW230840   2.858   0.228   6.601 -0.6999 -1.1304  4.6822
 6402SOL     OW30841   1.133   1.934   2.473 -0.5688  0.0327  0.0291
 6402SOL    HW130842   1.051   1.886   2.487 -0.3904 -0.1402  0.4993
 6402SOL    HW230843   1.123   1.944   2.378  0.5365 -0.1310 -0.1018
 6403SOL     OW30844   4.529   0.814   2.840 -0.3937 -0.1593 -0.9434
 6403SOL    HW130845   4.569   0.727   2.849  1.6267  0.8848  0.1859
 6403SOL    HW230846   4.439   0.808   2.870  1.2807  0.0225  4.2192
 6404SOL     OW30847   2.219   1.986  13.942 -0.2350 -0.9702  0.2203
 6404SOL    HW130848   2.191   2.015  14.028  1.2138 -1.4209  0.8429
 6404SOL    HW230849   2.185   2.054  13.884 -2.7345 -3.6472 -1.4075
 6405SOL     OW30850   3.767   2.518   9.454 -0.3482 -0.5303 -0.8907
 6405SOL    HW130851   3.855   2.552   9.442 -0.9091  0.9333 -0.8013
 6405SOL    HW230852   3.744   2.518   9.361 -1.4593  1.1831 -0.5961
 6406SOL     OW30853   2.134   2.901  12.408 -0.0756 -0.5848  0.7711
 6406SOL    HW130854   2.194   2.910  12.483 -1.7354  1.8418  1.8049
 6406SOL    HW230855   2.180   2.842  12.348 -0.2417 -1.2258  1.2768
 6407SOL     OW30856   2.680   3.238   6.714  0.7465  0.1569 -0.1309
 6407SOL    HW130857   2.660   3.145   6.724 -0.1855  0.5074  1.3855
 6407SOL    HW230858   2.729   3.249   6.796 -0.7275  1.9169  0.5207
 6408SOL     OW30859   2.458   4.372   2.125  0.7010 -0.1791  0.4653
 6408SOL    HW130860   2.508   4.389   2.046 -0.4408  0.5106 -0.1009
 6408SOL    HW230861   2.522   4.324   2.179  1.3639  0.6894  0.4506
 6409SOL     OW30862   4.495   3.054   7.358  0.5560  0.2872 -0.1493
 6409SOL    HW130863   4.452   3.129   7.398  0.1260 -0.2913  0.4539
 6409SOL    HW230864   4.575   3.084   7.314  1.2899 -3.1282 -1.1686
 6410SOL     OW30865   1.737   1.207   5.508  0.3954  0.4387 -0.0603
 6410SOL    HW130866   1.745   1.207   5.412  3.3235 -2.0231  0.1947
 6410SOL    HW230867   1.658   1.152   5.515  1.4343 -1.2491 -1.3998
 6411SOL     OW30868   0.351   2.284   4.255 -0.0520 -0.1947 -0.2011
 6411SOL    HW130869   0.314   2.357   4.304 -1.3110 -1.4371  0.7171
 6411SOL    HW230870   0.290   2.221   4.294 -0.4535  0.0034 -0.5089
 6412SOL     OW30871   4.284   0.226   2.782 -0.0102  0.4840  0.6548
 6412SOL    HW130872   4.208   0.264   2.826 -0.0509  0.8139  0.3003
 6412SOL    HW230873   4.302   0.157   2.846  1.5457  0.1164 -0.1814
 6413SOL     OW30874   4.073   2.768  14.347  0.3653  0.6622  0.5171
 6413SOL    HW130875   3.978   2.753  14.352  0.7453 -1.4079  1.6375
 6413SOL    HW230876   4.065   2.858  14.317 -0.9902  0.1504 -0.6572
 6414SOL     OW30877   4.504   1.718   0.078 -0.3497 -0.0782 -0.3509
 6414SOL    HW130878   4.516   1.633   0.120  1.6804  1.3010  1.8791
 6414SOL    HW230879   4.408   1.718   0.076 -0.3217  1.5132 -1.1736
 6415SOL     OW30880   2.637   3.739   7.099 -0.0224  0.3761 -0.0508
 6415SOL    HW130881   2.577   3.664   7.105 -0.1361  0.5298  0.7481
 6415SOL    HW230882   2.696   3.715   7.171  1.2262  0.8174 -0.9405
 6416SOL     OW30883   4.172   0.446   1.840 -0.7714  0.3203  0.4083
 6416SOL    HW130884   4.152   0.359   1.873 -2.2641  0.0077 -1.2924
 6416SOL    HW230885   4.238   0.480   1.900 -0.7626  1.7017 -0.3614
 6417SOL     OW30886   3.230   3.299   2.002  0.4104  0.6062  0.9029
 6417SOL    HW130887   3.254   3.246   1.926  0.2892 -2.9704  3.3422
 6417SOL    HW230888   3.144   3.336   1.981  0.7449  0.8812  0.0065
 6418SOL     OW30889   4.304   2.707   2.340 -0.4785 -0.6570 -0.1902
 6418SOL    HW130890   4.348   2.644   2.283 -0.4281  0.6778 -1.6012
 6418SOL    HW230891   4.221   2.668   2.364 -0.8501 -0.4298 -1.1147
 6419SOL     OW30892   2.625   0.027  12.003 -0.8691  0.1857  0.0628
 6419SOL    HW130893   2.660   0.115  11.998 -1.5498  0.5957  2.6031
 6419SOL    HW230894   2.662   4.727  12.082  1.4038 -0.5721 -1.3716
 6420SOL     OW30895   0.018   0.774   1.936  0.4852 -0.3472 -0.6969
 6420SOL    HW130896   4.718   0.765   2.023 -0.5832 -1.0814 -1.2480
 6420SOL    HW230897   0.012   0.869   1.932  1.5661 -0.2195  0.6960
 6421SOL     OW30898   2.073   4.636  15.033 -0.2889 -0.3124  0.7347
 6421SOL    HW130899   2.132   4.666  15.102  2.1901 -2.5404 -0.3857
 6421SOL    HW230900   2.089   4.541  15.034  0.6964 -0.1588  0.3404
 6422SOL     OW30901   2.461   0.206  12.196  0.1508 -0.1700  0.0090
 6422SOL    HW130902   2.438   0.227  12.287  2.1092  1.7085  0.0605
 6422SOL    HW230903   2.469   0.111  12.208  1.9727  0.0231  0.3071
 6423SOL     OW30904   3.959   4.031   0.620 -0.6121  0.4692  0.0678
 6423SOL    HW130905   3.958   4.002   0.711 -0.1155  2.9069  0.8531
 6423SOL    HW230906   3.925   4.119   0.639  1.3484  1.0633  0.7558
 6424SOL     OW30907   2.134   4.449   8.721  0.1932  0.0482 -0.9051
 6424SOL    HW130908   2.139   4.448   8.626  2.1243 -0.2306 -0.7974
 6424SOL    HW230909   2.166   4.360   8.738 -1.6472 -0.2438  1.0372
 6425SOL     OW30910   1.907   1.365   7.138  0.3544 -0.0632  0.2841
 6425SOL    HW130911   1.970   1.301   7.171  1.1353 -0.1327 -1.3435
 6425SOL    HW230912   1.854   1.312   7.078 -0.8357  0.6193  0.7233
 6426SOL     OW30913   3.748   0.031   0.570  0.3254 -0.3403 -0.1645
 6426SOL    HW130914   3.665   0.076   0.551  1.2596  1.3557 -0.2008
 6426SOL    HW230915   3.806   0.103   0.594  1.8220 -1.3484 -0.7639
 6427SOL     OW30916   2.302   2.121   2.845  0.1267 -0.7020 -0.0178
 6427SOL    HW130917   2.208   2.127   2.861  0.2266 -1.7010  0.9380
 6427SOL    HW230918   2.323   2.212   2.864  0.1188 -0.4905 -1.0527
 6428SOL     OW30919   3.644   1.116   4.050 -0.3778  0.3706 -0.2023
 6428SOL    HW130920   3.553   1.088   4.043 -0.4628  0.4098  0.8721
 6428SOL    HW230921   3.682   1.033   4.077  2.2876  1.0545 -1.8488
 6429SOL     OW30922   3.027   0.969   8.162  0.4022  1.0421 -0.0444
 6429SOL    HW130923   3.004   0.951   8.253 -0.5228 -0.7989 -0.6517
 6429SOL    HW230924   3.088   0.898   8.144 -0.3975  0.4947 -0.6215
 6430SOL     OW30925   4.558   3.509   2.018  0.7507  0.0434 -0.0311
 6430SOL    HW130926   4.634   3.451   2.019  0.0843 -0.8249  0.8103
 6430SOL    HW230927   4.550   3.526   1.924 -0.6889  0.9079  0.2443
 6431SOL     OW30928   3.903   4.562   1.087 -0.6284 -0.3211 -0.0600
 6431SOL    HW130929   3.853   4.590   1.010  1.0529 -0.5701 -1.2526
 6431SOL    HW230930   3.953   4.490   1.050  1.4401  1.5508 -0.8967
 6432SOL     OW30931   2.681   2.318   9.230 -0.4963 -0.1755  0.3303
 6432SOL    HW130932   2.767   2.338   9.265 -0.8100  1.1905  0.3430
 6432SOL    HW230933   2.675   2.378   9.155 -0.5703 -0.3016  0.2356
 6433SOL     OW30934   2.834   2.649   6.540  0.5398  0.2341 -0.4492
 6433SOL    HW130935   2.862   2.727   6.587 -0.2853 -0.3719  1.0476
 6433SOL    HW230936   2.886   2.581   6.583  0.5439 -0.0271 -0.8623
 6434SOL     OW30937   3.328   2.573  11.006 -0.1830  0.1720 -0.2172
 6434SOL    HW130938   3.345   2.594  10.914 -0.2698  2.7475  0.3471
 6434SOL    HW230939   3.370   2.487  11.008 -3.2975 -1.3405  0.1327
 6435SOL     OW30940   4.544   4.196   4.099 -0.2535 -0.1595 -0.1233
 6435SOL    HW130941   4.483   4.266   4.077  1.6931  0.9186 -2.1703
 6435SOL    HW230942   4.489   4.118   4.093 -2.8972  1.6084  1.3659
 6436SOL     OW30943   3.587   0.411   2.419 -0.1975  0.2212 -0.2297
 6436SOL    HW130944   3.657   0.470   2.447 -0.4244  1.0087 -1.3424
 6436SOL    HW230945   3.559   0.457   2.340  2.2969  2.4718  0.2076
 6437SOL     OW30946   2.038   1.312   9.328  0.3317  0.3790  0.1342
 6437SOL    HW130947   2.122   1.266   9.327  0.5049  0.6615  1.4704
 6437SOL    HW230948   2.065   1.370   9.399 -0.0031 -1.3969  1.7207
 6438SOL     OW30949   3.998   0.130   8.878  0.2314 -0.6003  0.0789
 6438SOL    HW130950   3.977   0.193   8.947  1.0001 -2.3460  1.9044
 6438SOL    HW230951   3.988   0.049   8.928 -0.5311  0.0715  1.0086
 6439SOL     OW30952   4.476   0.369  13.154  0.0123 -0.1096 -0.6400
 6439SOL    HW130953   4.474   0.465  13.149  3.4818  0.0154  0.5865
 6439SOL    HW230954   4.524   0.360  13.236 -2.5913  1.4160  1.0822
 6440SOL     OW30955   0.623   2.549  11.611  0.1206 -0.4659 -0.0619
 6440SOL    HW130956   0.606   2.569  11.703 -3.1672 -0.0261 -0.7456
 6440SOL    HW230957   0.703   2.498  11.619  0.2775 -0.3970 -1.2377
 6441SOL     OW30958   3.355   3.754   1.478  0.5251  0.1293  0.4435
 6441SOL    HW130959   3.428   3.777   1.420  0.4038  1.5153  0.8385
 6441SOL    HW230960   3.316   3.840   1.489 -0.3071 -0.4898  2.2695
 6442SOL     OW30961   2.101   0.395   4.561  0.4103 -0.3469 -0.5724
 6442SOL    HW130962   2.041   0.371   4.490  1.2509 -0.4977 -1.2292
 6442SOL    HW230963   2.103   0.310   4.605 -0.7339 -0.4433 -0.7059
 6443SOL     OW30964   2.948   0.568   4.230  0.9186 -0.1899  0.0109
 6443SOL    HW130965   2.854   0.583   4.236  0.8147 -1.4489  1.3544
 6443SOL    HW230966   2.961   0.609   4.144  0.8109  0.6530  0.3993
 6444SOL     OW30967   0.640   3.827   0.941  0.1291 -0.5969 -0.2625
 6444SOL    HW130968   0.552   3.851   0.913  0.2831 -0.0778 -0.2975
 6444SOL    HW230969   0.678   3.785   0.864  0.1777 -2.3988  0.7266
 6445SOL     OW30970   0.358   0.928   7.302 -0.1079  0.0851  0.7125
 6445SOL    HW130971   0.397   1.012   7.279  0.2427 -0.3892 -0.4322
 6445SOL    HW230972   0.424   0.902   7.367  0.2855 -1.2524 -0.2276
 6446SOL     OW30973   2.246   3.717  10.726  0.0591  0.6110  0.8449
 6446SOL    HW130974   2.174   3.658  10.751  0.1058  0.8001  1.4281
 6446SOL    HW230975   2.218   3.802  10.759 -2.6125  0.8544 -2.0439
 6447SOL     OW30976   3.814   3.012  11.605 -0.3841  0.7117  0.1630
 6447SOL    HW130977   3.793   3.100  11.573  3.0499  1.2588 -0.6609
 6447SOL    HW230978   3.910   3.016  11.610 -0.2906 -0.5352 -0.4666
 6448SOL     OW30979   2.405   0.054  15.310 -0.4970  0.5789  0.0887
 6448SOL    HW130980   2.362   0.110  15.245 -2.5655 -0.9793  0.0812
 6448SOL    HW230981   2.372   4.707  15.282 -2.7001 -0.0701  4.6947
 6449SOL     OW30982   4.570   0.675   9.176 -0.1003  0.8284  0.7112
 6449SOL    HW130983   4.526   0.733   9.114 -0.8632 -0.3072  0.1799
 6449SOL    HW230984   4.495   0.626   9.211 -0.7915  2.1946  1.1399
 6450SOL     OW30985   2.554   2.360   6.195 -0.9680  0.5437 -0.2917
 6450SOL    HW130986   2.532   2.387   6.285 -1.0989 -0.0538 -0.1461
 6450SOL    HW230987   2.563   2.446   6.154  0.3846 -0.1656 -1.4648
 6451SOL     OW30988   3.887   2.365  14.510  0.3538 -0.5845 -0.3481
 6451SOL    HW130989   3.870   2.271  14.501  1.8070 -0.7685 -1.0942
 6451SOL    HW230990   3.851   2.369  14.599  1.3284  1.6685 -0.0771
 6452SOL     OW30991   1.270   1.692   5.661 -0.1220 -0.0724  0.1135
 6452SOL    HW130992   1.320   1.770   5.637  0.7903 -0.2555  1.3792
 6452SOL    HW230993   1.241   1.717   5.749 -0.3219 -0.5787  0.1869
 6453SOL     OW30994   3.316   1.742  13.083 -0.3356 -0.4601  0.2253
 6453SOL    HW130995   3.253   1.800  13.042 -2.2744 -1.4475  1.8225
 6453SOL    HW230996   3.265   1.662  13.096 -0.5130 -0.3992 -0.1046
 6454SOL     OW30997   2.243   4.330   6.853  0.0986 -0.1574 -0.5277
 6454SOL    HW130998   2.286   4.246   6.833 -0.6907 -0.3297 -1.4938
 6454SOL    HW230999   2.218   4.364   6.768 -0.9933 -1.7002 -0.8340
 6455SOL     OW31000   0.656   3.814   7.707  0.9316  0.1135  0.0905
 6455SOL    HW131001   0.636   3.729   7.747  0.3093  0.0789 -0.2946
 6455SOL    HW231002   0.660   3.866   7.788 -2.5179 -0.4668  0.6263
 6456SOL     OW31003   3.158   0.684  12.723 -0.3828 -0.3477 -0.5255
 6456SOL    HW131004   3.215   0.744  12.675  0.1695  0.8119  1.5937
 6456SOL    HW231005   3.152   0.607  12.666  0.6779 -0.7935 -0.0293
 6457SOL     OW31006   2.705   3.384   8.722  0.0002 -0.0965 -0.8606
 6457SOL    HW131007   2.670   3.391   8.633  2.4922  1.2275 -1.7464
 6457SOL    HW231008   2.673   3.470   8.750  2.6473  0.6489 -0.1189
 6458SOL     OW31009   0.010   2.241   2.672 -0.3826  0.2205 -0.0602
 6458SOL    HW131010   4.689   2.171   2.648 -0.6649 -0.5116  2.7358
 6458SOL    HW231011   0.090   2.213   2.626  0.3362 -0.2029  1.4391
 6459SOL     OW31012   1.454   3.161   6.649  0.1952  0.1079  0.3399
 6459SOL    HW131013   1.511   3.090   6.621  0.1584 -0.6267  2.0975
 6459SOL    HW231014   1.461   3.225   6.579 -0.3427 -1.4164 -1.1028
 6460SOL     OW31015   3.890   1.652   8.176  0.1017 -0.5429  0.1516
 6460SOL    HW131016   3.842   1.687   8.251  1.7762  0.2737  0.8525
 6460SOL    HW231017   3.819   1.629   8.117  0.6222  0.1575 -0.7512
 6461SOL     OW31018   1.863   0.641   5.690 -0.6834  0.1559 -0.5821
 6461SOL    HW131019   1.956   0.649   5.707 -0.7884 -1.1901  0.6076
 6461SOL    HW231020   1.854   0.712   5.626 -1.1024  1.4235  0.8731
 6462SOL     OW31021   2.973   2.082   7.681  0.0691  0.6088 -0.1364
 6462SOL    HW131022   2.989   2.085   7.586  0.1154  1.0614 -0.1166
 6462SOL    HW231023   3.033   2.152   7.706  1.2146 -0.5156  0.2512
 6463SOL     OW31024   0.190   4.583   9.014  0.3944 -0.4105 -0.7742
 6463SOL    HW131025   0.130   4.628   9.074  1.0089 -1.4193  0.5896
 6463SOL    HW231026   0.258   4.649   9.005  3.0542 -2.8737  1.1706
 6464SOL     OW31027   1.963   2.355   5.048  0.1412  0.4155  0.3900
 6464SOL    HW131028   1.877   2.381   5.016  0.5608 -1.4288 -2.1394
 6464SOL    HW231029   2.020   2.391   4.980  0.0004  1.7342  0.9601
 6465SOL     OW31030   1.232   2.453   6.381 -0.1478 -0.1017 -0.1713
 6465SOL    HW131031   1.173   2.380   6.401  0.4316  0.6109  4.2823
 6465SOL    HW231032   1.202   2.522   6.440 -0.9778 -2.4463  2.1532
 6466SOL     OW31033   1.840   0.293   3.030  0.2171 -0.4694  0.0598
 6466SOL    HW131034   1.899   0.362   3.002  1.2890 -1.9633 -1.3315
 6466SOL    HW231035   1.890   0.213   3.013  1.4878  0.1447  0.8921
 6467SOL     OW31036   2.919   3.644   7.570 -0.6398  0.3248 -0.4097
 6467SOL    HW131037   2.993   3.653   7.510 -0.1233 -2.2422 -0.1724
 6467SOL    HW231038   2.926   3.695   7.651 -0.5167 -0.6000  0.1655
 6468SOL     OW31039   3.176   3.385   7.675  0.3381 -0.0021  0.1339
 6468SOL    HW131040   3.245   3.342   7.726  2.8795  0.3350 -3.0446
 6468SOL    HW231041   3.166   3.468   7.720 -1.4023 -0.4908  0.6500
 6469SOL     OW31042   0.463   1.805   6.379 -0.4154 -0.4256  0.3003
 6469SOL    HW131043   0.383   1.766   6.343  0.3222 -0.9269 -0.7859
 6469SOL    HW231044   0.511   1.809   6.296 -0.6640  1.3518  0.2393
 6470SOL     OW31045   1.790   3.477   5.313  0.1050  0.2003  0.1524
 6470SOL    HW131046   1.698   3.487   5.337  0.4241  0.7460  1.1524
 6470SOL    HW231047   1.796   3.535   5.237 -2.0698 -0.7267 -0.7351
 6471SOL     OW31048   4.640   3.491   7.050 -0.3654 -0.5347 -0.1188
 6471SOL    HW131049   4.690   3.523   6.975  2.0921 -2.9484  0.5254
 6471SOL    HW231050   4.707   3.500   7.117  0.4059  1.7472 -1.1968
 6472SOL     OW31051   3.561   4.570  11.247  0.0020 -0.5198  0.0751
 6472SOL    HW131052   3.478   4.595  11.288  0.9611 -1.2769  2.5037
 6472SOL    HW231053   3.595   4.656  11.222 -2.5211  0.6673  0.7720
 6473SOL     OW31054   2.112   1.431   9.550  0.1395 -0.2632  0.4576
 6473SOL    HW131055   2.031   1.428   9.600 -2.3894  1.8876 -3.5206
 6473SOL    HW231056   2.153   1.503   9.598  0.8107 -0.6279  0.4358
 6474SOL     OW31057   3.717   3.122   7.818 -0.2572 -0.1752 -0.2231
 6474SOL    HW131058   3.633   3.077   7.825 -0.6481  0.6931  0.6948
 6474SOL    HW231059   3.729   3.127   7.723  0.2019  0.8034 -0.1048
 6475SOL     OW31060   3.272   1.858   1.596  0.3685 -0.1293  0.1592
 6475SOL    HW131061   3.209   1.904   1.541  2.2188  1.3644 -0.7125
 6475SOL    HW231062   3.222   1.778   1.610  0.9647 -0.4160  0.6520
 6476SOL     OW31063   1.573   0.003   7.553  0.7870  0.8050 -0.2330
 6476SOL    HW131064   1.598   0.062   7.625 -0.9902 -0.8229  1.7190
 6476SOL    HW231065   1.605   0.050   7.476  1.3344  0.0863 -0.4388
 6477SOL     OW31066   2.922   1.696   1.127  0.3166 -0.0967  0.1151
 6477SOL    HW131067   3.013   1.692   1.155 -0.1334  1.6338  1.8469
 6477SOL    HW231068   2.926   1.777   1.076  4.0625  0.4676  1.3836
 6478SOL     OW31069   0.445   2.795   5.254  0.0751  0.0698  0.5868
 6478SOL    HW131070   0.490   2.816   5.172 -0.3160  2.3813  0.9674
 6478SOL    HW231071   0.440   2.700   5.261 -0.9920  0.1046  0.3158
 6479SOL     OW31072   0.018   1.713   8.367  0.2463 -0.2281 -0.3545
 6479SOL    HW131073   0.105   1.752   8.359  0.3939 -0.7933 -1.4067
 6479SOL    HW231074   0.020   1.630   8.319 -2.2618 -0.8826  0.7091
 6480SOL     OW31075   0.005   0.741  14.935  0.0591  0.0017 -0.1065
 6480SOL    HW131076   0.043   0.770  15.018 -0.1884  0.8349 -0.2858
 6480SOL    HW231077   0.086   0.732  14.885 -0.3727  1.1785 -0.9938
 6481SOL     OW31078   3.722   3.893   7.199 -0.5353 -0.4100 -0.9433
 6481SOL    HW131079   3.717   3.802   7.230 -4.6403  0.8605  2.0827
 6481SOL    HW231080   3.680   3.935   7.274  1.4334 -1.6123  0.8629
 6482SOL     OW31081   4.597   0.069   6.703  0.8734  0.0636  0.2864
 6482SOL    HW131082   4.658   0.055   6.630  0.1049  0.7535 -0.4890
 6482SOL    HW231083   4.520   0.099   6.656  1.7848 -0.2225 -1.4109
 6483SOL     OW31084   0.613   1.984   3.728  0.0997 -0.2133 -0.0517
 6483SOL    HW131085   0.583   1.947   3.811  1.9478 -2.0646 -0.1977
 6483SOL    HW231086   0.610   2.079   3.738  0.8414 -0.5106  3.1434
 6484SOL     OW31087   1.598   2.600   7.365  0.2302  0.7006  0.7059
 6484SOL    HW131088   1.667   2.654   7.401 -0.9189  0.7681  2.7977
 6484SOL    HW231089   1.524   2.659   7.380  0.3653  0.9791  0.2599
 6485SOL     OW31090   1.259   4.233   7.372 -0.7074 -0.0753 -0.1992
 6485SOL    HW131091   1.196   4.233   7.444 -1.0830  0.7621 -0.5290
 6485SOL    HW231092   1.256   4.325   7.347  0.8152  0.3534  1.2436
 6486SOL     OW31093   0.406   4.600  16.262  0.0008  0.6509  0.0441
 6486SOL    HW131094   0.449   4.586  16.177  2.4484 -2.0242  1.7178
 6486SOL    HW231095   0.420   4.694  16.276  0.2301  0.7745 -0.9606
 6487SOL     OW31096   1.671   4.532   9.680 -0.0410 -0.7440  0.3320
 6487SOL    HW131097   1.642   4.618   9.710 -1.7975 -1.0993 -0.3707
 6487SOL    HW231098   1.658   4.543   9.586 -1.0927  1.1163  0.6759
 6488SOL     OW31099   2.811   4.563   8.349 -0.2049 -0.0341 -0.0854
 6488SOL    HW131100   2.786   4.481   8.392 -0.8294 -1.0098 -2.3268
 6488SOL    HW231101   2.874   4.540   8.281 -0.3211 -1.1040  0.1641
 6489SOL     OW31102   1.475   3.377   3.337 -0.0943 -0.3512 -0.2148
 6489SOL    HW131103   1.391   3.389   3.382 -0.4408  1.3045 -1.3347
 6489SOL    HW231104   1.537   3.422   3.394  2.3462 -2.4881 -1.1884
 6490SOL     OW31105   3.033   4.028  14.153 -0.3824  0.1691 -0.3243
 6490SOL    HW131106   3.065   3.975  14.226 -1.0360 -0.2840 -0.3644
 6490SOL    HW231107   3.008   3.957  14.093 -0.7919 -0.4220  0.5404
 6491SOL     OW31108   1.276   3.683   9.351  0.1485  0.1624  0.4109
 6491SOL    HW131109   1.336   3.680   9.276 -0.0595 -1.5571  0.3221
 6491SOL    HW231110   1.268   3.593   9.382 -0.8043  0.5097  1.1556
 6492SOL     OW31111   1.990   1.863  13.534  0.1961  0.3800  0.3648
 6492SOL    HW131112   2.000   1.796  13.601  0.4729 -1.4827 -1.5384
 6492SOL    HW231113   1.985   1.805  13.458  0.6811 -1.0767  1.4702
 6493SOL     OW31114   2.739   1.964   6.358  0.5355  0.0933  0.2477
 6493SOL    HW131115   2.704   2.046   6.393 -2.3578 -1.0616  0.0164
 6493SOL    HW231116   2.690   1.963   6.276  0.4764 -0.9922  0.3003
 6494SOL     OW31117   2.599   2.712   4.466 -0.1102 -0.2106  0.3909
 6494SOL    HW131118   2.657   2.664   4.525  0.4540  0.2413  0.2092
 6494SOL    HW231119   2.572   2.644   4.405 -0.5242 -2.1692  2.7308
 6495SOL     OW31120   4.282   0.368   6.838  0.1174  0.1065 -0.0735
 6495SOL    HW131121   4.264   0.278   6.865 -0.3680  0.5409  1.0384
 6495SOL    HW231122   4.322   0.413   6.913  1.9632 -0.3262 -0.8022
 6496SOL     OW31123   0.667   2.389   3.059  0.6595 -0.5672  0.1853
 6496SOL    HW131124   0.629   2.305   3.083  0.0353 -0.4663 -0.4426
 6496SOL    HW231125   0.596   2.451   3.077  1.5160  1.5485 -3.8407
 6497SOL     OW31126   0.320   3.181   7.141 -0.1431 -0.0349  0.1399
 6497SOL    HW131127   0.290   3.127   7.068  1.5540  0.0053 -0.6027
 6497SOL    HW231128   0.388   3.234   7.098 -1.5750 -0.1435 -2.2298
 6498SOL     OW31129   4.323   3.390   1.615  0.4605 -0.5097  0.0402
 6498SOL    HW131130   4.385   3.349   1.675 -0.5779 -1.2222  0.6211
 6498SOL    HW231131   4.369   3.469   1.588 -1.3334  0.4622 -0.1882
 6499SOL     OW31132   2.151   2.636   2.355 -0.5505 -0.2403  0.2992
 6499SOL    HW131133   2.220   2.685   2.310 -1.7111  0.5006 -0.6876
 6499SOL    HW231134   2.093   2.625   2.280  1.1057 -2.1262 -0.7212
 6500SOL     OW31135   0.269   3.473   4.687  0.1561 -0.0288  0.0858
 6500SOL    HW131136   0.299   3.417   4.615 -0.0152 -0.6875  0.5255
 6500SOL    HW231137   0.261   3.400   4.749  0.6356 -1.1859 -1.2295
 6501SOL     OW31138   4.684   2.356  16.427 -0.4084 -0.3188  0.1772
 6501SOL    HW131139   0.017   2.314  16.474  1.3397  0.4955 -1.7538
 6501SOL    HW231140   4.610   2.297  16.441 -0.6219  0.3668  1.8761
 6502SOL     OW31141   2.502   3.697   4.778  0.4455  0.2789  0.4641
 6502SOL    HW131142   2.484   3.690   4.872 -0.0729  0.5052  0.3811
 6502SOL    HW231143   2.418   3.673   4.738 -0.4129 -0.2852  2.5801
 6503SOL     OW31144   3.642   2.039   8.862 -0.1742 -0.0656  0.1783
 6503SOL    HW131145   3.562   1.987   8.874 -0.1868 -0.4086 -1.3906
 6503SOL    HW231146   3.644   2.049   8.766 -0.2008 -0.8310  0.1000
 6504SOL     OW31147   3.441   1.540   4.682  0.3640 -0.1704 -0.1396
 6504SOL    HW131148   3.415   1.456   4.721  0.7459  0.8956  2.4126
 6504SOL    HW231149   3.382   1.604   4.721  3.7154  1.6239  1.9782
 6505SOL     OW31150   2.672   3.755   3.879  0.1366  0.1557 -0.5307
 6505SOL    HW131151   2.725   3.826   3.917 -1.3064  0.6930  0.4991
 6505SOL    HW231152   2.626   3.807   3.812 -0.8539  0.9568  0.7703
 6506SOL     OW31153   0.511   3.212   8.240 -0.8888  0.2908  0.5078
 6506SOL    HW131154   0.530   3.131   8.192 -0.0998  1.9812 -2.0520
 6506SOL    HW231155   0.558   3.276   8.186  0.0718 -0.3123  0.6328
 6507SOL     OW31156   3.391   4.156   6.514 -0.8170  0.6490  0.4084
 6507SOL    HW131157   3.349   4.082   6.471 -1.5498  0.8809  0.7283
 6507SOL    HW231158   3.461   4.112   6.562  0.8104  2.1567 -0.5699
 6508SOL     OW31159   3.045   4.599   1.951 -0.0414  0.3283  0.1761
 6508SOL    HW131160   2.979   4.667   1.937  0.0304  0.2637 -0.4653
 6508SOL    HW231161   3.125   4.646   1.929 -0.7021  2.1319  1.6424
 6509SOL     OW31162   2.727   0.564   2.489  0.1258 -0.2752 -0.0855
 6509SOL    HW131163   2.779   0.618   2.429  2.3829 -2.4521 -0.0641
 6509SOL    HW231164   2.642   0.597   2.459  0.6663 -0.0679 -1.3917
 6510SOL     OW31165   1.795   4.660  15.082  0.1136 -0.0740  0.3762
 6510SOL    HW131166   1.890   4.655  15.073  0.0688  0.0918 -0.1782
 6510SOL    HW231167   1.781   4.734  15.022  0.7474 -1.0022 -0.9043
 6511SOL     OW31168   3.325   0.961   2.795  0.1602  0.0118 -0.4086
 6511SOL    HW131169   3.365   0.913   2.867 -3.6433  0.8945  2.3314
 6511SOL    HW231170   3.296   1.034   2.850 -0.7360 -1.2670  0.7956
 6512SOL     OW31171   2.616   4.222  14.346 -0.0863 -0.3965  0.5742
 6512SOL    HW131172   2.595   4.129  14.350  0.1609 -0.5256 -0.9505
 6512SOL    HW231173   2.535   4.267  14.368 -0.4134  0.3234 -2.0543
 6513SOL     OW31174   0.559   4.706   1.138 -0.4129 -0.5458 -0.2479
 6513SOL    HW131175   0.480   4.712   1.085 -0.7714  2.8394  0.7133
 6513SOL    HW231176   0.546   4.632   1.198 -1.9288  0.4876  0.6992
 6514SOL     OW31177   4.619   1.982   2.700 -0.1022  0.1641  0.8981
 6514SOL    HW131178   4.571   1.935   2.633  0.6867 -0.3087  0.6655
 6514SOL    HW231179   4.545   2.029   2.738  0.0570  2.2895 -1.3690
 6515SOL     OW31180   0.366   2.496  17.224 -0.4585 -0.1249  0.6627
 6515SOL    HW131181   0.434   2.452  17.274  0.6790  1.0667  0.1790
 6515SOL    HW231182   0.411   2.558  17.165  0.2535 -1.1871  0.0799
 6516SOL     OW31183   1.032   0.367  12.589 -0.2895 -0.5302 -0.7663
 6516SOL    HW131184   1.040   0.273  12.609  1.6852 -0.1430  0.2526
 6516SOL    HW231185   0.950   0.381  12.637  0.4026  1.4252 -0.1594
 6517SOL     OW31186   3.070   3.848   1.711  0.6955  0.5240 -0.0430
 6517SOL    HW131187   2.979   3.854   1.682  1.5497  1.8864 -2.4099
 6517SOL    HW231188   3.069   3.922   1.773 -1.8562  0.5805 -0.1216
 6518SOL     OW31189   4.177   2.493   9.146  0.0641 -0.2952  0.0854
 6518SOL    HW131190   4.268   2.467   9.130  0.0775  1.2783 -2.4930
 6518SOL    HW231191   4.120   2.417   9.134  0.0905 -0.4544  0.9856
 6519SOL     OW31192   2.516   3.524   5.263 -0.7444 -0.1344  0.4085
 6519SOL    HW131193   2.435   3.477   5.241  1.4764 -3.3557 -0.8707
 6519SOL    HW231194   2.573   3.459   5.223 -0.1847  1.0671 -0.7702
 6520SOL     OW31195   0.647   4.665   0.150  0.0523 -0.1534  0.0689
 6520SOL    HW131196   0.742   4.659   0.154  0.0284 -0.7210 -0.2783
 6520SOL    HW231197   0.627   4.707   0.233 -0.4762 -2.1208  0.9264
 6521SOL     OW31198   4.170   0.162  11.964  0.0651  0.2278 -0.0496
 6521SOL    HW131199   4.092   0.108  11.978 -0.4866  1.2805  0.9265
 6521SOL    HW231200   4.143   0.244  12.006  3.5518  0.7218  1.2950
 6522SOL     OW31201   4.405   0.470   3.840  0.1749 -0.2137  0.2983
 6522SOL    HW131202   4.451   0.554   3.840  2.2830 -1.3577  3.1038
 6522SOL    HW231203   4.466   0.415   3.889 -1.6083 -0.5183  2.1530
 6523SOL     OW31204   0.844   4.315  17.332 -0.2536  0.0138  0.2286
 6523SOL    HW131205   0.792   4.265  17.269 -1.5043  1.2887  0.2453
 6523SOL    HW231206   0.825   4.274  17.416  0.4721 -1.4058 -0.2932
 6524SOL     OW31207   3.692   2.882   8.574  0.3536 -0.2162 -0.5632
 6524SOL    HW131208   3.685   2.794   8.539  1.2642  0.1867 -1.7478
 6524SOL    HW231209   3.629   2.885   8.647  1.3646 -0.0307  0.3116
 6525SOL     OW31210   4.633   3.101   9.243 -0.3615  0.5811  0.3603
 6525SOL    HW131211   4.658   3.193   9.234  4.0632 -0.8137 -1.8158
 6525SOL    HW231212   4.695   3.061   9.183 -2.3993 -0.4222 -1.0588
 6526SOL     OW31213   0.144   1.081   2.910  0.4366  0.1309  0.2450
 6526SOL    HW131214   0.142   0.989   2.938  1.0538  0.3384  1.0028
 6526SOL    HW231215   0.061   1.096   2.865  2.1867  1.8106 -2.4209
 6527SOL     OW31216   2.209   2.618  16.706  0.0338 -0.5401 -0.4793
 6527SOL    HW131217   2.214   2.678  16.632  0.7258  0.3834  0.3196
 6527SOL    HW231218   2.210   2.535  16.658 -1.8533  0.2017 -1.8356
 6528SOL     OW31219   2.929   4.613   5.092  0.1119  0.2401 -0.5938
 6528SOL    HW131220   2.937   4.518   5.091 -1.4910  0.0945  0.4467
 6528SOL    HW231221   2.874   4.635   5.167  0.0212  0.0075 -0.5922
 6529SOL     OW31222   3.941   3.153  15.043  0.0029  0.7813 -0.4670
 6529SOL    HW131223   3.909   3.063  15.052  3.6557 -0.4946 -0.3454
 6529SOL    HW231224   4.014   3.141  14.983  0.2662  1.0573 -0.2007
 6530SOL     OW31225   0.895   2.986   7.111 -0.1430  0.1681 -0.0095
 6530SOL    HW131226   0.861   3.026   7.192 -0.9326 -0.5217  0.0077
 6530SOL    HW231227   0.811   2.950   7.081  0.4844  1.0421 -2.7509
 6531SOL     OW31228   4.121   0.335   7.847 -0.0133 -0.0370 -0.4250
 6531SOL    HW131229   4.092   0.420   7.814 -0.7052  0.5466  1.6815
 6531SOL    HW231230   4.192   0.309   7.789  0.1592 -1.8666  0.6147
 6532SOL     OW31231   2.539   3.192   3.136  0.8430 -0.5880  0.6907
 6532SOL    HW131232   2.566   3.107   3.100  0.1718 -0.7086  0.4832
 6532SOL    HW231233   2.551   3.173   3.229  0.7346 -1.3080  0.5607
 6533SOL     OW31234   4.177   2.964   9.574  0.0816  0.4052  1.0222
 6533SOL    HW131235   4.147   2.905   9.506  1.9469  2.3399 -1.4510
 6533SOL    HW231236   4.153   3.050   9.538 -0.0584  0.7115  1.8284
 6534SOL     OW31237   2.964   2.490   4.982  0.2144 -0.6566 -0.3689
 6534SOL    HW131238   2.999   2.406   5.010 -1.0013 -0.5388  1.4811
 6534SOL    HW231239   3.015   2.505   4.902 -2.2723  1.0086 -1.6585
 6535SOL     OW31240   0.198   4.616   4.196  0.0937  0.2948 -0.7068
 6535SOL    HW131241   0.127   4.655   4.246 -0.3458 -2.1891  0.5997
 6535SOL    HW231242   0.161   4.532   4.167  0.8245 -0.4757  0.6338
 6536SOL     OW31243   0.536   2.043  16.746  0.2129  0.3395  0.4347
 6536SOL    HW131244   0.532   2.058  16.841  0.3959  1.4418  0.2748
 6536SOL    HW231245   0.624   2.009  16.731 -0.8885 -1.9901 -0.7516
 6537SOL     OW31246   2.134   3.322   1.337  0.4208  0.1118 -0.1682
 6537SOL    HW131247   2.145   3.231   1.364 -0.1154 -0.2240 -1.0965
 6537SOL    HW231248   2.040   3.311   1.329  0.5196 -1.3392  0.6310
 6538SOL     OW31249   3.638   0.903   2.519 -0.5805  0.0501 -0.4431
 6538SOL    HW131250   3.707   0.956   2.479 -0.1565  0.6835  1.1310
 6538SOL    HW231251   3.656   0.924   2.611  0.4305  1.0350 -0.8671
 6539SOL     OW31252   4.720   2.264   5.520 -0.0126  0.2651 -0.2009
 6539SOL    HW131253   4.648   2.211   5.485  0.8342 -1.8224  1.1951
 6539SOL    HW231254   0.009   2.201   5.586  0.7073  0.0027 -0.7701
 6540SOL     OW31255   3.882   0.215   2.291  0.2239 -0.1049 -0.3247
 6540SOL    HW131256   3.958   0.273   2.284  0.6449 -0.7275 -0.9091
 6540SOL    HW231257   3.830   0.244   2.366  0.1870 -3.7065  1.0553
 6541SOL     OW31258   1.005   1.337  17.087  0.1566  0.3346 -0.3870
 6541SOL    HW131259   1.039   1.266  17.033  1.2375  0.9898 -0.5661
 6541SOL    HW231260   1.082   1.391  17.104  0.5824 -0.5166  0.4270
 6542SOL     OW31261   3.766   0.833   7.612  0.0326  0.0671  0.3515
 6542SOL    HW131262   3.815   0.789   7.542 -0.3194  0.4541 -0.1400
 6542SOL    HW231263   3.774   0.921   7.575 -0.8695  0.2926  0.7086
 6543SOL     OW31264   0.248   0.757   6.336 -0.2021  0.7143  0.0842
 6543SOL    HW131265   0.272   0.814   6.408 -0.9847 -0.6074  1.3839
 6543SOL    HW231266   0.337   0.722   6.330 -0.2834  0.3600  0.9089
 6544SOL     OW31267   2.181   3.911   4.539  0.2390 -0.1397 -0.3887
 6544SOL    HW131268   2.215   3.992   4.499 -2.1409  1.1380  0.2145
 6544SOL    HW231269   2.169   3.938   4.630  2.4723 -0.5748  0.0551
 6545SOL     OW31270   3.444   3.927   2.145 -0.2246  0.2145  0.8495
 6545SOL    HW131271   3.422   4.015   2.177  1.1899  0.4648  1.1484
 6545SOL    HW231272   3.367   3.875   2.169  1.0337 -1.1598  1.8651
 6546SOL     OW31273   2.427   3.433   1.482 -0.4323 -0.1559 -0.4164
 6546SOL    HW131274   2.509   3.427   1.432 -0.1140 -1.3132  0.2278
 6546SOL    HW231275   2.460   3.453   1.570 -1.3555  1.3643 -0.4126
 6547SOL     OW31276   3.367   2.186   1.427  0.0032  0.3757 -0.6343
 6547SOL    HW131277   3.306   2.122   1.464 -1.4069 -0.2512 -4.0390
 6547SOL    HW231278   3.344   2.191   1.335 -0.5120  1.1190 -0.4706
 6548SOL     OW31279   0.682   0.632   4.567 -0.0034 -0.0915 -0.1628
 6548SOL    HW131280   0.663   0.690   4.641 -0.5143  0.3545 -0.6368
 6548SOL    HW231281   0.729   0.690   4.506  0.4842 -0.9609 -0.6066
 6549SOL     OW31282   2.983   3.746   4.164 -0.3780  0.1555  0.1186
 6549SOL    HW131283   3.040   3.802   4.111  0.9725 -1.2502  0.1047
 6549SOL    HW231284   2.989   3.791   4.249  0.9994 -2.0285  1.1682
 6550SOL     OW31285   3.340   1.179   2.126  0.3781  0.3073 -0.2808
 6550SOL    HW131286   3.294   1.132   2.195  1.8667 -0.9258 -0.1385
 6550SOL    HW231287   3.321   1.120   2.053  2.7854  2.3331 -2.5780
 6551SOL     OW31288   1.696   3.190  10.582  0.5733  0.1972  0.7476
 6551SOL    HW131289   1.775   3.230  10.546  1.2197  0.3353  2.3188
 6551SOL    HW231290   1.719   3.098  10.573  0.8815 -0.0629  4.1623
 6552SOL     OW31291   3.056   3.253   6.020  0.4943  0.2395  0.2709
 6552SOL    HW131292   3.111   3.213   6.088 -0.0713  1.1157  1.2445
 6552SOL    HW231293   3.098   3.334   5.993  0.6751  0.7166  1.9935
 6553SOL     OW31294   3.025   0.537   8.353  0.1111 -0.1246 -0.0349
 6553SOL    HW131295   2.964   0.601   8.391 -0.4524 -1.5574  1.4544
 6553SOL    HW231296   3.056   0.496   8.434  1.3109  2.0072  0.6021
 6554SOL     OW31297   3.369   1.571  11.769  0.3605  0.5010 -0.1243
 6554SOL    HW131298   3.359   1.499  11.832 -1.0715  0.6558 -0.1824
 6554SOL    HW231299   3.422   1.524  11.705  0.1004 -2.0684  1.5297
 6555SOL     OW31300   3.218   1.954   3.044 -0.0623  0.0749 -0.2599
 6555SOL    HW131301   3.309   1.931   3.066 -1.1467 -0.6253  3.4172
 6555SOL    HW231302   3.172   1.897   3.106 -2.8665  3.0636  0.3914
 6556SOL     OW31303   4.053   1.365   1.366  0.5367  0.0076  0.1619
 6556SOL    HW131304   4.140   1.366   1.326 -0.4928 -0.0988 -2.0225
 6556SOL    HW231305   4.031   1.273   1.351 -1.0526  0.3822  0.2625
 6557SOL     OW31306   1.997   0.277  10.103 -0.4413 -0.0739  0.6086
 6557SOL    HW131307   1.933   0.209  10.079 -0.9605  0.7304 -0.2972
 6557SOL    HW231308   2.062   0.271  10.033 -1.8825 -1.1855 -0.6362
 6558SOL     OW31309   2.131   0.713   2.961 -0.5235 -0.2083 -0.0025
 6558SOL    HW131310   2.107   0.749   3.046 -0.1054  2.4316 -0.9994
 6558SOL    HW231311   2.114   0.790   2.906 -0.9091 -0.2905  0.0029
 6559SOL     OW31312   4.055   1.857   7.272  0.3275  0.6132  0.2165
 6559SOL    HW131313   4.053   1.823   7.361 -0.0526 -0.1908 -0.0983
 6559SOL    HW231314   4.053   1.951   7.291 -1.0598  0.7089 -0.4270
 6560SOL     OW31315   3.755   2.031  11.541 -0.2688  0.2541 -0.1191
 6560SOL    HW131316   3.751   2.126  11.551  0.4342  0.4196 -1.5223
 6560SOL    HW231317   3.792   2.035  11.453 -1.0091 -1.1993 -0.4962
 6561SOL     OW31318   3.059   0.910   7.875 -0.1454 -0.2728  0.4817
 6561SOL    HW131319   3.026   0.914   7.965 -3.7737  1.7159 -0.9252
 6561SOL    HW231320   2.986   0.942   7.821 -2.5504 -1.4130  3.0601
 6562SOL     OW31321   2.932   0.893   5.164 -0.0727 -0.7824 -0.0881
 6562SOL    HW131322   2.878   0.933   5.096 -0.5835 -3.2090 -1.1210
 6562SOL    HW231323   2.911   0.799   5.166  1.6778 -1.1371  1.2790
 6563SOL     OW31324   3.031   1.197   3.301 -0.1796 -0.1181  0.2864
 6563SOL    HW131325   3.083   1.274   3.277 -1.7360 -0.2369 -3.4275
 6563SOL    HW231326   2.947   1.222   3.264 -0.1926 -0.3317  0.1753
 6564SOL     OW31327   3.112   3.063   7.390 -0.4889  0.5774  0.5433
 6564SOL    HW131328   3.150   3.151   7.393 -1.0734  0.8721 -1.1690
 6564SOL    HW231329   3.187   3.007   7.409 -0.0688  0.6239 -1.0198
 6565SOL     OW31330   1.738   2.149   5.555  0.5879  0.6789 -0.6156
 6565SOL    HW131331   1.759   2.237   5.523 -1.9203  0.7736 -2.0125
 6565SOL    HW231332   1.673   2.160   5.624  2.2763  0.4217  1.0300
 6566SOL     OW31333   1.029   4.149   4.109  0.0574 -0.2157  0.0314
 6566SOL    HW131334   0.935   4.134   4.104  0.0220  0.0926 -0.1887
 6566SOL    HW231335   1.070   4.089   4.047  0.9117  0.0245  0.3528
 6567SOL     OW31336   4.128   1.241   2.488  0.1961  0.1393  0.0684
 6567SOL    HW131337   4.120   1.168   2.427  0.6516  0.7005 -0.6593
 6567SOL    HW231338   4.207   1.282   2.453  0.4920  1.2140  1.9666
 6568SOL     OW31339   2.733   3.561   6.246  0.2545  0.1089  0.3958
 6568SOL    HW131340   2.664   3.501   6.274  0.8209 -0.8484 -0.2941
 6568SOL    HW231341   2.759   3.519   6.165  1.0967  0.4788  0.4734
 6569SOL     OW31342   1.129   4.047  10.043  0.3332  0.7126  0.1473
 6569SOL    HW131343   1.183   4.119  10.076 -1.6429  1.2546  2.1406
 6569SOL    HW231344   1.064   4.102   9.999 -1.6219  0.5416  2.8029
 6570SOL     OW31345   1.360   3.683   4.808  0.0896  0.0728  0.3743
 6570SOL    HW131346   1.349   3.589   4.792 -0.3105  0.0725  0.6453
 6570SOL    HW231347   1.453   3.700   4.799 -0.4572  1.4963 -2.6858
 6571SOL     OW31348   4.386   3.107   5.255  0.0631  0.6695 -0.1230
 6571SOL    HW131349   4.462   3.089   5.309  1.3485  1.1813 -1.7550
 6571SOL    HW231350   4.315   3.126   5.316  0.9978  0.7837  0.9114
 6572SOL     OW31351   3.986   3.859   4.705 -0.2752 -0.1169  0.0697
 6572SOL    HW131352   4.027   3.945   4.695  1.3061 -1.2434 -3.0448
 6572SOL    HW231353   3.949   3.868   4.793 -1.9641 -0.0253 -0.6453
 6573SOL     OW31354   3.295   3.804   4.276  0.6396 -0.0667 -0.1816
 6573SOL    HW131355   3.264   3.810   4.186  0.8636 -0.6625 -0.3031
 6573SOL    HW231356   3.231   3.845   4.334  1.0257  1.6111 -0.9462
 6574SOL     OW31357   2.752   0.930  17.555 -0.3511  0.8105 -0.3364
 6574SOL    HW131358   2.716   1.018  17.544  0.9328  1.4085  0.2390
 6574SOL    HW231359   2.685   0.874  17.516  0.5852 -0.0943 -0.6684
 6575SOL     OW31360   2.995   1.907   6.275 -0.1282  0.1559 -0.2420
 6575SOL    HW131361   2.992   1.848   6.351 -3.4365 -0.7875 -1.1199
 6575SOL    HW231362   2.899   1.910   6.271 -0.1318 -0.3335 -0.4659
 6576SOL     OW31363   1.010   1.119   5.313 -0.5733 -0.0748 -0.3762
 6576SOL    HW131364   1.060   1.123   5.232 -2.2729  2.6599 -1.2739
 6576SOL    HW231365   1.047   1.048   5.366  0.0973  0.6518  0.1276
 6577SOL     OW31366   3.812   4.143   8.313  0.7040 -0.3804 -0.4619
 6577SOL    HW131367   3.844   4.064   8.357 -2.6540 -1.3014  0.3157
 6577SOL    HW231368   3.827   4.216   8.372  0.3944 -0.8584  0.2074
 6578SOL     OW31369   1.605   1.190   4.204  0.2035 -0.3363  0.2743
 6578SOL    HW131370   1.666   1.263   4.214 -2.6918  2.2228 -0.7736
 6578SOL    HW231371   1.543   1.227   4.140  0.0452 -0.2503  0.4777
 6579SOL     OW31372   0.449   4.151   8.910 -0.6004 -0.2827 -0.1811
 6579SOL    HW131373   0.375   4.189   8.956 -0.1233  2.0869 -1.3468
 6579SOL    HW231374   0.414   4.132   8.823 -1.3934 -0.2934  0.1474
 6580SOL     OW31375   4.222   0.426   7.170  0.3694  0.5103  0.5813
 6580SOL    HW131376   4.170   0.345   7.173  2.0713 -0.6751 -1.7792
 6580SOL    HW231377   4.302   0.389   7.207  0.4005  0.4160  0.4204
 6581SOL     OW31378   1.515   4.540  12.715  0.9103  0.7181 -0.2659
 6581SOL    HW131379   1.422   4.529  12.696  0.5815 -0.3355  2.0181
 6581SOL    HW231380   1.513   4.560  12.809  1.7949  3.0932 -0.7380
 6582SOL     OW31381   2.396   3.338   9.812  0.2265  0.5902 -0.5109
 6582SOL    HW131382   2.449   3.269   9.853 -1.0926  0.8341  1.5768
 6582SOL    HW231383   2.308   3.309   9.833 -0.1549  3.5969  2.0068
 6583SOL     OW31384   2.102   4.055  12.777 -0.3991  0.1664  0.4775
 6583SOL    HW131385   2.072   4.055  12.868  2.1935 -1.0683  1.3415
 6583SOL    HW231386   2.085   3.966  12.747 -1.6173  0.7430 -0.5491
 6584SOL     OW31387   3.948   4.328  13.701  0.2749  0.0554  0.0264
 6584SOL    HW131388   3.978   4.388  13.632  3.4317 -1.0581  0.4086
 6584SOL    HW231389   3.969   4.245  13.658  0.1860 -0.7963  1.6333
 6585SOL     OW31390   4.730   1.426  16.247  0.1095 -0.4708 -0.0630
 6585SOL    HW131391   0.028   1.384  16.325  3.1972 -0.9914 -1.8234
 6585SOL    HW231392   4.728   1.514  16.283 -1.4285 -0.0296 -1.2172
 6586SOL     OW31393   4.167   3.928   9.088  0.1415 -0.0108 -0.5581
 6586SOL    HW131394   4.182   3.864   9.158  0.3799 -0.2564 -0.8317
 6586SOL    HW231395   4.178   4.012   9.132 -0.0153 -0.2950  0.0199
 6587SOL     OW31396   1.214   2.318   3.954  0.2985  0.2185 -0.2724
 6587SOL    HW131397   1.234   2.311   3.861  0.3880 -1.3608 -0.1276
 6587SOL    HW231398   1.127   2.358   3.953  0.7052  1.1376  0.0162
 6588SOL     OW31399   2.811   0.872   3.042 -0.2711  0.1427 -0.0242
 6588SOL    HW131400   2.812   0.840   2.951  2.4664 -0.1317  0.0831
 6588SOL    HW231401   2.786   0.964   3.031 -0.1074  0.2208  0.2506
 6589SOL     OW31402   3.165   0.467   5.553 -0.4869  0.1076 -0.3390
 6589SOL    HW131403   3.146   0.560   5.540  0.4871  0.1778 -1.2366
 6589SOL    HW231404   3.087   0.438   5.600 -1.0367  2.8638  0.4091
 6590SOL     OW31405   3.626   0.710  14.973 -0.1171 -0.3496  0.2363
 6590SOL    HW131406   3.664   0.674  14.893 -0.4343  2.1015 -1.0087
 6590SOL    HW231407   3.667   0.796  14.982  1.1946 -1.1849  2.2825
 6591SOL     OW31408   1.370   1.496   0.592  0.5612  0.2523 -0.5967
 6591SOL    HW131409   1.370   1.417   0.645  0.3084  1.6727  1.5323
 6591SOL    HW231410   1.426   1.548   0.649  0.0545  0.5793 -0.3971
 6592SOL     OW31411   0.099   3.160   3.160  0.0238  0.6265 -0.3549
 6592SOL    HW131412   0.110   3.118   3.246  0.6780 -1.3782 -1.4226
 6592SOL    HW231413   0.097   3.086   3.101  0.9155 -0.3376  0.8193
 6593SOL     OW31414   0.665   0.445   1.872 -0.3928  0.0396 -0.0169
 6593SOL    HW131415   0.686   0.538   1.885 -0.2988 -0.3198  2.4748
 6593SOL    HW231416   0.572   0.450   1.850 -0.1697 -1.2068 -1.2434
 6594SOL     OW31417   1.542   2.528   6.879 -0.8094  0.3897  0.2265
 6594SOL    HW131418   1.582   2.614   6.892 -1.0319  0.1737  2.3722
 6594SOL    HW231419   1.588   2.475   6.944 -1.4634 -0.6808 -0.2006
 6595SOL     OW31420   4.700   1.942   9.320 -0.7671 -0.2610  0.3869
 6595SOL    HW131421   4.682   1.971   9.230 -1.8597 -0.2144  0.6269
 6595SOL    HW231422   4.707   2.027   9.363  1.1841 -1.2050  1.9309
 6596SOL     OW31423   2.345   1.240   5.040 -0.3569  0.1585  0.0192
 6596SOL    HW131424   2.435   1.260   5.065  0.5563 -4.0480  0.1290
 6596SOL    HW231425   2.287   1.293   5.095 -0.7332 -0.6661  0.4146
 6597SOL     OW31426   3.236   4.383   4.090  0.3402 -0.1817  0.0204
 6597SOL    HW131427   3.177   4.356   4.020  0.6118  0.0413 -0.2939
 6597SOL    HW231428   3.312   4.424   4.048  1.8457 -1.2218  1.7346
 6598SOL     OW31429   0.057   2.401   2.916 -0.6850 -0.0796 -0.3145
 6598SOL    HW131430   0.042   2.311   2.885  1.4816 -0.0376 -1.4098
 6598SOL    HW231431   0.010   2.442   2.843  1.1514  0.8139 -0.9820
 6599SOL     OW31432   1.813   3.778   9.744  0.8421  0.2141 -0.3775
 6599SOL    HW131433   1.719   3.777   9.762  0.4837  3.0137 -2.0770
 6599SOL    HW231434   1.821   3.869   9.715 -0.0368  1.2642  2.6316
 6600SOL     OW31435   3.302   2.002   2.309  0.2749 -0.1978 -0.3374
 6600SOL    HW131436   3.368   1.995   2.239 -1.5786  0.3569 -2.1356
 6600SOL    HW231437   3.275   2.094   2.303 -0.1413 -0.3848 -1.3609
 6601SOL     OW31438   3.160   2.458   2.707  0.2028  0.0093  0.5668
 6601SOL    HW131439   3.214   2.536   2.721 -0.5366  0.4496  0.9936
 6601SOL    HW231440   3.082   2.476   2.759 -0.2801 -0.1059 -0.1147
 6602SOL     OW31441   4.525   2.320  13.520  0.7013 -0.3577  0.5836
 6602SOL    HW131442   4.563   2.275  13.595 -0.6012 -1.4080  0.6006
 6602SOL    HW231443   4.595   2.385  13.512 -0.4210  0.8790  0.7766
 6603SOL     OW31444   4.319   1.646   4.828  0.0256 -0.5732  0.1321
 6603SOL    HW131445   4.406   1.643   4.869  0.2671 -0.1748 -0.3487
 6603SOL    HW231446   4.331   1.600   4.745  1.5653  1.1867 -0.6061
 6604SOL     OW31447   3.365   2.209  17.065 -0.7103 -0.1664  0.3161
 6604SOL    HW131448   3.303   2.263  17.113  0.4789  0.5538  1.0456
 6604SOL    HW231449   3.314   2.130  17.048 -0.9289  0.2435 -0.9911
 6605SOL     OW31450   1.492   1.679  10.378  1.2514 -0.0238  0.3049
 6605SOL    HW131451   1.418   1.632  10.339  1.3791  0.0938 -0.0794
 6605SOL    HW231452   1.454   1.698  10.464  0.1003 -0.4976 -0.1010
 6606SOL     OW31453   1.738   4.587   1.777 -0.0580  0.1388 -0.0359
 6606SOL    HW131454   1.721   4.635   1.696 -0.9778 -0.7220 -0.3600
 6606SOL    HW231455   1.760   4.659   1.836  0.3285 -0.3903  0.4668
 6607SOL     OW31456   4.035   2.488   2.242  0.0217 -0.1603 -0.0623
 6607SOL    HW131457   4.086   2.452   2.169 -0.3865 -1.3593  0.2376
 6607SOL    HW231458   4.000   2.566   2.199 -0.3094 -0.1932  0.1549
 6608SOL     OW31459   1.382   2.206   8.515 -0.1317  0.0709 -0.0164
 6608SOL    HW131460   1.407   2.297   8.532  0.7642  0.0279 -1.1352
 6608SOL    HW231461   1.369   2.185   8.608  1.3390 -0.3962  0.0804
 6609SOL     OW31462   0.991   3.489   5.270 -0.1298  0.4279  0.4602
 6609SOL    HW131463   1.038   3.419   5.315 -0.1704  1.3021  1.8533
 6609SOL    HW231464   1.017   3.478   5.179  1.3473 -0.5220  1.0065
 6610SOL     OW31465   2.143   0.973   7.423 -0.0604 -0.3791  0.1482
 6610SOL    HW131466   2.061   0.993   7.467  0.0798 -0.1052  0.2813
 6610SOL    HW231467   2.128   0.895   7.370  0.4727 -1.0273  0.9580
 6611SOL     OW31468   1.959   4.366   2.251  0.2022 -0.6047  0.1651
 6611SOL    HW131469   2.015   4.299   2.211  1.2779  0.2735  0.1973
 6611SOL    HW231470   1.987   4.357   2.342  0.8114 -1.0087 -0.0626
 6612SOL     OW31471   0.242   1.578  10.080 -0.1687 -0.2641  0.1369
 6612SOL    HW131472   0.253   1.528  10.161  1.2562  1.2511  0.8770
 6612SOL    HW231473   0.188   1.520  10.027 -1.1130  1.6045 -0.9370
 6613SOL     OW31474   1.149   0.618  11.614 -0.3871  0.0182 -0.6184
 6613SOL    HW131475   1.134   0.622  11.520  1.0930  2.4547 -0.7774
 6613SOL    HW231476   1.244   0.633  11.622 -0.0190 -2.1565 -0.9020
 6614SOL     OW31477   0.360   2.843   5.743 -0.0311 -0.0038  0.1193
 6614SOL    HW131478   0.338   2.779   5.675  1.6014 -0.0278 -0.3986
 6614SOL    HW231479   0.372   2.924   5.693  0.1826  0.1106  0.3555
 6615SOL     OW31480   3.497   1.774   8.913 -0.1005 -0.0590  0.6009
 6615SOL    HW131481   3.436   1.819   8.971 -0.8523 -0.0978 -0.1587
 6615SOL    HW231482   3.452   1.766   8.828 -0.0206 -1.7782  0.7351
 6616SOL     OW31483   3.877   0.818   7.266  0.2664  0.2515  0.0962
 6616SOL    HW131484   3.882   0.909   7.297  2.4758 -0.0129  0.4600
 6616SOL    HW231485   3.905   0.823   7.175  3.9459  2.9490  1.3752
 6617SOL     OW31486   1.958   2.357   3.576 -0.2358 -0.0449 -0.2583
 6617SOL    HW131487   1.953   2.427   3.641 -3.9750 -1.5851  1.1357
 6617SOL    HW231488   1.915   2.407   3.507  1.1757 -0.4617 -1.4248
 6618SOL     OW31489   0.490   3.908   1.743 -0.4201 -0.6063 -0.4553
 6618SOL    HW131490   0.550   3.880   1.812 -1.2071 -0.2122  0.3914
 6618SOL    HW231491   0.472   3.821   1.707  1.4100 -0.4940 -1.6075
 6619SOL     OW31492   2.017   1.009   8.723 -0.9811  0.0938  0.0672
 6619SOL    HW131493   1.966   1.090   8.723 -1.2150 -0.0559  0.6547
 6619SOL    HW231494   2.063   1.012   8.806  2.0750  0.8772 -1.6644
 6620SOL     OW31495   4.182   1.404   2.195 -0.0820  0.0602 -0.3213
 6620SOL    HW131496   4.195   1.395   2.101 -1.7149 -0.7380 -0.4875
 6620SOL    HW231497   4.235   1.333   2.232 -0.6819 -1.3319 -2.1322
 6621SOL     OW31498   4.656   0.460   2.124 -0.8501  0.3291 -0.7928
 6621SOL    HW131499   4.578   0.406   2.112  0.0476 -0.9217 -0.9700
 6621SOL    HW231500   4.717   0.410   2.069 -0.1407 -0.7422  0.9890
 6622SOL     OW31501   4.579   2.580  12.037  0.1303 -0.1662 -0.1199
 6622SOL    HW131502   4.641   2.542  11.975 -0.2386 -1.3891  0.2541
 6622SOL    HW231503   4.514   2.509  12.040 -0.7897  0.6400 -0.8849
 6623SOL     OW31504   2.846   0.206   3.968 -0.9470  0.6677  0.3488
 6623SOL    HW131505   2.769   0.257   3.992 -0.3976  1.1351  1.1009
 6623SOL    HW231506   2.833   0.186   3.875 -1.1493 -0.3462  0.5932
 6624SOL     OW31507   2.295   3.757  10.470 -0.0648  0.2679  0.2419
 6624SOL    HW131508   2.310   3.743  10.563 -1.0015 -3.1047 -0.1267
 6624SOL    HW231509   2.314   3.850  10.455 -0.7102  0.5899  1.4339
 6625SOL     OW31510   4.573   0.414   4.330  0.1935  0.2221 -0.0273
 6625SOL    HW131511   4.592   0.487   4.390 -2.6865  1.2697 -0.4069
 6625SOL    HW231512   4.563   0.349   4.399 -1.5261 -2.6214 -2.9421
 6626SOL     OW31513   3.366   0.137   2.920 -0.2149  0.2709  0.1902
 6626SOL    HW131514   3.454   0.100   2.929 -0.5033 -0.8688 -1.5917
 6626SOL    HW231515   3.354   0.180   3.004  0.5507 -3.0910  2.0469
 6627SOL     OW31516   3.195   0.431   2.738  0.1453  0.2368 -0.7993
 6627SOL    HW131517   3.251   0.486   2.682  2.1688  0.2796  1.2742
 6627SOL    HW231518   3.150   0.498   2.789  0.0536  0.3793 -1.0639
 6628SOL     OW31519   2.198   3.768   4.276 -0.8545 -0.1237  0.3210
 6628SOL    HW131520   2.271   3.812   4.319 -1.7410 -0.3833  2.1034
 6628SOL    HW231521   2.185   3.829   4.203  1.1284  0.1898  0.2254
 6629SOL     OW31522   0.615   1.061  17.207 -0.2941 -0.3172  0.1866
 6629SOL    HW131523   0.703   1.094  17.228  0.2460 -2.0356  0.6162
 6629SOL    HW231524   0.641   0.975  17.173 -1.3010 -1.1508  1.5221
 6630SOL     OW31525   0.519   1.591   7.479 -0.1476  0.1191 -0.1943
 6630SOL    HW131526   0.555   1.641   7.406 -0.2131 -0.6499 -0.7614
 6630SOL    HW231527   0.595   1.551   7.522  0.9651  0.7069 -1.6004
 6631SOL     OW31528   1.993   4.610   4.726 -0.0040  0.1740 -0.2470
 6631SOL    HW131529   1.959   4.529   4.762  2.3319 -1.1539 -1.0886
 6631SOL    HW231530   1.965   4.599   4.635 -0.7118 -1.3339  0.1626
 6632SOL     OW31531   0.701   2.120   1.053  0.4447 -0.5663 -0.4929
 6632SOL    HW131532   0.631   2.083   1.107  0.7080  1.1507  1.0267
 6632SOL    HW231533   0.731   2.041   1.008  2.0087 -0.1055 -0.2569
 6633SOL     OW31534   4.036   1.095  14.810 -0.3445  0.4442  0.3490
 6633SOL    HW131535   3.992   1.117  14.892  0.8425 -0.3660  1.2002
 6633SOL    HW231536   4.030   1.178  14.763  1.4439  2.0422  2.9593
 6634SOL     OW31537   4.319   4.706  15.123  0.4738 -0.5449 -0.0779
 6634SOL    HW131538   4.311   4.683  15.031 -1.8326  0.4497 -0.1381
 6634SOL    HW231539   4.353   0.055  15.111  0.4337 -0.5374 -0.1357
 6635SOL     OW31540   0.969   0.120   0.643  0.4348  0.4031 -0.2685
 6635SOL    HW131541   1.064   0.126   0.655  0.2368  0.4590  1.3438
 6635SOL    HW231542   0.957   0.189   0.578 -0.7604  0.3166 -0.1502
 6636SOL     OW31543   3.840   0.086   4.308 -0.3875  0.1996 -0.3485
 6636SOL    HW131544   3.798   0.048   4.385  1.7667  2.0890  1.7609
 6636SOL    HW231545   3.883   0.159   4.352 -0.6932  0.3614 -0.3166
 6637SOL     OW31546   2.845   1.328   6.507  0.0334 -0.0707 -0.0561
 6637SOL    HW131547   2.810   1.366   6.588 -0.9333 -0.6321 -0.2167
 6637SOL    HW231548   2.878   1.408   6.466 -2.8465  1.4469  0.6089
 6638SOL     OW31549   2.384   4.518   8.828 -0.2688  0.2177 -0.0878
 6638SOL    HW131550   2.441   4.454   8.785  0.2852  1.1878 -0.8013
 6638SOL    HW231551   2.303   4.468   8.835  0.3951 -0.7549  0.6674
 6639SOL     OW31552   1.334   3.486   6.603 -0.4467 -0.2138  0.0840
 6639SOL    HW131553   1.391   3.451   6.535  0.1687  0.6770  0.1470
 6639SOL    HW231554   1.261   3.520   6.551  0.0600 -1.6431 -1.5731
 6640SOL     OW31555   4.698   3.113  11.143  0.1022 -0.5240 -0.7374
 6640SOL    HW131556   4.622   3.171  11.152  0.3522 -0.6120  1.7737
 6640SOL    HW231557   0.035   3.169  11.135  0.7142 -1.1089  1.1568
 6641SOL     OW31558   3.127   1.329   5.901  0.2480 -0.3085 -0.6869
 6641SOL    HW131559   3.126   1.234   5.888 -1.0685 -0.4266  0.3002
 6641SOL    HW231560   3.072   1.337   5.979 -0.1974 -0.1331 -1.0244
 6642SOL     OW31561   2.219   4.197   5.754 -0.3510  0.1716  0.7473
 6642SOL    HW131562   2.275   4.150   5.692  0.4210  2.5991 -0.3702
 6642SOL    HW231563   2.288   4.242   5.803 -1.0596 -0.3895  2.2418
 6643SOL     OW31564   0.897   3.250   1.688  0.2449  0.1154 -0.4354
 6643SOL    HW131565   0.900   3.259   1.783  0.4033  1.7666 -0.5837
 6643SOL    HW231566   0.992   3.244   1.676  0.0127 -2.0269 -1.1039
 6644SOL     OW31567   1.483   0.169   6.522  0.1655  0.2579  0.2139
 6644SOL    HW131568   1.528   0.212   6.595  0.7835 -1.0715  0.6001
 6644SOL    HW231569   1.540   0.098   6.494  2.1671  1.3587  1.4370
 6645SOL     OW31570   2.360   2.077   3.291 -0.3703 -0.3166 -0.2306
 6645SOL    HW131571   2.421   2.038   3.228  1.2764  0.5292  0.8501
 6645SOL    HW231572   2.416   2.130   3.348 -0.6190  0.4950 -0.7374
 6646SOL     OW31573   4.647   4.253   0.989 -0.1050 -0.1338 -0.2467
 6646SOL    HW131574   4.689   4.337   1.007 -0.2429 -0.8587  3.4869
 6646SOL    HW231575   4.556   4.267   0.964  0.0369 -0.3225 -0.8716
 6647SOL     OW31576   0.747   3.277  17.251 -0.5134 -0.0272  0.1615
 6647SOL    HW131577   0.695   3.260  17.172  0.7792  0.5121 -0.8187
 6647SOL    HW231578   0.822   3.220  17.232 -0.8230 -0.6564  0.8162
 6648SOL     OW31579   3.970   1.233   0.827  0.0274  0.3751 -0.0841
 6648SOL    HW131580   4.004   1.144   0.830  1.1837  0.9431  3.3736
 6648SOL    HW231581   3.940   1.260   0.914  0.7032  3.5636 -0.8379
 6649SOL     OW31582   1.710   3.581   3.415  0.0795 -0.1402 -0.2836
 6649SOL    HW131583   1.788   3.527   3.407 -1.1749 -1.8721 -0.6791
 6649SOL    HW231584   1.752   3.644   3.474 -1.4778  0.6668 -0.0507
 6650SOL     OW31585   1.434   0.103   0.318 -0.1210  0.4042 -0.5788
 6650SOL    HW131586   1.426   0.199   0.320 -0.9649  0.2979  1.5786
 6650SOL    HW231587   1.525   0.100   0.291 -0.7863 -1.6980 -2.5706
 6651SOL     OW31588   2.963   3.348   4.735  0.2543 -0.3346  0.6293
 6651SOL    HW131589   2.905   3.286   4.779 -1.1832  0.6115  0.0610
 6651SOL    HW231590   2.894   3.388   4.683  0.5238  1.5636  1.7251
 6652SOL     OW31591   3.990   1.205   8.209 -0.2811  0.0811 -0.4090
 6652SOL    HW131592   3.962   1.130   8.156  0.0669 -0.6127  0.3992
 6652SOL    HW231593   3.925   1.211   8.279  0.0275 -1.9787  0.0628
 6653SOL     OW31594   3.675   3.203   6.952  0.3604 -0.1577 -0.1660
 6653SOL    HW131595   3.615   3.250   7.010  2.5604  0.9608  1.1791
 6653SOL    HW231596   3.610   3.147   6.909  0.4323 -0.8886  0.6884
 6654SOL     OW31597   2.175   3.970   3.635  0.2700  0.4427 -0.0796
 6654SOL    HW131598   2.205   3.879   3.626  1.6249  1.1677 -2.7385
 6654SOL    HW231599   2.106   3.982   3.569 -1.2447 -1.2962  1.1834
 6655SOL     OW31600   3.114   4.086  14.613 -0.2534 -0.1996  0.7671
 6655SOL    HW131601   3.027   4.122  14.596  0.6861  1.5353 -0.3584
 6655SOL    HW231602   3.164   4.167  14.623 -0.8209  0.0149  1.8549
 6656SOL     OW31603   2.959   1.574   9.994 -0.2328 -0.2672 -0.2549
 6656SOL    HW131604   2.876   1.536   9.963  1.3455 -1.9226 -2.4449
 6656SOL    HW231605   2.960   1.578  10.089  1.0372  0.9030 -0.3169
 6657SOL     OW31606   4.634   0.162  10.509 -0.3453 -0.3814 -0.4405
 6657SOL    HW131607   4.599   0.110  10.581  2.5309 -0.1234  1.1558
 6657SOL    HW231608   4.730   0.153  10.510 -0.4393 -1.1728  1.2775
 6658SOL     OW31609   3.297   2.628   9.863 -0.0189  0.2101 -0.3694
 6658SOL    HW131610   3.247   2.575   9.925  1.4727  0.0017  0.6559
 6658SOL    HW231611   3.353   2.565   9.816  0.4363  0.7417 -0.5398
 6659SOL     OW31612   0.658   3.008   5.929  0.2694  0.1490  0.3923
 6659SOL    HW131613   0.597   3.025   6.000 -0.4286  0.4663 -0.2816
 6659SOL    HW231614   0.658   3.101   5.905  0.0602  0.3572  1.2282
 6660SOL     OW31615   0.966   4.358   4.462 -0.1940 -0.2597 -0.5454
 6660SOL    HW131616   1.060   4.371   4.473 -0.2552  1.3356 -1.8741
 6660SOL    HW231617   0.933   4.441   4.495  0.9331 -0.1703  0.3713
 6661SOL     OW31618   2.446   1.913   2.916 -0.0055 -0.2780  0.1180
 6661SOL    HW131619   2.402   1.870   2.990  1.0837 -1.4495  0.0892
 6661SOL    HW231620   2.391   1.984   2.884  0.8270  0.4492  0.3066
 6662SOL     OW31621   0.411   0.015  17.661 -0.2974  0.4219 -0.1340
 6662SOL    HW131622   0.340   0.019  17.597 -2.0310  1.3229  1.8549
 6662SOL    HW231623   0.409   4.661  17.684  1.7752  0.3839 -0.1031
 6663SOL     OW31624   2.740   1.361   6.088  0.1476 -0.1379  0.0320
 6663SOL    HW131625   2.697   1.386   6.170 -0.5994 -0.2773 -0.3216
 6663SOL    HW231626   2.829   1.346   6.121  0.4065  0.5170 -0.3908
 6664SOL     OW31627   4.328   2.747  14.775  0.2925 -0.0404 -0.0993
 6664SOL    HW131628   4.286   2.686  14.714  0.1973  1.7944 -1.8600
 6664SOL    HW231629   4.251   2.787  14.815 -0.1397  0.1629 -1.1408
 6665SOL     OW31630   3.750   4.452  17.232  0.5247 -0.0687 -0.1267
 6665SOL    HW131631   3.798   4.471  17.152  0.4984 -0.2152 -0.1773
 6665SOL    HW231632   3.696   4.380  17.200 -0.4629 -0.9547  3.5583
 6666SOL     OW31633   2.671   4.396  16.452 -0.2419 -0.1532  0.0870
 6666SOL    HW131634   2.759   4.388  16.489 -0.0086  2.4050  0.1045
 6666SOL    HW231635   2.626   4.373  16.533  1.5887 -0.9568  0.8723
 6667SOL     OW31636   2.798   3.390   6.486  0.1046  0.2520  0.0148
 6667SOL    HW131637   2.715   3.362   6.445 -0.0680  0.4995  0.1953
 6667SOL    HW231638   2.785   3.372   6.579 -0.8245  2.8724  0.3927
 6668SOL     OW31639   1.163   0.969   4.454  0.2121 -0.0908  0.4975
 6668SOL    HW131640   1.113   0.923   4.387 -1.4278 -2.2225  3.1550
 6668SOL    HW231641   1.245   0.991   4.411  0.0662 -0.7028 -0.0862
 6669SOL     OW31642   3.544   0.197   9.210  0.2908 -0.2574 -0.6142
 6669SOL    HW131643   3.614   0.170   9.150  0.1953  1.1924 -1.3881
 6669SOL    HW231644   3.499   0.122   9.249  0.6571 -1.2746 -2.1566
 6670SOL     OW31645   3.108   4.649  11.493 -0.2903 -0.0273  0.3005
 6670SOL    HW131646   3.031   4.599  11.521  1.9020 -3.2124  0.5913
 6670SOL    HW231647   3.105   4.718  11.559  0.1885  0.8008 -0.5430
 6671SOL     OW31648   1.088   4.016   3.880  0.3336  0.1107  0.0385
 6671SOL    HW131649   1.067   4.023   3.787 -0.5312 -3.2368 -0.0292
 6671SOL    HW231650   1.180   4.044   3.879  0.6647 -0.9695 -0.4373
 6672SOL     OW31651   0.949   2.124   4.170 -0.5122  0.3359  0.4017
 6672SOL    HW131652   0.868   2.142   4.124 -0.7403 -0.4105  0.5005
 6672SOL    HW231653   0.963   2.209   4.211 -1.0630 -0.0354  1.3827
 6673SOL     OW31654   0.341   1.196   1.489  0.4818  0.4858  0.3675
 6673SOL    HW131655   0.251   1.182   1.519 -0.6693 -1.0259 -3.8360
 6673SOL    HW231656   0.376   1.242   1.566  1.7925  1.5269 -0.8536
 6674SOL     OW31657   4.628   1.990  15.473  0.3082  0.2385  0.1433
 6674SOL    HW131658   4.671   1.952  15.396 -1.7550 -1.3885 -0.2210
 6674SOL    HW231659   4.656   1.932  15.544 -0.3660  0.3878  0.5325
 6675SOL     OW31660   4.529   1.159   7.022 -0.3227 -0.1364 -0.4353
 6675SOL    HW131661   4.569   1.206   6.949 -0.6171 -2.1233 -1.8546
 6675SOL    HW231662   4.600   1.156   7.087 -0.5319  1.4893 -0.1332
 6676SOL     OW31663   0.520   0.558   7.012  0.2045  0.4708 -0.0165
 6676SOL    HW131664   0.459   0.597   6.948 -2.5130 -2.2109  0.9282
 6676SOL    HW231665   0.489   0.602   7.091 -0.7266 -2.1073  1.0505
 6677SOL     OW31666   1.537   0.424   7.201 -0.4716  0.1759  0.1926
 6677SOL    HW131667   1.497   0.510   7.191 -2.2753 -0.6848 -0.0140
 6677SOL    HW231668   1.624   0.442   7.237 -1.1034 -1.2080  2.4414
 6678SOL     OW31669   2.410   0.143   4.948  0.0803  0.4860 -0.3108
 6678SOL    HW131670   2.439   0.141   4.856 -1.2991 -0.8886 -0.7169
 6678SOL    HW231671   2.371   0.230   4.940 -0.3997  0.3830  0.9178
 6679SOL     OW31672   0.043   0.028   3.625  1.1057 -0.4915 -0.3491
 6679SOL    HW131673   4.728   0.107   3.625  0.7736 -0.7182 -0.0760
 6679SOL    HW231674   0.071   0.034   3.716  1.4367  0.9435 -0.5434
 6680SOL     OW31675   3.077   0.254  15.393  0.5574  0.1737 -0.1937
 6680SOL    HW131676   3.008   0.319  15.400  0.2263 -0.1222 -0.7311
 6680SOL    HW231677   3.131   0.288  15.465 -0.2132  0.4532  0.2457
 6681SOL     OW31678   0.134   3.569  10.716 -0.2154 -0.0944 -0.4016
 6681SOL    HW131679   0.119   3.565  10.622  1.8004  1.1194 -0.7636
 6681SOL    HW231680   0.045   3.542  10.741 -0.6430  2.1130  0.3973
 6682SOL     OW31681   1.342   3.865  15.544 -0.3741 -0.2732 -0.3097
 6682SOL    HW131682   1.259   3.883  15.500  0.2392 -0.0282 -1.3815
 6682SOL    HW231683   1.360   3.775  15.516 -2.0901 -1.3180  2.0443
 6683SOL     OW31684   2.956   2.999   0.383  0.5929  0.9072  0.1741
 6683SOL    HW131685   2.985   3.059   0.314  1.5605 -0.0948 -0.3000
 6683SOL    HW231686   2.930   2.920   0.337 -0.3667  0.2168  1.9031
 6684SOL     OW31687   2.040   2.752   1.854  0.7507  0.7969 -0.4488
 6684SOL    HW131688   1.971   2.818   1.854 -1.9508 -2.0373  0.3745
 6684SOL    HW231689   2.017   2.697   1.928 -1.2201 -0.4457 -1.9862
 6685SOL     OW31690   3.099   2.434   6.093 -0.3048 -0.2036  0.0727
 6685SOL    HW131691   3.046   2.446   6.014 -0.3857 -1.2536 -0.0376
 6685SOL    HW231692   3.083   2.341   6.109  0.4376  0.1794  3.1313
 6686SOL     OW31693   0.589   0.955   0.946 -0.3191  0.2885 -0.6033
 6686SOL    HW131694   0.652   1.026   0.958  1.7020 -1.4652 -0.8011
 6686SOL    HW231695   0.630   0.907   0.873  0.7662 -2.4927  1.8255
 6687SOL     OW31696   1.596   2.107   6.265  0.1717  0.0155  0.4130
 6687SOL    HW131697   1.682   2.147   6.278 -0.8979  2.1976  0.6982
 6687SOL    HW231698   1.567   2.141   6.180  0.9207 -1.5001 -0.4499
 6688SOL     OW31699   0.807   4.341   5.721 -0.0278 -0.1723 -0.1801
 6688SOL    HW131700   0.768   4.274   5.664 -0.3353  0.3372 -0.5724
 6688SOL    HW231701   0.738   4.353   5.787 -0.5627  1.1021 -0.9632
 6689SOL     OW31702   4.356   4.727   5.153  0.2263  0.2045  0.6257
 6689SOL    HW131703   4.341   0.076   5.187 -0.8186  0.5869 -0.8173
 6689SOL    HW231704   4.441   4.714   5.194  0.3352 -0.1089  0.2919
 6690SOL     OW31705   3.591   4.231  13.036  0.0540 -0.0166 -0.2741
 6690SOL    HW131706   3.632   4.271  12.960 -0.1830  0.1453 -0.3147
 6690SOL    HW231707   3.623   4.282  13.111 -1.2104  1.3666 -0.6905
 6691SOL     OW31708   1.494   0.434  14.036  0.3137 -0.4014  0.6354
 6691SOL    HW131709   1.587   0.425  14.054  0.1094 -1.4478  1.1883
 6691SOL    HW231710   1.453   0.449  14.121  0.8185  0.8613  0.6640
 6692SOL     OW31711   0.728   1.140   5.342  0.9735  0.2852  0.4564
 6692SOL    HW131712   0.716   1.190   5.422  0.8865  1.2501 -0.1572
 6692SOL    HW231713   0.822   1.121   5.335  1.0829  0.1376  2.4376
 6693SOL     OW31714   2.167   0.660  14.259 -0.4445  0.1138 -0.3389
 6693SOL    HW131715   2.177   0.728  14.193 -1.4056 -0.5381 -1.1476
 6693SOL    HW231716   2.089   0.617  14.225 -0.1763  0.2642 -1.1399
 6694SOL     OW31717   2.890   4.079   6.019  0.8330  0.0884  0.4116
 6694SOL    HW131718   2.809   4.046   6.059  1.6259  0.5494  2.4092
 6694SOL    HW231719   2.933   4.119   6.094  1.4542 -1.2172  0.7468
 6695SOL     OW31720   4.414   3.708   9.486 -0.4479  0.3989 -0.3954
 6695SOL    HW131721   4.466   3.628   9.483 -3.7008 -1.6217 -2.4668
 6695SOL    HW231722   4.482   3.775   9.482  0.3814 -0.2835  2.6052
 6696SOL     OW31723   3.372   2.853  15.519  0.3862  0.2339  0.2978
 6696SOL    HW131724   3.347   2.780  15.575 -0.5259  0.9919  0.8676
 6696SOL    HW231725   3.307   2.920  15.537  1.1100  1.5137 -1.7781
 6697SOL     OW31726   0.410   1.457   3.201 -0.3612 -1.0302 -0.2686
 6697SOL    HW131727   0.402   1.488   3.111  0.4767 -0.5564 -0.1806
 6697SOL    HW231728   0.371   1.523   3.258 -0.4978 -0.8398 -0.5824
 6698SOL     OW31729   3.447   2.690   8.934  0.5136 -0.0648  0.2584
 6698SOL    HW131730   3.409   2.604   8.915 -1.4547  1.2885 -1.8836
 6698SOL    HW231731   3.473   2.685   9.026 -0.6208  0.9876  0.6455
 6699SOL     OW31732   4.116   0.875  12.967  0.4516 -0.6867 -0.6449
 6699SOL    HW131733   4.072   0.946  12.919 -0.6795  0.0289  1.4521
 6699SOL    HW231734   4.208   0.891  12.944  0.9160  0.0342  1.6418
 6700SOL     OW31735   2.670   0.759  10.055  0.4850 -0.6041 -0.5737
 6700SOL    HW131736   2.610   0.822  10.097  0.5041  0.7807 -2.6161
 6700SOL    HW231737   2.745   0.754  10.113  1.6188 -0.5504 -2.0490
 6701SOL     OW31738   0.699   2.917   4.225  0.5956  0.0009 -0.6644
 6701SOL    HW131739   0.672   2.971   4.151 -1.2376  0.3123  0.2233
 6701SOL    HW231740   0.723   2.992   4.280  0.1205 -1.2603  1.2903
 6702SOL     OW31741   3.254   0.901   9.651  0.1708 -0.4146 -0.2973
 6702SOL    HW131742   3.284   0.867   9.566  1.0527  1.4768 -0.7362
 6702SOL    HW231743   3.338   0.935   9.681 -0.2427  0.4817 -0.1750
 6703SOL     OW31744   3.926   0.078   2.825 -0.1316 -0.0702  0.5551
 6703SOL    HW131745   3.973   0.005   2.866  1.0912  0.8216  0.7515
 6703SOL    HW231746   3.884   0.022   2.761 -1.1977  1.1499  0.1967
 6704SOL     OW31747   0.375   0.029  17.325 -0.1461 -0.2169 -0.1605
 6704SOL    HW131748   0.309   4.700  17.331 -0.4862 -0.0996 -2.4574
 6704SOL    HW231749   0.425   4.731  17.252  1.3032  3.2589 -0.9411
 6705SOL     OW31750   2.051   1.917   6.924  0.4863  0.1834 -0.5170
 6705SOL    HW131751   2.013   1.836   6.959  0.7649 -0.5800 -1.9804
 6705SOL    HW231752   2.093   1.873   6.850 -1.5265 -1.1698 -0.8555
 6706SOL     OW31753   3.172   4.545  13.661 -0.8449 -0.0267  0.1878
 6706SOL    HW131754   3.134   4.460  13.638 -0.5216 -0.2855  0.6187
 6706SOL    HW231755   3.265   4.526  13.671 -1.0093 -0.0702  1.5986
 6707SOL     OW31756   2.306   1.303   8.534  0.2134 -0.2548 -0.2493
 6707SOL    HW131757   2.277   1.374   8.592  3.2656  1.7880 -1.2358
 6707SOL    HW231758   2.255   1.331   8.458  0.1578 -0.6527 -0.3535
 6708SOL     OW31759   1.715   2.104   8.936  0.1106 -0.6781 -0.2524
 6708SOL    HW131760   1.764   2.133   9.013  0.0807 -2.7550  0.5700
 6708SOL    HW231761   1.629   2.128   8.968  0.6023  0.6693  0.0386
 6709SOL     OW31762   3.096   3.894   4.418  0.0992 -0.3212 -0.2654
 6709SOL    HW131763   3.091   3.982   4.381 -1.5295 -0.9827 -1.6190
 6709SOL    HW231764   3.041   3.900   4.496  0.0614 -1.1216 -0.2308
 6710SOL     OW31765   0.976   2.786   4.857 -0.5905  0.4535  0.4082
 6710SOL    HW131766   0.929   2.867   4.878 -0.4791  0.1747  1.7110
 6710SOL    HW231767   0.915   2.754   4.791 -0.1788  0.5364 -0.0111
 6711SOL     OW31768   1.797   2.519   1.371  0.6012  0.1651 -0.7197
 6711SOL    HW131769   1.702   2.521   1.379  0.7523  2.6592  0.4350
 6711SOL    HW231770   1.811   2.521   1.276  0.1049  1.2328 -0.7707
 6712SOL     OW31771   0.593   0.792   5.634 -0.2506  0.2291 -0.0754
 6712SOL    HW131772   0.664   0.836   5.588  2.4367  0.2884  4.0899
 6712SOL    HW231773   0.543   0.866   5.667  0.4438  1.4868 -1.8570
 6713SOL     OW31774   0.248   3.044   5.564  0.2087  0.3670 -0.5830
 6713SOL    HW131775   0.198   2.982   5.510 -3.4871  1.6491  1.2974
 6713SOL    HW231776   0.287   3.097   5.495 -1.8810  2.1289 -0.4138
 6714SOL     OW31777   2.334   3.120   4.108 -0.3031  0.2441 -0.0263
 6714SOL    HW131778   2.381   3.074   4.178 -1.2914 -1.1833 -0.2935
 6714SOL    HW231779   2.314   3.195   4.163 -0.5013  3.0203 -3.8539
 6715SOL     OW31780   0.499   4.064   3.974 -0.1503 -0.5978  0.5028
 6715SOL    HW131781   0.451   4.136   4.014  0.8732  0.5641 -0.3671
 6715SOL    HW231782   0.434   4.014   3.923 -2.5442  3.0164  0.0665
 6716SOL     OW31783   2.967   0.391   5.312 -1.2285  0.2237  0.5888
 6716SOL    HW131784   3.030   0.354   5.251 -1.3261 -0.5917  0.9776
 6716SOL    HW231785   2.961   0.326   5.382 -1.1072 -0.0848  0.3111
 6717SOL     OW31786   2.134   2.036  15.360 -0.9883  0.1707  0.2024
 6717SOL    HW131787   2.120   2.034  15.454  1.3333 -1.3453  0.5010
 6717SOL    HW231788   2.153   1.946  15.334  2.0190  1.2929 -1.4917
 6718SOL     OW31789   2.315   4.073   7.181 -0.2041  0.1150 -0.3896
 6718SOL    HW131790   2.384   4.029   7.131 -0.8820 -1.1424 -0.1977
 6718SOL    HW231791   2.339   4.164   7.161  0.1974 -0.0739 -0.7820
 6719SOL     OW31792   4.629   2.117   8.112 -0.3034  0.2249 -0.1942
 6719SOL    HW131793   4.606   2.032   8.148 -1.5436  0.9159  0.6335
 6719SOL    HW231794   4.720   2.124   8.141 -0.1221  2.3403 -1.2379
 6720SOL     OW31795   4.622   3.250   0.222  1.1293 -0.1001 -0.2321
 6720SOL    HW131796   4.680   3.325   0.204 -1.0378  1.2211 -1.6283
 6720SOL    HW231797   4.562   3.288   0.286  3.1987  0.7327  1.2097
 6721SOL     OW31798   1.915   3.478  15.920  0.1131  0.3737 -0.3926
 6721SOL    HW131799   1.888   3.530  15.995  0.7291 -1.0945  0.8381
 6721SOL    HW231800   1.963   3.401  15.951 -2.3923 -1.1367 -0.2813
 6722SOL     OW31801   0.863   3.224   6.463 -0.0374  0.4496  0.4250
 6722SOL    HW131802   0.933   3.269   6.415 -1.2523  0.1443 -1.6044
 6722SOL    HW231803   0.922   3.163   6.506  1.6837  2.0967  0.3974
 6723SOL     OW31804   2.800   2.772   8.175  0.3424  0.1232 -0.2444
 6723SOL    HW131805   2.837   2.854   8.207 -1.6621 -0.6763  4.1188
 6723SOL    HW231806   2.727   2.807   8.123  0.5800  1.6297  0.4231
 6724SOL     OW31807   2.946   1.770   6.712  0.2758 -0.2932 -0.2382
 6724SOL    HW131808   3.011   1.834   6.683  1.2231 -1.2137 -0.1432
 6724SOL    HW231809   3.000   1.704   6.755  1.8668  0.3868 -1.2173
 6725SOL     OW31810   4.131   0.735   9.218 -0.5959  0.1099  0.4632
 6725SOL    HW131811   4.196   0.665   9.214 -0.5277  0.2272 -0.7729
 6725SOL    HW231812   4.176   0.818   9.202 -3.1370  1.4225  0.1340
 6726SOL     OW31813   0.435   3.822   3.499 -0.0089  0.0733  0.4406
 6726SOL    HW131814   0.358   3.768   3.514 -0.4134  1.0277  1.7730
 6726SOL    HW231815   0.423   3.838   3.406 -1.4430  0.6578  0.7260
 6727SOL     OW31816   2.536   2.146   6.981 -0.0265  0.2864 -0.7147
 6727SOL    HW131817   2.524   2.069   6.925  0.3288  0.6143 -1.2404
 6727SOL    HW231818   2.457   2.139   7.034  0.8437 -1.1053  0.3949
 6728SOL     OW31819   3.588   1.522  10.170  0.0633 -0.4850  0.1130
 6728SOL    HW131820   3.540   1.599  10.201  1.0607  0.3294 -0.3825
 6728SOL    HW231821   3.603   1.469  10.248 -0.3914  0.4130  0.8114
 6729SOL     OW31822   4.635   1.962   5.933 -0.6836 -0.7786 -0.6237
 6729SOL    HW131823   4.657   1.881   5.887 -0.0726 -1.0936  0.2300
 6729SOL    HW231824   4.670   1.948   6.021 -1.0753 -0.9777 -0.4987
 6730SOL     OW31825   4.394   4.448   4.020  0.4071  1.1714  0.3276
 6730SOL    HW131826   4.353   4.459   3.935  0.1344  0.4601  0.3715
 6730SOL    HW231827   4.324   4.481   4.077 -0.0939 -1.8798  1.4554
 6731SOL     OW31828   3.264   4.142   5.739 -0.2437 -0.3731 -0.0619
 6731SOL    HW131829   3.247   4.107   5.652  0.6134  0.6176 -0.6120
 6731SOL    HW231830   3.198   4.095   5.791 -0.1548  0.3863  0.7495
 6732SOL     OW31831   4.204   2.630  10.886 -0.6247  0.3948 -0.7863
 6732SOL    HW131832   4.214   2.643  10.791  2.8809 -0.0641 -0.4896
 6732SOL    HW231833   4.278   2.689  10.904 -0.9297  0.5651 -0.0859
 6733SOL     OW31834   0.689   1.518  15.462  0.0378 -0.2914 -0.0328
 6733SOL    HW131835   0.737   1.491  15.540  2.4816  2.9972 -0.3796
 6733SOL    HW231836   0.651   1.599  15.496 -1.0761 -0.4463 -0.9125
 6734SOL     OW31837   2.598   2.924   9.444  0.0996  0.0144 -0.5045
 6734SOL    HW131838   2.573   2.845   9.491 -1.8753  2.0534  1.9039
 6734SOL    HW231839   2.544   2.989   9.491  0.9600  0.5292 -0.2215
 6735SOL     OW31840   2.536   2.741   5.626 -0.5693  0.1620 -0.5504
 6735SOL    HW131841   2.538   2.837   5.620  0.3841  0.2503  1.1758
 6735SOL    HW231842   2.607   2.723   5.565  0.3602  1.1311  0.2564
 6736SOL     OW31843   4.368   4.361   0.568 -0.1749  0.3975  0.0094
 6736SOL    HW131844   4.348   4.301   0.640 -4.2756 -0.1726 -1.5525
 6736SOL    HW231845   4.295   4.347   0.507  0.0603 -0.8832  0.0236
 6737SOL     OW31846   3.000   4.542  13.425  0.2284 -0.2473  0.6136
 6737SOL    HW131847   2.975   4.583  13.343 -0.1032 -1.3692  0.1432
 6737SOL    HW231848   3.033   4.612  13.482  0.8048  1.1509 -1.4730
 6738SOL     OW31849   0.350   4.273   8.298 -0.2601  0.2932 -0.3963
 6738SOL    HW131850   0.376   4.186   8.329  2.8889  2.0615  1.9918
 6738SOL    HW231851   0.376   4.324   8.375 -1.5796 -1.2167  1.0221
 6739SOL     OW31852   1.371   3.626  15.425 -0.0113  0.3902  0.4841
 6739SOL    HW131853   1.431   3.670  15.365  0.9831  0.6475  1.6609
 6739SOL    HW231854   1.385   3.532  15.422  0.9067  0.4332  3.0169
 6740SOL     OW31855   0.636   0.043   1.661  0.3427 -0.2512  0.2329
 6740SOL    HW131856   0.543   0.060   1.678  0.2290  0.0409 -0.7011
 6740SOL    HW231857   0.649   4.704   1.715  0.2830  0.8359  1.8184
 6741SOL     OW31858   2.443   0.689   5.619 -0.1919  0.0554  0.2013
 6741SOL    HW131859   2.385   0.689   5.543  1.1554  0.9451 -0.8410
 6741SOL    HW231860   2.516   0.628   5.604  0.5167  0.4493  2.0337
 6742SOL     OW31861   0.577   1.126   7.883 -0.2521 -0.3882  0.5459
 6742SOL    HW131862   0.532   1.127   7.968  0.6962  2.0142  1.0197
 6742SOL    HW231863   0.576   1.215   7.847 -1.6764 -0.4396  0.4480
 6743SOL     OW31864   2.843   1.775  11.969  0.3872 -0.2566 -0.3423
 6743SOL    HW131865   2.801   1.689  11.962 -1.1061  0.6126 -2.2226
 6743SOL    HW231866   2.889   1.770  11.886 -2.2831 -3.2102 -1.6714
 6744SOL     OW31867   3.346   0.348  13.345 -0.1186  0.1191  0.5832
 6744SOL    HW131868   3.416   0.386  13.398  0.4462 -1.7534  1.1724
 6744SOL    HW231869   3.345   0.416  13.278  0.3215 -0.1271  0.3289
 6745SOL     OW31870   2.754   0.754   7.518 -0.0006  0.6125  0.7639
 6745SOL    HW131871   2.761   0.837   7.470  2.1626  0.5638  0.9817
 6745SOL    HW231872   2.741   0.788   7.607  0.2708  1.2095  0.5765
 6746SOL     OW31873   3.310   3.921   8.947 -0.0540  0.4034 -0.9594
 6746SOL    HW131874   3.219   3.953   8.950 -0.5266 -1.0496  0.1329
 6746SOL    HW231875   3.334   3.910   9.039 -1.6719 -0.4516 -0.6383
 6747SOL     OW31876   0.272   0.705   2.320 -0.3298 -0.2772 -0.1448
 6747SOL    HW131877   0.303   0.795   2.332 -1.3661  0.3203 -2.1404
 6747SOL    HW231878   0.359   0.665   2.319  0.2756  1.0400 -0.7995
 6748SOL     OW31879   1.927   4.587   8.849 -0.0211  0.1475 -0.5796
 6748SOL    HW131880   1.868   4.568   8.776 -2.6053  0.0136  1.5338
 6748SOL    HW231881   1.988   4.514   8.839 -0.4003 -0.3036  0.2825
 6749SOL     OW31882   1.340   3.051   8.369 -0.3919  0.6995  0.4090
 6749SOL    HW131883   1.321   2.968   8.412  1.3574  0.9800  1.6926
 6749SOL    HW231884   1.434   3.067   8.376  0.4292 -2.5430 -3.5563
 6750SOL     OW31885   3.176   4.018   5.482 -0.3305  0.8156 -0.4154
 6750SOL    HW131886   3.261   4.025   5.438  0.7394 -1.5367  1.3134
 6750SOL    HW231887   3.135   3.946   5.434 -0.6794 -0.0523  1.2181
 6751SOL     OW31888   0.045   2.289   3.558 -0.4689  1.0147 -0.7781
 6751SOL    HW131889   0.004   2.311   3.474 -0.8502 -1.8302 -1.3384
 6751SOL    HW231890   0.095   2.214   3.527  0.4618  1.9472 -1.5096
 6752SOL     OW31891   1.257   3.819  10.886 -0.4966 -0.0175 -0.5657
 6752SOL    HW131892   1.307   3.753  10.838  0.4650  1.1832 -1.2071
 6752SOL    HW231893   1.172   3.789  10.855 -0.2520 -1.1104 -0.1729
 6753SOL     OW31894   3.279   2.845   2.086 -0.2394  0.2779  0.5720
 6753SOL    HW131895   3.322   2.790   2.152  2.6145 -0.6138 -2.0303
 6753SOL    HW231896   3.188   2.854   2.115 -1.0960 -1.0634 -1.7416
 6754SOL     OW31897   4.109   2.739  16.817  0.0151 -0.0897 -0.2122
 6754SOL    HW131898   4.145   2.691  16.743 -1.6716 -3.6165  1.2454
 6754SOL    HW231899   4.118   2.830  16.787  1.1375  0.0412  0.5295
 6755SOL     OW31900   3.480   3.490   5.746  0.2776  0.4975 -0.0674
 6755SOL    HW131901   3.426   3.472   5.669  0.4125 -1.4191  0.2927
 6755SOL    HW231902   3.491   3.398   5.768  0.1034  0.6932  0.8218
 6756SOL     OW31903   1.242   1.039   7.758  0.0714 -0.1744 -0.4562
 6756SOL    HW131904   1.230   0.997   7.672  1.2124 -1.4584  0.0097
 6756SOL    HW231905   1.320   1.091   7.739 -1.0047  1.9699  1.0316
 6757SOL     OW31906   1.339   0.002   5.128 -0.1518  0.2057 -0.0905
 6757SOL    HW131907   1.373   0.045   5.207  0.0482  2.7080 -1.5674
 6757SOL    HW231908   1.247   0.004   5.155  0.4278  1.6394  1.8217
 6758SOL     OW31909   2.339   4.482   6.133 -0.3174 -0.2251  0.6812
 6758SOL    HW131910   2.331   4.576   6.150 -1.5915 -0.3314  0.7321
 6758SOL    HW231911   2.305   4.453   6.218 -0.8965  0.6709  0.7585
 6759SOL     OW31912   0.819   4.657   3.000 -0.3342 -0.0308 -0.0792
 6759SOL    HW131913   0.889   4.616   2.949 -0.9168 -1.0584 -0.0398
 6759SOL    HW231914   0.783   4.579   3.040  0.4693 -0.6281 -0.5318
 6760SOL     OW31915   2.663   1.042  14.871 -0.2333 -0.3496 -0.4844
 6760SOL    HW131916   2.746   1.007  14.901 -0.6716 -0.1345  0.9589
 6760SOL    HW231917   2.635   0.973  14.811  0.1946 -0.1506 -0.9121
 6761SOL     OW31918   1.357   4.530   9.244  0.5779  0.3031 -0.0388
 6761SOL    HW131919   1.351   4.607   9.189 -0.7120 -0.3763 -0.8340
 6761SOL    HW231920   1.281   4.477   9.222  2.2258 -2.6219  1.2238
 6762SOL     OW31921   4.331   3.315   7.979  0.6932  0.1973 -0.0342
 6762SOL    HW131922   4.401   3.250   7.974  1.0135  0.5295  0.1212
 6762SOL    HW231923   4.376   3.398   7.967  0.1526  0.4866 -0.0583
 6763SOL     OW31924   3.193   0.196  11.376 -0.2233  0.0969 -0.3358
 6763SOL    HW131925   3.119   0.239  11.332  0.6864 -0.0025 -1.9756
 6763SOL    HW231926   3.163   0.196  11.467 -1.2723  0.5771 -0.6889
 6764SOL     OW31927   0.470   1.834   9.487 -0.4956 -0.2458  0.6644
 6764SOL    HW131928   0.480   1.874   9.574  1.4697  1.9094 -0.5445
 6764SOL    HW231929   0.382   1.863   9.465  1.2163  4.7099  0.2836
 6765SOL     OW31930   0.540   0.433  17.625  0.2670  0.1135  0.3112
 6765SOL    HW131931   0.545   0.432  17.530  2.4139  0.5967  0.4097
 6765SOL    HW231932   0.484   0.355  17.629  0.2835  0.1720  2.0227
 6766SOL     OW31933   4.503   1.762   3.192  0.8515  0.2200  0.5767
 6766SOL    HW131934   4.428   1.727   3.240 -1.5112  1.3450 -2.3100
 6766SOL    HW231935   4.467   1.813   3.119  1.8906  0.3772  0.1816
 6767SOL     OW31936   0.736   0.154   4.970  0.5386 -0.1276  0.2015
 6767SOL    HW131937   0.749   0.216   5.042 -1.6589  1.4959 -0.7832
 6767SOL    HW231938   0.681   0.194   4.902 -1.7037 -1.0695  1.4437
 6768SOL     OW31939   3.787   1.607  12.900  0.1903  0.1256  0.0006
 6768SOL    HW131940   3.705   1.596  12.948 -0.6166  0.4503 -1.3042
 6768SOL    HW231941   3.762   1.678  12.841 -1.1197 -0.2220  0.1416
 6769SOL     OW31942   2.904   0.326  17.232 -0.6266 -0.1018  0.0216
 6769SOL    HW131943   2.862   0.299  17.313 -1.2815 -1.6806 -0.8523
 6769SOL    HW231944   2.862   0.260  17.177 -0.1852 -1.4334  1.2934
 6770SOL     OW31945   0.634   0.103   3.158  0.2590 -0.4319 -0.8955
 6770SOL    HW131946   0.579   0.049   3.215  0.4475 -1.1918 -1.4341
 6770SOL    HW231947   0.685   0.044   3.103 -0.0505  0.0928 -1.7454
 6771SOL     OW31948   2.516   3.595   5.520  0.3306  0.2473  0.2843
 6771SOL    HW131949   2.518   3.598   5.425 -0.3674 -1.1159  0.2246
 6771SOL    HW231950   2.544   3.505   5.532 -1.9922 -0.5645 -0.4035
 6772SOL     OW31951   3.410   3.663   2.638 -0.4161 -0.4901  0.2608
 6772SOL    HW131952   3.482   3.715   2.602 -1.7747  1.2296  0.0553
 6772SOL    HW231953   3.462   3.645   2.716  0.7475 -0.9015 -0.6039
 6773SOL     OW31954   3.796   1.747   7.556 -0.0746 -0.1131 -0.3930
 6773SOL    HW131955   3.788   1.698   7.637  0.5913  0.0414 -0.2343
 6773SOL    HW231956   3.705   1.770   7.539  0.5502  2.7652  0.0359
 6774SOL     OW31957   1.114   3.634  15.199 -0.2896 -0.0571  0.1167
 6774SOL    HW131958   1.059   3.557  15.193 -0.5492  0.2453 -1.3688
 6774SOL    HW231959   1.185   3.595  15.250  0.0554 -1.0585 -1.1674
 6775SOL     OW31960   1.485   4.085   7.290  0.0241  0.3146 -0.0734
 6775SOL    HW131961   1.492   4.040   7.374 -0.3379 -2.0146 -1.2865
 6775SOL    HW231962   1.418   4.150   7.310 -0.7372  0.1109 -1.9935
 6776SOL     OW31963   2.509   3.776  17.639 -0.3082  0.7687  0.3470
 6776SOL    HW131964   2.453   3.756  17.564  0.5941 -0.2275 -0.0621
 6776SOL    HW231965   2.438   3.765  17.702  0.0094 -3.3166 -0.0291
 6777SOL     OW31966   3.328   3.800   5.047 -0.2816  0.4474 -0.0669
 6777SOL    HW131967   3.268   3.803   4.973 -1.1745 -1.3953  0.5736
 6777SOL    HW231968   3.293   3.734   5.108 -1.3925  0.8191 -0.3019
 6778SOL     OW31969   3.137   2.211  17.272  0.0550 -0.0429  0.5011
 6778SOL    HW131970   3.076   2.250  17.209 -1.6597 -1.6276  1.1968
 6778SOL    HW231971   3.080   2.207  17.350 -1.2905 -2.1461 -0.5973
 6779SOL     OW31972   2.285   2.113  16.519  0.2590  0.2962 -0.4827
 6779SOL    HW131973   2.367   2.064  16.524  0.4490  0.7745  1.3425
 6779SOL    HW231974   2.227   2.058  16.573 -1.1893  1.0246 -1.2867
 6780SOL     OW31975   3.593   4.087   0.187 -0.2263  0.3015 -0.7759
 6780SOL    HW131976   3.646   4.147   0.240  0.7489  1.4131 -3.0410
 6780SOL    HW231977   3.617   4.000   0.220  1.3216  2.2286  3.2645
 6781SOL     OW31978   0.211   2.345   7.950  0.5245  0.2079  0.8075
 6781SOL    HW131979   0.219   2.252   7.931  1.9145  1.0745 -2.8621
 6781SOL    HW231980   0.305   2.364   7.942  0.4899 -0.9471 -2.1363
 6782SOL     OW31981   3.227   2.307  16.208  0.5240 -0.0327 -0.4177
 6782SOL    HW131982   3.208   2.374  16.142 -1.3377  1.3438  1.4909
 6782SOL    HW231983   3.223   2.369  16.281  0.0489 -2.0657  1.2700
 6783SOL     OW31984   1.494   1.969   0.023  0.1390 -0.0039 -0.1242
 6783SOL    HW131985   1.538   2.034   0.076 -1.3876  0.0364  1.1034
 6783SOL    HW231986   1.495   2.017  17.695  1.1898  2.5938  1.4198
 6784SOL     OW31987   2.167   2.322  14.610 -0.7167  0.1488 -0.4101
 6784SOL    HW131988   2.139   2.413  14.603  0.6041  0.6770  1.2129
 6784SOL    HW231989   2.136   2.305  14.699 -0.6961 -2.2190 -0.8650
 6785SOL     OW31990   1.472   0.636   4.181 -0.8028 -0.1215  0.3057
 6785SOL    HW131991   1.527   0.714   4.173 -0.9104 -0.0344  0.4067
 6785SOL    HW231992   1.436   0.653   4.268 -0.7202 -0.8257  0.4766
 6786SOL     OW31993   0.562   0.216   1.286  0.7437 -0.0650 -0.0407
 6786SOL    HW131994   0.502   0.188   1.354 -2.4055  1.4931 -2.1739
 6786SOL    HW231995   0.547   0.146   1.223  0.0093  1.0865 -1.1628
 6787SOL     OW31996   1.075   2.161   5.685 -0.2550  0.4105  0.0694
 6787SOL    HW131997   1.095   2.183   5.776 -1.7610  0.1622  0.4626
 6787SOL    HW231998   0.989   2.203   5.674  0.6552  1.7199 -2.1135
 6788SOL     OW31999   0.902   4.590   0.223  0.5176 -0.2876  0.1532
 6788SOL    HW132000   0.911   4.603   0.317 -2.8378  1.2223  0.2538
 6788SOL    HW232001   0.988   4.616   0.190 -0.2562  1.0610 -0.7895
 6789SOL     OW32002   0.991   0.463   4.049 -0.5097 -0.0930  0.5227
 6789SOL    HW132003   1.033   0.394   3.998  0.4465  0.5385  0.4655
 6789SOL    HW232004   1.049   0.477   4.123  1.5218 -1.1635 -0.8440
 6790SOL     OW32005   1.189   2.748   4.520  0.5873 -0.1856  0.0535
 6790SOL    HW132006   1.236   2.689   4.460  0.6108  0.2536 -0.3622
 6790SOL    HW232007   1.100   2.724   4.497  0.2021  1.6644 -0.4004
 6791SOL     OW32008   0.704   0.813  17.158 -0.2407 -0.4808  0.8572
 6791SOL    HW132009   0.708   0.728  17.114 -0.3703 -0.0238 -0.0430
 6791SOL    HW232010   0.794   0.808  17.188  0.4168 -1.8171 -1.3183
 6792SOL     OW32011   2.477   0.761   2.925 -0.1195 -0.7489 -0.2346
 6792SOL    HW132012   2.406   0.698   2.936 -0.8692  0.4138  1.6732
 6792SOL    HW232013   2.540   0.703   2.883  1.3682 -1.0332  2.4060
 6793SOL     OW32014   1.341   1.527   6.559 -0.0518  0.4565 -0.8571
 6793SOL    HW132015   1.385   1.454   6.603 -2.4737 -0.0780  0.6810
 6793SOL    HW232016   1.412   1.554   6.500  0.3976 -1.3363 -1.1334
 6794SOL     OW32017   1.060   2.553   4.725  0.1435 -0.5087 -0.0660
 6794SOL    HW132018   1.025   2.617   4.786 -0.1581  0.8440 -1.6597
 6794SOL    HW232019   1.127   2.605   4.680 -0.7963  0.4459 -0.3516
 6795SOL     OW32020   0.304   2.974   4.980 -0.0731 -0.0182  0.5072
 6795SOL    HW132021   0.394   3.007   4.990  0.6494 -1.8450  0.0163
 6795SOL    HW232022   0.298   2.922   4.900  1.0204  0.1428  0.3266
 6796SOL     OW32023   2.544   1.487   1.813  0.3451  0.6046 -0.1417
 6796SOL    HW132024   2.561   1.575   1.778 -2.6108  1.3200  0.1598
 6796SOL    HW232025   2.613   1.484   1.879  1.2456  1.5671 -1.0340
 6797SOL     OW32026   4.408   2.281   3.389 -0.6116  0.0991  0.2171
 6797SOL    HW132027   4.398   2.310   3.298 -2.3612 -0.8863  0.1054
 6797SOL    HW232028   4.345   2.210   3.383  0.3009 -0.6005 -1.1210
 6798SOL     OW32029   3.899   2.884   4.231  0.2583  0.2027 -0.0432
 6798SOL    HW132030   3.816   2.912   4.270  0.6787  3.1171 -1.2180
 6798SOL    HW232031   3.944   2.854   4.310 -1.3427 -1.3138  0.2925
 6799SOL     OW32032   1.269   2.568   2.923  0.0183  0.1626  0.0656
 6799SOL    HW132033   1.247   2.494   2.979  1.4519 -0.1257  0.2617
 6799SOL    HW232034   1.197   2.582   2.862  0.1947  0.2670 -0.1203
 6800SOL     OW32035   1.349   2.192   9.571  0.0585  0.9045  0.4597
 6800SOL    HW132036   1.365   2.098   9.585  1.0118  0.9194 -0.5641
 6800SOL    HW232037   1.401   2.213   9.648 -0.7568 -2.2687  1.8894
 6801SOL     OW32038   3.917   1.778   2.573  0.3611  0.3256  0.3932
 6801SOL    HW132039   3.888   1.828   2.497 -1.3131  1.9297  2.0951
 6801SOL    HW232040   3.898   1.692   2.535  3.5275 -0.7095  1.1720
 6802SOL     OW32041   3.659   2.113   5.432 -0.3000 -0.3136 -0.7017
 6802SOL    HW132042   3.618   2.190   5.392 -2.3785 -0.0511  1.9248
 6802SOL    HW232043   3.583   2.056   5.438 -0.7447  0.2040 -1.3750
 6803SOL     OW32044   4.234   2.946   1.089 -0.0141 -0.5824  0.1843
 6803SOL    HW132045   4.283   3.028   1.091 -0.3177 -0.3445 -2.0982
 6803SOL    HW232046   4.144   2.966   1.115 -0.3558 -0.4131 -1.0930
 6804SOL     OW32047   1.878   1.536   3.316  0.1472 -0.0465  0.1185
 6804SOL    HW132048   1.811   1.577   3.370 -2.1502  0.6844 -3.2884
 6804SOL    HW232049   1.892   1.451   3.357  1.8745  0.8625  1.3980
 6805SOL     OW32050   0.270   3.811   7.781 -0.3020 -0.0601  0.1373
 6805SOL    HW132051   0.238   3.898   7.805  2.1418  1.0943 -0.7694
 6805SOL    HW232052   0.324   3.794   7.858  0.3445  1.4514  0.0354
 6806SOL     OW32053   2.695   2.022   8.983  0.2798  0.1538  0.0863
 6806SOL    HW132054   2.613   2.069   8.969  1.2329  1.5415 -0.8269
 6806SOL    HW232055   2.669   1.934   8.957  0.4409 -0.4826  2.0369
 6807SOL     OW32056   2.832   0.477   2.036  0.7043  0.6157  0.4430
 6807SOL    HW132057   2.876   0.433   1.962 -0.9453  0.8304 -0.6727
 6807SOL    HW232058   2.777   0.413   2.081  0.2254  0.9183  0.2830
 6808SOL     OW32059   1.718   2.741   5.924 -0.5351  0.4084 -0.0211
 6808SOL    HW132060   1.670   2.793   5.859 -0.9623  0.4952  0.3638
 6808SOL    HW232061   1.805   2.743   5.884 -0.2536 -0.9740  0.5357
 6809SOL     OW32062   3.290   0.659   3.703 -0.2154  0.0541 -0.1194
 6809SOL    HW132063   3.243   0.742   3.708 -0.1355  0.1341 -0.7317
 6809SOL    HW232064   3.279   0.644   3.609  0.2951 -0.4369 -0.1026
 6810SOL     OW32065   4.297   1.967  17.220 -0.2308 -0.1222 -0.1334
 6810SOL    HW132066   4.383   1.940  17.188 -1.3409 -3.7698  0.0700
 6810SOL    HW232067   4.319   2.058  17.240 -1.1009  0.1504 -0.4127
 6811SOL     OW32068   4.418   4.712   4.620 -0.3076  0.3091  0.1545
 6811SOL    HW132069   4.375   4.636   4.661 -0.0067 -0.1469 -0.3756
 6811SOL    HW232070   4.344   0.032   4.609 -1.1930 -0.5832  1.2524
 6812SOL     OW32071   2.446   0.936   5.192  0.3272 -0.3577 -0.2767
 6812SOL    HW132072   2.498   0.868   5.149  0.6031 -0.2591 -0.1033
 6812SOL    HW232073   2.473   0.924   5.283 -1.3227  2.9511  0.6799
 6813SOL     OW32074   2.837   1.911   8.025 -0.5454 -0.2484 -0.3635
 6813SOL    HW132075   2.799   1.947   7.946 -1.1457 -0.5999 -0.2308
 6813SOL    HW232076   2.831   1.982   8.090  1.9303 -0.7362  0.4044
 6814SOL     OW32077   4.517   3.665   8.284  0.4160 -0.7772  0.5482
 6814SOL    HW132078   4.564   3.711   8.215  0.2571  0.5086  1.3068
 6814SOL    HW232079   4.473   3.744   8.315 -1.3109 -0.8026 -1.7894
 6815SOL     OW32080   2.858   4.254  14.264 -0.4760 -0.1461  0.3071
 6815SOL    HW132081   2.886   4.164  14.245  1.4790  1.1097 -2.7107
 6815SOL    HW232082   2.771   4.243  14.303 -0.5100 -0.3940  0.1614
 6816SOL     OW32083   2.545   2.171  10.469 -0.8229 -0.3254 -0.4829
 6816SOL    HW132084   2.558   2.216  10.552  0.0239 -0.4315 -0.5530
 6816SOL    HW232085   2.474   2.107  10.472 -0.5333 -0.6353 -0.3538
 6817SOL     OW32086   0.535   2.598  12.553  0.4521  0.4935  0.4778
 6817SOL    HW132087   0.506   2.649  12.628  1.4828  3.8970 -1.4206
 6817SOL    HW232088   0.622   2.635  12.539 -0.4674  3.0393  1.4708
 6818SOL     OW32089   4.193   4.360  14.320 -0.3626 -0.2388 -0.6889
 6818SOL    HW132090   4.285   4.359  14.296  0.5142 -1.7274  2.7467
 6818SOL    HW232091   4.153   4.355  14.234  0.0503  0.8750 -0.9441
 6819SOL     OW32092   1.616   4.182  13.574 -0.3217  0.2620 -0.0775
 6819SOL    HW132093   1.666   4.106  13.545 -2.0754 -0.1870 -1.8731
 6819SOL    HW232094   1.599   4.153  13.664 -3.4321 -0.9167 -1.0682
 6820SOL     OW32095   4.354   4.009   5.920  0.4405 -0.2454  0.2412
 6820SOL    HW132096   4.338   3.939   5.857 -0.6932 -0.3195  0.6216
 6820SOL    HW232097   4.265   4.034   5.946  0.6613  0.0906  0.6798
 6821SOL     OW32098   2.355   0.143  16.509 -0.5153 -0.2675  0.3573
 6821SOL    HW132099   2.363   0.108  16.421 -1.3329  1.8494 -0.5711
 6821SOL    HW232100   2.434   0.197  16.520  1.1341 -2.3545 -1.1200
 6822SOL     OW32101   2.319   2.756   6.546 -0.0780  0.1846 -0.1476
 6822SOL    HW132102   2.327   2.706   6.627  1.1982  2.6725  1.2458
 6822SOL    HW232103   2.225   2.777   6.547 -0.2792 -0.7206  0.0577
 6823SOL     OW32104   1.386   0.743   2.199 -0.2305  1.0416 -0.0092
 6823SOL    HW132105   1.461   0.709   2.248  0.7112  1.6479 -1.0467
 6823SOL    HW232106   1.368   0.668   2.143  2.1432  0.1971  0.3467
 6824SOL     OW32107   2.741   3.710   0.832 -0.1125  0.5050 -0.3360
 6824SOL    HW132108   2.794   3.652   0.776  1.9718  2.9252 -0.8450
 6824SOL    HW232109   2.658   3.676   0.797  0.3151  1.3137 -2.1418
 6825SOL     OW32110   4.017   0.997   4.258 -0.2963  0.0025 -0.6770
 6825SOL    HW132111   4.041   0.927   4.319  0.1750  0.2898 -0.5375
 6825SOL    HW232112   3.922   0.994   4.275 -0.1521  0.2130  0.1803
 6826SOL     OW32113   3.377   3.055   4.090 -0.2910  0.8325  0.1594
 6826SOL    HW132114   3.367   3.002   4.011 -2.1158 -1.4808  1.9090
 6826SOL    HW232115   3.288   3.051   4.126 -0.0089 -2.1458  0.5945
 6827SOL     OW32116   1.028   2.660   5.881 -0.3880  0.0923  0.7370
 6827SOL    HW132117   1.007   2.575   5.921  1.4148 -0.3158  0.8091
 6827SOL    HW232118   1.029   2.723   5.953 -2.5985 -0.5486  1.3440
 6828SOL     OW32119   2.104   4.584  15.490 -0.4289 -0.0714  0.0589
 6828SOL    HW132120   2.077   4.672  15.514  0.6634  0.0895  0.7084
 6828SOL    HW232121   2.031   4.531  15.522 -0.3204 -0.9259 -1.0969
 6829SOL     OW32122   1.296   3.286   8.224  0.2285 -0.1499  0.2531
 6829SOL    HW132123   1.307   3.204   8.273  1.2454 -0.2282 -0.1118
 6829SOL    HW232124   1.251   3.351   8.277  0.4171  0.0273  0.1949
 6830SOL     OW32125   0.696   4.064   6.877 -0.1833 -0.3162  0.6536
 6830SOL    HW132126   0.602   4.044   6.885 -0.7413  2.5454  1.0031
 6830SOL    HW232127   0.700   4.134   6.943 -0.2453 -1.2601  1.6694
 6831SOL     OW32128   2.591   0.273  16.595  0.2597 -0.1108  0.5347
 6831SOL    HW132129   2.598   0.319  16.679 -0.6770  1.8512 -0.4446
 6831SOL    HW232130   2.593   0.344  16.530 -0.2153 -0.1821  0.4428
 6832SOL     OW32131   2.630   0.343   4.060 -0.8266 -0.2498  0.0297
 6832SOL    HW132132   2.547   0.320   4.019 -0.8415 -1.9982  1.0249
 6832SOL    HW232133   2.624   0.438   4.047 -1.4121 -0.2569  0.2494
 6833SOL     OW32134   3.952   0.591   9.405  0.2640 -0.3999  0.9100
 6833SOL    HW132135   4.003   0.618   9.481  2.0358  2.0406 -1.1286
 6833SOL    HW232136   4.011   0.608   9.331 -1.4686  1.4630 -0.0305
 6834SOL     OW32137   0.608   3.738   6.801 -0.0605 -0.2798 -0.1912
 6834SOL    HW132138   0.579   3.725   6.711 -0.7193 -1.9039  0.2556
 6834SOL    HW232139   0.559   3.818   6.819  0.3088  0.1008 -0.8751
 6835SOL     OW32140   3.592   2.919   3.017 -0.5117 -0.3778  0.6073
 6835SOL    HW132141   3.556   2.922   3.105 -2.1522 -1.3908 -0.0415
 6835SOL    HW232142   3.558   3.001   2.981 -0.9563  0.0908  2.1187
 6836SOL     OW32143   2.553   1.789   8.048  0.7324  0.1450  0.4748
 6836SOL    HW132144   2.570   1.785   8.142 -2.4014 -0.5760  1.0368
 6836SOL    HW232145   2.624   1.742   8.004  0.2686  1.1727 -1.3567
 6837SOL     OW32146   2.269   3.070  15.472 -0.2840 -0.4631  0.3524
 6837SOL    HW132147   2.305   2.982  15.484 -1.5302 -1.0723 -0.4138
 6837SOL    HW232148   2.279   3.078  15.377  1.8278  3.1944  0.9022
 6838SOL     OW32149   0.995   3.289   8.109  0.6097 -0.2939  0.3280
 6838SOL    HW132150   0.957   3.364   8.064 -1.1317 -0.3615  1.6647
 6838SOL    HW232151   1.012   3.329   8.195  0.8215  0.5376 -0.1030
 6839SOL     OW32152   0.303   2.523   6.333 -0.5217  0.0206  0.0220
 6839SOL    HW132153   0.330   2.614   6.349  0.8730 -0.3964  0.0937
 6839SOL    HW232154   0.268   2.490   6.416  1.7160 -1.8209  0.2605
 6840SOL     OW32155   1.977   3.683  15.457 -0.5399  0.1682 -0.2611
 6840SOL    HW132156   1.992   3.647  15.545 -1.7845  1.5095  0.4948
 6840SOL    HW232157   2.049   3.745  15.449 -0.1868 -0.0615  1.1588
 6841SOL     OW32158   1.037   2.722   9.852 -0.1626 -0.1420  0.1429
 6841SOL    HW132159   1.055   2.815   9.865  0.1837 -0.1426 -0.3295
 6841SOL    HW232160   1.094   2.693   9.781  1.9487 -1.1305  2.2463
 6842SOL     OW32161   4.615   3.801   2.120  0.2031 -0.3288 -0.0152
 6842SOL    HW132162   4.572   3.719   2.095  1.6467 -0.7497 -1.0785
 6842SOL    HW232163   4.701   3.800   2.080  0.2882  1.8474  0.1478
 6843SOL     OW32164   2.862   4.314   4.725  0.6106 -0.1633  0.0909
 6843SOL    HW132165   2.933   4.281   4.779  1.3199  0.6900 -0.3308
 6843SOL    HW232166   2.787   4.273   4.769  0.2858  1.3264  0.9147
 6844SOL     OW32167   1.583   4.288  16.172  0.1541 -0.7334  0.3288
 6844SOL    HW132168   1.534   4.262  16.094  2.2758 -1.6280 -0.7095
 6844SOL    HW232169   1.546   4.373  16.195 -0.0326 -0.0427 -2.5228
 6845SOL     OW32170   3.696   4.134  11.400  0.1849 -0.4239 -0.0719
 6845SOL    HW132171   3.620   4.109  11.454  1.1141 -0.8457  1.0458
 6845SOL    HW232172   3.704   4.058  11.341 -2.0991  0.4501 -1.4978
 6846SOL     OW32173   1.020   3.663  12.125  0.2405  0.0460  0.3412
 6846SOL    HW132174   1.104   3.709  12.119 -0.4309  1.0880 -1.1378
 6846SOL    HW232175   0.971   3.726  12.072  1.6875  1.5765  0.8214
 6847SOL     OW32176   4.401   2.024  10.688  0.2539 -0.0588 -0.0273
 6847SOL    HW132177   4.408   2.071  10.772  0.5974  1.1356 -0.7196
 6847SOL    HW232178   4.413   1.933  10.716  0.7146  0.3117  0.9874
 6848SOL     OW32179   3.834   2.426   8.531 -0.4229  0.4861 -0.4972
 6848SOL    HW132180   3.895   2.440   8.603  1.7994 -1.5587 -2.0052
 6848SOL    HW232181   3.790   2.511   8.520  0.9564  1.2036 -0.5340
 6849SOL     OW32182   2.158   2.959   5.856  0.2809 -0.4695 -0.2819
 6849SOL    HW132183   2.252   2.940   5.852  0.2996 -0.1933 -1.2055
 6849SOL    HW232184   2.160   3.009   5.937 -0.6026 -0.9176  0.0201
 6850SOL     OW32185   2.558   3.052   1.828 -0.0613 -1.0178 -0.3672
 6850SOL    HW132186   2.514   3.115   1.883  1.1108 -0.0623 -0.5195
 6850SOL    HW232187   2.485   2.996   1.802  0.3823 -1.2498 -1.1243
 6851SOL     OW32188   2.616   0.007   2.381  0.1656 -0.5917  0.0700
 6851SOL    HW132189   2.524   0.007   2.405  0.7950 -0.1138  2.4410
 6851SOL    HW232190   2.639   0.098   2.400  0.1824 -1.0830  2.3099
 6852SOL     OW32191   0.840   0.977  12.946  0.1807  0.2138 -0.4064
 6852SOL    HW132192   0.782   0.982  12.870  0.3143 -1.5398 -0.6179
 6852SOL    HW232193   0.817   1.057  12.994 -1.9377 -0.3542 -0.4711
 6853SOL     OW32194   2.183   0.768  12.434 -0.2720  0.9560 -0.0227
 6853SOL    HW132195   2.211   0.679  12.456 -0.8367  1.3287  2.2835
 6853SOL    HW232196   2.118   0.741  12.369  1.8478  0.4180 -1.9228
 6854SOL     OW32197   3.401   3.517  14.135 -0.2994  0.2126 -0.8067
 6854SOL    HW132198   3.461   3.581  14.174  0.8191 -2.4272  1.8270
 6854SOL    HW232199   3.469   3.463  14.096  0.8213  0.7235  0.4433
 6855SOL     OW32200   3.127   0.633   2.902 -0.0130 -0.0237 -0.2826
 6855SOL    HW132201   3.123   0.718   2.859  3.5226 -0.3096 -1.1203
 6855SOL    HW232202   3.221   0.631   2.920 -0.2251 -0.7209  0.7333
 6856SOL     OW32203   0.486   1.798   3.351  0.5192 -0.4226 -0.1984
 6856SOL    HW132204   0.464   1.875   3.403  0.9410  0.4804 -1.3591
 6856SOL    HW232205   0.402   1.762   3.320 -0.2235 -1.2816  2.8003
 6857SOL     OW32206   2.801   0.952   7.338 -0.3132 -0.1196 -0.0723
 6857SOL    HW132207   2.710   0.979   7.350 -0.2849  0.6884 -1.7055
 6857SOL    HW232208   2.831   1.030   7.386 -2.6310  0.3921  0.5079
 6858SOL     OW32209   4.202   0.783  17.442  0.1360 -0.1322  0.5299
 6858SOL    HW132210   4.276   0.782  17.382  0.5630  0.3339  1.0517
 6858SOL    HW232211   4.236   0.846  17.505 -3.5824  0.0796  2.3644
 6859SOL     OW32212   3.852   2.761   8.292 -0.2245  0.5766 -0.0765
 6859SOL    HW132213   3.832   2.855   8.288  0.3298  0.7320  0.6818
 6859SOL    HW232214   3.947   2.764   8.281  0.0972 -0.0804  2.5276
 6860SOL     OW32215   1.993   2.390   8.747 -0.2050 -0.4440  0.5840
 6860SOL    HW132216   1.991   2.439   8.829  1.6994 -0.1832  0.4829
 6860SOL    HW232217   1.952   2.448   8.683 -1.4613 -2.3315 -0.3192
 6861SOL     OW32218   1.721   4.575  13.018  0.3498 -0.4250  0.3570
 6861SOL    HW132219   1.626   4.585  13.016  0.4709  0.5445 -0.4672
 6861SOL    HW232220   1.754   4.652  13.065  1.3146 -0.1309 -0.8098
 6862SOL     OW32221   0.357   0.400  17.075  0.1509  0.2139 -0.2951
 6862SOL    HW132222   0.265   0.428  17.083 -0.9398 -3.5873  0.3400
 6862SOL    HW232223   0.375   0.404  16.981 -0.4469  1.5081 -0.3507
 6863SOL     OW32224   4.278   3.609   5.273 -0.5202  0.7047  0.0335
 6863SOL    HW132225   4.369   3.631   5.255 -0.4617  0.7340  0.3704
 6863SOL    HW232226   4.253   3.552   5.200 -0.4377  0.7483 -0.0282
 6864SOL     OW32227   0.580   0.123  11.371 -0.3168  0.3959  0.7609
 6864SOL    HW132228   0.492   0.113  11.407 -0.4707 -1.7449 -0.2118
 6864SOL    HW232229   0.623   0.039  11.355 -0.9771 -0.3036  2.7205
 6865SOL     OW32230   4.574   2.890   4.054 -0.1837 -0.1454 -0.0704
 6865SOL    HW132231   4.527   2.932   3.982 -0.6631  0.1889  0.4354
 6865SOL    HW232232   4.506   2.888   4.122 -0.0183 -0.4809  0.0873
 6866SOL     OW32233   0.560   2.949   6.626 -0.2094  0.2547  0.5978
 6866SOL    HW132234   0.564   3.003   6.546  2.8021  1.2284  1.4320
 6866SOL    HW232235   0.466   2.931   6.625 -0.0289 -0.6517 -0.2721
 6867SOL     OW32236   0.221   0.564  13.969 -0.2245 -0.0107 -0.5042
 6867SOL    HW132237   0.273   0.536  14.044 -0.7551  0.2670 -0.0339
 6867SOL    HW232238   0.278   0.537  13.897  0.7852 -0.8657  0.6011
 6868SOL     OW32239   4.582   2.860   4.792 -0.2756  0.1472 -0.1995
 6868SOL    HW132240   4.638   2.782   4.784 -0.1930 -0.0600  2.4105
 6868SOL    HW232241   4.534   2.851   4.874  1.0627  0.5086  0.6305
 6869SOL     OW32242   3.275   4.227   2.626 -0.2787 -0.1669 -0.0499
 6869SOL    HW132243   3.271   4.321   2.646  0.5823  0.0213 -0.7433
 6869SOL    HW232244   3.370   4.214   2.628  0.0862  2.2861 -0.9841
 6870SOL     OW32245   1.505   2.586   5.337  0.3826  0.5379  0.7537
 6870SOL    HW132246   1.507   2.667   5.285 -0.4584  0.7140  0.9956
 6870SOL    HW232247   1.415   2.587   5.371  0.2595 -3.4897  0.5302
 6871SOL     OW32248   0.523   4.453   5.829  0.2250  0.2062  0.5235
 6871SOL    HW132249   0.438   4.451   5.873 -0.1150  2.2732 -0.0380
 6871SOL    HW232250   0.503   4.394   5.756  0.2555  2.3700 -1.2208
 6872SOL     OW32251   3.589   3.479   1.895 -0.3681  0.1736 -0.1474
 6872SOL    HW132252   3.497   3.505   1.900 -0.8175 -1.7568  1.4063
 6872SOL    HW232253   3.595   3.386   1.874 -0.9302 -0.3482  2.0143
 6873SOL     OW32254   0.648   1.849   5.044  0.0843 -0.5705  0.5205
 6873SOL    HW132255   0.561   1.817   5.020 -0.1274  0.4751 -0.1066
 6873SOL    HW232256   0.636   1.866   5.137  2.0105  1.6045  0.3732
 6874SOL     OW32257   2.448   4.534   9.110  0.9453  0.0253 -0.4653
 6874SOL    HW132258   2.385   4.514   9.041  0.3814 -2.2732  0.7321
 6874SOL    HW232259   2.428   4.624   9.138  1.5055 -1.1085  3.5395
 6875SOL     OW32260   1.515   4.502   3.885  0.5189  0.3294  0.2406
 6875SOL    HW132261   1.568   4.423   3.870  0.8845  0.8952 -1.3317
 6875SOL    HW232262   1.562   4.570   3.838 -2.2099  0.3908 -2.3884
 6876SOL     OW32263   2.663   0.127   5.057  0.2033  0.7535  0.7694
 6876SOL    HW132264   2.700   0.090   4.976 -1.5342 -0.2508  0.4259
 6876SOL    HW232265   2.574   0.140   5.025 -0.2361 -0.1899  1.6015
 6877SOL     OW32266   3.716   3.140   4.861  0.0122  0.1005 -0.6103
 6877SOL    HW132267   3.723   3.193   4.781 -0.5669  0.5435 -0.3674
 6877SOL    HW232268   3.784   3.076   4.840  1.1978  1.8391 -2.1066
 6878SOL     OW32269   3.262   2.079   9.318 -0.0443 -0.3580  0.0190
 6878SOL    HW132270   3.213   2.088   9.237  0.0351  0.1620  0.0297
 6878SOL    HW232271   3.240   1.987   9.336  0.3724 -0.4554  0.0400
 6879SOL     OW32272   4.253   2.950   3.870 -0.2143  0.4430 -0.8103
 6879SOL    HW132273   4.313   3.018   3.839 -2.6605  1.4749 -3.3204
 6879SOL    HW232274   4.173   3.003   3.865 -1.4922 -1.4933 -0.7267
 6880SOL     OW32275   2.786   0.344   3.167 -0.4308  0.1912 -0.3831
 6880SOL    HW132276   2.810   0.415   3.108  1.8527  0.7573  1.2237
 6880SOL    HW232277   2.815   0.259   3.135  1.0856  1.2480 -1.8096
 6881SOL     OW32278   4.004   3.455   3.270 -0.5031 -0.2976 -0.8599
 6881SOL    HW132279   3.932   3.491   3.218  0.0201 -2.1503 -2.8971
 6881SOL    HW232280   3.958   3.433   3.350  0.9844 -2.2738 -0.5442
 6882SOL     OW32281   0.132   3.867   7.386  0.7267  0.1208  0.2665
 6882SOL    HW132282   0.154   3.858   7.478  0.9923 -0.6302  0.1305
 6882SOL    HW232283   0.205   3.830   7.337 -2.4077 -1.4390 -3.1993
 6883SOL     OW32284   0.866   4.722   2.155 -0.1200 -0.8327  0.3579
 6883SOL    HW132285   0.866   4.644   2.210 -0.8466 -1.1984 -0.1708
 6883SOL    HW232286   0.801   4.714   2.085  2.7894  0.0312 -2.4453
 6884SOL     OW32287   2.367   1.552   7.077 -0.4470 -0.0332 -0.2463
 6884SOL    HW132288   2.462   1.558   7.089 -0.4154  1.8356 -1.4033
 6884SOL    HW232289   2.336   1.501   7.152  2.8384 -0.2484  0.9480
 6885SOL     OW32290   2.611   4.085   8.891 -0.0105 -0.7820 -0.1203
 6885SOL    HW132291   2.525   4.052   8.918 -0.0825 -1.4137 -1.1293
 6885SOL    HW232292   2.592   4.172   8.856 -0.4801 -1.7486 -2.2362
 6886SOL     OW32293   1.913   0.168  13.415 -0.1932  0.1936  0.3496
 6886SOL    HW132294   1.959   0.206  13.489 -1.1989  0.4879  0.8277
 6886SOL    HW232295   1.941   0.230  13.347  2.6013 -0.2914  1.0490
 6887SOL     OW32296   2.033   1.305   9.022 -0.6001 -0.9325 -0.3167
 6887SOL    HW132297   2.000   1.313   9.111  1.5172 -0.4372  0.4360
 6887SOL    HW232298   1.990   1.379   8.980  0.7736 -0.5497 -1.0590
 6888SOL     OW32299   3.126   3.727   7.383 -0.3291  0.2972  0.6553
 6888SOL    HW132300   3.185   3.654   7.370 -0.4689 -0.2399  2.9971
 6888SOL    HW232301   3.131   3.782   7.305 -1.8810  0.8778  0.9576
 6889SOL     OW32302   1.541   4.133   4.091 -0.3842 -0.2761 -0.6378
 6889SOL    HW132303   1.508   4.088   4.013  0.2444 -0.4649 -0.7921
 6889SOL    HW232304   1.463   4.169   4.133  0.5624  0.8728  0.1376
 6890SOL     OW32305   4.574   1.277  16.059 -0.0150  0.3575 -0.2703
 6890SOL    HW132306   4.599   1.303  15.970 -2.2869  0.4577 -0.8784
 6890SOL    HW232307   4.609   1.350  16.110  1.5978 -2.8619  3.2462
 6891SOL     OW32308   3.239   2.374   6.543 -0.1874 -0.0208  0.0913
 6891SOL    HW132309   3.297   2.352   6.470 -1.3202  1.2677 -1.1869
 6891SOL    HW232310   3.164   2.400   6.490  0.1056  2.3024  0.8497
 6892SOL     OW32311   3.858   3.642   6.813 -0.0250 -0.4517 -0.3396
 6892SOL    HW132312   3.921   3.706   6.847  0.0333 -0.4956 -0.3639
 6892SOL    HW232313   3.859   3.568   6.873  2.6398  0.3345  0.6082
 6893SOL     OW32314   3.156   3.182  11.773 -0.3923  0.1477 -0.2684
 6893SOL    HW132315   3.118   3.240  11.707  1.1578 -0.2679 -1.5218
 6893SOL    HW232316   3.126   3.220  11.856  0.3927 -2.1856  1.0878
 6894SOL     OW32317   1.302   3.379   4.311 -0.5415 -0.2415 -0.2485
 6894SOL    HW132318   1.357   3.436   4.364  3.0764 -3.2409 -0.8312
 6894SOL    HW232319   1.214   3.388   4.348  0.3026  2.0981  1.0969
 6895SOL     OW32320   3.555   4.196   4.260 -0.2892  0.0044 -0.5982
 6895SOL    HW132321   3.551   4.155   4.173 -0.2208  0.4077 -0.7897
 6895SOL    HW232322   3.562   4.119   4.316  0.1827 -0.8296 -1.7904
 6896SOL     OW32323   2.812   3.165  12.772  0.2193 -0.2968  0.0609
 6896SOL    HW132324   2.842   3.074  12.769  0.2555 -0.3211  1.0510
 6896SOL    HW232325   2.811   3.177  12.867 -3.3951  1.2133 -0.1950
 6897SOL     OW32326   3.164   2.747   6.370 -0.2229  0.2640 -0.6060
 6897SOL    HW132327   3.220   2.772   6.296 -0.5357  2.0244 -0.2207
 6897SOL    HW232328   3.082   2.723   6.327 -0.3464 -0.1397 -0.1490
 6898SOL     OW32329   3.726   3.843   0.857  0.3335  0.6295  0.1344
 6898SOL    HW132330   3.785   3.918   0.856 -1.6034  2.1749 -0.4259
 6898SOL    HW232331   3.749   3.790   0.933 -0.4161  0.2659  0.1160
 6899SOL     OW32332   0.064   0.793  13.933 -0.2781 -0.5233 -0.0625
 6899SOL    HW132333   0.033   0.721  13.878  0.1180 -1.4277  0.9260
 6899SOL    HW232334   0.104   0.752  14.009  1.0208  1.9244  0.5658
 6900SOL     OW32335   4.700   2.506   9.640 -0.1821  0.0714 -0.2298
 6900SOL    HW132336   4.655   2.585   9.609  1.3440  0.0550 -2.4574
 6900SOL    HW232337   4.715   2.525   9.732  1.5714 -0.5992 -0.3889
 6901SOL     OW32338   1.366   1.320  10.497 -0.2644 -0.0470 -0.1665
 6901SOL    HW132339   1.340   1.301  10.407 -0.5374 -0.5323  0.0141
 6901SOL    HW232340   1.283   1.331  10.544  0.6039 -2.1424  1.8343
 6902SOL     OW32341   1.706   2.762   6.393 -0.6506 -0.7409  0.4969
 6902SOL    HW132342   1.717   2.678   6.438  1.9221 -0.7934 -0.2442
 6902SOL    HW232343   1.625   2.734   6.350 -0.6470 -1.8145  1.1834
 6903SOL     OW32344   3.217   3.028   8.804  0.3070  0.2093  0.0970
 6903SOL    HW132345   3.193   2.938   8.827 -1.4029  0.3406 -1.1691
 6903SOL    HW232346   3.148   3.063   8.860  1.4853  4.0096 -0.8554
 6904SOL     OW32347   1.420   1.717   3.585  0.0756 -0.0614 -0.1210
 6904SOL    HW132348   1.352   1.777   3.614 -1.0719 -1.3321 -0.1591
 6904SOL    HW232349   1.415   1.737   3.492 -0.1996 -2.0716 -0.5326
 6905SOL     OW32350   4.422   4.474  10.699  0.7026 -0.1089 -0.0379
 6905SOL    HW132351   4.404   4.380  10.696  2.0555 -0.3676 -0.0526
 6905SOL    HW232352   4.381   4.510  10.778 -1.5467 -2.1740 -0.2602
 6906SOL     OW32353   0.387   2.421   8.524  0.1582 -0.6145  0.9606
 6906SOL    HW132354   0.385   2.329   8.550  1.6628 -0.8874  0.1052
 6906SOL    HW232355   0.328   2.426   8.449  0.0568  1.0803  1.1535
 6907SOL     OW32356   4.275   2.738   1.248  0.5561 -0.0054 -0.5445
 6907SOL    HW132357   4.275   2.656   1.199  0.1657 -0.9707  1.0589
 6907SOL    HW232358   4.265   2.802   1.178 -0.3318  0.4689  0.0076
 6908SOL     OW32359   1.395   2.913   6.789 -0.2057  0.0371 -0.2722
 6908SOL    HW132360   1.455   2.949   6.723  2.5574  0.9323  2.7276
 6908SOL    HW232361   1.337   2.987   6.805 -1.3442 -1.5365  2.8698
 6909SOL     OW32362   0.705   1.292   6.527  0.7215 -0.1040 -0.0786
 6909SOL    HW132363   0.752   1.222   6.482 -1.7360 -1.4801 -0.5204
 6909SOL    HW232364   0.770   1.360   6.541 -1.0345  0.8552  3.5648
 6910SOL     OW32365   2.900   4.357   6.778  0.1495 -0.1725 -0.3891
 6910SOL    HW132366   2.969   4.330   6.717 -0.3670 -0.1357 -0.9895
 6910SOL    HW232367   2.939   4.433   6.821  1.6069 -1.2691  0.2299
 6911SOL     OW32368   4.180   0.749   3.823  0.4243 -0.0351  0.2524
 6911SOL    HW132369   4.189   0.738   3.729 -1.1532  0.9947 -0.0285
 6911SOL    HW232370   4.139   0.666   3.847 -0.5597  0.0865 -0.9895
 6912SOL     OW32371   0.534   0.709   9.541 -0.1112 -0.0466  0.3529
 6912SOL    HW132372   0.440   0.715   9.521  0.1519  0.9491 -0.5524
 6912SOL    HW232373   0.552   0.788   9.591 -0.2174  0.3655 -0.2540
 6913SOL     OW32374   2.560   2.031   5.343 -0.0219  0.0112  0.3462
 6913SOL    HW132375   2.499   2.036   5.417 -0.8579  0.5384 -0.3682
 6913SOL    HW232376   2.509   2.103   5.304 -0.4814  0.3327  1.5143
 6914SOL     OW32377   0.406   0.998   3.342 -0.2353  0.1678 -0.0093
 6914SOL    HW132378   0.321   1.019   3.302 -0.6260  0.1763  0.8133
 6914SOL    HW232379   0.466   0.999   3.268 -1.5829 -0.4196 -1.1016
 6915SOL     OW32380   0.019   1.751  14.036 -0.9234 -0.5541  0.0520
 6915SOL    HW132381   0.008   1.696  13.958 -0.9616 -2.0655  1.1144
 6915SOL    HW232382   4.719   1.696  14.104 -1.2356  0.7150  0.8794
 6916SOL     OW32383   3.068   1.869   7.096 -0.1792  0.5304  0.0958
 6916SOL    HW132384   2.998   1.894   7.157  1.5217  1.2549  1.7373
 6916SOL    HW232385   3.025   1.901   7.017  0.5431  0.5486 -0.2875
 6917SOL     OW32386   0.721   4.529   2.624 -0.5666  0.4082  0.2146
 6917SOL    HW132387   0.709   4.624   2.617  1.1024  0.5501 -0.6944
 6917SOL    HW232388   0.658   4.520   2.695 -1.5377  0.6770 -0.6135
 6918SOL     OW32389   2.144   0.063   7.043 -0.3300 -0.5984  0.6208
 6918SOL    HW132390   2.222   0.083   6.990 -1.3002  1.7377  0.0753
 6918SOL    HW232391   2.096   0.002   6.988 -1.7417 -0.4210  1.6533
 6919SOL     OW32392   4.168   0.692   3.543 -0.2094  0.1533 -0.3757
 6919SOL    HW132393   4.212   0.777   3.540 -1.5366  0.8308 -0.6978
 6919SOL    HW232394   4.099   0.698   3.477 -0.8960 -0.2040  0.3144
 6920SOL     OW32395   2.036   3.006   6.479  0.0810 -0.2461  0.0968
 6920SOL    HW132396   2.111   3.066   6.481 -0.7497  0.7741  0.4851
 6920SOL    HW232397   2.013   2.990   6.571  0.7796 -0.0574  0.3056
 6921SOL     OW32398   2.461   3.194  12.338 -0.3244 -0.3498 -0.4758
 6921SOL    HW132399   2.503   3.183  12.423 -0.3866 -0.4877 -0.4627
 6921SOL    HW232400   2.525   3.253  12.301 -2.1283  1.0619 -1.3358
 6922SOL     OW32401   4.004   0.202   1.910  1.0834  0.1435 -0.6966
 6922SOL    HW132402   3.935   0.177   1.848 -1.6656  1.9715  1.5981
 6922SOL    HW232403   3.960   0.277   1.950 -0.7171 -0.2097 -1.9751
 6923SOL     OW32404   3.043   0.672   7.486  0.0875  0.2634  0.3478
 6923SOL    HW132405   3.075   0.651   7.574  0.0884 -1.8615 -0.1660
 6923SOL    HW232406   2.950   0.692   7.498  0.5777  0.7022  3.4096
 6924SOL     OW32407   3.968   4.372  11.111 -0.2890  0.0147 -0.6609
 6924SOL    HW132408   3.904   4.402  11.176  2.9682  0.2988  2.4554
 6924SOL    HW232409   4.009   4.299  11.159  0.7826  3.1316  3.2026
 6925SOL     OW32410   4.367   0.948  12.876  0.1849 -0.3048  0.7902
 6925SOL    HW132411   4.454   0.975  12.846  0.2009 -0.1968  0.9336
 6925SOL    HW232412   4.356   0.880  12.810 -2.0185  1.1057 -0.3307
 6926SOL     OW32413   4.192   1.547   4.224 -0.6393  0.5512  0.1167
 6926SOL    HW132414   4.279   1.586   4.226 -1.0843  1.7161 -3.2008
 6926SOL    HW232415   4.154   1.599   4.295  0.7050  0.8079  0.6369
 6927SOL     OW32416   3.880   1.913   2.132 -0.1459 -0.5019  0.1981
 6927SOL    HW132417   3.852   1.918   2.224 -0.0117  1.6828  0.1139
 6927SOL    HW232418   3.795   1.907   2.089 -0.7285  5.1081  0.5987
 6928SOL     OW32419   0.329   3.032   9.398 -0.5369  0.0447  0.3108
 6928SOL    HW132420   0.281   3.110   9.426 -1.0390  0.5786 -2.0892
 6928SOL    HW232421   0.285   3.013   9.315  2.5601  2.9137 -1.9817
 6929SOL     OW32422   4.582   3.753   6.342  0.2290 -0.2502 -0.3093
 6929SOL    HW132423   4.528   3.798   6.278 -1.1353 -1.7314 -0.2090
 6929SOL    HW232424   4.568   3.804   6.421 -2.7190 -2.7736  0.7915
 6930SOL     OW32425   3.884   0.083  10.722  0.5024 -0.3751 -0.4771
 6930SOL    HW132426   3.837   0.045  10.647 -2.3889 -0.0135  1.1518
 6930SOL    HW232427   3.869   0.013  10.785 -1.7929 -1.8600 -2.6613
 6931SOL     OW32428   1.197   4.446   4.536 -0.2500 -0.1990 -0.5654
 6931SOL    HW132429   1.223   4.521   4.481  2.1732  1.6170  3.0983
 6931SOL    HW232430   1.245   4.461   4.617 -2.2132  1.1237  0.3490
 6932SOL     OW32431   2.422   3.940   0.618 -0.7665 -0.5906  0.0838
 6932SOL    HW132432   2.471   3.963   0.539 -1.2564  0.2616  0.0296
 6932SOL    HW232433   2.336   3.969   0.590 -0.8536  0.6555  1.6063
 6933SOL     OW32434   3.936   0.971   5.956 -0.0594  0.2455  0.2167
 6933SOL    HW132435   3.881   1.023   5.897 -0.3134  0.5268  0.6931
 6933SOL    HW232436   3.875   0.920   6.010 -1.8487  0.6942 -1.3727
 6934SOL     OW32437   2.459   4.003   5.294 -0.0058 -0.3293 -0.8151
 6934SOL    HW132438   2.546   4.026   5.326 -0.9778  2.9849 -0.5520
 6934SOL    HW232439   2.455   3.908   5.309 -0.9593 -0.3797 -1.3430
 6935SOL     OW32440   0.893   3.747  17.015  0.0206 -0.3037  0.2294
 6935SOL    HW132441   0.856   3.719  16.931  2.5991  1.4845 -1.4593
 6935SOL    HW232442   0.813   3.761  17.066 -1.8139  0.6860 -2.9066
 6936SOL     OW32443   0.912   1.007   2.874  0.1878 -0.2985 -0.2091
 6936SOL    HW132444   0.888   0.943   2.941  0.4123 -0.4562 -0.2789
 6936SOL    HW232445   0.867   0.978   2.795  1.7062  0.9955 -1.5573
 6937SOL     OW32446   4.625   4.150   5.192 -0.0195 -0.3545  0.1376
 6937SOL    HW132447   4.587   4.229   5.231  0.4861  0.0775 -0.2433
 6937SOL    HW232448   4.552   4.093   5.168 -0.2835  0.1039 -0.1433
 6938SOL     OW32449   4.659   2.920   8.699 -0.1812 -0.5679  0.3426
 6938SOL    HW132450   4.645   2.996   8.756 -2.8107 -0.1041 -0.9359
 6938SOL    HW232451   4.600   2.858   8.743 -2.4825  1.2489 -0.1666
 6939SOL     OW32452   3.725   0.719   2.809 -0.8416 -0.2436 -0.4141
 6939SOL    HW132453   3.726   0.809   2.775  0.5205 -0.5949 -1.3098
 6939SOL    HW232454   3.818   0.708   2.831 -0.8044 -0.0666 -0.4769
 6940SOL     OW32455   1.024   4.520   5.662  0.4931 -0.5051 -0.2761
 6940SOL    HW132456   1.038   4.604   5.705 -1.6790 -0.3073  0.0875
 6940SOL    HW232457   0.944   4.488   5.705  0.7639  0.4822  0.9485
 6941SOL     OW32458   4.372   0.840  16.334 -0.0600  0.4022  0.1595
 6941SOL    HW132459   4.446   0.882  16.290  0.5497 -1.4841 -0.6232
 6941SOL    HW232460   4.431   0.794  16.394  1.0779 -0.1967 -1.4039
 6942SOL     OW32461   2.945   1.834  16.857 -0.1685 -0.2093 -0.0851
 6942SOL    HW132462   2.963   1.754  16.907  0.5922  1.7279  2.7155
 6942SOL    HW232463   2.940   1.799  16.768  1.2178 -1.1920  0.2265
 6943SOL     OW32464   1.137   4.360   9.163  0.1810 -0.2165 -0.7845
 6943SOL    HW132465   1.179   4.282   9.126  4.5904  0.9116  1.8273
 6943SOL    HW232466   1.046   4.332   9.159  0.0993  0.0866 -1.0706
 6944SOL     OW32467   2.708   4.623   9.023  0.2513 -0.6862  0.0534
 6944SOL    HW132468   2.622   4.582   9.035 -0.4479  0.1864 -1.8638
 6944SOL    HW232469   2.678   4.710   8.998  1.1272 -0.4938 -0.3167
 6945SOL     OW32470   4.394   1.531   9.697  0.5360  0.0704 -0.0164
 6945SOL    HW132471   4.395   1.524   9.793 -1.1669 -1.2322 -0.0814
 6945SOL    HW232472   4.321   1.593   9.686  1.1203  0.8163  0.3337
 6946SOL     OW32473   3.330   1.830  14.161 -0.2359  0.1315  0.3377
 6946SOL    HW132474   3.415   1.802  14.126  0.3571  0.7826  1.2826
 6946SOL    HW232475   3.289   1.865  14.082  0.1260  1.4620  0.7533
 6947SOL     OW32476   3.598   4.519   8.016  0.4538 -0.3752  0.0426
 6947SOL    HW132477   3.544   4.598   8.015 -1.7508 -1.9282 -2.1500
 6947SOL    HW232478   3.586   4.478   8.102 -2.0817 -1.3264 -0.7622
 6948SOL     OW32479   1.550   2.376   1.161 -0.2480 -0.0553  0.1910
 6948SOL    HW132480   1.511   2.438   1.224  1.8733  1.5912 -0.1240
 6948SOL    HW232481   1.490   2.385   1.087 -1.3650  3.2567  1.4806
 6949SOL     OW32482   0.809   2.119   6.346 -0.4175 -0.3783 -0.1565
 6949SOL    HW132483   0.884   2.163   6.387 -1.7198 -0.6203  2.5124
 6949SOL    HW232484   0.835   2.128   6.254 -0.0492 -2.0165 -0.2087
 6950SOL     OW32485   4.433   0.667  15.601 -0.2800 -0.0565  0.1488
 6950SOL    HW132486   4.479   0.596  15.556  2.1052  0.4836  1.7261
 6950SOL    HW232487   4.456   0.643  15.690  2.2316 -1.9545 -1.0330
 6951SOL     OW32488   0.299   4.342  16.317  0.0532 -0.4510 -0.7102
 6951SOL    HW132489   0.336   4.289  16.387 -3.1582 -0.0648  1.2816
 6951SOL    HW232490   0.363   4.410  16.294 -0.4282  0.3794  0.4448
 6952SOL     OW32491   1.464   2.194   9.040  0.4091  0.2367 -0.1484
 6952SOL    HW132492   1.490   2.278   9.078  1.0527 -0.8569  1.8572
 6952SOL    HW232493   1.389   2.168   9.094 -1.1126  0.1317 -2.3329
 6953SOL     OW32494   2.068   2.922   9.669 -0.3429 -0.1756 -0.4934
 6953SOL    HW132495   1.977   2.895   9.675 -1.3918  3.7556  1.0595
 6953SOL    HW232496   2.067   2.988   9.599  1.5092  1.3028  0.8829
 6954SOL     OW32497   3.816   4.069   1.063 -0.3098 -0.4133 -0.5190
 6954SOL    HW132498   3.734   4.067   1.111  1.0346  1.2018  1.8449
 6954SOL    HW232499   3.797   4.152   1.020 -1.9932 -0.5052  0.0463
 6955SOL     OW32500   0.019   0.810   4.887  0.4561 -0.1644  0.7413
 6955SOL    HW132501   0.095   0.807   4.945 -0.8013  0.8318  2.4468
 6955SOL    HW232502   0.067   0.804   4.805 -0.2513 -1.7761  0.4552
 6956SOL     OW32503   1.760   1.316  17.728  0.3062 -0.2976  0.5851
 6956SOL    HW132504   1.825   1.283  17.668 -0.4767 -1.1157  0.1865
 6956SOL    HW232505   1.678   1.286  17.687 -0.7332  2.0385  0.9324
 6957SOL     OW32506   0.432   0.540   9.141  0.3568 -0.2770 -0.4316
 6957SOL    HW132507   0.374   0.611   9.167 -0.8591 -1.4738  0.1082
 6957SOL    HW232508   0.487   0.535   9.220 -0.9775 -0.7569  0.4630
 6958SOL     OW32509   0.587   2.960   7.018  0.0190  0.2402 -0.0986
 6958SOL    HW132510   0.557   2.886   6.964  0.7073 -1.2427  1.5454
 6958SOL    HW232511   0.548   2.944   7.104 -0.8233 -0.0412 -0.5289
 6959SOL     OW32512   3.501   4.428   2.467 -0.2794  0.4127  0.2040
 6959SOL    HW132513   3.430   4.431   2.403 -0.9213 -1.0507  0.8557
 6959SOL    HW232514   3.519   4.334   2.458  1.2442  0.7029  0.1582
 6960SOL     OW32515   2.797   2.988   8.959 -0.0977  0.4401 -0.0929
 6960SOL    HW132516   2.859   3.046   9.003  0.3045  0.8246 -1.1765
 6960SOL    HW232517   2.740   3.059   8.931 -0.8978 -0.5479 -0.9581
 6961SOL     OW32518   4.688   2.744   3.222  0.5435  0.6247  0.0569
 6961SOL    HW132519   0.012   2.675   3.200 -0.4046 -0.1874 -0.1251
 6961SOL    HW232520   4.700   2.743   3.317 -1.0306 -0.6130  0.2446
 6962SOL     OW32521   3.245   3.090  11.214 -0.0137  0.2047 -0.2768
 6962SOL    HW132522   3.221   3.062  11.126 -1.0698 -1.7469  0.6360
 6962SOL    HW232523   3.184   3.027  11.253 -1.1413  0.5599 -1.4594
 6963SOL     OW32524   1.284   0.205   0.841 -0.2311 -0.2664 -0.6801
 6963SOL    HW132525   1.278   0.215   0.746 -0.6203 -0.5322 -0.6892
 6963SOL    HW232526   1.345   0.276   0.855 -1.6079  1.0798 -1.5127
 6964SOL     OW32527   1.927   3.648   6.028 -0.2783  0.1241 -0.2139
 6964SOL    HW132528   1.974   3.618   5.951  0.3513 -2.4547  1.1867
 6964SOL    HW232529   1.839   3.611   6.022  0.7248 -2.3254  0.4464
 6965SOL     OW32530   1.358   2.823   8.508  0.2589  0.5251 -0.0307
 6965SOL    HW132531   1.423   2.778   8.454 -0.5667  0.9816 -1.4027
 6965SOL    HW232532   1.363   2.773   8.590  0.5319  1.2853  0.4107
 6966SOL     OW32533   0.054   4.073  17.473 -0.0439  0.3789 -0.1769
 6966SOL    HW132534   0.047   4.060  17.379 -1.6152  0.1183 -0.0257
 6966SOL    HW232535   0.147   4.059  17.487  0.0912  1.0138 -0.4392
 6967SOL     OW32536   1.997   1.964   5.179 -0.9874 -0.3366  0.3819
 6967SOL    HW132537   2.072   1.908   5.198 -0.5803 -0.1627 -0.7014
 6967SOL    HW232538   1.981   2.011   5.260  2.1914  2.1121 -0.4110
 6968SOL     OW32539   4.067   2.034   5.816 -0.0004  0.1055 -0.0695
 6968SOL    HW132540   3.972   2.041   5.815 -0.0584 -0.3578  1.8761
 6968SOL    HW232541   4.083   2.072   5.902  1.5568  1.2310 -0.8596
 6969SOL     OW32542   1.974   1.489   8.555  0.0803 -0.0844 -0.2463
 6969SOL    HW132543   1.991   1.446   8.470 -3.5651 -2.4432  0.2124
 6969SOL    HW232544   1.913   1.551   8.516  1.0534  1.1013  0.1359
 6970SOL     OW32545   4.713   1.980  15.956  0.6211  0.2261 -0.0666
 6970SOL    HW132546   0.049   1.920  15.957  0.1986 -0.3053  2.0176
 6970SOL    HW232547   0.010   2.063  15.988 -0.2098 -0.0665  1.6330
 6971SOL     OW32548   0.075   0.833   2.552 -0.7871  0.0316 -0.7707
 6971SOL    HW132549   0.132   0.778   2.606  0.3932  1.3383 -0.7010
 6971SOL    HW232550   0.073   0.784   2.470 -1.0631  0.4134 -0.9915
 6972SOL     OW32551   1.822   1.435  15.593 -0.2066  0.3499 -0.3762
 6972SOL    HW132552   1.774   1.518  15.594  1.2986  1.1994  1.4634
 6972SOL    HW232553   1.791   1.393  15.513 -0.5143  1.2413 -0.7194
 6973SOL     OW32554   1.154   3.277  15.264 -0.4200 -0.3544 -0.7911
 6973SOL    HW132555   1.147   3.182  15.254  0.0103 -0.2740 -1.8816
 6973SOL    HW232556   1.250   3.285  15.262 -0.5250  1.0314 -0.4078
 6974SOL     OW32557   4.048   1.763   5.797  0.1254 -0.8422 -0.5349
 6974SOL    HW132558   4.049   1.859   5.791  0.1938 -0.9068 -1.6715
 6974SOL    HW232559   4.116   1.745   5.731  0.2840  0.5710 -0.7697
 6975SOL     OW32560   2.584   2.097   4.022 -0.2158  0.2447  0.2853
 6975SOL    HW132561   2.571   2.155   3.946 -0.4493 -0.0745  0.0818
 6975SOL    HW232562   2.539   2.138   4.096 -0.0676 -1.9814  1.5843
 6976SOL     OW32563   2.693   0.306   2.403  0.1838 -0.2227  0.6149
 6976SOL    HW132564   2.746   0.384   2.422 -2.0870  1.4578  0.0636
 6976SOL    HW232565   2.642   0.300   2.484  0.9822 -0.7350  1.0690
 6977SOL     OW32566   0.393   0.128  16.274 -0.0163  0.4900 -0.2982
 6977SOL    HW132567   0.298   0.117  16.272  0.2859 -1.9725 -0.1656
 6977SOL    HW232568   0.405   0.207  16.221  0.8759  0.7333  0.2712
 6978SOL     OW32569   1.533   0.988   8.006 -0.0163 -0.1721  0.1461
 6978SOL    HW132570   1.497   0.899   8.007 -1.4086  0.3443 -2.5021
 6978SOL    HW232571   1.628   0.978   8.008 -0.0163  0.0419  0.8909
 6979SOL     OW32572   4.464   1.221   2.042  0.3982  0.5880 -0.0202
 6979SOL    HW132573   4.484   1.127   2.037 -1.3977  0.2738 -1.3976
 6979SOL    HW232574   4.472   1.243   1.949  1.0831  0.7598  0.0826
 6980SOL     OW32575   0.122   1.651  12.677 -0.0346  0.0324 -0.0979
 6980SOL    HW132576   0.163   1.579  12.628  1.4800  1.2371 -0.5877
 6980SOL    HW232577   0.036   1.656  12.636  0.9381 -0.6495 -2.2301
 6981SOL     OW32578   0.917   2.620   8.790  0.4022 -0.6497 -0.3219
 6981SOL    HW132579   0.887   2.555   8.727  0.5813  1.4191 -2.5311
 6981SOL    HW232580   0.923   2.699   8.736 -0.0531  1.3287  2.4913
 6982SOL     OW32581   1.184   2.113   6.239  0.0723  0.4734  0.4313
 6982SOL    HW132582   1.170   2.057   6.315  0.1963 -1.0151 -0.6555
 6982SOL    HW232583   1.268   2.082   6.206  0.5525  1.0238  1.1422
 6983SOL     OW32584   0.965   2.394  13.887  0.2416  0.1557 -0.3196
 6983SOL    HW132585   0.946   2.435  13.802 -1.5526  1.2082  0.6021
 6983SOL    HW232586   0.967   2.469  13.946 -3.1673  0.5256 -0.6639
 6984SOL     OW32587   0.818   3.595   3.369 -0.5916 -0.1196 -0.1205
 6984SOL    HW132588   0.911   3.583   3.352 -0.7600  1.2694 -2.0206
 6984SOL    HW232589   0.787   3.560   3.285 -1.7143 -2.0112  1.0831
 6985SOL     OW32590   1.775   4.469  11.409 -0.5036 -0.2759 -0.2045
 6985SOL    HW132591   1.853   4.415  11.419 -2.4332 -3.1076 -0.5519
 6985SOL    HW232592   1.783   4.498  11.318  0.7946  0.6601  0.2073
 6986SOL     OW32593   4.041   3.376   6.815 -0.1755 -0.1378  0.0236
 6986SOL    HW132594   4.103   3.385   6.743  1.0715  1.1681  1.2472
 6986SOL    HW232595   4.095   3.407   6.888 -0.8426 -0.6066  0.7204
 6987SOL     OW32596   1.096   2.587   7.401 -0.3940  0.3637  0.2714
 6987SOL    HW132597   1.101   2.640   7.321 -0.8578  0.4146  0.2782
 6987SOL    HW232598   1.106   2.502   7.358  0.0786  0.4517  0.2011
 6988SOL     OW32599   1.832   3.926  16.391  0.5135 -0.2628  0.3142
 6988SOL    HW132600   1.789   3.975  16.462  2.8070  2.9314 -0.4803
 6988SOL    HW232601   1.816   3.977  16.311  0.1303 -1.9992 -0.7095
 6989SOL     OW32602   3.580   1.058   6.946  0.3367 -0.2020 -0.1604
 6989SOL    HW132603   3.572   1.099   6.860 -1.6983 -2.1279 -0.8862
 6989SOL    HW232604   3.559   1.134   7.001  0.0679  0.3958 -1.0861
 6990SOL     OW32605   4.386   0.203   6.591  0.1230  0.2742 -0.2451
 6990SOL    HW132606   4.412   0.292   6.570  0.6400  0.0497 -0.5719
 6990SOL    HW232607   4.346   0.221   6.675  0.1580 -1.3485  0.1222
 6991SOL     OW32608   2.995   2.392   0.135 -0.3609  0.1030 -0.5263
 6991SOL    HW132609   3.051   2.405   0.211 -0.2069 -0.2544 -0.5833
 6991SOL    HW232610   3.018   2.472   0.088  0.6096 -0.4969 -1.0654
 6992SOL     OW32611   2.781   0.460   8.200  0.3525  0.0692  0.0646
 6992SOL    HW132612   2.865   0.427   8.234  0.9845  0.1356 -1.4428
 6992SOL    HW232613   2.803   0.426   8.113 -0.9613  0.3944 -0.3862
 6993SOL     OW32614   4.570   4.118  11.660  0.2327 -0.1382 -0.4246
 6993SOL    HW132615   4.589   4.034  11.701 -2.0371 -0.7026 -0.5356
 6993SOL    HW232616   4.609   4.103  11.574  0.3883 -3.8794  0.3297
 6994SOL     OW32617   4.731   1.709   3.309  0.0795 -0.7853  0.0019
 6994SOL    HW132618   4.687   1.786   3.346 -0.4052  0.0583 -2.3228
 6994SOL    HW232619   4.666   1.690   3.241  0.9903 -0.6900 -0.8950
 6995SOL     OW32620   2.952   3.841  17.468  0.2151 -0.0228  0.1732
 6995SOL    HW132621   2.961   3.930  17.504 -0.5708  0.1967 -0.1729
 6995SOL    HW232622   2.859   3.853  17.449  0.8764  2.4344 -1.5402
 6996SOL     OW32623   1.734   2.454   9.542 -0.0576  0.2408 -0.1374
 6996SOL    HW132624   1.693   2.436   9.627  0.6639 -0.8205 -0.0107
 6996SOL    HW232625   1.811   2.398   9.552 -0.5298 -0.1586  1.3339
 6997SOL     OW32626   3.922   4.509   8.630 -0.5923  0.1881 -0.3483
 6997SOL    HW132627   3.876   4.502   8.713 -0.1213  2.6794  0.1365
 6997SOL    HW232628   3.979   4.581   8.656  0.9125 -2.4407  3.5914
 6998SOL     OW32629   0.740   2.296   7.692 -0.1741  0.4225  0.5759
 6998SOL    HW132630   0.813   2.327   7.747  1.2282 -2.3984  0.3289
 6998SOL    HW232631   0.767   2.319   7.603 -0.9288  2.5231  0.8858
 6999SOL     OW32632   0.537   3.970  11.285  0.4599 -0.6085 -0.1224
 6999SOL    HW132633   0.545   4.012  11.370 -1.0947 -0.6799  0.0597
 6999SOL    HW232634   0.489   3.889  11.299  1.0729 -0.6841  1.4663
 7000SOL     OW32635   1.440   0.012   7.204 -0.4310  0.3776  0.4599
 7000SOL    HW132636   1.385   0.072   7.254 -0.5168  0.6268  0.0601
 7000SOL    HW232637   1.524   0.039   7.241 -0.7760  1.9318  0.0674
 7001SOL     OW32638   3.558   1.651  14.083 -0.1067 -0.0549 -0.6284
 7001SOL    HW132639   3.621   1.579  14.085  0.4919  0.4118 -2.3105
 7001SOL    HW232640   3.552   1.673  14.175  1.5459  0.0925 -0.5554
 7002SOL     OW32641   2.009   4.262   5.569  0.7520 -0.0920  0.3500
 7002SOL    HW132642   1.971   4.174   5.564  0.0282  0.1817  0.9177
 7002SOL    HW232643   2.080   4.249   5.633 -0.0054 -2.2062  0.7726
 7003SOL     OW32644   2.123   0.432   2.370 -1.0085  0.6071  0.0514
 7003SOL    HW132645   2.110   0.348   2.414  0.2178  1.5220  2.1393
 7003SOL    HW232646   2.216   0.447   2.387 -0.6779 -4.2108  2.3714
 7004SOL     OW32647   0.014   1.538  15.158 -0.0688  0.4353 -0.4443
 7004SOL    HW132648   4.675   1.499  15.197 -1.6526  2.4293 -1.5875
 7004SOL    HW232649   4.728   1.545  15.065  2.0041 -1.1459 -1.1103
 7005SOL     OW32650   0.891   2.269   2.462 -0.3214  0.5254 -0.1517
 7005SOL    HW132651   0.827   2.209   2.501  1.0179 -0.5036  0.4579
 7005SOL    HW232652   0.957   2.281   2.530  0.9298  0.6610 -1.3715
 7006SOL     OW32653   3.951   4.052   2.534 -0.3422 -0.4122 -0.0581
 7006SOL    HW132654   4.005   3.998   2.477  2.5465  1.9763  0.4530
 7006SOL    HW232655   4.002   4.039   2.614  2.6435  1.3770 -1.7087
 7007SOL     OW32656   1.121   4.082  14.611  0.3705  0.1014 -0.7818
 7007SOL    HW132657   1.026   4.076  14.628  0.4788  0.0624 -0.1619
 7007SOL    HW232658   1.157   4.097  14.699 -0.3356  0.7101 -0.6001
 7008SOL     OW32659   0.050   1.919  10.781  0.2641  0.0465 -0.0143
 7008SOL    HW132660   0.076   2.011  10.774  1.2200 -0.2303 -0.0981
 7008SOL    HW232661   0.001   1.917  10.863  1.5950 -0.4188  0.7779
 7009SOL     OW32662   0.444   0.083   3.584 -0.1458 -0.4358 -0.6255
 7009SOL    HW132663   0.482   4.736   3.597 -0.2849 -0.7040 -2.0303
 7009SOL    HW232664   0.361   0.074   3.631  0.4886  1.1151  0.7959
 7010SOL     OW32665   2.207   1.005   5.303 -0.1722 -0.2341  0.7205
 7010SOL    HW132666   2.277   0.980   5.243 -0.8960 -0.7899  0.0990
 7010SOL    HW232667   2.257   1.064   5.359  2.1097  1.0116 -2.5621
 7011SOL     OW32668   2.099   3.260  11.709 -0.6155 -0.1267 -0.0484
 7011SOL    HW132669   2.141   3.247  11.793 -1.6847 -0.2491  0.4598
 7011SOL    HW232670   2.112   3.176  11.665  0.3667 -0.2748  0.5168
 7012SOL     OW32671   3.892   2.549   3.181  0.5568 -0.2081 -0.0753
 7012SOL    HW132672   3.900   2.597   3.098  0.9250 -0.6990 -0.3241
 7012SOL    HW232673   3.954   2.602   3.231  0.0676 -0.1121  0.4224
 7013SOL     OW32674   4.513   4.708   4.018  0.3313  0.1001  0.0829
 7013SOL    HW132675   4.459   0.023   3.960  0.5840  2.5512  2.1543
 7013SOL    HW232676   4.469   4.623   4.021 -2.8050  1.6544 -1.2428
 7014SOL     OW32677   2.142   0.483   9.164  0.0403  0.2947  0.0743
 7014SOL    HW132678   2.060   0.469   9.211 -0.2687  0.3987 -0.4367
 7014SOL    HW232679   2.111   0.445   9.082 -2.7322 -0.5474  1.5053
 7015SOL     OW32680   2.771   2.728   5.484  0.4273 -0.6382 -0.4388
 7015SOL    HW132681   2.764   2.658   5.419 -2.5391  0.6502 -1.5234
 7015SOL    HW232682   2.770   2.803   5.424  2.5528 -1.1900 -1.1688
 7016SOL     OW32683   1.988   0.169   3.755  0.4591  0.3794 -0.0546
 7016SOL    HW132684   2.062   0.127   3.799 -0.1615 -0.4591  0.1746
 7016SOL    HW232685   1.981   0.230   3.828 -0.5218  0.1594  0.0303
 7017SOL     OW32686   2.681   4.693   1.512  0.0702  0.4839 -0.2991
 7017SOL    HW132687   2.626   4.649   1.447  0.6839  0.2325 -0.6512
 7017SOL    HW232688   2.731   0.016   1.460  0.2943  0.9186  0.4335
 7018SOL     OW32689   2.078   2.236   3.907 -0.2785  0.0214 -0.6486
 7018SOL    HW132690   2.133   2.169   3.867 -0.2845 -0.3837  0.0259
 7018SOL    HW232691   2.006   2.178   3.934 -0.1049  0.2181  0.2405
 7019SOL     OW32692   4.243   4.505   1.555 -0.1523  0.1512 -0.4182
 7019SOL    HW132693   4.192   4.487   1.475 -0.1194 -1.2467 -0.1127
 7019SOL    HW232694   4.324   4.473   1.516  1.5070  1.6510  1.8561
 7020SOL     OW32695   2.857   4.520  16.254  0.6477 -0.6464  0.4125
 7020SOL    HW132696   2.909   4.553  16.328 -0.0382  2.9325 -0.7190
 7020SOL    HW232697   2.802   4.459  16.302 -0.2137  0.3669  0.7238
 7021SOL     OW32698   3.513   3.133   3.618  0.0458 -0.4085 -0.2636
 7021SOL    HW132699   3.479   3.114   3.706 -0.1528 -0.1769 -0.2901
 7021SOL    HW232700   3.598   3.089   3.616 -0.0418 -0.5373 -0.9742
 7022SOL     OW32701   2.225   4.174   6.119 -0.3186  0.2686  0.1142
 7022SOL    HW132702   2.297   4.191   6.180 -1.5468  0.7793  1.4076
 7022SOL    HW232703   2.188   4.262   6.122  2.0891  1.3003 -0.2223
 7023SOL     OW32704   0.264   0.347   3.475  0.0830  0.1015 -0.1867
 7023SOL    HW132705   0.279   0.352   3.569 -0.8511  0.8106 -0.0755
 7023SOL    HW232706   0.349   0.321   3.439  0.1606  0.6284 -0.3883
 7024SOL     OW32707   1.267   0.717  11.367 -0.2402  0.4647 -0.2269
 7024SOL    HW132708   1.340   0.656  11.377  2.6261  4.0097  0.3878
 7024SOL    HW232709   1.209   0.656  11.322 -0.0257  1.2376 -1.5597
 7025SOL     OW32710   4.055   2.970  16.408  0.7930 -0.3142 -0.7678
 7025SOL    HW132711   4.010   2.979  16.491 -0.1874  0.4130 -1.3716
 7025SOL    HW232712   4.033   3.049  16.359  1.5888  0.8211  0.7107
 7026SOL     OW32713   2.605   1.705   2.408  0.0048 -0.0790  0.0490
 7026SOL    HW132714   2.652   1.753   2.476 -0.4024  1.3123 -0.6350
 7026SOL    HW232715   2.539   1.771   2.387 -0.8781 -0.7202  0.8232
 7027SOL     OW32716   0.407   0.193   0.141  0.0501 -0.1875 -0.8628
 7027SOL    HW132717   0.402   0.148   0.057  1.3468 -1.4011 -0.2879
 7027SOL    HW232718   0.314   0.201   0.166 -0.0263 -0.3803 -1.0855
 7028SOL     OW32719   2.910   2.710   6.273 -0.2759 -0.0222 -0.3204
 7028SOL    HW132720   2.817   2.696   6.292  0.4580  0.1219  3.2756
 7028SOL    HW232721   2.906   2.715   6.177 -1.2124 -2.0624 -0.4049
 7029SOL     OW32722   1.229   3.948   4.514  0.9224  0.0910  0.0611
 7029SOL    HW132723   1.161   4.007   4.481  1.7752  1.5621  0.9259
 7029SOL    HW232724   1.306   3.967   4.460 -0.1724  0.2653 -1.4518
 7030SOL     OW32725   3.778   2.410   3.944 -0.5052  0.4839  0.5180
 7030SOL    HW132726   3.734   2.400   3.859  1.2756  0.9255 -0.4520
 7030SOL    HW232727   3.767   2.331   3.997 -0.3132 -0.6520 -1.1547
 7031SOL     OW32728   2.893   2.267   1.571  0.4091  0.1739  0.0732
 7031SOL    HW132729   2.974   2.237   1.530  0.2676  0.7177 -0.6039
 7031SOL    HW232730   2.910   2.240   1.661  1.0932 -1.8227 -0.6560
 7032SOL     OW32731   0.033   0.763   0.699 -0.3756  0.7617  0.1892
 7032SOL    HW132732   4.689   0.720   0.712 -1.2223  2.4307  0.3285
 7032SOL    HW232733   0.011   0.832   0.636 -1.2361 -1.0247 -1.4475
 7033SOL     OW32734   3.016   0.675   8.097 -0.2262 -0.5416 -0.3412
 7033SOL    HW132735   3.111   0.684   8.093 -0.2927 -0.1321 -1.1389
 7033SOL    HW232736   3.011   0.621   8.176 -0.9448 -1.6914 -1.1640
 7034SOL     OW32737   4.335   2.219   9.783  0.3363  0.3251  0.3919
 7034SOL    HW132738   4.411   2.234   9.728 -0.1583 -0.3656 -0.4775
 7034SOL    HW232739   4.321   2.305   9.822 -1.0577 -0.4618  1.6244
 7035SOL     OW32740   0.675   0.874  13.276  0.0629 -0.3997 -0.3057
 7035SOL    HW132741   0.689   0.835  13.362 -0.8340 -3.7687 -1.6713
 7035SOL    HW232742   0.738   0.828  13.220  0.1568  0.6026 -1.0291
 7036SOL     OW32743   1.656   3.007   6.104 -0.0736  0.2899  0.2194
 7036SOL    HW132744   1.693   3.025   6.017 -2.5325  0.8294 -0.7069
 7036SOL    HW232745   1.667   2.911   6.102  0.3047  0.3894 -2.2928
 7037SOL     OW32746   2.076   0.419   5.559 -0.4583  0.3987  0.0383
 7037SOL    HW132747   2.131   0.357   5.511 -0.1102 -0.2810  1.3132
 7037SOL    HW232748   2.027   0.459   5.488 -1.2626 -1.1917 -0.2944
 7038SOL     OW32749   1.605   3.501  14.370 -0.0433  0.0509 -0.1761
 7038SOL    HW132750   1.684   3.555  14.376 -0.0881  0.1131 -0.1446
 7038SOL    HW232751   1.536   3.567  14.370 -0.4876 -0.4191 -0.1182
 7039SOL     OW32752   0.506   2.369   4.958 -0.0557  0.4006 -0.4289
 7039SOL    HW132753   0.448   2.347   5.031  0.8459 -0.2913  0.0785
 7039SOL    HW232754   0.529   2.279   4.932  0.6466 -0.2856  2.5545
 7040SOL     OW32755   0.891   3.094   5.357 -0.1660  0.4691  0.2994
 7040SOL    HW132756   0.798   3.116   5.356 -0.0291  1.0642  1.0284
 7040SOL    HW232757   0.916   3.094   5.449  1.3109 -2.8430 -0.0808
 7041SOL     OW32758   0.356   3.952   9.105  1.0249  0.3595  0.0249
 7041SOL    HW132759   0.446   3.944   9.139  0.7151 -0.4507  0.6790
 7041SOL    HW232760   0.368   4.017   9.037 -0.4411  0.3442 -0.2326
 7042SOL     OW32761   2.737   0.610   4.813 -0.1869  0.3296 -0.3877
 7042SOL    HW132762   2.812   0.663   4.786 -0.1516 -0.0957 -1.1369
 7042SOL    HW232763   2.752   0.529   4.763 -0.4977  0.6661 -1.0348
 7043SOL     OW32764   4.615   2.039   9.097 -0.1709  0.4947 -0.3351
 7043SOL    HW132765   4.554   2.102   9.134 -0.1200 -0.1180  0.8000
 7043SOL    HW232766   4.569   1.955   9.095  1.1183 -0.1956 -0.9550
 7044SOL     OW32767   3.334   4.244   4.541  0.2295 -0.3176 -0.4835
 7044SOL    HW132768   3.411   4.188   4.529  1.2099  0.4461  2.1653
 7044SOL    HW232769   3.361   4.298   4.616 -2.4274  2.0690 -1.2307
 7045SOL     OW32770   0.483   2.627   7.862 -0.0867 -0.1963  0.0505
 7045SOL    HW132771   0.396   2.665   7.852  0.5246  0.9389 -0.9319
 7045SOL    HW232772   0.469   2.553   7.803 -1.2969 -0.0891  0.1971
 7046SOL     OW32773   4.642   2.322   4.851  0.2041 -0.3515  0.3345
 7046SOL    HW132774   4.736   2.331   4.863  0.5572 -0.8835 -1.9939
 7046SOL    HW232775   4.616   2.328   4.943 -0.2741  1.0549  0.1072
 7047SOL     OW32776   1.862   0.854  15.576  0.6745 -0.2498  0.1955
 7047SOL    HW132777   1.814   0.860  15.659 -0.5521 -1.7507 -0.3916
 7047SOL    HW232778   1.894   0.944  15.571  0.8602 -0.3359 -0.1146
 7048SOL     OW32779   4.133   1.091   3.174 -0.0099 -0.0820  0.1220
 7048SOL    HW132780   4.084   1.016   3.206 -0.3156  0.9122  1.9830
 7048SOL    HW232781   4.065   1.158   3.164  0.9376  1.0404  1.1761
 7049SOL     OW32782   4.264   3.943   5.296 -0.4079  0.2130  0.2862
 7049SOL    HW132783   4.314   3.973   5.220 -1.0633  1.1275  0.2248
 7049SOL    HW232784   4.311   3.868   5.333  0.4609 -1.5720 -4.4583
 7050SOL     OW32785   0.758   4.424   5.002  0.3727  0.1356 -0.1617
 7050SOL    HW132786   0.714   4.460   4.925  2.1021 -0.0572 -1.2374
 7050SOL    HW232787   0.836   4.478   5.009  2.1017 -2.4931  0.8609
 7051SOL     OW32788   3.748   1.198  16.636 -0.3330  0.3204 -0.1708
 7051SOL    HW132789   3.831   1.227  16.598  0.8262 -1.4040  1.0333
 7051SOL    HW232790   3.781   1.167  16.720 -1.5772  0.1374  0.2476
 7052SOL     OW32791   2.831   3.557   3.599 -0.3890  0.1458  0.4053
 7052SOL    HW132792   2.853   3.565   3.692  0.5303  1.0663  0.1178
 7052SOL    HW232793   2.736   3.554   3.609 -0.2412  2.2711  2.5526
 7053SOL     OW32794   1.601   2.389  17.014 -0.4445  0.4877 -0.0638
 7053SOL    HW132795   1.686   2.372  17.054 -0.1942  0.2898 -0.6730
 7053SOL    HW232796   1.548   2.421  17.086 -0.2494  0.3230  0.1537
 7054SOL     OW32797   4.118   4.731  15.408  0.5694 -0.1408 -0.0556
 7054SOL    HW132798   4.182   0.061  15.394 -1.2076  1.6430  0.5266
 7054SOL    HW232799   4.164   4.669  15.464 -2.2320 -1.5146  0.7263
 7055SOL     OW32800   3.301   1.463   3.844 -0.0933 -0.1679  0.7434
 7055SOL    HW132801   3.253   1.412   3.779 -2.3755  2.2184  0.5725
 7055SOL    HW232802   3.389   1.478   3.808 -0.2871  2.2684  1.3189
 7056SOL     OW32803   3.541   3.507   1.575  0.0105 -0.3719  0.0158
 7056SOL    HW132804   3.515   3.494   1.484 -0.8986  2.7134 -0.1620
 7056SOL    HW232805   3.473   3.571   1.593  0.4494 -0.0871  0.6755
 7057SOL     OW32806   1.999   3.300  15.720 -0.2018 -0.1300 -0.3218
 7057SOL    HW132807   1.976   3.323  15.630 -1.1759 -3.2126 -0.8718
 7057SOL    HW232808   2.024   3.387  15.750  0.5447 -0.1340 -0.9147
 7058SOL     OW32809   2.152   3.672   2.094  0.2436 -0.1345  0.2030
 7058SOL    HW132810   2.122   3.587   2.060  0.6801 -0.4614  0.6287
 7058SOL    HW232811   2.067   3.704   2.123  0.7717  1.4742 -0.0308
 7059SOL     OW32812   4.593   3.600  15.858 -0.4008 -0.4127 -0.2218
 7059SOL    HW132813   4.586   3.505  15.852 -2.9971 -0.1859 -0.9830
 7059SOL    HW232814   4.558   3.624  15.944 -1.2935 -1.1350 -0.3802
 7060SOL     OW32815   0.045   3.937  14.176 -0.1674 -0.1938  0.0149
 7060SOL    HW132816   4.720   3.999  14.212  1.4747  1.3038  0.3367
 7060SOL    HW232817   0.129   3.975  14.200 -0.5600 -0.0580  1.1933
 7061SOL     OW32818   2.822   3.813   1.621 -0.1080  0.1401 -0.2520
 7061SOL    HW132819   2.727   3.816   1.629 -0.0080  1.5858  0.2994
 7061SOL    HW232820   2.836   3.824   1.527  1.0164 -2.1601 -0.3481
 7062SOL     OW32821   0.745   0.497   1.503  0.6337 -0.2376 -0.0108
 7062SOL    HW132822   0.782   0.568   1.554  0.3813  0.2174 -0.4541
 7062SOL    HW232823   0.654   0.522   1.487  0.9892  0.9449 -0.1289
 7063SOL     OW32824   0.858   0.008  16.583  0.1624  0.4644 -0.0316
 7063SOL    HW132825   0.846   4.660  16.619 -0.6965  0.9987  0.9723
 7063SOL    HW232826   0.883   0.063  16.657 -0.0692  0.7103 -0.1361
 7064SOL     OW32827   4.063   1.487   6.500 -0.1642  0.3484 -0.2193
 7064SOL    HW132828   3.985   1.446   6.538 -0.5568  0.1172 -1.2761
 7064SOL    HW232829   4.052   1.482   6.405 -0.4328 -3.2724 -0.0033
 7065SOL     OW32830   2.853   3.253   3.382 -0.5208 -0.2562 -0.3259
 7065SOL    HW132831   2.781   3.314   3.397  0.6583  1.1091 -0.1759
 7065SOL    HW232832   2.795   3.177   3.373  0.6354 -1.0159 -1.3854
 7066SOL     OW32833   3.169   4.190  12.177  0.8104  0.9236 -0.0035
 7066SOL    HW132834   3.244   4.158  12.227 -0.4356  2.3576  2.8216
 7066SOL    HW232835   3.205   4.175  12.090  0.8083  2.2453 -0.2280
 7067SOL     OW32836   3.557   3.486   2.861 -0.2832  0.0589 -0.1581
 7067SOL    HW132837   3.598   3.428   2.925  3.3384  0.4832 -2.0758
 7067SOL    HW232838   3.619   3.498   2.789 -0.7961 -1.0086 -0.7821
 7068SOL     OW32839   3.933   1.292   7.821  0.0139 -0.2823 -0.0253
 7068SOL    HW132840   3.859   1.321   7.873  0.5997  1.7121 -0.3265
 7068SOL    HW232841   4.004   1.310   7.883 -1.4913  1.5472  1.1640
 7069SOL     OW32842   3.123   3.450   7.191  0.1148  0.0772 -0.1928
 7069SOL    HW132843   3.058   3.455   7.261  0.1039 -0.7127 -0.1471
 7069SOL    HW232844   3.198   3.464   7.249  0.5512  1.1764 -1.0197
 7070SOL     OW32845   3.866   0.361   2.554  0.3389 -0.2628 -0.4124
 7070SOL    HW132846   3.822   0.444   2.533  1.9846  0.3170 -1.5297
 7070SOL    HW232847   3.785   0.310   2.558 -0.9791  1.9076  1.2539
 7071SOL     OW32848   4.274   3.594   7.713 -0.2585 -0.2669 -0.2705
 7071SOL    HW132849   4.369   3.588   7.715 -0.2664 -0.5155 -0.9002
 7071SOL    HW232850   4.254   3.679   7.754  0.8518  0.0390 -0.3779
 7072SOL     OW32851   3.486   0.142   7.996 -0.2596  0.0409  0.0676
 7072SOL    HW132852   3.478   0.089   7.917 -0.7597  0.5681 -0.2442
 7072SOL    HW232853   3.529   0.219   7.959  4.5647 -3.1991 -0.9824
 7073SOL     OW32854   1.568   0.123   0.709  0.4531 -0.1363  0.7223
 7073SOL    HW132855   1.649   0.109   0.660  0.8807  1.9497  0.8406
 7073SOL    HW232856   1.542   0.209   0.675 -0.5820 -0.7424 -0.0370
 7074SOL     OW32857   0.014   2.881   7.597 -0.5506  0.4593 -0.1241
 7074SOL    HW132858   4.695   2.863   7.671  0.2825 -1.8218 -0.0189
 7074SOL    HW232859   4.729   2.972   7.579  0.4093  0.8783  0.7243
 7075SOL     OW32860   0.972   3.035   4.667 -0.1074  0.8096 -0.4672
 7075SOL    HW132861   0.885   3.054   4.631 -0.6167  1.1821  0.9159
 7075SOL    HW232862   1.010   2.986   4.595  1.7385 -1.2375  1.9182
 7076SOL     OW32863   0.750   3.960   4.422 -0.1440  0.8474  0.3282
 7076SOL    HW132864   0.842   3.972   4.443 -0.5688  2.6341  1.1510
 7076SOL    HW232865   0.758   3.865   4.429 -1.4801  0.6061 -1.3046
 7077SOL     OW32866   1.286   3.362   9.975 -0.4444 -0.0214 -0.1113
 7077SOL    HW132867   1.255   3.278  10.011 -3.4839  1.4955  0.7966
 7077SOL    HW232868   1.274   3.410  10.057 -0.0632 -0.3539  0.1412
 7078SOL     OW32869   0.313   1.685  11.312 -0.2260 -0.3553 -0.2588
 7078SOL    HW132870   0.319   1.605  11.363 -0.1660  0.0551  0.3752
 7078SOL    HW232871   0.393   1.677  11.260  0.8972  1.7474  1.1471
 7079SOL     OW32872   0.140   0.481   6.934 -0.8649 -0.6447 -0.5557
 7079SOL    HW132873   0.188   0.513   6.857  0.1004 -2.0657 -0.5513
 7079SOL    HW232874   0.113   0.565   6.971  1.0134 -0.2604 -0.0376
 7080SOL     OW32875   1.901   2.927  13.976 -0.2267  0.5595 -0.0305
 7080SOL    HW132876   1.850   2.858  14.018 -0.3598  0.2934 -0.6376
 7080SOL    HW232877   1.904   2.895  13.886 -3.2819  1.4570 -0.4558
 7081SOL     OW32878   1.666   1.911   7.476 -0.0868  0.1720  0.4411
 7081SOL    HW132879   1.683   1.927   7.568 -1.5195  1.5819  0.4614
 7081SOL    HW232880   1.703   1.984   7.427 -2.3264  1.0718  0.0766
 7082SOL     OW32881   4.673   4.572   5.121  0.0262 -0.4441  0.1905
 7082SOL    HW132882   4.647   4.513   5.051 -1.9341  3.4703 -2.3887
 7082SOL    HW232883   4.642   4.525   5.199  0.6453 -1.0282  0.0845
 7083SOL     OW32884   0.290   4.673   7.168  0.1417  0.5076 -0.2276
 7083SOL    HW132885   0.324   0.023   7.174 -1.1317  0.9903 -0.2195
 7083SOL    HW232886   0.199   4.691   7.145  0.7788  0.4255 -2.8056
 7084SOL     OW32887   2.351   4.110  17.664  0.2109 -0.9870  0.0616
 7084SOL    HW132888   2.290   4.096  17.737  1.0795  2.5152  1.4447
 7084SOL    HW232889   2.410   4.037  17.683  2.6573  0.7201 -0.9577
 7085SOL     OW32890   3.706   1.684   6.341 -0.5085  0.4544  0.3875
 7085SOL    HW132891   3.687   1.747   6.411  0.8017  1.4237 -0.1338
 7085SOL    HW232892   3.798   1.710   6.342 -1.2882  3.2388  3.5982
 7086SOL     OW32893   0.623   3.273   9.604 -0.7820 -0.2261 -0.5682
 7086SOL    HW132894   0.537   3.301   9.638 -0.3534 -2.4293  2.2694
 7086SOL    HW232895   0.676   3.352   9.592 -0.9954 -0.5363 -3.3668
 7087SOL     OW32896   4.280   3.005  13.078 -0.1455  0.1561 -0.3446
 7087SOL    HW132897   4.258   3.094  13.050 -2.2960 -0.3026 -0.1130
 7087SOL    HW232898   4.284   2.961  12.993 -2.2059  0.5378 -0.6247
 7088SOL     OW32899   3.050   0.817   9.785  0.0485 -0.3200 -0.3151
 7088SOL    HW132900   2.986   0.808   9.714 -0.6600  1.4667  0.1026
 7088SOL    HW232901   3.125   0.858   9.742 -0.5588  1.0819 -0.0422
 7089SOL     OW32902   2.697   4.671   3.254  0.0034  0.2686  0.4416
 7089SOL    HW132903   2.652   4.637   3.177 -0.4640  1.6725  0.1082
 7089SOL    HW232904   2.631   4.732   3.287 -1.9234 -0.9009 -1.2721
 7090SOL     OW32905   3.342   2.353   3.043 -0.7127  0.0030  0.1521
 7090SOL    HW132906   3.297   2.366   3.127  2.8891  2.6161  1.7101
 7090SOL    HW232907   3.278   2.298   2.998  0.3401 -2.4567  1.6427
 7091SOL     OW32908   2.816   3.989   6.422 -0.0201 -0.5990 -0.3473
 7091SOL    HW132909   2.751   4.007   6.355  0.3191 -0.2873 -0.5890
 7091SOL    HW232910   2.763   3.950   6.491  1.6700 -1.5108  0.4485
 7092SOL     OW32911   4.365   2.047   2.766  0.3125 -0.3101  0.4446
 7092SOL    HW132912   4.380   2.006   2.851  0.2351  1.2326  1.2088
 7092SOL    HW232913   4.284   2.007   2.736  1.1038 -1.6164  0.0704
 7093SOL     OW32914   3.865   4.469   8.108  0.0133  0.2984 -0.0895
 7093SOL    HW132915   3.841   4.561   8.099  0.0503  0.5778  2.6623
 7093SOL    HW232916   3.780   4.432   8.083 -0.9740  2.4974  0.0248
 7094SOL     OW32917   4.045   4.528  13.520  0.2357  0.4858  0.3043
 7094SOL    HW132918   4.088   4.559  13.440  0.0785 -1.3532 -0.4964
 7094SOL    HW232919   4.126   4.519  13.569 -0.2660  1.2903  1.2702
 7095SOL     OW32920   3.584   4.389   5.527  0.1668 -1.2080  0.2694
 7095SOL    HW132921   3.670   4.350   5.511  0.2607 -0.2549 -1.6111
 7095SOL    HW232922   3.593   4.419   5.617 -2.4111  2.3443 -0.6455
 7096SOL     OW32923   0.555   2.084  17.029  0.0066  0.9420 -0.2048
 7096SOL    HW132924   0.554   2.114  17.120 -3.0999  1.0487 -0.2681
 7096SOL    HW232925   0.586   1.994  17.035 -0.7201  0.5491 -2.2728
 7097SOL     OW32926   1.553   0.803   5.296  0.0888  0.3072 -0.4481
 7097SOL    HW132927   1.458   0.794   5.301 -0.0378  2.3642  0.7175
 7097SOL    HW232928   1.573   0.853   5.217 -0.3328 -0.4701 -1.0522
 7098SOL     OW32929   4.545   1.584   4.965  0.1262 -0.5012 -0.0934
 7098SOL    HW132930   4.574   1.494   4.951 -0.4247 -0.7605  0.4190
 7098SOL    HW232931   4.625   1.632   4.983  1.0295 -2.1424  0.2728
 7099SOL     OW32932   0.383   3.944   2.341  0.2730  0.2879  0.0189
 7099SOL    HW132933   0.470   3.963   2.375 -0.2478  0.0480  1.4940
 7099SOL    HW232934   0.402   3.907   2.255 -1.5522  1.7049 -0.9995
 7100SOL     OW32935   3.665   2.357   1.816  0.0871  0.1277  0.3797
 7100SOL    HW132936   3.673   2.444   1.776 -0.6786 -0.2472 -0.6092
 7100SOL    HW232937   3.621   2.321   1.739  0.2529  2.0054 -0.6148
 7101SOL     OW32938   2.404   2.849   4.599 -0.1514  0.3235 -0.2584
 7101SOL    HW132939   2.455   2.814   4.526  1.8185 -1.0727  1.7785
 7101SOL    HW232940   2.347   2.776   4.623  1.1287 -0.7339 -0.4292
 7102SOL     OW32941   1.488   0.229  13.850 -0.3925  0.1114 -0.4187
 7102SOL    HW132942   1.494   0.299  13.915 -0.0946  0.8400 -1.2359
 7102SOL    HW232943   1.568   0.241  13.799 -0.4924  0.9023 -0.3806
 7103SOL     OW32944   3.187   1.754   7.712  0.1895 -0.5237  0.2754
 7103SOL    HW132945   3.230   1.801   7.641  0.6012  1.6027  1.9485
 7103SOL    HW232946   3.143   1.827   7.755  2.1244 -1.2487  3.4819
 7104SOL     OW32947   2.609   4.230   2.295  0.2057  0.2075 -0.1822
 7104SOL    HW132948   2.677   4.236   2.362 -0.0859  0.9748  0.0440
 7104SOL    HW232949   2.531   4.218   2.350  0.7575 -2.0106  0.1478
 7105SOL     OW32950   0.098   0.910   4.104  0.0849 -0.2024  0.0528
 7105SOL    HW132951   0.048   0.953   4.034 -0.4901 -1.1306 -0.1123
 7105SOL    HW232952   0.172   0.881   4.051 -0.5310 -1.0876 -0.3319
 7106SOL     OW32953   0.703   4.061   3.764  0.3531 -0.5522  0.0502
 7106SOL    HW132954   0.662   4.119   3.701  0.4352 -0.2746  0.2545
 7106SOL    HW232955   0.648   4.069   3.842 -0.0118 -0.7579 -0.1852
 7107SOL     OW32956   4.126   1.370   8.740  0.1874  0.0914  0.0931
 7107SOL    HW132957   4.059   1.428   8.776  0.9178  1.1171 -0.2018
 7107SOL    HW232958   4.200   1.411   8.785 -0.4941  1.4304 -0.0372
 7108SOL     OW32959   2.624   4.266   1.194 -0.4286 -0.5793 -0.2338
 7108SOL    HW132960   2.701   4.297   1.147 -0.5382 -0.0515 -0.0588
 7108SOL    HW232961   2.642   4.172   1.190  0.4274 -0.4564  0.6067
 7109SOL     OW32962   4.102   2.155   3.000  0.2114  0.2927 -0.4722
 7109SOL    HW132963   4.107   2.209   3.079  2.2441 -0.8953  0.2134
 7109SOL    HW232964   4.095   2.064   3.029 -3.0513  0.3241 -1.1098
 7110SOL     OW32965   3.428   1.666   1.451 -0.1871  0.1431 -0.6607
 7110SOL    HW132966   3.379   1.742   1.420 -1.9404 -1.6220 -2.2450
 7110SOL    HW232967   3.486   1.718   1.506 -3.3570  3.5965 -0.5638
 7111SOL     OW32968   0.511   2.338  12.637 -0.1877 -0.1904  0.0417
 7111SOL    HW132969   0.507   2.434  12.634  0.3948 -0.1457  0.9332
 7111SOL    HW232970   0.422   2.324  12.603 -0.2007 -0.2836  0.1162
 7112SOL     OW32971   4.075   2.518   9.438  0.0361  0.0518  0.4474
 7112SOL    HW132972   4.133   2.479   9.373  0.6940 -1.1135  1.7311
 7112SOL    HW232973   4.036   2.440   9.478  1.4009 -0.1660  1.3573
 7113SOL     OW32974   3.784   1.844   3.021 -0.3301 -0.1690 -0.2079
 7113SOL    HW132975   3.736   1.897   2.957 -0.3208  1.5670  1.2341
 7113SOL    HW232976   3.718   1.779   3.045 -0.2620 -0.5510 -1.0278
 7114SOL     OW32977   0.502   4.458  16.930  0.2239  0.2672 -0.4074
 7114SOL    HW132978   0.459   4.382  16.968  0.8955 -1.3096 -2.7753
 7114SOL    HW232979   0.484   4.447  16.837  0.7093  1.9763 -0.6927
 7115SOL     OW32980   4.649   2.253   5.981  0.0894  0.0359 -0.5597
 7115SOL    HW132981   4.649   2.163   5.950  0.7954 -0.5565  1.1674
 7115SOL    HW232982   4.713   2.246   6.052 -1.4954  0.2448  0.9121
 7116SOL     OW32983   0.491   2.008  13.459  0.0950  0.1092  0.3197
 7116SOL    HW132984   0.562   1.970  13.408 -1.2400 -1.0160 -0.7257
 7116SOL    HW232985   0.416   1.961  13.421 -0.0254  0.3210  0.2973
 7117SOL     OW32986   1.892   2.255  16.117 -0.2797 -0.3556 -0.0889
 7117SOL    HW132987   1.884   2.189  16.049 -0.9009 -0.6758  0.3035
 7117SOL    HW232988   1.978   2.235  16.153 -0.5936  0.5233  1.1421
 7118SOL     OW32989   2.339   0.075   2.358 -0.7007  0.9317  0.0358
 7118SOL    HW132990   2.330   4.737   2.302  1.7062  0.7172 -0.0360
 7118SOL    HW232991   2.312   0.142   2.295 -1.2548  2.3287  1.7703
 7119SOL     OW32992   3.553   2.017   9.266 -0.0306  0.1040 -0.2900
 7119SOL    HW132993   3.472   1.969   9.250 -0.3944  1.1116 -1.4109
 7119SOL    HW232994   3.518   2.090   9.316 -1.0632 -0.4515 -0.2120
 7120SOL     OW32995   1.834   3.158   1.641  0.1299 -0.3715 -0.3247
 7120SOL    HW132996   1.886   3.092   1.689 -0.4696  0.3957  1.3785
 7120SOL    HW232997   1.751   3.127   1.676 -0.4436 -0.4367 -1.7632
 7121SOL     OW32998   4.418   0.744  10.239 -0.2091  0.1076 -0.7272
 7121SOL    HW132999   4.505   0.746  10.280  0.5156 -0.7615 -2.2389
 7121SOL    HW233000   4.365   0.776  10.312  0.5253  0.2327 -0.2531
 7122SOL     OW33001   2.457   4.464   8.398 -0.0318 -0.1150  0.1638
 7122SOL    HW133002   2.466   4.553   8.431 -0.1859 -0.5366  1.3464
 7122SOL    HW233003   2.543   4.433   8.372 -0.1736 -0.9031  0.6383
 7123SOL     OW33004   1.198   3.155  14.920 -0.6336  0.4272 -0.0760
 7123SOL    HW133005   1.174   3.080  14.865  3.1182 -0.0124 -1.1043
 7123SOL    HW233006   1.290   3.161  14.894  0.1951 -0.3895  2.6201
 7124SOL     OW33007   1.285   4.510   3.661  0.0377  0.3699 -0.0479
 7124SOL    HW133008   1.276   4.471   3.574 -0.5930  3.0602 -1.2233
 7124SOL    HW233009   1.371   4.483   3.692 -0.3223 -1.1914 -0.4146
 7125SOL     OW33010   0.516   2.667   2.112  0.5681  0.1740 -0.9172
 7125SOL    HW133011   0.509   2.661   2.017  0.0431  0.0826 -0.8741
 7125SOL    HW233012   0.442   2.610   2.135 -0.1841  2.2791  1.9095
 7126SOL     OW33013   4.275   0.196   6.173  0.3016  0.0324  0.1460
 7126SOL    HW133014   4.269   0.146   6.092  0.1106  1.3263 -0.6304
 7126SOL    HW233015   4.345   0.256   6.149 -0.9391  2.0169  1.4733
 7127SOL     OW33016   0.783   1.594   5.857  0.1821  0.4646 -0.2083
 7127SOL    HW133017   0.789   1.529   5.787  0.6214  0.3288 -0.0440
 7127SOL    HW233018   0.872   1.591   5.893 -0.6511  1.2702  1.9383
 7128SOL     OW33019   0.649   1.075  16.587 -0.3734  0.3656 -0.0565
 7128SOL    HW133020   0.702   1.034  16.518 -3.4389 -0.3975 -1.9873
 7128SOL    HW233021   0.716   1.125  16.633 -0.0294  0.6207 -0.8333
 7129SOL     OW33022   0.272   2.597   2.771 -0.1402 -0.3535  0.1266
 7129SOL    HW133023   0.195   2.577   2.718 -0.1195  0.2404 -0.1278
 7129SOL    HW233024   0.313   2.510   2.772  2.3433  0.7994 -1.1853
 7130SOL     OW33025   0.622   4.169  17.698 -0.5688 -0.8124  0.0911
 7130SOL    HW133026   0.708   4.208  17.713 -1.9025  2.5070 -0.8693
 7130SOL    HW233027   0.600   4.135   0.030  1.3515  0.8747  1.2377
 7131SOL     OW33028   3.985   2.432   1.907 -0.1772 -0.3770 -0.1075
 7131SOL    HW133029   3.966   2.355   1.960 -1.5556  0.0226 -0.0287
 7131SOL    HW233030   4.054   2.403   1.848  0.8530  1.4934  0.1690
 7132SOL     OW33031   1.812   2.582  13.934 -0.3913  0.1795  0.0782
 7132SOL    HW133032   1.893   2.583  13.986 -1.0360  2.4502  1.0340
 7132SOL    HW233033   1.770   2.664  13.959 -1.4168 -0.5340  0.7040
 7133SOL     OW33034   2.435   4.259   3.068 -0.5089  0.8786 -0.4882
 7133SOL    HW133035   2.409   4.216   3.150  1.3506 -2.1010 -1.4471
 7133SOL    HW233036   2.352   4.298   3.040  0.3915  1.5688 -2.1731
 7134SOL     OW33037   2.298   3.248   9.402  0.6745  0.2551  0.3236
 7134SOL    HW133038   2.292   3.191   9.325 -1.9255 -0.6097  1.1775
 7134SOL    HW233039   2.387   3.280   9.391  0.5922  0.9688  1.7448
 7135SOL     OW33040   3.113   3.726   2.908 -1.0833  0.5408  0.4215
 7135SOL    HW133041   3.067   3.659   2.959 -2.0611  0.6940 -0.2564
 7135SOL    HW233042   3.194   3.724   2.960 -0.7767  1.9320 -0.0133
 7136SOL     OW33043   0.551   1.509   0.460 -0.1948 -0.0051  0.1070
 7136SOL    HW133044   0.537   1.526   0.367 -0.3313 -3.8855 -0.5554
 7136SOL    HW233045   0.646   1.502   0.468  0.1715  4.0602 -0.4635
 7137SOL     OW33046   1.680   0.501   7.666 -0.2147  0.0217 -0.5208
 7137SOL    HW133047   1.743   0.536   7.729  0.8965  0.3929 -1.8308
 7137SOL    HW233048   1.736   0.498   7.588  2.3195 -2.3457  1.4018
 7138SOL     OW33049   2.274   4.170   5.248 -0.8172  0.3298  0.0476
 7138SOL    HW133050   2.353   4.119   5.259 -0.1205  0.8116 -2.6524
 7138SOL    HW233051   2.200   4.111   5.258 -0.0595 -0.3568  1.5003
 7139SOL     OW33052   1.320   1.017  15.110  0.0962  0.2099 -0.0311
 7139SOL    HW133053   1.348   0.955  15.178 -0.7985  1.8379  1.8166
 7139SOL    HW233054   1.291   0.957  15.041  0.1363 -2.7744  2.5121
 7140SOL     OW33055   2.090   3.474   9.015 -0.2590  0.5369 -0.4660
 7140SOL    HW133056   2.145   3.512   8.947  1.6181 -0.0480  0.7271
 7140SOL    HW233057   2.117   3.522   9.094  1.6187 -1.5279  0.1476
 7141SOL     OW33058   1.586   0.579   2.073 -0.6095 -0.1524 -0.2768
 7141SOL    HW133059   1.652   0.542   2.014 -0.3146 -0.1940  0.0739
 7141SOL    HW233060   1.529   0.503   2.072 -0.4750 -0.2402 -1.4288
 7142SOL     OW33061   4.339   2.551   2.123  0.4107  0.2277  0.1886
 7142SOL    HW133062   4.294   2.466   2.132 -2.1774  1.5535 -0.3838
 7142SOL    HW233063   4.326   2.565   2.030 -0.7211  0.3882  0.3689
 7143SOL     OW33064   3.465   2.916   5.247 -0.5312 -0.1436  0.1390
 7143SOL    HW133065   3.530   2.858   5.207  2.1708  1.9053  1.5033
 7143SOL    HW233066   3.451   2.980   5.177  3.7890 -0.5980 -1.1083
 7144SOL     OW33067   2.280   0.363   4.843 -0.8560 -0.0934 -0.0847
 7144SOL    HW133068   2.240   0.312   4.772  1.5329  1.5414 -2.5803
 7144SOL    HW233069   2.203   0.399   4.887 -2.8043 -2.2040 -1.7675
 7145SOL     OW33070   3.107   4.138   2.372  0.1834  0.0145 -0.3428
 7145SOL    HW133071   3.012   4.130   2.370  0.0158  2.3398 -1.5269
 7145SOL    HW233072   3.125   4.115   2.464 -1.0068 -0.4372 -0.2208
 7146SOL     OW33073   4.617   0.607  17.444  0.0737 -0.6021  0.1731
 7146SOL    HW133074   4.711   0.601  17.461 -0.1122  0.5533  1.6560
 7146SOL    HW233075   4.582   0.588  17.532 -0.8310  0.2435  0.0055
 7147SOL     OW33076   1.969   4.254  14.847 -0.0675 -0.2896  0.1336
 7147SOL    HW133077   2.045   4.304  14.875 -0.7402 -0.6587  2.6072
 7147SOL    HW233078   1.967   4.189  14.917 -1.2176  2.5212  2.7394
 7148SOL     OW33079   4.399   3.553   5.905  0.7647 -0.6351 -0.3783
 7148SOL    HW133080   4.488   3.548   5.870  0.9994 -1.4927  0.3518
 7148SOL    HW233081   4.423   3.550   5.998 -0.8553  1.2710  0.1015
 7149SOL     OW33082   4.078   2.133   3.852  0.3820  0.0879  0.2828
 7149SOL    HW133083   4.116   2.075   3.918 -1.4556 -1.3116  0.1215
 7149SOL    HW233084   4.145   2.133   3.784  2.1799 -0.3673  2.0699
 7150SOL     OW33085   0.886   4.380   7.401 -0.1499 -0.6569 -0.1086
 7150SOL    HW133086   0.805   4.430   7.412  0.3773  0.3248 -0.6003
 7150SOL    HW233087   0.916   4.431   7.325  0.4282 -0.3780  0.3030
 7151SOL     OW33088   3.245   3.647   0.279  0.0870 -0.0658 -0.4575
 7151SOL    HW133089   3.242   3.640   0.184  0.4937  0.7661 -0.5338
 7151SOL    HW233090   3.242   3.555   0.306  2.0387  0.0472  0.1857
 7152SOL     OW33091   3.139   2.036   8.167 -0.0564 -1.0521 -0.3644
 7152SOL    HW133092   3.132   1.942   8.185 -0.6263 -0.8288  0.5796
 7152SOL    HW233093   3.050   2.059   8.191  0.3976 -0.4589  0.7316
 7153SOL     OW33094   2.005   2.891  10.859 -0.1566  0.0166  0.1488
 7153SOL    HW133095   1.995   2.966  10.800  0.9339 -1.0211 -1.3421
 7153SOL    HW233096   2.069   2.920  10.924 -0.3926  1.4693 -0.2509
 7154SOL     OW33097   1.585   4.036   5.937  0.1030  0.3062 -0.3650
 7154SOL    HW133098   1.629   4.121   5.926  0.0145  0.2165 -1.4639
 7154SOL    HW233099   1.502   4.076   5.963 -0.3975 -0.4939 -0.7441
 7155SOL     OW33100   1.917   3.957   7.859  0.2247 -0.2843 -0.1483
 7155SOL    HW133101   1.845   4.018   7.842  1.1735  0.6940 -0.6615
 7155SOL    HW233102   1.943   3.932   7.770 -0.2448 -0.4182 -0.2483
 7156SOL     OW33103   1.273   3.579   5.810  0.2810 -0.0655 -0.3356
 7156SOL    HW133104   1.321   3.508   5.766  0.6289  0.8619 -1.4391
 7156SOL    HW233105   1.291   3.545   5.897  0.7538 -1.4920 -0.9858
 7157SOL     OW33106   3.579   1.680   2.452 -0.0941 -0.0716 -0.2333
 7157SOL    HW133107   3.564   1.758   2.506  0.6202  0.3149 -0.5945
 7157SOL    HW233108   3.495   1.663   2.410 -0.8537  1.5354  0.6230
 7158SOL     OW33109   0.774   0.076   8.146  0.2269  0.5187  0.3849
 7158SOL    HW133110   0.745   4.731   8.180 -0.9022  0.6789 -0.2027
 7158SOL    HW233111   0.817   0.054   8.063 -0.7370 -0.9852  0.2804
 7159SOL     OW33112   3.448   4.301   1.646  0.0286 -0.4429 -0.1329
 7159SOL    HW133113   3.361   4.337   1.629 -0.4557 -0.4767  2.3979
 7159SOL    HW233114   3.438   4.293   1.740  0.0492  0.0619 -0.0880
 7160SOL     OW33115   3.711   1.627   9.027 -0.1864 -0.1959  0.1487
 7160SOL    HW133116   3.659   1.689   8.976  0.9816  0.4302 -0.2810
 7160SOL    HW233117   3.737   1.684   9.099  1.9434 -1.6994  0.5634
 7161SOL     OW33118   1.111   4.707   5.257 -0.8424  0.2664 -0.0080
 7161SOL    HW133119   1.078   0.025   5.326  2.2008  0.6372  1.1334
 7161SOL    HW233120   1.033   4.700   5.202 -0.6277  0.5155 -0.3429
 7162SOL     OW33121   2.335   0.456  16.063  0.1627  0.6431 -0.0705
 7162SOL    HW133122   2.284   0.375  16.061  0.4934  0.4313  0.0069
 7162SOL    HW233123   2.399   0.442  16.134 -0.7478  0.4688  0.7145
 7163SOL     OW33124   4.042   1.821   1.911  0.3262  0.5271  0.6013
 7163SOL    HW133125   4.136   1.810   1.925  0.3577 -0.5015 -0.4200
 7163SOL    HW233126   4.008   1.851   1.995  0.5031 -2.2457  1.6686
 7164SOL     OW33127   1.680   4.459   0.241 -0.3793  0.2969 -0.7911
 7164SOL    HW133128   1.607   4.444   0.300  2.0955 -0.1289  2.1528
 7164SOL    HW233129   1.717   4.374   0.220 -1.2250 -0.2577 -0.0146
 7165SOL     OW33130   2.464   3.007  12.087 -0.0610  0.1195 -0.2239
 7165SOL    HW133131   2.491   3.088  12.131  3.6254  0.0585 -2.3047
 7165SOL    HW233132   2.442   2.943  12.155 -0.2881  0.8834  0.4226
 7166SOL     OW33133   3.309   3.416   3.432 -0.1866 -0.7457 -0.3089
 7166SOL    HW133134   3.279   3.504   3.409  0.1708 -0.0326  1.8711
 7166SOL    HW233135   3.259   3.357   3.376 -1.2909  0.2550 -0.3774
 7167SOL     OW33136   3.707   3.666   3.307  0.2325 -0.9620 -0.1388
 7167SOL    HW133137   3.767   3.722   3.259  1.5068 -0.6936  1.7451
 7167SOL    HW233138   3.691   3.725   3.381  0.9264  0.0302 -0.7851
 7168SOL     OW33139   0.312   2.866   2.438 -0.0996  0.5030  0.5099
 7168SOL    HW133140   0.360   2.901   2.513  2.4109 -1.9803  0.0578
 7168SOL    HW233141   0.364   2.908   2.369  2.2760 -1.3561  1.1557
 7169SOL     OW33142   2.659   2.641   6.324  0.4858  0.2329  0.2237
 7169SOL    HW133143   2.575   2.610   6.357  0.6284 -1.1907 -0.7342
 7169SOL    HW233144   2.708   2.666   6.402 -0.4650 -0.0379  0.9038
 7170SOL     OW33145   0.398   2.702  12.762 -0.4794 -0.4274  0.0348
 7170SOL    HW133146   0.418   2.787  12.800  2.2061 -0.8070 -0.5188
 7170SOL    HW233147   0.303   2.708  12.754 -0.6448 -1.3505  1.2501
 7171SOL     OW33148   2.929   2.215   6.515  0.2719  0.0830 -0.2354
 7171SOL    HW133149   2.842   2.183   6.495  0.0559 -0.2539  1.2461
 7171SOL    HW233150   2.952   2.265   6.436  0.8038 -0.4154 -0.4009
 7172SOL     OW33151   3.631   1.184   5.551 -0.2143 -0.0406  0.5895
 7172SOL    HW133152   3.586   1.110   5.510  2.5303 -0.3084 -1.8591
 7172SOL    HW233153   3.689   1.143   5.615  1.3832  1.4463  0.0791
 7173SOL     OW33154   1.841   3.232   8.500  0.1036 -0.1405 -0.2892
 7173SOL    HW133155   1.875   3.161   8.554 -0.4570  0.0949  0.3712
 7173SOL    HW233156   1.921   3.243   8.448 -2.2855  0.9700 -3.6904
 7174SOL     OW33157   3.068   1.412   2.934  0.3406 -0.2975 -0.3881
 7174SOL    HW133158   3.132   1.482   2.947  0.4949 -0.1530 -1.9012
 7174SOL    HW233159   3.027   1.432   2.850 -0.8559  0.9584  0.4859
 7175SOL     OW33160   3.684   1.574   4.561  0.3557 -0.0676 -0.2688
 7175SOL    HW133161   3.730   1.576   4.645  1.6937 -0.4047 -1.0025
 7175SOL    HW233162   3.594   1.572   4.594  0.6401 -0.4468  0.5049
 7176SOL     OW33163   3.126   0.363   3.428 -0.5469 -0.0643  0.1379
 7176SOL    HW133164   3.115   0.308   3.350 -0.5510 -2.8181  2.1171
 7176SOL    HW233165   3.154   0.299   3.492  0.2883 -0.6310 -0.7931
 7177SOL     OW33166   4.265   2.185   5.080  1.0246 -0.3602 -0.2546
 7177SOL    HW133167   4.227   2.212   4.997  0.3918  0.9496  0.4604
 7177SOL    HW233168   4.236   2.257   5.135 -0.6006 -1.1142 -0.1283
 7178SOL     OW33169   4.525   3.128   8.023  0.0880  0.6843 -0.0809
 7178SOL    HW133170   4.546   3.072   8.098 -1.5604 -0.0903 -0.1932
 7178SOL    HW233171   4.611   3.129   7.982  0.7831  0.9154  1.3884
 7179SOL     OW33172   4.599   3.598  14.598  0.2716  0.5343  0.3104
 7179SOL    HW133173   4.676   3.607  14.655  0.1495 -1.5356  0.7753
 7179SOL    HW233174   4.595   3.688  14.566  0.4804 -0.2820 -2.0088
 7180SOL     OW33175   3.525   0.674   6.572 -0.6275 -0.6394 -0.2987
 7180SOL    HW133176   3.589   0.745   6.566 -2.2762  0.9470  1.0296
 7180SOL    HW233177   3.582   0.603   6.601  1.5535 -0.0799 -3.0991
 7181SOL     OW33178   2.682   2.813   0.638 -0.4722 -0.1128 -0.5526
 7181SOL    HW133179   2.714   2.756   0.568 -1.3674  2.5173 -3.1115
 7181SOL    HW233180   2.657   2.742   0.697 -0.3194 -0.9900 -1.5504
 7182SOL     OW33181   0.466   0.680  13.203 -0.9452  0.0036  0.0384
 7182SOL    HW133182   0.508   0.766  13.210  0.3483 -0.4518 -2.1486
 7182SOL    HW233183   0.417   0.671  13.120 -0.9404  0.6796 -0.0385
 7183SOL     OW33184   2.159   2.402   5.239 -0.2274  0.5497 -0.0667
 7183SOL    HW133185   2.231   2.350   5.203 -1.1814 -0.1688 -0.9329
 7183SOL    HW233186   2.087   2.356   5.195  0.0219 -0.9160  1.0505
 7184SOL     OW33187   4.570   3.296   4.688 -0.3041 -0.2512  0.5027
 7184SOL    HW133188   4.626   3.373   4.680 -1.5057  0.7148  1.2785
 7184SOL    HW233189   4.586   3.252   4.605  0.2262 -2.4139  1.7351
 7185SOL     OW33190   2.668   1.607   4.243  0.1253  0.3434 -0.1157
 7185SOL    HW133191   2.728   1.673   4.278  1.5237 -0.4323 -1.0749
 7185SOL    HW233192   2.697   1.611   4.153  2.0355 -1.4246  0.4351
 7186SOL     OW33193   0.836   3.921   8.856  0.2689 -0.5599  0.3313
 7186SOL    HW133194   0.773   3.915   8.927  1.6957 -0.0689  1.6173
 7186SOL    HW233195   0.775   3.914   8.782  0.3312 -1.7649  0.3964
 7187SOL     OW33196   4.516   4.499   8.813  0.2140  0.1302  0.0397
 7187SOL    HW133197   4.559   4.494   8.898  0.3452  0.5739  0.0020
 7187SOL    HW233198   4.460   4.424   8.832  0.4655 -0.0508  0.0671
 7188SOL     OW33199   2.321   0.504  16.379  0.2297 -0.7456  0.0577
 7188SOL    HW133200   2.398   0.555  16.404 -0.6335  0.7567 -0.3391
 7188SOL    HW233201   2.359   0.417  16.367 -1.9391 -1.6936  0.0174
 7189SOL     OW33202   2.935   4.236   8.757  0.3515  0.0330 -0.3823
 7189SOL    HW133203   2.892   4.314   8.721 -1.2903 -1.5407 -1.7704
 7189SOL    HW233204   2.949   4.197   8.671 -1.9180 -0.4882 -0.5126
 7190SOL     OW33205   3.491   3.868   8.591 -0.4506 -0.4216  0.1398
 7190SOL    HW133206   3.552   3.903   8.657 -1.6377 -0.8479  1.4822
 7190SOL    HW233207   3.411   3.918   8.606  1.1473  1.7218  1.5312
 7191SOL     OW33208   1.960   0.820   5.288 -0.0252 -0.7847 -0.1012
 7191SOL    HW133209   1.953   0.907   5.249 -1.8700 -1.1673 -0.6177
 7191SOL    HW233210   2.020   0.838   5.361 -0.5153  2.7458 -0.5989
 7192SOL     OW33211   0.389   1.813   8.932 -0.2869 -0.1977 -0.3665
 7192SOL    HW133212   0.297   1.797   8.910 -0.0858 -0.1694 -1.2158
 7192SOL    HW233213   0.437   1.776   8.858 -2.2665 -0.5138 -1.5041
 7193SOL     OW33214   4.018   0.893   4.694  0.3433  0.2375 -0.3077
 7193SOL    HW133215   4.029   0.922   4.785 -1.3863 -0.9493  0.2852
 7193SOL    HW233216   3.924   0.876   4.693  0.6697 -1.5145 -1.3205
 7194SOL     OW33217   1.915   1.514  10.198  0.1840 -0.2086 -0.2370
 7194SOL    HW133218   1.840   1.574  10.195  1.1775  1.0703  0.3445
 7194SOL    HW233219   1.889   1.459  10.124 -0.3407 -0.6009  0.2429
 7195SOL     OW33220   3.250   4.696   2.236 -0.1317  0.2050  0.1726
 7195SOL    HW133221   3.268   0.019   2.166  1.1903 -0.3543  0.0133
 7195SOL    HW233222   3.327   4.639   2.228  0.1302  0.4412  0.9494
 7196SOL     OW33223   4.031   3.051  11.138  0.0666 -0.3931  0.2091
 7196SOL    HW133224   4.025   3.087  11.050 -0.4026 -1.5562 -0.2234
 7196SOL    HW233225   4.004   2.960  11.124 -2.5396  0.3782  0.3223
 7197SOL     OW33226   1.041   3.591  10.068  0.3156  0.1510  0.0783
 7197SOL    HW133227   0.963   3.616  10.118 -0.9482 -1.7863 -0.9406
 7197SOL    HW233228   1.106   3.652  10.102  0.8301 -0.4729  0.2056
 7198SOL     OW33229   0.400   0.367   1.739 -0.6271  0.0183  0.1015
 7198SOL    HW133230   0.414   0.281   1.699 -2.8957  0.0794 -0.8122
 7198SOL    HW233231   0.347   0.404   1.668 -1.0915 -0.3861  0.2430
 7199SOL     OW33232   1.857   1.197   6.934 -0.4193  0.0867  0.1132
 7199SOL    HW133233   1.865   1.106   6.961 -0.8397 -1.0712 -3.5752
 7199SOL    HW233234   1.819   1.184   6.847  1.1182  1.1948 -0.7243
 7200SOL     OW33235   3.287   3.046   2.703 -0.0775  0.2008 -0.4458
 7200SOL    HW133236   3.275   2.954   2.730  0.4261  0.3067  0.1386
 7200SOL    HW233237   3.381   3.064   2.706 -0.4579  1.7347  2.3987
 7201SOL     OW33238   0.777   1.395   4.201  0.1048 -0.0410  0.3279
 7201SOL    HW133239   0.759   1.453   4.276 -2.2785  1.4874 -1.4043
 7201SOL    HW233240   0.712   1.325   4.201 -1.0463  1.0269 -0.0503
 7202SOL     OW33241   2.683   2.375   4.523  0.0202  0.0147 -0.8463
 7202SOL    HW133242   2.681   2.293   4.572 -0.3635  0.0764 -0.7541
 7202SOL    HW233243   2.597   2.370   4.481 -0.2926  0.8786 -0.3176
 7203SOL     OW33244   0.257   2.589   5.075 -0.1428  0.5280  0.6557
 7203SOL    HW133245   0.205   2.579   4.995  1.8489  1.3237 -0.7459
 7203SOL    HW233246   0.326   2.645   5.039  0.3718  0.9964  2.3776
 7204SOL     OW33247   3.921   4.099   7.194  0.0095 -0.1768  0.0366
 7204SOL    HW133248   3.846   4.042   7.208 -0.1171  0.3105  1.3993
 7204SOL    HW233249   3.986   4.043   7.236  1.0663  2.3372  1.7428
 7205SOL     OW33250   4.408   4.154   1.618 -0.6383 -0.1493 -0.4774
 7205SOL    HW133251   4.376   4.225   1.673 -2.9302 -0.3175 -1.5920
 7205SOL    HW233252   4.330   4.103   1.595 -1.5664  1.6535 -1.3313
 7206SOL     OW33253   3.426   2.647   1.584  0.0603  0.4133 -0.2399
 7206SOL    HW133254   3.390   2.669   1.670 -0.2808 -0.1165 -0.2481
 7206SOL    HW233255   3.491   2.716   1.570  1.0452 -0.6092 -0.7366
 7207SOL     OW33256   1.406   3.917   2.502 -0.1084 -0.0972 -0.7500
 7207SOL    HW133257   1.437   4.005   2.482 -0.5899  0.3111  0.3189
 7207SOL    HW233258   1.312   3.926   2.515  0.3407  2.1150  0.9058
 7208SOL     OW33259   0.339   0.214   1.445 -1.0341 -0.6179 -0.1086
 7208SOL    HW133260   0.356   0.159   1.522 -1.6294 -0.1494  0.3539
 7208SOL    HW233261   0.244   0.208   1.433 -1.0603 -0.8076  0.1866
 7209SOL     OW33262   3.684   3.470  16.197  0.2396  0.4797 -0.1910
 7209SOL    HW133263   3.668   3.452  16.104 -1.8494 -2.7758  0.8047
 7209SOL    HW233264   3.602   3.517  16.215  0.0180 -0.7350  2.0140
 7210SOL     OW33265   1.249   0.842  14.927  0.0339  0.4074  0.2142
 7210SOL    HW133266   1.255   0.751  14.957  0.5204 -0.1929 -1.6671
 7210SOL    HW233267   1.215   0.823  14.839  0.8093  2.5717 -0.5568
 7211SOL     OW33268   0.205   2.715   7.834 -0.7786 -0.4909 -0.9829
 7211SOL    HW133269   0.148   2.766   7.777  0.4660 -0.2251 -1.9986
 7211SOL    HW233270   0.148   2.643   7.862 -1.1513  0.5426  0.8539
 7212SOL     OW33271   3.730   3.785   2.375  0.0486 -0.4994 -0.0851
 7212SOL    HW133272   3.676   3.823   2.305 -0.3660 -0.3534  0.3101
 7212SOL    HW233273   3.683   3.811   2.454 -0.1761 -0.2788 -0.2900
 7213SOL     OW33274   3.407   0.310   4.301  0.4629 -0.1878 -0.1737
 7213SOL    HW133275   3.395   0.309   4.206 -1.5563 -1.1384  0.0758
 7213SOL    HW233276   3.334   0.254   4.329  0.7281  1.4488  3.8360
 7214SOL     OW33277   0.807   1.410  12.085 -0.1399  0.4533  0.4518
 7214SOL    HW133278   0.860   1.434  12.009  0.4777 -1.2148  0.3734
 7214SOL    HW233279   0.863   1.360  12.143 -1.3537 -0.2891  0.9743
 7215SOL     OW33280   3.867   2.589   4.731  0.4547 -0.4514 -0.3469
 7215SOL    HW133281   3.903   2.574   4.644 -2.7519  1.3906 -2.0114
 7215SOL    HW233282   3.796   2.525   4.734  0.0508  0.0223  0.3330
 7216SOL     OW33283   0.928   1.097   7.715 -0.7212  0.2401  0.3765
 7216SOL    HW133284   0.931   1.183   7.757 -2.8261 -0.6569  2.3727
 7216SOL    HW233285   1.015   1.066   7.739 -0.6879  0.7189  0.8938
 7217SOL     OW33286   0.637   0.555  17.057 -0.0623 -0.7601  0.1740
 7217SOL    HW133287   0.679   0.531  16.974  2.3322 -1.1770  1.5296
 7217SOL    HW233288   0.554   0.508  17.044  1.2032 -2.6073 -1.2005
 7218SOL     OW33289   0.368   2.801   3.195  0.5863 -0.4309 -0.0295
 7218SOL    HW133290   0.308   2.785   3.122  2.4435  0.5768 -1.7780
 7218SOL    HW233291   0.405   2.888   3.178  0.1429 -0.3551 -0.6321
 7219SOL     OW33292   0.872   0.134  17.351 -0.1695 -0.0114  0.2132
 7219SOL    HW133293   0.820   0.082  17.412 -1.5600 -0.9458 -1.7981
 7219SOL    HW233294   0.893   0.073  17.282  0.3276  0.9250 -0.4660
 7220SOL     OW33295   3.504   1.249   2.753  0.4259  0.2131  0.1767
 7220SOL    HW133296   3.505   1.185   2.681 -0.5425  0.3175  0.0762
 7220SOL    HW233297   3.418   1.286   2.734  1.5432  0.6935 -3.9609
 7221SOL     OW33298   1.717   1.135   9.382 -0.3589 -0.4118  0.7110
 7221SOL    HW133299   1.808   1.163   9.390 -0.6925  0.9954 -0.3775
 7221SOL    HW233300   1.694   1.219   9.342 -0.2229 -0.3625  0.7353
 7222SOL     OW33301   1.930   2.534  13.367 -0.2337  0.4002 -0.2990
 7222SOL    HW133302   1.851   2.513  13.317  0.3303 -0.2740 -0.9070
 7222SOL    HW233303   1.883   2.567  13.444 -0.7563  1.9218 -1.2858
 7223SOL     OW33304   3.009   2.788   2.864  0.0932  0.0157  0.4433
 7223SOL    HW133305   2.989   2.836   2.944  0.0495 -0.2933  0.6193
 7223SOL    HW233306   3.095   2.817   2.832  0.7124 -1.1360  1.0711
 7224SOL     OW33307   0.048   3.479   3.777  0.0823 -0.2666 -0.0479
 7224SOL    HW133308   4.712   3.463   3.720  0.0200 -2.8768  0.7958
 7224SOL    HW233309   0.004   3.501   3.859 -0.6732  0.1028 -0.5465
 7225SOL     OW33310   4.203   0.820   2.194  0.1460 -0.4019  0.0646
 7225SOL    HW133311   4.152   0.762   2.138  0.9716  0.8081 -1.9459
 7225SOL    HW233312   4.222   0.763   2.269  1.6798 -1.2654 -0.9848
 7226SOL     OW33313   2.929   3.937   7.634  0.0653  0.1823 -0.1426
 7226SOL    HW133314   3.014   3.893   7.628 -0.4226 -0.5190 -1.7987
 7226SOL    HW233315   2.959   4.028   7.638 -1.4034  0.6720 -0.3534
 7227SOL     OW33316   2.388   0.948   9.689 -0.6045 -0.0444 -0.7705
 7227SOL    HW133317   2.313   1.006   9.694  1.0972  2.0196  0.8896
 7227SOL    HW233318   2.338   0.875   9.653 -0.6995 -1.6670  2.6209
 7228SOL     OW33319   4.211   4.474   0.940  0.4407 -0.0537  0.1198
 7228SOL    HW133320   4.264   4.537   0.891  2.0546 -0.8454  0.8480
 7228SOL    HW233321   4.171   4.435   0.862  0.5842  2.8017 -1.3966
 7229SOL     OW33322   1.854   4.363  13.150  0.4830  0.2802  0.9304
 7229SOL    HW133323   1.797   4.428  13.108 -0.2702  0.7092  2.5732
 7229SOL    HW233324   1.793   4.341  13.221 -0.7516 -0.6460 -0.4140
 7230SOL     OW33325   4.143   0.494   3.148 -0.2509  1.0630 -0.4590
 7230SOL    HW133326   4.135   0.503   3.053  0.1241  2.4418 -0.3564
 7230SOL    HW233327   4.097   0.570   3.183 -1.8999  0.9846 -2.5061
 7231SOL     OW33328   3.447   4.664   6.739 -0.0536  0.0125 -0.2815
 7231SOL    HW133329   3.460   4.665   6.645  1.1708  2.7925 -0.0544
 7231SOL    HW233330   3.355   4.691   6.736 -0.6967 -2.1458 -0.3365
 7232SOL     OW33331   0.299   0.899   5.433 -0.0052  0.4361  0.4260
 7232SOL    HW133332   0.279   0.845   5.510 -0.9483 -0.3061 -0.3492
 7232SOL    HW233333   0.249   0.977   5.457 -0.5082 -0.2518  1.6255
 7233SOL     OW33334   3.393   0.617   1.715 -0.2376  0.2371 -0.0140
 7233SOL    HW133335   3.342   0.694   1.740  1.7666  0.9412  1.8434
 7233SOL    HW233336   3.423   0.633   1.626  2.5038  1.5662  1.1671
 7234SOL     OW33337   2.393   0.079  11.172  0.2285 -0.3215 -0.6689
 7234SOL    HW133338   2.471   0.130  11.194  0.9055 -0.8074 -1.9343
 7234SOL    HW233339   2.391   0.024  11.251  0.6878 -0.0194 -0.4428
 7235SOL     OW33340   3.720   2.584   6.140  0.0599 -0.0166 -0.3179
 7235SOL    HW133341   3.642   2.634   6.116 -0.1111  0.0503  0.3532
 7235SOL    HW233342   3.746   2.563   6.051  0.9765 -1.1167  0.2001
 7236SOL     OW33343   2.469   1.010  14.325 -0.1608  0.5650 -0.2034
 7236SOL    HW133344   2.446   1.066  14.399  0.8640 -1.2911  1.4981
 7236SOL    HW233345   2.558   0.999  14.359 -0.7344 -0.2934  0.9797
 7237SOL     OW33346   0.558   4.372   4.750  0.3542 -0.2666 -0.1313
 7237SOL    HW133347   0.565   4.365   4.655  1.8260 -0.4401 -0.0136
 7237SOL    HW233348   0.531   4.283   4.771  0.1218 -0.5093 -1.4284
 7238SOL     OW33349   1.696   2.032   4.487  0.2626 -0.0690  0.1515
 7238SOL    HW133350   1.741   1.965   4.539  0.9789 -0.0547 -0.4471
 7238SOL    HW233351   1.620   2.059   4.538  0.4325  2.0258 -0.7253
 7239SOL     OW33352   3.638   0.195   6.005  0.2242  0.2495  0.0751
 7239SOL    HW133353   3.711   0.133   6.019  0.5711  0.6780  0.1600
 7239SOL    HW233354   3.587   0.177   6.084  1.0501  1.5965  0.9121
 7240SOL     OW33355   0.859   0.457   8.259 -0.5321  0.1184  0.5000
 7240SOL    HW133356   0.844   0.478   8.351 -0.2817  1.0225  0.3288
 7240SOL    HW233357   0.825   0.537   8.219 -3.5090 -0.3042  2.1104
 7241SOL     OW33358   2.329   3.483   9.191  0.3729  0.3605 -0.1574
 7241SOL    HW133359   2.369   3.425   9.256  1.7444  1.8641  0.3660
 7241SOL    HW233360   2.362   3.456   9.106  1.3904  0.5682  0.1668
 7242SOL     OW33361   0.255   0.247   5.243 -0.3780  0.1155  0.3855
 7242SOL    HW133362   0.210   0.324   5.209 -0.3595  0.6492  1.6090
 7242SOL    HW233363   0.335   0.256   5.190  0.4610  0.1874  1.6771
 7243SOL     OW33364   2.041   0.298  17.083  0.0954  0.0535 -0.1985
 7243SOL    HW133365   1.974   0.365  17.102  0.6532  0.4132  0.4848
 7243SOL    HW233366   2.057   0.299  16.988  1.2747 -0.2612  0.0006
 7244SOL     OW33367   3.653   0.234  12.311 -0.4188 -0.0648 -0.4665
 7244SOL    HW133368   3.694   0.153  12.341 -1.0852  0.4057  1.6530
 7244SOL    HW233369   3.566   0.231  12.350 -0.3488  0.4057 -0.2785
 7245SOL     OW33370   3.868   2.224  15.992 -0.3929  0.4696  0.2465
 7245SOL    HW133371   3.799   2.158  16.000  0.2091 -0.0167  1.5110
 7245SOL    HW233372   3.883   2.241  16.085 -0.0845  3.0828 -0.2827
 7246SOL     OW33373   2.634   1.024  10.239 -0.0818 -0.4020  0.7557
 7246SOL    HW133374   2.726   1.034  10.217 -0.1515  3.3487  2.2598
 7246SOL    HW233375   2.595   1.095  10.189  0.0451 -1.3621 -0.7220
 7247SOL     OW33376   0.030   1.429   6.472 -0.0168  0.3544 -0.5475
 7247SOL    HW133377   0.041   1.358   6.535 -2.1897 -0.4868 -1.1308
 7247SOL    HW233378   0.098   1.489   6.502 -2.3596  1.9316  1.5666
 7248SOL     OW33379   1.171   1.015   4.026 -0.4076 -0.1056 -0.3860
 7248SOL    HW133380   1.231   1.077   4.069  1.2927 -1.6970 -0.4641
 7248SOL    HW233381   1.090   1.044   4.068  1.3343  2.6962  1.0765
 7249SOL     OW33382   1.092   0.238   3.517  0.0047 -0.3712  0.6578
 7249SOL    HW133383   1.000   0.212   3.515 -0.6698  2.1449 -2.1583
 7249SOL    HW233384   1.125   0.153   3.545  0.7001 -0.4070 -0.2435
 7250SOL     OW33385   1.101   4.141   2.881 -0.4907 -0.3621 -0.4341
 7250SOL    HW133386   1.099   4.048   2.902  2.9994 -0.2369  0.4451
 7250SOL    HW233387   1.035   4.172   2.943  0.4641 -0.1231  0.4580
 7251SOL     OW33388   0.179   0.804   3.491 -0.2113 -0.5877 -0.2051
 7251SOL    HW133389   0.201   0.737   3.556 -0.7055 -0.9323 -0.3946
 7251SOL    HW233390   0.219   0.884   3.524 -0.2093 -1.7812  2.7058
 7252SOL     OW33391   0.781   2.342  17.552  0.0593 -0.2584 -0.0169
 7252SOL    HW133392   0.873   2.323  17.533  0.8284 -0.6864  3.9783
 7252SOL    HW233393   0.745   2.254  17.564  2.0187 -0.7612  2.3114
 7253SOL     OW33394   4.117   1.418  11.833  0.8709 -0.1754  0.1225
 7253SOL    HW133395   4.092   1.331  11.802  0.1321 -0.9130  2.7818
 7253SOL    HW233396   4.082   1.482  11.771 -0.1874 -1.3180 -0.4433
 7254SOL     OW33397   4.188   2.186   5.371 -0.2616 -0.0789 -0.0674
 7254SOL    HW133398   4.125   2.193   5.443  0.4793 -2.2424  0.7677
 7254SOL    HW233399   4.228   2.102   5.391  0.7410  0.5498  0.5760
 7255SOL     OW33400   1.098   4.338   9.676  0.6692 -0.1404 -0.3077
 7255SOL    HW133401   1.078   4.422   9.634  4.8606  1.2057  0.4431
 7255SOL    HW233402   1.160   4.361   9.744  0.5911  1.0358 -0.6365
 7256SOL     OW33403   4.036   0.122   7.513  0.2453 -0.6321 -0.3274
 7256SOL    HW133404   4.042   0.215   7.489  0.7452 -0.3137  1.0490
 7256SOL    HW233405   4.085   0.102   7.592 -0.5531 -1.7655 -0.1184
 7257SOL     OW33406   0.111   2.868   4.322 -0.2590  0.1681 -0.2133
 7257SOL    HW133407   0.108   2.823   4.237  0.2082  1.0506 -0.6950
 7257SOL    HW233408   0.189   2.827   4.359  0.7797 -1.1846 -3.9039
 7258SOL     OW33409   4.408   2.562   9.394 -0.6238  0.0433 -0.3101
 7258SOL    HW133410   4.397   2.467   9.388  0.2526 -0.0601 -0.1535
 7258SOL    HW233411   4.340   2.591   9.332  1.2862  0.1159 -2.3877
 7259SOL     OW33412   1.116   4.443   5.278  0.0820  0.5836 -0.4867
 7259SOL    HW133413   1.115   4.536   5.254 -0.7567  0.5888 -0.4240
 7259SOL    HW233414   1.032   4.439   5.322  0.0353  1.2652 -0.5152
 7260SOL     OW33415   0.752   3.031   6.818 -0.3604  0.0341 -0.3394
 7260SOL    HW133416   0.677   2.997   6.769  0.1493 -1.1347 -0.3032
 7260SOL    HW233417   0.716   3.014   6.905 -1.5881 -0.1085 -0.8763
 7261SOL     OW33418   1.444   2.259   2.822 -0.3514 -0.2130 -0.4922
 7261SOL    HW133419   1.521   2.203   2.823  0.0751  0.3947  0.9033
 7261SOL    HW233420   1.471   2.329   2.762 -1.6101  0.6438 -0.0618
 7262SOL     OW33421   1.472   3.814   4.321  0.4803 -0.0925 -0.0948
 7262SOL    HW133422   1.555   3.860   4.318  0.2547  0.4389  1.6948
 7262SOL    HW233423   1.422   3.844   4.245  1.0508  1.1027 -0.0019
 7263SOL     OW33424   1.058   4.719  15.463  0.8363  0.8306 -0.0024
 7263SOL    HW133425   1.007   4.645  15.499  0.8740  1.0350  0.4743
 7263SOL    HW233426   1.014   0.054  15.504 -1.4250 -0.9510  0.8564
 7264SOL     OW33427   1.745   1.132   2.250 -0.6322  0.3348  0.1225
 7264SOL    HW133428   1.675   1.071   2.274 -0.6553 -0.0141 -0.8243
 7264SOL    HW233429   1.700   1.214   2.270 -1.5942 -0.1340 -0.1293
 7265SOL     OW33430   1.421   0.180  15.030 -0.8832  0.1436 -0.1948
 7265SOL    HW133431   1.366   0.132  14.969 -0.2864  0.3832 -0.9305
 7265SOL    HW233432   1.427   0.111  15.096 -1.9835  2.4092  2.2662
 7266SOL     OW33433   0.992   4.197   5.884  0.0639 -0.1413  0.4555
 7266SOL    HW133434   0.973   4.195   5.978 -1.6754 -0.0869  0.1062
 7266SOL    HW233435   0.925   4.248   5.839  2.1773  3.3088  1.2175
 7267SOL     OW33436   2.703   2.716  12.321 -0.2496  0.7593  0.1037
 7267SOL    HW133437   2.751   2.712  12.404  0.8494  0.2105 -0.5527
 7267SOL    HW233438   2.765   2.770  12.272  0.0240 -1.1401 -1.6024
 7268SOL     OW33439   2.859   0.709   8.432  0.2511  0.3652  0.4846
 7268SOL    HW133440   2.789   0.754   8.384  0.6966  0.3561 -0.1727
 7268SOL    HW233441   2.807   0.658   8.494  0.5196 -0.1364  0.2960
 7269SOL     OW33442   2.103   1.537   6.291 -0.7345 -0.0834  0.0563
 7269SOL    HW133443   2.112   1.442   6.289  0.5904  0.1250 -3.4276
 7269SOL    HW233444   2.153   1.554   6.211 -0.3605 -1.8606 -0.0774
 7270SOL     OW33445   4.516   0.654   4.952 -0.2561 -0.6456 -0.3553
 7270SOL    HW133446   4.594   0.709   4.960 -0.7232 -0.1218  0.6567
 7270SOL    HW233447   4.552   0.568   4.933  1.5618  0.0236  0.1307
 7271SOL     OW33448   1.665   0.654  12.680  0.2087 -0.6026  0.2871
 7271SOL    HW133449   1.713   0.728  12.718  1.1826 -0.9757 -0.2228
 7271SOL    HW233450   1.577   0.691  12.667  0.6345  0.6324  0.8641
 7272SOL     OW33451   4.563   4.515   1.904  0.5990 -0.1044 -0.1788
 7272SOL    HW133452   4.496   4.572   1.865 -0.4413 -1.5307 -0.4566
 7272SOL    HW233453   4.578   4.460   1.827 -1.7579 -0.2006 -0.5446
 7273SOL     OW33454   0.330   0.826   7.701 -0.0530 -0.2434 -0.7403
 7273SOL    HW133455   0.271   0.873   7.761 -0.7027 -1.4485 -0.4425
 7273SOL    HW233456   0.381   0.904   7.679 -0.1435 -0.4684 -1.7636
 7274SOL     OW33457   3.031   1.596   4.769 -0.0506  0.0884  0.5922
 7274SOL    HW133458   3.111   1.637   4.735 -0.8114 -0.5929 -2.0195
 7274SOL    HW233459   2.981   1.672   4.796 -1.0384 -0.5308  0.4931
 7275SOL     OW33460   0.425   3.257   5.436  0.4571  0.1157  0.5417
 7275SOL    HW133461   0.478   3.178   5.444  0.9260  0.2898 -0.9227
 7275SOL    HW233462   0.445   3.316   5.509 -0.3359  0.4376  0.4992
 7276SOL     OW33463   3.145   3.510   2.211 -0.4632  0.3405 -0.0048
 7276SOL    HW133464   3.221   3.478   2.261  0.0952  2.0225  0.2266
 7276SOL    HW233465   3.079   3.443   2.227  2.5120 -2.3261  1.0931
 7277SOL     OW33466   4.261   3.335   5.805 -0.0224  0.4711  0.4983
 7277SOL    HW133467   4.202   3.303   5.873  0.6541 -1.1592  0.3187
 7277SOL    HW233468   4.296   3.410   5.853 -0.0447  0.3832  0.6511
 7278SOL     OW33469   3.122   0.164   3.228 -0.5924  0.7261 -0.0466
 7278SOL    HW133470   3.036   0.155   3.187 -0.8562  0.0940  0.6642
 7278SOL    HW233471   3.150   0.222   3.157  1.9959 -0.4869 -0.0224
 7279SOL     OW33472   0.385   3.380   4.455 -0.5552 -0.0653 -0.4884
 7279SOL    HW133473   0.339   3.319   4.396 -1.1511  0.3710 -0.4692
 7279SOL    HW233474   0.398   3.453   4.394 -0.1551 -1.4135 -2.0383
 7280SOL     OW33475   4.733   0.133   3.898  0.5815  0.0914 -0.0699
 7280SOL    HW133476   4.662   0.075   3.925  1.6172 -1.7539 -1.3154
 7280SOL    HW233477   4.726   0.212   3.952  0.3587 -0.6705  1.0120
 7281SOL     OW33478   2.435   4.567   5.760  0.4659 -0.0639 -0.0705
 7281SOL    HW133479   2.458   4.479   5.732  0.4501 -0.1035  0.0399
 7281SOL    HW233480   2.366   4.549   5.824 -0.6871  0.3567 -1.1805
 7282SOL     OW33481   1.693   0.055   7.309 -0.0634 -0.4195 -0.4717
 7282SOL    HW133482   1.763   0.015   7.257  1.0135  0.6696  0.1167
 7282SOL    HW233483   1.716   0.148   7.304 -0.1458 -0.2658  1.9907
 7283SOL     OW33484   3.829   2.292   7.149 -0.2639 -0.0676 -0.6219
 7283SOL    HW133485   3.901   2.231   7.133  0.4724  0.5080  0.5451
 7283SOL    HW233486   3.838   2.359   7.081 -0.4133  0.0694 -0.5073
 7284SOL     OW33487   4.418   0.389   5.883 -0.3490 -0.1294 -0.3289
 7284SOL    HW133488   4.489   0.450   5.865 -0.4091 -0.3368 -1.2956
 7284SOL    HW233489   4.336   0.437   5.867 -0.4580  0.3379  1.6270
 7285SOL     OW33490   1.714   3.975   3.145  0.2414 -0.6705  0.1922
 7285SOL    HW133491   1.739   4.014   3.228 -0.7639  1.6224 -0.5849
 7285SOL    HW233492   1.793   3.935   3.108  0.3884  0.4635 -0.7062
 7286SOL     OW33493   3.722   2.072   7.372  0.1623  0.3983 -0.7127
 7286SOL    HW133494   3.716   2.168   7.365 -0.6181  0.3089 -1.2332
 7286SOL    HW233495   3.703   2.054   7.464  0.2216 -0.8245 -0.9512
 7287SOL     OW33496   0.099   2.596   5.292  0.2772  0.3842  0.2525
 7287SOL    HW133497   0.028   2.557   5.240 -0.4387  3.8920 -1.3854
 7287SOL    HW233498   0.156   2.613   5.217 -1.1256 -0.7361 -1.0891
 7288SOL     OW33499   2.396   0.052   9.149  0.6126 -0.3163 -0.2975
 7288SOL    HW133500   2.403   0.115   9.221 -1.4716 -1.6004  1.0469
 7288SOL    HW233501   2.421   0.109   9.076 -1.0361  0.6288 -0.1118
 7289SOL     OW33502   0.044   3.804   6.068  0.0748 -0.4869  0.6669
 7289SOL    HW133503   4.729   3.743   6.017 -2.5338  2.5324 -0.1917
 7289SOL    HW233504   0.123   3.751   6.067  1.0153  0.9646 -0.6957
 7290SOL     OW33505   1.341   4.363   7.788  0.2829 -0.0861 -0.2558
 7290SOL    HW133506   1.364   4.349   7.696 -2.3650  1.9303 -1.2301
 7290SOL    HW233507   1.414   4.424   7.803 -0.8433  1.0212  0.7100
 7291SOL     OW33508   2.914   3.600   1.034  0.6853 -0.4577 -0.1645
 7291SOL    HW133509   2.839   3.597   1.093 -0.8064  3.0134 -1.9177
 7291SOL    HW233510   2.888   3.682   0.992  2.5322 -1.1363 -2.6294
 7292SOL     OW33511   2.592   4.213   6.529 -1.1782 -0.3961  0.4778
 7292SOL    HW133512   2.644   4.167   6.463 -0.7923  0.0207  0.4968
 7292SOL    HW233513   2.570   4.143   6.592  1.6545 -2.6072 -1.0180
 7293SOL     OW33514   0.790   2.124   8.255 -0.7086 -0.4093  0.1928
 7293SOL    HW133515   0.859   2.058   8.268 -0.5166 -0.6972 -2.2744
 7293SOL    HW233516   0.842   2.187   8.206  2.9713 -3.1839  0.4832
 7294SOL     OW33517   0.214   4.278  16.059 -0.1113 -0.7778  0.7797
 7294SOL    HW133518   0.120   4.276  16.074 -0.1897  1.1510  0.6153
 7294SOL    HW233519   0.232   4.312  16.147  0.4090  0.1576  0.3223
 7295SOL     OW33520   0.700   2.232   8.527  0.4904  0.1889 -0.1229
 7295SOL    HW133521   0.699   2.255   8.434  0.6206 -1.3303 -0.4939
 7295SOL    HW233522   0.707   2.321   8.561 -0.9929  0.1907  0.1997
 7296SOL     OW33523   0.867   0.634   6.684 -0.1660 -0.2400 -0.6422
 7296SOL    HW133524   0.782   0.676   6.691  0.1207  0.0957  0.6513
 7296SOL    HW233525   0.848   0.568   6.751  1.3239  2.9755  2.9372
 7297SOL     OW33526   3.085   4.358   4.394  0.1996 -0.1857  0.2875
 7297SOL    HW133527   3.174   4.344   4.427  0.3648 -3.3291 -1.5239
 7297SOL    HW233528   3.092   4.356   4.299 -2.1650  0.1657  0.0907
 7298SOL     OW33529   0.735   4.574   6.288 -0.0290  0.9394 -0.3888
 7298SOL    HW133530   0.677   4.571   6.211 -0.7269 -0.0736  0.1738
 7298SOL    HW233531   0.816   4.617   6.260  2.0371 -2.2880  0.6238
 7299SOL     OW33532   3.408   1.578  13.860 -0.1705  0.3760 -0.4811
 7299SOL    HW133533   3.482   1.605  13.914  0.7692  1.7233 -2.4141
 7299SOL    HW233534   3.460   1.516  13.809  1.7658  1.5906  0.0218
 7300SOL     OW33535   1.090   1.626   9.466 -0.5156  0.6588 -0.8344
 7300SOL    HW133536   1.008   1.625   9.416  0.2078  1.2170 -2.0396
 7300SOL    HW233537   1.091   1.532   9.485  0.2899  0.9589  0.5373
 7301SOL     OW33538   2.169   2.164   5.537 -0.2744 -0.2925 -0.8825
 7301SOL    HW133539   2.102   2.232   5.537  0.7488  0.7110 -2.2408
 7301SOL    HW233540   2.130   2.101   5.476 -1.6228 -0.7098  0.4087
 7302SOL     OW33541   1.564   3.255   7.193 -0.1228  0.0078 -0.2092
 7302SOL    HW133542   1.571   3.342   7.232 -1.1951  0.8980 -2.0138
 7302SOL    HW233543   1.563   3.272   7.099 -2.6283 -4.1330 -0.9339
 7303SOL     OW33544   2.346   0.962   8.163 -0.2354  0.0082 -0.2175
 7303SOL    HW133545   2.427   0.947   8.115 -0.7694  0.5224 -1.2775
 7303SOL    HW233546   2.375   0.952   8.253  1.2629 -0.9470 -0.8033
 7304SOL     OW33547   2.779   0.060   0.617  0.0724 -0.6951 -0.2604
 7304SOL    HW133548   2.801   0.043   0.709 -1.1501  0.0763  0.1800
 7304SOL    HW233549   2.806   4.720   0.572 -0.1053 -1.4139  0.9090
 7305SOL     OW33550   0.831   1.642  13.070 -0.0688 -0.5330 -0.0753
 7305SOL    HW133551   0.769   1.575  13.097 -0.7316 -0.3571 -1.2034
 7305SOL    HW233552   0.783   1.682  12.999  3.1979  3.7956  0.1298
 7306SOL     OW33553   0.041   0.021   3.083 -0.1069 -0.2355  0.0358
 7306SOL    HW133554   0.028   0.085   3.013  1.2969 -0.1451 -0.1542
 7306SOL    HW233555   0.046   0.070   3.165 -0.0234 -2.1195  1.1629
 7307SOL     OW33556   0.051   1.112   2.441  0.3111 -0.1621 -0.8922
 7307SOL    HW133557   0.102   1.033   2.459  0.7032  0.0674 -0.9923
 7307SOL    HW233558   0.118   1.167   2.402 -0.8466  2.3269  0.5826
 7308SOL     OW33559   2.016   4.300   3.790 -0.1333  1.0938 -0.2659
 7308SOL    HW133560   2.021   4.317   3.695  1.7400 -0.9417 -0.5306
 7308SOL    HW233561   2.023   4.384   3.835 -1.0269  1.0942 -0.1223
 7309SOL     OW33562   1.973   4.308   4.344  0.1145 -0.0632  0.1093
 7309SOL    HW133563   1.986   4.244   4.414  0.2054 -1.2108 -0.9647
 7309SOL    HW233564   1.885   4.286   4.312 -0.4103  0.3571  1.2184
 7310SOL     OW33565   1.769   4.036  17.575  0.1331 -0.3698  0.5240
 7310SOL    HW133566   1.852   4.071  17.544  0.1483 -0.2816  0.6624
 7310SOL    HW233567   1.758   3.960  17.519  4.2039 -2.2042  2.2264
 7311SOL     OW33568   1.911   2.154   6.270  0.0154 -0.0536  0.2090
 7311SOL    HW133569   1.957   2.092   6.213  2.1539  0.2536  1.6011
 7311SOL    HW233570   1.966   2.231   6.260  0.0329  0.0980  1.4020
 7312SOL     OW33571   2.539   3.907   3.688  0.2440 -0.3897 -0.4485
 7312SOL    HW133572   2.575   3.907   3.599 -1.3263 -0.3824 -1.0857
 7312SOL    HW233573   2.502   3.995   3.695  0.1682 -0.2943 -1.9598
 7313SOL     OW33574   2.241   2.759   7.311 -0.3984  0.3658 -0.0587
 7313SOL    HW133575   2.206   2.672   7.332  2.6244 -0.7749  0.2502
 7313SOL    HW233576   2.189   2.779   7.233 -0.7052  1.5930  0.4623
 7314SOL     OW33577   2.240   1.638   9.667  0.1613 -0.5349 -1.1631
 7314SOL    HW133578   2.319   1.640   9.613  1.0302 -0.2710  0.1269
 7314SOL    HW233579   2.280   1.610   9.749  0.4168 -0.4706 -1.2667
 7315SOL     OW33580   3.592   0.059   2.105  0.1566 -0.3096 -0.1579
 7315SOL    HW133581   3.684   0.044   2.129  0.1133  1.1770  0.9416
 7315SOL    HW233582   3.601   0.153   2.095  0.3908 -0.2346  0.7174
 7316SOL     OW33583   2.003   3.495   2.279 -0.1205 -0.0740  0.5931
 7316SOL    HW133584   2.006   3.405   2.312  1.6375  0.3209  1.5456
 7316SOL    HW233585   2.040   3.470   2.195 -0.6103  1.4456 -0.0744
 7317SOL     OW33586   1.360   3.867   8.747  0.1034  0.1538  0.6725
 7317SOL    HW133587   1.425   3.808   8.783 -2.6550 -1.6395  2.7196
 7317SOL    HW233588   1.362   3.853   8.652 -2.0737  1.1200  0.4761
 7318SOL     OW33589   4.589   3.740   8.593  0.1344  0.0562 -0.4005
 7318SOL    HW133590   4.519   3.683   8.561 -0.2637  0.0695  0.4636
 7318SOL    HW233591   4.611   3.689   8.671 -1.3072 -2.4074 -1.6167
 7319SOL     OW33592   3.602   3.638   7.221 -0.0529 -0.5055  0.0001
 7319SOL    HW133593   3.597   3.564   7.161  3.3018 -0.5285 -0.2558
 7319SOL    HW233594   3.541   3.701   7.182  0.1576 -1.0360 -1.1837
 7320SOL     OW33595   0.947   2.049   3.785  0.6138 -0.3643  0.0823
 7320SOL    HW133596   1.012   2.042   3.855 -0.7942 -1.9724  1.2259
 7320SOL    HW233597   0.916   1.960   3.768  1.3659 -0.6511  0.2228
 7321SOL     OW33598   0.347   4.403   2.168  0.3209  0.3381  0.5090
 7321SOL    HW133599   0.436   4.368   2.169  0.0884 -0.2736 -0.0408
 7321SOL    HW233600   0.324   4.414   2.261  1.4842 -0.1770  0.8478
 7322SOL     OW33601   0.925   1.935  16.380  0.1967 -0.0713 -0.2630
 7322SOL    HW133602   0.925   1.864  16.315 -2.3587  0.4469 -0.8217
 7322SOL    HW233603   0.893   2.015  16.338 -0.8752 -0.9449 -1.1208
 7323SOL     OW33604   1.787   3.216   7.397 -0.4026 -0.3349 -0.3097
 7323SOL    HW133605   1.745   3.200   7.312  0.3523 -0.3308 -0.6830
 7323SOL    HW233606   1.709   3.245   7.445  1.3479  0.1162  2.2687
 7324SOL     OW33607   2.435   1.711   2.075 -0.2804  0.2831  0.6298
 7324SOL    HW133608   2.404   1.633   2.122 -0.8263  0.6204  0.8315
 7324SOL    HW233609   2.357   1.766   2.084 -2.0103 -2.4751  2.9163
 7325SOL     OW33610   4.638   2.747   8.937  0.1702  0.4069 -0.2536
 7325SOL    HW133611   4.709   2.689   8.909  0.4527  0.6216  0.0109
 7325SOL    HW233612   4.567   2.691   8.967 -1.8056  2.5517 -0.9762
 7326SOL     OW33613   4.544   0.715   6.734  0.1301  0.4254  0.1322
 7326SOL    HW133614   4.451   0.718   6.710 -0.3642 -3.2831  1.5979
 7326SOL    HW233615   4.552   0.792   6.789 -1.8488 -0.5472  1.7682
 7327SOL     OW33616   4.196   2.213   4.483 -0.0463 -0.8108  0.4409
 7327SOL    HW133617   4.287   2.235   4.503 -0.4580  2.2624 -1.0132
 7327SOL    HW233618   4.159   2.301   4.471  5.0569  1.1214 -0.8032
 7328SOL     OW33619   2.567   2.062   6.127  0.0397 -0.2472 -0.1091
 7328SOL    HW133620   2.582   2.156   6.136  0.8952 -0.3314 -0.5946
 7328SOL    HW233621   2.513   2.060   6.048  1.2295  1.5340 -0.9736
 7329SOL     OW33622   0.100   2.472  17.332 -1.1087  0.2932  0.4768
 7329SOL    HW133623   0.089   2.416  17.256  0.2045 -0.3048  0.7420
 7329SOL    HW233624   0.194   2.483  17.345 -0.6957 -1.4178 -1.2072
 7330SOL     OW33625   4.078   2.898   0.210 -0.0163  0.5940  0.1872
 7330SOL    HW133626   4.156   2.918   0.158  0.7499  0.8425  1.4553
 7330SOL    HW233627   4.060   2.810   0.177 -0.1319 -0.3228  2.6981
 7331SOL     OW33628   0.675   0.034  17.543  0.0257  0.5990  0.2099
 7331SOL    HW133629   0.671   0.089  17.621 -0.5043  1.8881 -0.7098
 7331SOL    HW233630   0.583   0.041  17.516 -0.4941 -0.0025  1.8645
 7332SOL     OW33631   3.409   1.574  14.440 -0.5523  0.4112  0.0461
 7332SOL    HW133632   3.454   1.490  14.453 -0.7534  0.3383  0.2718
 7332SOL    HW233633   3.489   1.623  14.421 -0.1712 -0.3128 -0.2256
 7333SOL     OW33634   4.032   1.991   5.196 -0.6523 -0.6410 -0.3159
 7333SOL    HW133635   4.079   2.070   5.225 -0.8510 -0.7059  0.1907
 7333SOL    HW233636   3.961   1.982   5.260 -0.1909  2.0255  0.5858
 7334SOL     OW33637   3.506   1.030   6.059  0.0447 -0.2234 -0.5071
 7334SOL    HW133638   3.490   1.073   6.143 -1.4249  1.0750 -1.4576
 7334SOL    HW233639   3.492   1.100   5.996 -1.2645  0.2193  0.2802
 7335SOL     OW33640   3.688   0.672   9.383  0.0489  0.0153 -0.1099
 7335SOL    HW133641   3.691   0.692   9.476 -0.0104  0.5940 -0.2341
 7335SOL    HW233642   3.776   0.635   9.374  0.1479 -0.3159  2.3700
 7336SOL     OW33643   0.587   0.560   0.995  0.2566  0.0836  0.4404
 7336SOL    HW133644   0.620   0.527   1.079 -1.0948  1.5209  1.5393
 7336SOL    HW233645   0.596   0.484   0.937 -0.3488  1.3928 -1.3599
 7337SOL     OW33646   3.769   1.348   0.094  0.6910  0.5660 -0.1985
 7337SOL    HW133647   3.802   1.381   0.178  0.1672  0.6756 -0.0360
 7337SOL    HW233648   3.851   1.339   0.046 -0.6745  2.0805 -2.8031
 7338SOL     OW33649   1.083   0.415   6.372  0.5000  0.7746 -0.3825
 7338SOL    HW133650   1.083   0.463   6.455  0.8548  3.3387 -1.8594
 7338SOL    HW233651   1.165   0.369   6.388  0.3194  0.0623 -1.5625
 7339SOL     OW33652   2.116   1.430  16.824  0.6982 -0.5168  0.2225
 7339SOL    HW133653   2.122   1.388  16.738  3.6650 -2.1392  1.2275
 7339SOL    HW233654   2.087   1.353  16.872 -0.1478  0.3774  1.1495
 7340SOL     OW33655   4.089   1.492   7.426  0.4520  0.3404  0.1172
 7340SOL    HW133656   4.095   1.582   7.457  0.5463  0.2810  0.2726
 7340SOL    HW233657   4.098   1.507   7.331 -0.6878 -4.0463 -0.6734
 7341SOL     OW33658   0.014   3.679   2.636 -0.2285 -0.0554  0.0502
 7341SOL    HW133659   0.092   3.728   2.663  0.4750 -0.2938 -1.5546
 7341SOL    HW233660   0.033   3.673   2.542 -1.6391  1.3567 -0.3205
 7342SOL     OW33661   0.841   4.442   6.970 -0.0757 -0.6439  0.0506
 7342SOL    HW133662   0.798   4.358   6.958 -0.4238 -0.5067  0.3401
 7342SOL    HW233663   0.858   4.493   6.892 -1.8211  1.4468  1.0514
 7343SOL     OW33664   3.034   3.307  11.992  0.1454 -0.6963  0.0851
 7343SOL    HW133665   2.955   3.271  12.032  1.7388 -3.7508  0.5099
 7343SOL    HW233666   3.074   3.345  12.070  1.4100 -0.3281 -0.7373
 7344SOL     OW33667   2.306   2.989  14.218 -0.3743  0.2217 -0.2237
 7344SOL    HW133668   2.311   2.928  14.144  2.9269 -0.5947  0.6422
 7344SOL    HW233669   2.220   3.018  14.187  0.4624  1.5988 -1.3270
 7345SOL     OW33670   3.584   2.882   1.592  0.1593 -0.3118 -0.2313
 7345SOL    HW133671   3.671   2.843   1.581 -0.0030 -0.0937 -2.2544
 7345SOL    HW233672   3.599   2.952   1.655  0.5565 -0.1799 -0.4735
 7346SOL     OW33673   2.659   3.805   9.633 -0.4170  0.4779 -0.0439
 7346SOL    HW133674   2.737   3.854   9.659 -0.3045  0.6386 -0.6933
 7346SOL    HW233675   2.645   3.748   9.709  0.6262  0.1741 -0.0817
 7347SOL     OW33676   3.298   4.663  11.294 -0.0986 -0.1630  0.0347
 7347SOL    HW133677   3.284   0.017  11.308 -1.7336 -0.8367  2.8133
 7347SOL    HW233678   3.228   4.629  11.350  1.1755 -0.7580  1.2539
 7348SOL     OW33679   2.456   0.720   7.807  0.4944  0.1486 -0.8615
 7348SOL    HW133680   2.413   0.781   7.748  0.8250  1.0569 -0.1550
 7348SOL    HW233681   2.482   0.654   7.742  1.7345  0.6935 -0.9167
 7349SOL     OW33682   0.495   3.620  14.493  0.5139  0.1437 -0.6849
 7349SOL    HW133683   0.500   3.545  14.552 -1.6680 -1.1227 -2.0989
 7349SOL    HW233684   0.424   3.670  14.534 -0.8516 -2.4491  0.1001
 7350SOL     OW33685   2.591   3.471   3.045 -0.7604 -0.2457 -0.1640
 7350SOL    HW133686   2.585   3.384   3.084  1.1658  0.2411  1.1798
 7350SOL    HW233687   2.527   3.524   3.093  0.9928  0.9955  0.8334
 7351SOL     OW33688   0.407   2.150   7.617  0.4066 -0.1574  0.0219
 7351SOL    HW133689   0.361   2.159   7.534  0.0918 -0.1679  0.1929
 7351SOL    HW233690   0.416   2.054   7.615 -1.4831 -0.4437  3.3738
 7352SOL     OW33691   3.090   1.819   3.229  0.2453  0.8939  0.1730
 7352SOL    HW133692   3.111   1.784   3.316 -0.3102  0.9556  0.3345
 7352SOL    HW233693   2.998   1.839   3.243 -0.3582 -1.5439 -0.2975
 7353SOL     OW33694   0.148   2.787   9.606 -0.3636 -0.3436  0.3970
 7353SOL    HW133695   0.112   2.763   9.691  1.3830 -0.0323  1.2149
 7353SOL    HW233696   0.074   2.836   9.569  1.2926 -1.0481 -3.9434
 7354SOL     OW33697   0.239   3.196   4.765 -0.2627  0.2422  0.4149
 7354SOL    HW133698   0.183   3.196   4.687  0.2198  2.5521  0.0891
 7354SOL    HW233699   0.170   3.155   4.817 -0.2136  0.3491  0.5656
 7355SOL     OW33700   2.856   0.479   3.826 -0.4038 -0.2107  0.2169
 7355SOL    HW133701   2.916   0.510   3.758 -0.9952 -0.0852 -0.2468
 7355SOL    HW233702   2.902   0.401   3.858  1.9575  0.3644 -1.8100
 7356SOL     OW33703   1.232   4.580  14.761 -1.2811 -0.4991  0.2934
 7356SOL    HW133704   1.225   4.513  14.693  1.1974  1.1015 -1.5140
 7356SOL    HW233705   1.304   4.637  14.735 -0.9170 -0.2507  1.8315
 7357SOL     OW33706   3.539   1.880   7.556 -0.6656 -0.1567  0.5356
 7357SOL    HW133707   3.451   1.909   7.531 -0.2397  1.5026  1.0166
 7357SOL    HW233708   3.530   1.875   7.651 -1.8075 -2.2440  0.3171
 7358SOL     OW33709   3.755   0.028   8.045 -0.1689  0.8455 -0.3156
 7358SOL    HW133710   3.820   0.083   8.000  1.9910 -0.2300  1.4776
 7358SOL    HW233711   3.726   0.091   8.110  0.2767  0.4759  0.2414
 7359SOL     OW33712   3.795   1.831   9.867 -0.0332 -0.0454 -0.1682
 7359SOL    HW133713   3.783   1.761   9.803  0.7312 -1.1666  0.9101
 7359SOL    HW233714   3.811   1.783   9.949  0.8889  0.4602 -0.0459
 7360SOL     OW33715   0.741   3.894   3.391 -0.1813 -0.1875  0.0308
 7360SOL    HW133716   0.751   3.799   3.387 -0.1195 -0.0618 -2.3984
 7360SOL    HW233717   0.653   3.914   3.422  0.7950  2.2292  1.2941
 7361SOL     OW33718   3.903   3.947   8.549 -0.0933 -0.4264  0.5256
 7361SOL    HW133719   3.920   4.025   8.601 -0.8009 -0.2333  0.4566
 7361SOL    HW233720   3.844   3.891   8.598 -1.0296 -0.9331 -1.1816
 7362SOL     OW33721   4.353   4.298  11.258  0.0283 -0.7405  0.2901
 7362SOL    HW133722   4.262   4.269  11.256  0.3417 -1.6441 -0.6126
 7362SOL    HW233723   4.368   4.324  11.349  1.4338  0.2285 -0.2254
 7363SOL     OW33724   4.650   2.506   4.067  0.7964 -0.3532 -0.1098
 7363SOL    HW133725   4.628   2.569   3.999  2.6085  0.0784 -0.2935
 7363SOL    HW233726   4.654   2.425   4.015  0.6273 -0.8121  0.5921
 7364SOL     OW33727   1.945   0.102  15.534  0.0391 -0.1408 -0.1836
 7364SOL    HW133728   1.969   0.190  15.503 -1.4041  0.3254  0.0218
 7364SOL    HW233729   1.878   0.080  15.470 -0.7286  1.5081  0.0396
 7365SOL     OW33730   1.171   2.252   4.757  0.1631 -0.2530 -0.1921
 7365SOL    HW133731   1.155   2.343   4.734  3.2992  0.5890  1.0288
 7365SOL    HW233732   1.090   2.221   4.798  1.4422 -1.6314  1.2890
 7366SOL     OW33733   4.164   1.352   8.082  0.1396 -0.3700 -0.1828
 7366SOL    HW133734   4.156   1.425   8.144  0.9545  0.9668 -1.6500
 7366SOL    HW233735   4.081   1.311   8.107  0.3708 -0.3690  0.6057
 7367SOL     OW33736   4.349   3.735   1.536  0.1313 -0.0535 -0.8112
 7367SOL    HW133737   4.256   3.726   1.517 -0.2102  0.2510  0.7547
 7367SOL    HW233738   4.350   3.827   1.560 -1.3827 -0.1330 -0.4525
 7368SOL     OW33739   2.213   2.117   8.016 -1.1566 -0.3129  0.6081
 7368SOL    HW133740   2.217   2.153   8.105 -0.2711  0.4861  0.2444
 7368SOL    HW233741   2.170   2.034   8.036 -1.1645 -0.3871  0.2773
 7369SOL     OW33742   0.244   0.721   0.465 -0.0813  0.3818  0.5487
 7369SOL    HW133743   0.189   0.714   0.543 -0.9257 -0.0083 -0.0828
 7369SOL    HW233744   0.317   0.663   0.486 -1.8368 -2.0765 -0.1018
 7370SOL     OW33745   2.403   2.897   8.606 -0.2860 -0.3033 -0.1463
 7370SOL    HW133746   2.482   2.928   8.561 -1.1464 -0.3395 -1.7004
 7370SOL    HW233747   2.346   2.864   8.536 -0.8501 -0.2519  0.2912
 7371SOL     OW33748   0.988   2.652  16.697 -0.1245  0.0195  0.4059
 7371SOL    HW133749   0.921   2.596  16.658 -0.0174 -0.2043  0.5461
 7371SOL    HW233750   1.001   2.716  16.627 -0.4691  2.1439  2.3097
 7372SOL     OW33751   4.285   3.287  16.236  0.4237 -0.3429 -0.2294
 7372SOL    HW133752   4.193   3.268  16.220  0.3781 -1.7743  1.8155
 7372SOL    HW233753   4.312   3.218  16.296  0.0246 -0.0297  0.3127
 7373SOL     OW33754   0.822   4.173   5.012 -0.4578  0.2764 -0.4007
 7373SOL    HW133755   0.823   4.269   5.019  2.1788  0.0740  1.7309
 7373SOL    HW233756   0.861   4.155   4.926  0.6127  0.7478 -0.0104
 7374SOL     OW33757   0.671   3.203   4.294 -0.6893  0.5243 -0.3297
 7374SOL    HW133758   0.706   3.292   4.288 -0.8543  0.6264  0.1946
 7374SOL    HW233759   0.672   3.192   4.199 -0.2174 -1.2996 -0.1018
 7375SOL     OW33760   1.673   0.379   4.781 -0.3866 -0.3097  0.2114
 7375SOL    HW133761   1.723   0.395   4.861 -0.4285  1.7460 -0.1527
 7375SOL    HW233762   1.587   0.355   4.816 -1.7715  0.6576 -2.5557
 7376SOL     OW33763   0.683   0.285   0.231 -0.0946 -0.3603 -0.0989
 7376SOL    HW133764   0.712   0.367   0.189  0.7860 -0.3915  0.4477
 7376SOL    HW233765   0.603   0.258   0.187 -0.8743  2.9861 -0.7495
 7377SOL     OW33766   2.830   1.865   7.242 -0.1163 -0.2649  0.3326
 7377SOL    HW133767   2.794   1.778   7.223 -1.0155  0.4566 -1.2278
 7377SOL    HW233768   2.755   1.924   7.239  0.1103 -0.0464 -0.9808
 7378SOL     OW33769   0.373   2.220   5.211 -0.1085 -0.0054 -0.4560
 7378SOL    HW133770   0.431   2.157   5.253 -0.2667  0.5611  0.6216
 7378SOL    HW233771   0.316   2.255   5.279  1.9698  1.7508  0.4084
 7379SOL     OW33772   4.639   3.597   4.438 -0.2279 -0.1808  0.0253
 7379SOL    HW133773   4.649   3.579   4.531  2.1233 -0.9388 -0.3575
 7379SOL    HW233774   4.585   3.523   4.407 -0.6504 -0.0485  0.4539
 7380SOL     OW33775   3.855   2.842   1.625  0.1281 -0.0272  0.1884
 7380SOL    HW133776   3.875   2.931   1.655 -2.1420 -0.4436  2.9241
 7380SOL    HW233777   3.928   2.830   1.565 -0.2593 -1.0048 -0.0781
 7381SOL     OW33778   1.791   4.019   8.186 -0.0477 -0.8333  0.1335
 7381SOL    HW133779   1.711   4.005   8.237  0.0861  0.4547  0.6997
 7381SOL    HW233780   1.774   3.953   8.119 -1.2067  1.3921 -1.7875
 7382SOL     OW33781   2.190   1.740   7.189  0.5211 -0.1402 -0.2366
 7382SOL    HW133782   2.263   1.699   7.141  1.0803  1.0029 -0.3651
 7382SOL    HW233783   2.121   1.736   7.123  0.6950 -0.2765 -0.4106
 7383SOL     OW33784   4.317   0.901   2.563 -0.4056 -0.3145 -0.0267
 7383SOL    HW133785   4.405   0.890   2.526 -0.2914 -3.0727  1.0866
 7383SOL    HW233786   4.315   0.823   2.618 -0.1506 -1.0980 -1.1093
 7384SOL     OW33787   4.107   1.008   4.933 -0.3205 -0.3592  0.0389
 7384SOL    HW133788   4.182   1.066   4.922 -1.0066  0.3231 -0.9557
 7384SOL    HW233789   4.145   0.940   4.988 -1.1045 -1.0051 -0.2155
 7385SOL     OW33790   2.197   0.868   7.936  0.2518  0.1972  0.1622
 7385SOL    HW133791   2.241   0.916   8.006  1.3455 -0.9513  0.2548
 7385SOL    HW233792   2.259   0.868   7.863 -0.7096 -3.4535 -0.6391
 7386SOL     OW33793   4.291   3.043   4.522  0.1993  0.3227  0.6704
 7386SOL    HW133794   4.221   3.068   4.462  0.4309 -0.0030  0.2585
 7386SOL    HW233795   4.256   2.963   4.561  0.3880 -0.1284 -0.0814
 7387SOL     OW33796   3.103   3.591   9.565 -0.1910  0.4102 -0.1040
 7387SOL    HW133797   3.180   3.555   9.609 -0.1420  1.7336  0.8968
 7387SOL    HW233798   3.105   3.687   9.563 -2.2865  0.4672  0.5252
 7388SOL     OW33799   4.678   0.818  11.123  0.0333 -0.0618  0.0344
 7388SOL    HW133800   4.638   0.905  11.121 -0.2667 -0.1769  0.7637
 7388SOL    HW233801   4.737   0.828  11.048  1.6421 -1.1144  1.1517
 7389SOL     OW33802   2.872   2.153   2.831 -0.3908 -0.1823  0.1061
 7389SOL    HW133803   2.796   2.101   2.807  1.0322 -1.6788 -1.1699
 7389SOL    HW233804   2.829   2.221   2.882  0.3309  0.2731  0.1121
 7390SOL     OW33805   2.635   0.299  12.013 -0.3701 -0.4818  0.0621
 7390SOL    HW133806   2.661   0.390  12.029 -1.7280 -0.2722  1.0700
 7390SOL    HW233807   2.569   0.288  12.081 -1.1370  0.8283 -0.4865
 7391SOL     OW33808   3.082   3.241   8.602  0.0978  0.4863  0.2542
 7391SOL    HW133809   3.155   3.218   8.659 -0.2729  0.9547  0.9171
 7391SOL    HW233810   3.106   3.182   8.530  0.2411  2.0626 -0.9998
 7392SOL     OW33811   1.345   1.482   7.880 -0.2418  0.4587 -0.0753
 7392SOL    HW133812   1.299   1.460   7.799  1.3419  2.8474 -1.6192
 7392SOL    HW233813   1.349   1.576   7.862  1.2752  0.5133  0.5648
 7393SOL     OW33814   3.180   1.150   1.459 -0.5021 -0.5433 -0.4735
 7393SOL    HW133815   3.155   1.186   1.543  1.4209 -0.4478  0.0712
 7393SOL    HW233816   3.227   1.219   1.412 -1.1227  0.8094  0.9330
 7394SOL     OW33817   3.839   4.425   8.887 -0.0499 -0.1486 -0.7489
 7394SOL    HW133818   3.765   4.373   8.917 -0.7954  2.2668  1.6054
 7394SOL    HW233819   3.904   4.357   8.909  0.5107  0.1601 -1.4599
 7395SOL     OW33820   0.147   0.477   5.184  0.7389  0.2118  0.3921
 7395SOL    HW133821   0.075   0.536   5.207 -0.1166  0.4060 -2.7519
 7395SOL    HW233822   0.223   0.523   5.218  0.5226  2.0969 -1.6833
 7396SOL     OW33823   2.685   3.097   6.060 -0.0297  0.2830  0.1879
 7396SOL    HW133824   2.646   3.137   5.982 -0.2580 -1.0470 -0.3741
 7396SOL    HW233825   2.663   3.004   6.051 -0.3062  0.3142  0.5234
 7397SOL     OW33826   2.611   3.016   5.693 -0.6386 -0.7936  0.0676
 7397SOL    HW133827   2.698   3.055   5.684 -0.7931 -1.0001 -2.1077
 7397SOL    HW233828   2.550   3.088   5.709 -1.5384 -1.8782  1.5293
 7398SOL     OW33829   2.465   0.351  17.299 -0.0428 -0.3934  0.3483
 7398SOL    HW133830   2.475   0.317  17.388  0.3878  0.4736  0.6296
 7398SOL    HW233831   2.476   0.270  17.249 -0.3444  1.1977 -2.3213
 7399SOL     OW33832   1.651   3.282  15.059 -0.2383  0.4543  0.2127
 7399SOL    HW133833   1.626   3.275  15.151 -2.9951  0.0245 -0.5607
 7399SOL    HW233834   1.743   3.308  15.065 -0.4067  1.1658 -0.2549
 7400SOL     OW33835   0.791   1.143   8.790  0.4096  0.7821  0.1699
 7400SOL    HW133836   0.845   1.206   8.743  0.5762 -0.7267 -1.6745
 7400SOL    HW233837   0.801   1.178   8.879 -0.9380  0.3449  0.4929
 7401SOL     OW33838   2.816   0.750   4.480  0.1731  0.1469 -0.2529
 7401SOL    HW133839   2.782   0.662   4.460 -0.2787 -0.3423  2.7303
 7401SOL    HW233840   2.736   0.802   4.479 -0.6406 -1.0532  1.4604
 7402SOL     OW33841   3.595   2.167   9.628  0.5759  0.2214  0.5031
 7402SOL    HW133842   3.645   2.249   9.630  1.2304 -0.1593  0.0093
 7402SOL    HW233843   3.665   2.109   9.599 -0.5422 -1.1386  0.5683
 7403SOL     OW33844   0.096   3.304  15.778  0.5675  0.0890 -0.2957
 7403SOL    HW133845   0.037   3.250  15.725 -0.2045  0.1558  0.4997
 7403SOL    HW233846   0.032   3.315  15.849  0.2506 -0.1622 -0.5409
 7404SOL     OW33847   0.045   4.078   6.655  0.2176 -0.1023 -0.6211
 7404SOL    HW133848   0.116   4.140   6.640  0.4022 -0.1363  0.0879
 7404SOL    HW233849   0.034   4.104   6.747  1.4042  0.5739 -0.6721
 7405SOL     OW33850   0.686   2.878   2.087 -0.0879  0.3556 -0.2825
 7405SOL    HW133851   0.640   2.794   2.088 -0.6849  0.6692 -1.4566
 7405SOL    HW233852   0.778   2.851   2.092 -0.0279  0.4825 -0.6495
 7406SOL     OW33853   0.393   3.227  17.105  0.3820  0.6094  0.1632
 7406SOL    HW133854   0.477   3.196  17.073 -1.6356 -1.9235 -2.6962
 7406SOL    HW233855   0.391   3.311  17.060  1.3986  0.7392  0.3688
 7407SOL     OW33856   4.563   2.565   7.846  0.5822 -0.6904 -0.4678
 7407SOL    HW133857   4.628   2.518   7.897 -1.8373 -0.1416  3.1402
 7407SOL    HW233858   4.479   2.529   7.875  0.3700 -0.2508 -0.5224
 7408SOL     OW33859   3.851   3.564   1.300  0.0127  0.1751 -0.0978
 7408SOL    HW133860   3.832   3.576   1.393 -3.1236 -1.3714 -0.5337
 7408SOL    HW233861   3.884   3.475   1.296  0.4930  0.4382 -1.7407
 7409SOL     OW33862   1.612   0.050  14.205  0.4264  0.0598 -0.0410
 7409SOL    HW133863   1.575   0.015  14.287  2.2141 -0.9829  0.3038
 7409SOL    HW233864   1.613   4.709  14.154 -1.3091  0.5278 -0.8086
 7410SOL     OW33865   3.246   0.252   4.752 -0.1261 -1.0366  0.2012
 7410SOL    HW133866   3.290   0.175   4.717  0.9412 -0.2185 -0.2807
 7410SOL    HW233867   3.172   0.209   4.795 -0.7127  0.5426  0.7662
 7411SOL     OW33868   0.601   1.855   9.119 -0.1766  0.0197 -0.0981
 7411SOL    HW133869   0.543   1.837   9.044 -1.4499  1.5203  0.5285
 7411SOL    HW233870   0.569   1.937   9.155 -1.4992  0.2503 -1.7638
 7412SOL     OW33871   3.347   2.272  11.000 -0.2277 -0.4918  0.3724
 7412SOL    HW133872   3.266   2.227  11.022  0.2162 -0.8109  1.3925
 7412SOL    HW233873   3.396   2.287  11.081  0.5057 -1.5523  0.1147
 7413SOL     OW33874   1.122   0.710   1.487  0.1777  0.0082 -0.2402
 7413SOL    HW133875   1.080   0.756   1.414 -1.4486 -1.4242 -0.2137
 7413SOL    HW233876   1.114   0.774   1.558 -0.8441 -0.3432 -0.0373
 7414SOL     OW33877   4.003   1.453   5.679 -0.3446 -0.1258  0.1042
 7414SOL    HW133878   4.012   1.422   5.770 -0.6069 -2.9850 -0.8458
 7414SOL    HW233879   4.064   1.527   5.681 -0.2157 -0.2502  0.8111
 7415SOL     OW33880   1.140   1.901   5.823  0.1665  0.1898 -0.2650
 7415SOL    HW133881   1.223   1.926   5.864  0.3876 -0.7006 -0.1616
 7415SOL    HW233882   1.125   1.978   5.768  3.8289  0.5291 -0.7732
 7416SOL     OW33883   0.963   0.147   8.875 -0.0193  0.2140 -0.1440
 7416SOL    HW133884   1.047   0.123   8.837 -0.5365  0.2570 -1.2909
 7416SOL    HW233885   0.926   0.194   8.800  1.9120  0.7189 -0.7926
 7417SOL     OW33886   1.576   0.119  13.538  0.1778 -0.0985 -0.1932
 7417SOL    HW133887   1.634   0.195  13.527 -0.1391  0.3633  1.2391
 7417SOL    HW233888   1.486   0.151  13.546  0.2459 -0.3422  1.6856
 7418SOL     OW33889   1.534   4.436   4.704 -0.0352  0.1168  0.2422
 7418SOL    HW133890   1.467   4.411   4.767  0.1321  2.5787  1.4045
 7418SOL    HW233891   1.508   4.524   4.678  1.1269  1.1026  2.3415
 7419SOL     OW33892   1.261   4.599   6.647  0.2005 -0.2706 -0.5583
 7419SOL    HW133893   1.239   4.525   6.703 -0.9220  1.9278  1.9173
 7419SOL    HW233894   1.203   4.669   6.677  1.9285  0.5079  0.9675
 7420SOL     OW33895   1.477   2.069   6.504 -0.4660  0.5205 -0.1491
 7420SOL    HW133896   1.525   2.141   6.545  1.5447 -1.8707  1.7042
 7420SOL    HW233897   1.508   2.077   6.413  0.9017 -0.0389  0.2684
 7421SOL     OW33898   2.417   0.683   0.919 -0.1816  0.0889  0.1553
 7421SOL    HW133899   2.356   0.618   0.954 -1.7361  1.6456  0.3253
 7421SOL    HW233900   2.497   0.662   0.967 -0.7314  0.8168  1.3831
 7422SOL     OW33901   0.159   3.379   5.952 -0.1586 -0.6504  0.2649
 7422SOL    HW133902   0.249   3.390   5.921  0.1278 -1.0539  0.9354
 7422SOL    HW233903   0.111   3.378   5.869  2.2120  3.4761 -1.1393
 7423SOL     OW33904   3.482   0.125  15.288  0.3314  0.0231  0.2666
 7423SOL    HW133905   3.473   0.168  15.203  1.0072 -0.7953 -0.2164
 7423SOL    HW233906   3.537   0.052  15.261  0.2278  0.0781 -0.0868
 7424SOL     OW33907   1.645   3.325   7.916  0.5952 -0.1549 -0.4234
 7424SOL    HW133908   1.628   3.352   8.006  1.4586 -2.4151  0.4164
 7424SOL    HW233909   1.623   3.408   7.873  1.7005 -1.5568 -3.6320
 7425SOL     OW33910   3.188   2.596   5.809  0.5231  0.1481  0.9299
 7425SOL    HW133911   3.122   2.529   5.791  1.2188 -0.7076  1.5956
 7425SOL    HW233912   3.241   2.585   5.730 -1.0634 -1.2373  0.0562
 7426SOL     OW33913   0.612   3.233   0.858  0.5170 -0.2256 -0.2482
 7426SOL    HW133914   0.692   3.186   0.835  1.3013  0.7064  0.6035
 7426SOL    HW233915   0.617   3.258   0.950  0.3969  3.1385 -1.1420
 7427SOL     OW33916   2.288   3.822  13.569 -0.5116 -0.3937 -0.4423
 7427SOL    HW133917   2.291   3.815  13.474  2.0579 -0.9147 -0.3011
 7427SOL    HW233918   2.232   3.749  13.595 -1.7329  0.6078 -0.2183
 7428SOL     OW33919   4.269   0.404   7.583  0.4217 -0.1880 -0.4169
 7428SOL    HW133920   4.187   0.402   7.534  1.1415 -0.3829 -1.6433
 7428SOL    HW233921   4.311   0.330   7.539  0.8198 -0.6502  0.7688
 7429SOL     OW33922   3.624   3.865   6.376 -0.4262  0.4519  0.3463
 7429SOL    HW133923   3.597   3.773   6.372 -1.2281  0.6924  0.1393
 7429SOL    HW233924   3.568   3.902   6.444 -0.8196  0.9595 -0.2478
 7430SOL     OW33925   1.500   3.290  13.198  0.2088 -0.0071 -0.3805
 7430SOL    HW133926   1.420   3.260  13.154  0.0723 -3.1005  2.0107
 7430SOL    HW233927   1.548   3.301  13.116  0.3326 -0.0515 -0.3136
 7431SOL     OW33928   2.473   3.653   8.260  0.6946  0.3265 -0.2815
 7431SOL    HW133929   2.395   3.608   8.228  0.8942 -0.3262  0.1478
 7431SOL    HW233930   2.544   3.593   8.239 -0.2826 -0.7083 -0.6642
 7432SOL     OW33931   2.695   2.893   0.951 -0.3841 -0.8135  0.0019
 7432SOL    HW133932   2.653   2.818   0.909 -0.5680 -0.6939 -0.0273
 7432SOL    HW233933   2.634   2.912   1.022 -1.6187 -2.9954 -0.4904
 7433SOL     OW33934   3.121   3.345   2.534 -0.3882  0.1135  0.2563
 7433SOL    HW133935   3.177   3.359   2.610 -1.2121 -1.0957  1.0710
 7433SOL    HW233936   3.148   3.421   2.481  0.9738 -0.4640  0.1249
 7434SOL     OW33937   0.039   1.468   2.537  0.1637  0.0317  0.7596
 7434SOL    HW133938   4.730   1.421   2.605  1.2706 -1.2113  0.6767
 7434SOL    HW233939   4.711   1.457   2.470  1.4000  0.2814 -0.5027
 7435SOL     OW33940   0.557   3.025   5.413 -0.3015 -0.0401 -0.5312
 7435SOL    HW133941   0.522   2.944   5.376  2.1451 -1.3327 -0.0524
 7435SOL    HW233942   0.619   2.984   5.473 -1.1057 -0.1798  0.2146
 7436SOL     OW33943   2.047   0.568  17.192  0.2142  0.1845  0.1032
 7436SOL    HW133944   2.126   0.530  17.232 -1.2446 -2.8203  0.1474
 7436SOL    HW233945   2.059   0.663  17.198 -0.2382  0.2773 -0.4563
 7437SOL     OW33946   1.851   4.190   4.766 -0.4250 -0.1295  0.3834
 7437SOL    HW133947   1.824   4.276   4.801 -1.6825 -0.8851  1.2897
 7437SOL    HW233948   1.849   4.144   4.851  0.8907 -1.4023 -0.2890
 7438SOL     OW33949   4.652   2.512   6.389 -0.1141 -1.0256  0.4252
 7438SOL    HW133950   4.732   2.533   6.342 -0.9490 -1.4092 -1.1601
 7438SOL    HW233951   4.683   2.516   6.480 -0.9165  1.5074  0.5746
 7439SOL     OW33952   1.095   3.929  17.159 -0.2179  0.2117  0.1900
 7439SOL    HW133953   1.113   3.844  17.199  0.8177  0.6895  0.7190
 7439SOL    HW233954   1.045   3.908  17.080 -0.0762  1.4523 -0.2298
 7440SOL     OW33955   2.140   1.874   4.044  0.3226  0.3006 -0.3712
 7440SOL    HW133956   2.170   1.930   3.973 -1.1318  0.0501 -1.1793
 7440SOL    HW233957   2.225   1.858   4.085  0.8415 -3.7916 -3.0515
 7441SOL     OW33958   0.664   2.005  17.516 -0.8953 -0.1080 -0.0016
 7441SOL    HW133959   0.661   1.910  17.507 -0.5449 -0.1720  0.5659
 7441SOL    HW233960   0.758   2.011  17.501 -0.5282 -3.8659  0.9036
 7442SOL     OW33961   0.604   3.634   9.300 -0.0961 -0.2290  0.1779
 7442SOL    HW133962   0.561   3.701   9.354 -0.8988 -1.3785  0.9596
 7442SOL    HW233963   0.650   3.595   9.374 -0.0570 -1.9297 -0.7626
 7443SOL     OW33964   0.897   3.485   7.951 -0.0859 -0.5907 -0.4088
 7443SOL    HW133965   0.941   3.431   7.884  1.9190 -0.4111  0.7578
 7443SOL    HW233966   0.909   3.575   7.921 -0.3963 -0.7935 -1.1623
 7444SOL     OW33967   0.783   3.706  16.283  0.3726  0.7286 -0.0623
 7444SOL    HW133968   0.708   3.699  16.342  2.7630  2.4980  3.2042
 7444SOL    HW233969   0.826   3.623  16.305  0.5977  1.0611  0.7628
 7445SOL     OW33970   3.990   1.145   7.157 -0.1271 -0.1973  0.3877
 7445SOL    HW133971   4.047   1.074   7.129 -0.4581  0.0178 -0.8465
 7445SOL    HW233972   4.050   1.193   7.214 -0.3095 -0.1635  0.5539
 7446SOL     OW33973   1.560   2.050   3.782  0.2125  0.2553  0.4049
 7446SOL    HW133974   1.517   2.022   3.862 -0.0189  1.3046  0.6475
 7446SOL    HW233975   1.504   2.127   3.771  1.8511  1.6156  1.5545
 7447SOL     OW33976   1.186   3.543   9.800  0.0117 -0.0137  0.2450
 7447SOL    HW133977   1.115   3.541   9.865 -0.3712 -2.2753 -0.2227
 7447SOL    HW233978   1.253   3.493   9.846 -1.8991 -1.6798  1.2258
 7448SOL     OW33979   0.328   2.544   7.104  0.2237 -0.6601  0.1786
 7448SOL    HW133980   0.378   2.465   7.082 -1.0483 -1.8604  1.6088
 7448SOL    HW233981   0.260   2.504   7.157 -1.0308  0.2191 -0.7442
 7449SOL     OW33982   2.661   2.535   5.846 -0.3188 -0.7087 -0.3458
 7449SOL    HW133983   2.712   2.505   5.770  0.6539  1.7948 -0.6676
 7449SOL    HW233984   2.632   2.618   5.808  1.1538  0.4054  0.9973
 7450SOL     OW33985   3.446   2.791  16.554  0.4479  0.1671  0.1721
 7450SOL    HW133986   3.441   2.746  16.638 -3.2644 -2.1511 -1.2937
 7450SOL    HW233987   3.407   2.720  16.503  1.0351  1.1419 -1.6378
 7451SOL     OW33988   2.764   3.886   1.353 -0.1149  0.2425  0.3132
 7451SOL    HW133989   2.723   3.801   1.333 -0.3534  0.0512  1.6162
 7451SOL    HW233990   2.728   3.931   1.277  0.7293  0.9838  0.3587
 7452SOL     OW33991   0.634   2.657  16.333 -0.4811  0.1437 -0.3249
 7452SOL    HW133992   0.595   2.651  16.246  0.3544 -1.1614 -0.5877
 7452SOL    HW233993   0.567   2.717  16.368 -0.6265 -0.4142  0.3559
 7453SOL     OW33994   3.834   1.943   6.064 -0.0204 -0.2650  0.2491
 7453SOL    HW133995   3.745   1.949   6.099  0.6874 -0.6490  2.0887
 7453SOL    HW233996   3.824   1.987   5.979  0.2789 -0.4817  0.1034
 7454SOL     OW33997   4.677   1.052   2.726  0.0215 -0.7446 -0.3406
 7454SOL    HW133998   4.670   0.957   2.739  0.2176 -0.4219  2.1989
 7454SOL    HW233999   0.007   1.052   2.660  0.0728 -5.8246 -0.2681
 7455SOL     OW34000   3.825   3.731  14.580  0.1846  0.4660  0.4030
 7455SOL    HW134001   3.783   3.794  14.520 -1.8488 -0.5318  0.7803
 7455SOL    HW234002   3.909   3.777  14.587  0.4671  0.3081 -1.7885
 7456SOL     OW34003   2.069   0.790   7.208 -0.9747  0.3758 -0.0657
 7456SOL    HW134004   2.129   0.829   7.144 -2.2715  1.7057 -0.4724
 7456SOL    HW234005   2.041   0.715   7.156  0.1999 -1.3553  1.7947
 7457SOL     OW34006   4.081   0.746   5.568  0.5077  0.8072 -0.0356
 7457SOL    HW134007   4.161   0.751   5.516 -0.1171  1.1505 -0.9591
 7457SOL    HW234008   4.103   0.804   5.640  2.9708 -0.5008  0.2474
 7458SOL     OW34009   2.593   2.530   6.698  0.3758  0.1032  0.0189
 7458SOL    HW134010   2.636   2.540   6.613  0.4853  2.1367  0.2932
 7458SOL    HW234011   2.616   2.441   6.723 -0.7689  0.2946  1.7496
 7459SOL     OW34012   0.167   0.040  12.381  0.0470 -0.0989 -0.0065
 7459SOL    HW134013   0.084   4.738  12.404 -0.6483  1.1924 -0.2060
 7459SOL    HW234014   0.139   0.063  12.293  1.1433  0.6719 -0.1500
 7460SOL     OW34015   3.037   2.680   2.456  0.2271  0.0158 -0.8284
 7460SOL    HW134016   3.016   2.636   2.539  0.6504  0.7737 -0.3212
 7460SOL    HW234017   3.127   2.708   2.474  0.9306 -1.2660 -2.2887
 7461SOL     OW34018   3.262   0.636   4.335  0.2448  0.4635  0.1043
 7461SOL    HW134019   3.243   0.566   4.398  1.1370  1.0958  1.0772
 7461SOL    HW234020   3.177   0.676   4.321  0.3658  0.8140  0.3841
 7462SOL     OW34021   2.038   1.156   3.011 -0.2296 -0.4360 -0.5971
 7462SOL    HW134022   2.064   1.209   3.086 -0.3807  0.2118 -1.0065
 7462SOL    HW234023   1.984   1.092   3.057  2.3575 -1.1170  1.5055
 7463SOL     OW34024   1.145   4.005   6.537  0.2076 -0.0279 -0.7443
 7463SOL    HW134025   1.154   4.096   6.509 -0.2882  0.1985 -0.1501
 7463SOL    HW234026   1.173   3.950   6.464 -0.2507  0.3531 -1.2070
 7464SOL     OW34027   3.087   4.177   3.386 -0.6679 -0.0039  0.3125
 7464SOL    HW134028   3.141   4.155   3.309 -0.0715 -0.8623  0.9736
 7464SOL    HW234029   3.105   4.271   3.387  1.7683 -0.4590  0.1518
 7465SOL     OW34030   2.848   1.026   1.743  0.6872 -0.5521 -0.3588
 7465SOL    HW134031   2.809   0.948   1.781  1.0768 -0.6318 -0.1219
 7465SOL    HW234032   2.778   1.073   1.698  1.0883  0.2473 -0.1521
 7466SOL     OW34033   0.648   4.311  11.457 -0.3556 -0.2560  0.8230
 7466SOL    HW134034   0.661   4.218  11.475  2.5797 -0.0641 -0.3642
 7466SOL    HW234035   0.576   4.329  11.518 -0.6950  1.3646 -0.0495
 7467SOL     OW34036   1.820   3.058   3.315 -0.3878  0.6652 -0.4315
 7467SOL    HW134037   1.792   2.975   3.278  0.4831  0.5143 -0.7628
 7467SOL    HW234038   1.783   3.101   3.238 -1.0453  1.4783  0.3314
 7468SOL     OW34039   1.792   2.989   7.192 -0.0545  0.5291  0.1212
 7468SOL    HW134040   1.824   2.908   7.232  0.5623  0.0916 -1.2776
 7468SOL    HW234041   1.700   2.977   7.213  0.2488 -0.1896  1.0256
 7469SOL     OW34042   4.332   0.626  14.716  0.0449 -0.0426  0.6709
 7469SOL    HW134043   4.322   0.655  14.626  1.4222 -0.0401  0.5163
 7469SOL    HW234044   4.393   0.553  14.709  0.0094 -0.1347  1.3118
 7470SOL     OW34045   3.733   0.855   3.903  0.4917 -0.3239  0.3845
 7470SOL    HW134046   3.824   0.870   3.926  0.9254  0.1924 -1.7112
 7470SOL    HW234047   3.715   0.777   3.956 -1.9316  0.5116  0.7920
 7471SOL     OW34048   1.560   1.496   6.848  0.0332  0.3712 -0.6556
 7471SOL    HW134049   1.538   1.418   6.899 -0.0034  1.7679  1.4592
 7471SOL    HW234050   1.605   1.547   6.915 -0.8513 -1.4368  1.3491
 7472SOL     OW34051   0.609   3.705  10.988 -0.3492  0.5467 -0.5965
 7472SOL    HW134052   0.515   3.705  10.972 -0.4618  0.3406  0.0670
 7472SOL    HW234053   0.621   3.649  11.065  0.8707  0.2831 -0.9757
 7473SOL     OW34054   4.140   4.187   9.207 -0.1898  0.2494  0.4150
 7473SOL    HW134055   4.150   4.282   9.209  2.5317 -0.0061 -0.7814
 7473SOL    HW234056   4.103   4.177   9.295  0.7288  0.1908  0.7848
 7474SOL     OW34057   1.198   1.145  14.566 -0.2737  0.2595 -0.2748
 7474SOL    HW134058   1.262   1.176  14.502  0.7486  0.8696  1.0512
 7474SOL    HW234059   1.245   1.066  14.595 -1.7539 -0.5745 -0.1274
 7475SOL     OW34060   2.093   0.238   8.288 -0.4542 -0.5692  0.2726
 7475SOL    HW134061   2.162   0.282   8.238 -0.1322 -1.1391  0.2127
 7475SOL    HW234062   2.149   0.163   8.311 -0.5585 -0.4642  0.8655
 7476SOL     OW34063   4.657   4.301  17.552  0.1088  0.1745 -0.4421
 7476SOL    HW134064   4.699   4.221  17.521  1.4204  0.2344  1.1412
 7476SOL    HW234065   4.566   4.273  17.560 -0.2808  1.0021 -2.0011
 7477SOL     OW34066   4.056   1.733   7.540 -0.3426 -0.1785 -0.0216
 7477SOL    HW134067   4.075   1.707   7.630 -1.7784 -1.0431  0.0293
 7477SOL    HW234068   3.961   1.741   7.537 -0.4597 -2.2791 -1.0501
 7478SOL     OW34069   1.726   3.964   4.337  0.2513 -0.4199  0.0646
 7478SOL    HW134070   1.796   3.972   4.402  0.3895  2.2055 -0.4206
 7478SOL    HW234071   1.696   4.054   4.327 -0.7723 -0.7955 -0.2204
 7479SOL     OW34072   3.662   0.497   4.002 -0.2362  0.1085 -0.5835
 7479SOL    HW134073   3.729   0.524   3.939  0.4225 -0.4963 -0.1415
 7479SOL    HW234074   3.717   0.487   4.080 -0.8218  0.3918 -0.1313
 7480SOL     OW34075   3.806   1.271   6.240  0.2772  0.5617  0.3184
 7480SOL    HW134076   3.882   1.218   6.215 -0.0827 -0.3606  1.1463
 7480SOL    HW234077   3.757   1.213   6.299  0.6704  0.1313  0.2210
 7481SOL     OW34078   1.099   0.996   8.263  0.1360  0.1719  0.0457
 7481SOL    HW134079   1.126   1.018   8.174 -0.8420 -1.5924 -0.6858
 7481SOL    HW234080   1.184   0.962   8.291 -0.3987  1.3787  3.2077
 7482SOL     OW34081   1.110   2.332   9.573 -0.0614 -0.5490  0.1980
 7482SOL    HW134082   1.128   2.374   9.657  1.1555 -0.2215 -0.2263
 7482SOL    HW234083   1.193   2.288   9.554  0.8312  0.8463  0.8826
 7483SOL     OW34084   3.865   1.199   5.384 -0.6218  0.4385 -0.5013
 7483SOL    HW134085   3.782   1.172   5.424 -0.4999 -1.4594 -1.5255
 7483SOL    HW234086   3.852   1.174   5.292  2.4775 -0.4921 -0.6946
 7484SOL     OW34087   2.510   1.484   3.044  0.3793  0.4828  0.0565
 7484SOL    HW134088   2.542   1.452   2.960  0.2471 -0.6057  0.4198
 7484SOL    HW234089   2.415   1.486   3.027  0.3733  2.2628  0.2677
 7485SOL     OW34090   2.467   2.740   2.347  0.1083  0.2728 -0.0130
 7485SOL    HW134091   2.524   2.750   2.271  2.2224 -3.9488  0.9866
 7485SOL    HW234092   2.538   2.738   2.412  0.8036  0.6336 -0.7675
 7486SOL     OW34093   4.607   2.097   3.123 -0.0355  0.1893  0.4779
 7486SOL    HW134094   4.575   2.062   3.040  2.1743 -1.3619  0.2827
 7486SOL    HW234095   4.592   2.016   3.171 -1.8631  0.1355 -0.1820
 7487SOL     OW34096   3.245   0.143   4.421  0.7172  0.0675 -0.4546
 7487SOL    HW134097   3.161   0.104   4.395 -1.4727  3.6062  1.2745
 7487SOL    HW234098   3.304   0.068   4.418  3.1208  1.9566  0.1503
 7488SOL     OW34099   1.500   3.423   4.588 -0.1922 -0.2563  0.1563
 7488SOL    HW134100   1.580   3.393   4.545  0.7533  1.0494  1.0072
 7488SOL    HW234101   1.448   3.343   4.576  2.3001 -2.1453  1.8754
 7489SOL     OW34102   4.077   3.183   8.819  0.1216 -0.2039  0.3291
 7489SOL    HW134103   4.007   3.129   8.783  1.4190 -1.7839  0.1929
 7489SOL    HW234104   4.155   3.128   8.817 -0.3235 -0.8450  0.5834
 7490SOL     OW34105   2.441   4.149   2.495  0.1922 -0.3298  0.2130
 7490SOL    HW134106   2.512   4.091   2.521  0.0139 -0.9332 -0.6479
 7490SOL    HW234107   2.367   4.093   2.521  0.5996 -1.2861 -0.6949
 7491SOL     OW34108   2.226   3.799  15.454 -0.3918  0.9772  0.2233
 7491SOL    HW134109   2.294   3.739  15.423 -1.3143  0.2370 -0.3436
 7491SOL    HW234110   2.247   3.817  15.546 -1.7795 -1.3982  1.0087
 7492SOL     OW34111   0.925   0.755   7.482  0.2409  0.1497 -0.1321
 7492SOL    HW134112   0.925   0.675   7.429 -0.2926  0.1056 -0.0672
 7492SOL    HW234113   0.863   0.729   7.550  1.0897 -0.4710  0.4011
 7493SOL     OW34114   2.859   1.181   8.558 -0.0696 -0.1114  0.3125
 7493SOL    HW134115   2.953   1.164   8.564  0.1855  2.0601  2.4727
 7493SOL    HW234116   2.833   1.126   8.484  2.3468  0.8401 -1.2473
 7494SOL     OW34117   2.686   0.581  12.019  0.5913  0.1156 -0.1563
 7494SOL    HW134118   2.771   0.624  12.008  0.5028  0.0080 -1.2740
 7494SOL    HW234119   2.634   0.628  11.954  2.2131  2.3630  0.1867
 7495SOL     OW34120   1.929   4.557   4.478  0.1742  0.1214  0.3322
 7495SOL    HW134121   1.847   4.548   4.429  0.3684  0.1652 -0.0029
 7495SOL    HW234122   1.975   4.476   4.453 -1.6270 -1.0612  0.8297
 7496SOL     OW34123   0.615   2.627   7.119  0.3670 -0.3363  0.4390
 7496SOL    HW134124   0.523   2.651   7.120  0.3636 -0.3787  1.1800
 7496SOL    HW234125   0.639   2.625   7.212  0.5507  2.0476  0.4295
 7497SOL     OW34126   4.267   3.830   7.844 -0.2881 -0.1096 -0.9613
 7497SOL    HW134127   4.249   3.814   7.937  1.7559 -1.9947 -0.8909
 7497SOL    HW234128   4.217   3.907   7.816 -0.1715  0.2975 -0.0431
 7498SOL     OW34129   3.738   1.909   4.540 -0.0935  0.3892  0.3585
 7498SOL    HW134130   3.680   1.898   4.615 -0.9495 -2.0894 -0.6713
 7498SOL    HW234131   3.821   1.866   4.559 -0.2427  0.1376  0.4376
 7499SOL     OW34132   1.509   1.721   4.715  0.4027 -0.1345 -0.1669
 7499SOL    HW134133   1.476   1.648   4.663 -0.2835  1.3429 -1.8278
 7499SOL    HW234134   1.518   1.683   4.802 -0.5967 -0.2093 -0.1009
 7500SOL     OW34135   4.622   1.449   5.938 -0.0160 -0.2761  0.5732
 7500SOL    HW134136   4.667   1.395   6.003 -1.2319 -2.9225 -0.8140
 7500SOL    HW234137   4.704   1.464   5.890  1.2477  0.6087  3.0058
 7501SOL     OW34138   2.121   2.106  13.566 -0.6698  0.4638  0.3891
 7501SOL    HW134139   2.074   2.022  13.564 -1.5520  1.0382 -2.5620
 7501SOL    HW234140   2.118   2.124  13.660 -4.0200  0.2520  0.3212
 7502SOL     OW34141   0.931   0.539   4.457  0.1687  0.2673  0.0166
 7502SOL    HW134142   0.902   0.449   4.468  2.2370 -0.3626  0.3599
 7502SOL    HW234143   0.896   0.577   4.537 -0.3779 -2.2512  0.9779
 7503SOL     OW34144   4.720   3.928   7.642 -0.0755 -0.0497 -0.2369
 7503SOL    HW134145   4.658   3.902   7.710  0.3706  0.9337  0.5312
 7503SOL    HW234146   0.034   3.993   7.688 -2.3216  0.3173  1.8015
 7504SOL     OW34147   3.029   1.416   1.010 -0.1416 -0.0747  0.1674
 7504SOL    HW134148   2.935   1.423   1.026 -0.0469 -2.9448  1.9784
 7504SOL    HW234149   3.046   1.493   0.956  1.1053 -1.3377 -1.2708
 7505SOL     OW34150   3.135   3.164  13.207 -0.4607 -0.5303 -0.2657
 7505SOL    HW134151   3.213   3.113  13.183  1.0552  2.3851 -1.5656
 7505SOL    HW234152   3.171   3.246  13.241  0.9912 -0.8848 -0.9001
 7506SOL     OW34153   1.201   0.204   5.532 -0.3519 -0.3514  0.6257
 7506SOL    HW134154   1.114   0.213   5.494  0.1920  1.2416 -0.2760
 7506SOL    HW234155   1.241   0.290   5.519  2.1495 -1.4350  1.0048
 7507SOL     OW34156   0.253   4.465   6.661 -0.4472 -0.7075 -0.2572
 7507SOL    HW134157   0.182   4.512   6.705  0.0957  0.3476 -0.4990
 7507SOL    HW234158   0.319   4.532   6.641  0.0263 -0.3311  2.4837
 7508SOL     OW34159   4.491   4.241  17.252 -0.4327 -0.6809 -0.2907
 7508SOL    HW134160   4.442   4.177  17.304 -0.9179  0.7630  1.0115
 7508SOL    HW234161   4.461   4.211  17.165 -1.4087 -0.4958 -0.0188
 7509SOL     OW34162   1.394   1.304   9.543  0.4062  0.6040  0.4050
 7509SOL    HW134163   1.464   1.325   9.482  0.8308  1.0906  1.0562
 7509SOL    HW234164   1.404   1.211   9.563  0.5663  0.1425 -1.8371
 7510SOL     OW34165   3.210   1.229   2.803 -0.6619  0.2841 -0.5580
 7510SOL    HW134166   3.156   1.276   2.866 -0.6327  1.2427 -1.2578
 7510SOL    HW234167   3.172   1.266   2.724 -1.8764  0.2559  0.0117
 7511SOL     OW34168   2.715   4.034   1.102  0.2110 -0.1995 -0.4497
 7511SOL    HW134169   2.662   3.972   1.052  0.0709  0.3136 -0.9454
 7511SOL    HW234170   2.804   4.021   1.070  0.7808 -1.5484  1.7731
 7512SOL     OW34171   3.522   3.039   8.024  0.2471  0.0341  0.0466
 7512SOL    HW134172   3.602   3.090   8.031 -0.0555  0.3446  1.2194
 7512SOL    HW234173   3.539   2.960   8.076  1.8400 -0.4383 -1.1931
 7513SOL     OW34174   2.240   3.528   8.778 -0.1399 -0.0213 -0.2641
 7513SOL    HW134175   2.286   3.452   8.814 -1.6019 -0.9451 -0.3318
 7513SOL    HW234176   2.281   3.521   8.691 -1.6147  1.5916 -1.0872
 7514SOL     OW34177   1.156   4.024   5.063 -0.3424 -0.1581 -0.0057
 7514SOL    HW134178   1.179   4.003   4.973 -0.2496 -0.1982  0.0265
 7514SOL    HW234179   1.228   4.011   5.125 -0.8609  1.1135  0.8652
 7515SOL     OW34180   1.559   3.824   9.791 -0.3980 -0.5048  0.2114
 7515SOL    HW134181   1.500   3.773   9.735  0.1196 -1.3339  0.4182
 7515SOL    HW234182   1.508   3.904   9.803 -0.7485 -0.9749  1.8021
 7516SOL     OW34183   3.910   3.099   1.669 -0.2063  0.0569  0.0750
 7516SOL    HW134184   3.994   3.117   1.626 -0.5559  0.0921 -0.5792
 7516SOL    HW234185   3.926   3.137   1.756  0.8646 -0.4006  0.0891
 7517SOL     OW34186   3.355   0.021   7.004  0.2897 -0.1240  0.1435
 7517SOL    HW134187   3.260   0.023   7.019  0.4671 -0.9407  1.3671
 7517SOL    HW234188   3.363   4.709   6.923  2.6284 -0.9883  0.9286
 7518SOL     OW34189   1.321   3.057   0.213 -0.2374 -0.0670  0.2224
 7518SOL    HW134190   1.377   3.026   0.142  1.0280  2.5175  0.0882
 7518SOL    HW234191   1.302   3.143   0.176 -0.8266  0.4714  1.7857
 7519SOL     OW34192   0.755   1.492   5.411 -0.4296  0.1474 -0.1885
 7519SOL    HW134193   0.836   1.523   5.369 -0.0969  0.6492  0.8281
 7519SOL    HW234194   0.736   1.579   5.446 -0.6043  0.4622 -1.0757
 7520SOL     OW34195   2.618   2.098  10.878  0.0449  0.2539  0.1998
 7520SOL    HW134196   2.659   2.032  10.823  0.3042 -0.5575  1.3724
 7520SOL    HW234197   2.529   2.063  10.874 -0.2427  1.2317 -2.0528
 7521SOL     OW34198   3.997   3.713   7.984 -0.2825 -0.2061  0.3550
 7521SOL    HW134199   4.072   3.748   8.031  0.2116 -0.2532 -0.3903
 7521SOL    HW234200   3.960   3.662   8.056 -0.4158  0.6335  0.8820
 7522SOL     OW34201   4.454   2.159   6.812 -0.1487  0.0832  0.3033
 7522SOL    HW134202   4.485   2.140   6.724 -0.1137 -1.3494  0.6221
 7522SOL    HW234203   4.475   2.076   6.855  2.9494  0.7712  0.1449
 7523SOL     OW34204   3.215   3.688   8.845 -0.0593 -0.2577  0.1140
 7523SOL    HW134205   3.279   3.664   8.779 -0.2895  0.5552 -0.4047
 7523SOL    HW234206   3.269   3.758   8.883  1.0885 -1.7573  1.2605
 7524SOL     OW34207   0.829   0.763  17.639 -0.8682 -0.1032 -0.0864
 7524SOL    HW134208   0.811   0.718  17.557  1.8048  1.3985 -1.4856
 7524SOL    HW234209   0.906   0.815  17.615  0.5341 -1.1706  2.0990
 7525SOL     OW34210   2.895   3.918   2.810  0.0416  0.1300 -0.1464
 7525SOL    HW134211   2.964   3.851   2.814  0.8490  1.0346  1.0594
 7525SOL    HW234212   2.890   3.951   2.899  1.5641  2.1636 -0.8206
 7526SOL     OW34213   0.084   2.930  17.427  0.9951  0.1521 -0.2368
 7526SOL    HW134214   0.105   2.966  17.513  2.4607  3.7232 -2.0649
 7526SOL    HW234215   0.151   2.971  17.372  1.5304 -0.8366 -0.3121
 7527SOL     OW34216   0.642   3.159  16.657  0.4494 -0.2628 -0.1746
 7527SOL    HW134217   0.706   3.088  16.666 -0.5741 -1.0045  1.2064
 7527SOL    HW234218   0.606   3.134  16.572 -1.2036  0.0023  0.4609
 7528SOL     OW34219   4.495   4.269  16.468 -0.0485 -0.0394  0.1722
 7528SOL    HW134220   4.578   4.307  16.493  0.4267 -1.9536  1.5119
 7528SOL    HW234221   4.431   4.330  16.505  1.9010  1.7527  0.5825
 7529SOL     OW34222   2.283   2.979  13.401 -0.3241 -0.3155 -0.1375
 7529SOL    HW134223   2.319   3.013  13.483 -0.7834  0.6063 -0.3227
 7529SOL    HW234224   2.237   3.059  13.374  1.1559  1.2663  1.9939
 7530SOL     OW34225   4.597   1.645  15.856 -0.1483  0.1973  0.5395
 7530SOL    HW134226   4.505   1.621  15.841  0.6457 -3.1923  0.9995
 7530SOL    HW234227   4.601   1.689  15.940  2.3386  0.9246  0.0276
 7531SOL     OW34228   0.149   3.460   2.262 -0.8195 -0.1364 -0.1263
 7531SOL    HW134229   0.175   3.551   2.276  0.9071 -0.6992  0.2842
 7531SOL    HW234230   0.221   3.414   2.304 -0.9454 -1.7228 -1.6081
 7532SOL     OW34231   0.066   4.278   2.417 -0.1746  0.3136  0.8346
 7532SOL    HW134232   4.721   4.295   2.376  0.6050  0.5204 -0.6796
 7532SOL    HW234233   0.028   4.260   2.503 -0.4460 -0.9920  0.4344
 7533SOL     OW34234   1.681   2.447   4.185 -0.2085  0.5084 -0.2013
 7533SOL    HW134235   1.636   2.363   4.184  1.2319 -0.2663  0.1676
 7533SOL    HW234236   1.698   2.461   4.092 -0.4075 -0.8136 -0.4257
 7534SOL     OW34237   4.319   0.466   2.082  0.0726 -0.0837 -0.1513
 7534SOL    HW134238   4.244   0.442   2.137  1.2300  1.0321  1.9194
 7534SOL    HW234239   4.383   0.395   2.094  1.2026  0.8902 -0.4334
 7535SOL     OW34240   0.007   1.034  17.428 -0.6233 -0.3243  0.1626
 7535SOL    HW134241   4.696   0.965  17.385 -0.7716  0.3757 -0.7767
 7535SOL    HW234242   0.070   1.062  17.362 -1.7268  0.0303 -0.7287
 7536SOL     OW34243   2.191   4.131   4.402  0.2163 -0.1282 -0.3082
 7536SOL    HW134244   2.127   4.107   4.335  2.0864 -2.6575 -1.1897
 7536SOL    HW234245   2.263   4.181   4.364  0.3011  0.2204  0.3220
 7537SOL     OW34246   1.066   1.055  13.211 -0.7041 -0.0337 -0.8964
 7537SOL    HW134247   0.980   1.047  13.168 -0.8939 -0.2024 -0.4813
 7537SOL    HW234248   1.102   1.140  13.185  1.7141 -0.2327  1.8316
 7538SOL     OW34249   1.610   4.183   2.800  0.0658  0.2239 -0.3370
 7538SOL    HW134250   1.655   4.238   2.865  1.4366 -0.9076 -0.3313
 7538SOL    HW234251   1.596   4.254   2.738 -0.4503  0.3877 -0.0292
 7539SOL     OW34252   3.656   0.220   6.403  0.3113 -0.0343 -0.3209
 7539SOL    HW134253   3.745   0.253   6.400 -0.1224  1.0172 -1.9212
 7539SOL    HW234254   3.627   0.228   6.494 -0.3203 -0.3568 -0.4954
 7540SOL     OW34255   3.093   4.368   6.579  0.6505 -0.0287 -0.2414
 7540SOL    HW134256   3.112   4.374   6.485  0.5343 -0.8148 -0.3090
 7540SOL    HW234257   3.175   4.363   6.629 -0.7920  0.3954  2.1579
 7541SOL     OW34258   2.495   2.136   0.234  0.3546  0.1590  0.0777
 7541SOL    HW134259   2.428   2.165   0.296  0.2816 -0.1709  0.1584
 7541SOL    HW234260   2.538   2.078   0.297 -2.0288 -1.4801  0.2110
 7542SOL     OW34261   1.006   0.519  10.836  0.6818 -0.4858 -0.0642
 7542SOL    HW134262   1.019   0.534  10.930  0.2179 -1.0652  0.0921
 7542SOL    HW234263   1.081   0.567  10.801  0.3530 -1.1408 -1.6775
 7543SOL     OW34264   4.719   2.941   3.037 -0.2468  0.1186  0.6039
 7543SOL    HW134265   0.052   2.908   2.985 -1.7301  0.3780 -1.6440
 7543SOL    HW234266   4.693   2.866   3.090  1.4546 -0.0272  1.2108
 7544SOL     OW34267   4.100   0.725   8.645 -0.0681  0.0971  0.4543
 7544SOL    HW134268   4.008   0.701   8.660 -0.9398  2.1178 -1.6156
 7544SOL    HW234269   4.084   0.819   8.649 -1.8599 -0.1225 -1.6111
 7545SOL     OW34270   0.457   2.071   2.422  0.1706 -0.1286  0.6186
 7545SOL    HW134271   0.492   2.032   2.343  0.7211 -0.8973  1.2411
 7545SOL    HW234272   0.484   1.997   2.477  1.9735  1.0581  1.3617
 7546SOL     OW34273   2.728   0.437   5.501 -0.1528  0.1823 -0.0241
 7546SOL    HW134274   2.696   0.376   5.434  0.2529  0.4779 -0.4889
 7546SOL    HW234275   2.789   0.378   5.545 -1.3985 -1.0331  0.0855
 7547SOL     OW34276   1.536   2.125   6.856 -0.3090 -0.0978  0.3531
 7547SOL    HW134277   1.474   2.147   6.786 -0.0007  1.5071  0.5831
 7547SOL    HW234278   1.475   2.123   6.930 -0.0433  0.3061  0.5827
 7548SOL     OW34279   4.385   0.339   1.310 -0.2059 -0.4096  0.0570
 7548SOL    HW134280   4.294   0.365   1.303  0.9341  3.0366 -1.7582
 7548SOL    HW234281   4.392   0.310   1.401 -0.8581 -1.1447 -0.1236
 7549SOL     OW34282   3.732   2.081   2.630  0.1113 -0.5470  0.0645
 7549SOL    HW134283   3.656   2.057   2.683 -0.1356 -0.4073 -0.2293
 7549SOL    HW234284   3.797   2.107   2.695  0.5567 -1.1577 -0.1387
 7550SOL     OW34285   0.635   2.865  12.613 -0.3228  0.3257 -0.2911
 7550SOL    HW134286   0.594   2.938  12.659  0.0443 -0.7346  1.7232
 7550SOL    HW234287   0.687   2.831  12.686  0.4707  1.5110 -0.2889
 7551SOL     OW34288   1.049   4.233   8.372  0.0148 -0.4367  0.2629
 7551SOL    HW134289   1.109   4.245   8.298 -0.5083  0.4098 -0.0209
 7551SOL    HW234290   1.083   4.148   8.402  3.3736  1.2560  1.2168
 7552SOL     OW34291   4.291   3.406   3.437  0.0828  0.1605  0.1386
 7552SOL    HW134292   4.298   3.337   3.371  2.2237  1.3377 -0.8948
 7552SOL    HW234293   4.244   3.357   3.504 -0.9898  1.2645  0.1892
 7553SOL     OW34294   0.403   2.342   2.862 -0.2210  0.5995 -0.3409
 7553SOL    HW134295   0.456   2.408   2.906 -0.0408  0.5249 -0.4499
 7553SOL    HW234296   0.335   2.324   2.927 -0.3254 -1.6651 -1.0758
 7554SOL     OW34297   2.947   1.362  11.285 -0.3280  0.4157  0.0981
 7554SOL    HW134298   3.018   1.312  11.244 -1.4898  0.7366 -2.3027
 7554SOL    HW234299   2.867   1.328  11.245 -0.0916  0.0072 -0.0298
 7555SOL     OW34300   0.011   4.579   6.800  0.4374 -0.0988 -0.1712
 7555SOL    HW134301   4.685   4.509   6.798 -1.0177  1.2079  1.1658
 7555SOL    HW234302   4.705   4.649   6.752 -1.0049  0.5732  2.1328
 7556SOL     OW34303   1.263   3.506   7.823 -0.2216  0.3122  0.1306
 7556SOL    HW134304   1.248   3.558   7.745 -2.7389 -0.6129  0.0245
 7556SOL    HW234305   1.204   3.434   7.802  0.3420 -0.4076  1.0206
 7557SOL     OW34306   3.201   3.351   4.571 -0.0588 -0.5002 -0.4847
 7557SOL    HW134307   3.208   3.259   4.599 -1.0100  0.1103  1.7848
 7557SOL    HW234308   3.123   3.371   4.624 -0.8079 -1.7132 -1.1157
 7558SOL     OW34309   1.539   0.803   4.613  0.0194  0.8184  0.0394
 7558SOL    HW134310   1.570   0.713   4.614 -2.0157  0.1175  0.3880
 7558SOL    HW234311   1.623   0.847   4.629  1.1626 -1.1521 -0.6539
 7559SOL     OW34312   0.729   2.070   2.634  0.1805 -0.0263  0.4599
 7559SOL    HW134313   0.787   1.999   2.662  0.4077  0.0634  0.2156
 7559SOL    HW234314   0.646   2.046   2.676  0.3093 -0.9782  0.1812
 7560SOL     OW34315   2.007   1.588   5.913  0.7009 -0.1897  0.0722
 7560SOL    HW134316   2.072   1.526   5.947  2.1825  1.2963 -0.0823
 7560SOL    HW234317   1.966   1.533   5.846  0.5230 -0.6997  0.5905
 7561SOL     OW34318   2.786   0.227  17.459 -0.7077 -0.4319  0.1699
 7561SOL    HW134319   2.694   0.245  17.476 -0.6366 -0.4574  0.5678
 7561SOL    HW234320   2.809   0.178  17.538 -1.0689 -0.8338  0.0292
 7562SOL     OW34321   2.444   2.487   8.113  0.5575 -0.0980  0.7523
 7562SOL    HW134322   2.474   2.406   8.072  1.7474  1.5248 -1.5493
 7562SOL    HW234323   2.375   2.528   8.060 -0.8662 -1.3102  1.6603
 7563SOL     OW34324   0.845   4.336   8.500 -0.0398  0.1781 -0.0131
 7563SOL    HW134325   0.907   4.290   8.444 -1.2209 -1.1476 -0.2300
 7563SOL    HW234326   0.850   4.281   8.578  1.4307  0.2533 -0.0562
 7564SOL     OW34327   0.105   4.265   8.067  0.0657 -0.1165 -0.1541
 7564SOL    HW134328   0.109   4.330   8.136 -1.7596  0.0436 -0.2021
 7564SOL    HW234329   0.086   4.188   8.120 -2.4702  1.4450  1.1849
 7565SOL     OW34330   3.859   4.621   7.840 -0.3183  0.1894 -0.4530
 7565SOL    HW134331   3.790   4.664   7.891  1.0190  1.5708  0.1893
 7565SOL    HW234332   3.908   4.702   7.827  0.2190  0.2650  2.2027
 7566SOL     OW34333   4.274   3.449  12.657 -0.2159  0.2708  0.2236
 7566SOL    HW134334   4.313   3.404  12.732 -1.0217 -0.3713  0.2610
 7566SOL    HW234335   4.306   3.418  12.573 -1.7551  0.7526 -0.5342
 7567SOL     OW34336   2.529   3.312  16.905 -0.1515  0.3269  0.6905
 7567SOL    HW134337   2.523   3.218  16.887 -0.6332  0.4756  0.0759
 7567SOL    HW234338   2.601   3.320  16.968  1.0442  1.2086 -0.7885
 7568SOL     OW34339   4.448   1.882  11.689  0.0149  0.0827 -0.4739
 7568SOL    HW134340   4.505   1.958  11.702  1.0687 -0.8472  0.3286
 7568SOL    HW234341   4.487   1.816  11.746  1.2106  2.6892  1.7301
 7569SOL     OW34342   1.331   4.237  12.235 -0.3239 -0.2867  0.6114
 7569SOL    HW134343   1.405   4.291  12.262  1.4419 -1.6036 -1.5367
 7569SOL    HW234344   1.365   4.154  12.268 -0.3531  0.9909  3.8929
 7570SOL     OW34345   2.293   1.751   6.452 -0.1055 -0.7772 -0.5014
 7570SOL    HW134346   2.294   1.817   6.382  4.8420 -0.5533 -0.2166
 7570SOL    HW234347   2.210   1.709   6.431 -1.4002  0.8072  1.4958
 7571SOL     OW34348   1.905   3.978   5.010 -0.3597  0.2060  0.0508
 7571SOL    HW134349   1.950   3.979   5.094  0.9023  1.3529 -0.6408
 7571SOL    HW234350   1.812   3.972   5.033 -0.3577 -1.9654 -0.5748
 7572SOL     OW34351   2.584   2.350  14.201  0.0440  0.2809  0.3299
 7572SOL    HW134352   2.508   2.401  14.173  0.8461  1.2828 -0.0437
 7572SOL    HW234353   2.619   2.397  14.276  0.0141  2.3855 -0.9726
 7573SOL     OW34354   2.793   4.170   1.417  0.5585  0.1193 -0.1064
 7573SOL    HW134355   2.752   4.088   1.389  0.8995  0.1598 -0.7442
 7573SOL    HW234356   2.825   4.138   1.501 -0.1586  1.3128  0.6241
 7574SOL     OW34357   2.111   1.182   4.900  0.2902 -0.3506  0.2727
 7574SOL    HW134358   2.204   1.191   4.923  0.0572 -0.7340  1.3567
 7574SOL    HW234359   2.115   1.158   4.808 -0.3877 -0.7390  0.3446
 7575SOL     OW34360   0.764   1.548   2.839 -0.1224 -0.3451 -0.7090
 7575SOL    HW134361   0.740   1.579   2.926  1.3744  0.8943 -0.7426
 7575SOL    HW234362   0.712   1.469   2.822  1.3726 -1.5936  0.5218
 7576SOL     OW34363   1.809   2.417   5.455  0.2724  0.6525  0.4282
 7576SOL    HW134364   1.902   2.439   5.465  0.6911  0.0471 -2.1267
 7576SOL    HW234365   1.794   2.412   5.361 -0.0480 -0.6727  0.5433
 7577SOL     OW34366   1.550   3.346   2.316 -0.0165 -0.1054  0.1989
 7577SOL    HW134367   1.593   3.394   2.386 -0.6773  1.9381 -0.7796
 7577SOL    HW234368   1.462   3.351   2.353  0.7193  1.9857  1.6590
 7578SOL     OW34369   3.771   1.653   9.652  0.2088 -0.5352  0.1543
 7578SOL    HW134370   3.712   1.671   9.579  0.6073  0.5602  0.1018
 7578SOL    HW234371   3.739   1.568   9.684 -1.5365 -0.1147 -0.4823
 7579SOL     OW34372   2.990   0.092   6.034  0.2571  0.8105  0.4766
 7579SOL    HW134373   3.084   0.098   6.050  0.0174  0.4393  1.9536
 7579SOL    HW234374   2.982   0.169   5.977 -0.1484 -1.1912 -2.1703
 7580SOL     OW34375   0.811   0.192   7.386 -0.0624 -0.1732 -0.4537
 7580SOL    HW134376   0.780   0.270   7.340  1.7376  0.3763 -0.7397
 7580SOL    HW234377   0.764   0.124   7.338  0.7944 -1.3246  0.3454
 7581SOL     OW34378   2.754   1.421   9.547  0.3327 -0.3510 -0.1950
 7581SOL    HW134379   2.767   1.331   9.517 -1.9808 -0.3503 -1.1829
 7581SOL    HW234380   2.834   1.462   9.514 -0.5923 -0.4274 -2.5088
 7582SOL     OW34381   0.754   3.949   8.396 -0.2187 -0.0852  0.0915
 7582SOL    HW134382   0.746   3.915   8.307  2.8386  1.4389 -0.7762
 7582SOL    HW234383   0.846   3.973   8.401  0.1382 -1.6125  0.8346
 7583SOL     OW34384   0.607   2.234   9.333 -0.3049  0.0665  0.0241
 7583SOL    HW134385   0.603   2.207   9.424  1.1787 -0.7520 -0.1481
 7583SOL    HW234386   0.551   2.172   9.287  1.2089 -1.7427  0.6397
 7584SOL     OW34387   3.139   2.794  13.709 -0.5041  0.1838  0.4870
 7584SOL    HW134388   3.199   2.788  13.783 -0.2650  0.7364  0.3383
 7584SOL    HW234389   3.076   2.853  13.750 -0.7224  0.4357 -0.1976
 7585SOL     OW34390   1.694   4.029  16.639 -0.2711  0.2140 -0.3601
 7585SOL    HW134391   1.753   4.029  16.714  0.2253  1.9818 -0.7493
 7585SOL    HW234392   1.608   4.035  16.680 -0.8293 -0.6460 -1.4075
 7586SOL     OW34393   2.272   0.571   3.394  0.4788 -0.2572  0.3179
 7586SOL    HW134394   2.267   0.667   3.396  0.1337 -0.2939  1.1164
 7586SOL    HW234395   2.327   0.553   3.470  1.7363  3.4356  0.2694
 7587SOL     OW34396   0.152   2.785   3.487 -0.7836 -0.0848  0.1682
 7587SOL    HW134397   0.061   2.758   3.504 -0.5367 -1.7034 -0.9790
 7587SOL    HW234398   0.187   2.766   3.573 -1.1449  0.3045  0.4014
 7588SOL     OW34399   2.448   4.575   7.294 -0.3727  0.3188 -0.0948
 7588SOL    HW134400   2.444   4.570   7.199  0.4699 -0.2758 -0.1000
 7588SOL    HW234401   2.418   4.489   7.323 -0.3099  0.9853  2.0207
 7589SOL     OW34402   0.419   4.033   9.420 -0.0135  0.0026  0.3911
 7589SOL    HW134403   0.512   4.041   9.400 -0.3098  0.2877 -0.8753
 7589SOL    HW234404   0.417   4.095   9.493 -0.5072  0.9945 -0.4632
 7590SOL     OW34405   0.002   2.960   9.883  0.5936 -0.6065  0.1995
 7590SOL    HW134406   0.054   2.982   9.960  1.9925 -0.3991 -0.7929
 7590SOL    HW234407   0.025   2.867   9.872  0.7821 -0.3829 -1.3569
 7591SOL     OW34408   0.673   2.896   5.639  0.2588  0.2125  0.1057
 7591SOL    HW134409   0.652   2.917   5.730 -0.6188  1.0986 -0.3038
 7591SOL    HW234410   0.649   2.804   5.630  0.2517  0.3074 -0.8917
 7592SOL     OW34411   4.732   2.720   9.240 -0.2492 -0.2135  0.1989
 7592SOL    HW134412   0.030   2.761   9.162  0.7140 -2.7920 -0.6934
 7592SOL    HW234413   0.063   2.661   9.269  2.7545  2.1328 -2.2994
 7593SOL     OW34414   4.332   1.996   4.305 -0.4426  0.8464 -0.5828
 7593SOL    HW134415   4.347   1.966   4.395  0.4675  2.0009 -0.3505
 7593SOL    HW234416   4.267   2.065   4.314 -1.6393 -0.2387 -0.9476
 7594SOL     OW34417   2.912   2.794   8.500 -0.0174  0.3635 -0.0666
 7594SOL    HW134418   2.940   2.810   8.590  0.5486  0.5968 -0.2901
 7594SOL    HW234419   2.995   2.777   8.457  0.3622 -0.6337  1.0439
 7595SOL     OW34420   4.481   4.318  15.474 -0.9550  0.0405 -0.5037
 7595SOL    HW134421   4.539   4.272  15.413 -0.2016 -0.0397  0.2689
 7595SOL    HW234422   4.526   4.284  15.551  0.6237  2.1974 -0.4550
 7596SOL     OW34423   2.192   2.497  13.028 -0.0852  0.2924  0.3987
 7596SOL    HW134424   2.126   2.522  12.964  0.0314 -0.3372  0.0261
 7596SOL    HW234425   2.250   2.447  12.971 -1.4088 -0.2107 -0.5164
 7597SOL     OW34426   2.042   3.750   2.629  0.1362 -0.2314 -0.2895
 7597SOL    HW134427   2.093   3.769   2.707  0.7984 -1.7806 -0.3343
 7597SOL    HW234428   2.023   3.659   2.651  0.2153 -0.7553 -2.3710
 7598SOL     OW34429   2.371   2.530   6.333 -0.7353  0.0977 -0.3269
 7598SOL    HW134430   2.282   2.511   6.364 -2.0157  2.3028 -2.7297
 7598SOL    HW234431   2.354   2.609   6.282  1.3734  0.9776  0.3491
 7599SOL     OW34432   3.642   3.313   9.297 -0.3991 -0.7731 -0.1183
 7599SOL    HW134433   3.558   3.343   9.265  0.5153  1.7814 -0.0953
 7599SOL    HW234434   3.637   3.227   9.254 -0.9194 -0.0189 -1.5551
 7600SOL     OW34435   4.005   2.785   5.489 -0.1012  0.5247 -0.1265
 7600SOL    HW134436   4.064   2.712   5.510 -2.3042 -0.7194  1.7822
 7600SOL    HW234437   3.963   2.750   5.410 -1.2946 -1.7693  1.5485
 7601SOL     OW34438   0.367   3.241   3.940  0.5522 -0.2010  0.1923
 7601SOL    HW134439   0.428   3.291   3.886  1.1830 -0.3420  0.7673
 7601SOL    HW234440   0.347   3.309   4.004  1.4427  2.1618 -2.0261
 7602SOL     OW34441   2.901   2.258  14.703  0.3263  0.1513 -1.0253
 7602SOL    HW134442   2.811   2.237  14.730  0.0712 -0.7539 -2.5691
 7602SOL    HW234443   2.894   2.214  14.618  0.2162 -0.5152 -0.6697
 7603SOL     OW34444   1.215   3.096   2.906  0.4645 -0.2519 -0.0638
 7603SOL    HW134445   1.169   3.038   2.846 -1.3678  0.2091  0.9153
 7603SOL    HW234446   1.145   3.149   2.943 -1.8867 -1.1730 -3.1797
 7604SOL     OW34447   4.024   3.406   6.026  0.0121  0.0147  0.8800
 7604SOL    HW134448   4.027   3.497   5.996  4.3991 -0.9202 -1.4213
 7604SOL    HW234449   4.112   3.393   6.061  0.4126  2.6085  0.8085
 7605SOL     OW34450   1.876   2.032   7.325 -0.3921 -0.1848 -0.5241
 7605SOL    HW134451   1.861   2.093   7.253  0.1506 -0.4191 -0.8357
 7605SOL    HW234452   1.972   2.026   7.325 -0.3717  0.1297 -0.0184
 7606SOL     OW34453   3.257   4.244   4.992  0.5036 -0.4634  0.3226
 7606SOL    HW134454   3.249   4.271   5.083 -2.2745 -1.4301  0.3732
 7606SOL    HW234455   3.316   4.310   4.956 -0.4861  0.8055  1.0331
 7607SOL     OW34456   2.384   4.712   1.167  0.0375 -0.3563  0.4313
 7607SOL    HW134457   2.362   4.629   1.209 -0.1156  1.3119  3.6509
 7607SOL    HW234458   2.296   0.007   1.153 -0.3305 -1.6749 -0.4264
 7608SOL     OW34459   2.604   4.264   4.245  0.1177  0.0852 -0.4829
 7608SOL    HW134460   2.677   4.283   4.186 -0.4985  2.5674 -0.4556
 7608SOL    HW234461   2.650   4.280   4.327 -2.0910  0.4557  0.6749
 7609SOL     OW34462   0.396   1.412   3.901 -0.1120 -0.0956 -0.4886
 7609SOL    HW134463   0.436   1.450   3.823 -2.0250  1.1711 -0.8501
 7609SOL    HW234464   0.314   1.383   3.863 -0.7558 -1.1847  1.7477
 7610SOL     OW34465   2.377   1.915   6.893 -0.3715 -0.9200 -0.1292
 7610SOL    HW134466   2.433   1.850   6.935 -0.6613 -1.3543 -0.4157
 7610SOL    HW234467   2.317   1.862   6.841  0.5515  0.6258 -2.7630
 7611SOL     OW34468   2.871   4.112   3.068 -0.1332  0.4979  0.2146
 7611SOL    HW134469   2.826   4.191   3.096  1.3632  1.3052  0.3119
 7611SOL    HW234470   2.821   4.039   3.104  0.8808  0.9056  2.3879
 7612SOL     OW34471   0.234   1.959   5.984 -0.0577 -0.8487 -0.3244
 7612SOL    HW134472   0.267   1.906   6.056  0.7753 -1.7035 -1.3357
 7612SOL    HW234473   0.300   1.943   5.916 -0.1540 -1.4184 -0.2841
 7613SOL     OW34474   0.812   2.506   3.487 -0.6713 -1.0547 -0.3856
 7613SOL    HW134475   0.869   2.550   3.550 -1.9845  4.1825 -2.8688
 7613SOL    HW234476   0.804   2.421   3.531  0.2761 -0.5090  0.8485
 7614SOL     OW34477   2.450   1.711   1.466 -0.0643 -0.2992  0.0942
 7614SOL    HW134478   2.447   1.800   1.501 -0.8759 -1.6436  3.4801
 7614SOL    HW234479   2.513   1.717   1.394 -0.3235  0.0426 -0.1031
 7615SOL     OW34480   2.874   1.830   1.652 -0.0096 -0.2661  0.5084
 7615SOL    HW134481   2.943   1.881   1.694  0.1805 -2.8417  3.3056
 7615SOL    HW234482   2.921   1.747   1.641 -0.7780 -0.3730 -1.9662
 7616SOL     OW34483   2.288   3.493   8.150 -0.3351  0.0996  0.7870
 7616SOL    HW134484   2.311   3.402   8.164  0.7401  0.3836  0.8760
 7616SOL    HW234485   2.262   3.496   8.058 -1.3902 -1.3052  1.0507
 7617SOL     OW34486   3.295   3.529   7.389  0.0311  0.0709 -0.2439
 7617SOL    HW134487   3.318   3.438   7.408  2.5910  0.4577 -1.4653
 7617SOL    HW234488   3.365   3.582   7.426  1.1521 -2.0596  0.7124
 7618SOL     OW34489   1.971   2.095   8.846  0.3226 -0.5654 -0.8628
 7618SOL    HW134490   1.881   2.089   8.878 -0.4644 -0.5752 -3.0768
 7618SOL    HW234491   1.991   2.189   8.848 -0.6798 -0.3671  0.2510
 7619SOL     OW34492   1.590   1.355   6.204 -0.3841 -0.2451  0.0888
 7619SOL    HW134493   1.540   1.407   6.141 -0.8286 -0.2387  0.4426
 7619SOL    HW234494   1.521   1.310   6.254 -0.1642 -1.7562 -0.9599
 7620SOL     OW34495   3.250   3.095   5.471  0.3731 -0.0737  0.0633
 7620SOL    HW134496   3.214   3.095   5.560 -1.2904  2.0056 -0.6267
 7620SOL    HW234497   3.217   3.014   5.433 -1.2994  0.2397  0.8445
 7621SOL     OW34498   0.717   4.228   8.900 -0.4884 -0.1797 -0.3492
 7621SOL    HW134499   0.625   4.202   8.908 -0.3173 -1.0656 -1.4156
 7621SOL    HW234500   0.728   4.244   8.994 -0.7542  2.2705 -0.7181
 7622SOL     OW34501   0.711   2.858   7.425  0.0300  0.3417  0.0869
 7622SOL    HW134502   0.716   2.949   7.397 -1.3493  0.3273 -0.1872
 7622SOL    HW234503   0.804   2.843   7.442 -0.0291 -0.0815  0.0407
 7623SOL     OW34504   3.049   0.153   9.069 -0.3401 -0.1316  0.0906
 7623SOL    HW134505   2.989   0.159   8.995 -2.3330 -0.2875  1.7014
 7623SOL    HW234506   3.032   0.064   9.100  0.7288 -0.3205  0.1349
 7624SOL     OW34507   1.318   4.509   3.318 -0.1032 -0.3790 -0.8568
 7624SOL    HW134508   1.251   4.452   3.281 -0.8826 -0.7523  1.1284
 7624SOL    HW234509   1.403   4.467   3.302 -0.0327 -0.5990  0.0869
 7625SOL     OW34510   4.309   3.325   4.570  0.3066 -0.9886 -0.1176
 7625SOL    HW134511   4.384   3.317   4.630  0.8672 -0.3855 -0.7347
 7625SOL    HW234512   4.296   3.236   4.536  1.8792 -0.8584 -1.0851
 7626SOL     OW34513   4.033   1.730  10.133 -0.3377  0.0166 -0.5579
 7626SOL    HW134514   4.091   1.728  10.058  0.9548  1.8251  0.3904
 7626SOL    HW234515   3.978   1.654  10.115  0.7865 -0.6412 -1.1819
 7627SOL     OW34516   4.441   2.179  16.541 -0.2008 -0.7139 -0.3327
 7627SOL    HW134517   4.486   2.214  16.618  0.5486 -2.4191 -0.0096
 7627SOL    HW234518   4.454   2.085  16.546 -1.9770 -0.8498  1.6189
 7628SOL     OW34519   4.150   1.045   8.009 -0.3971 -0.0626 -0.5429
 7628SOL    HW134520   4.191   1.131   8.002 -0.1038 -0.1399  0.2867
 7628SOL    HW234521   4.222   0.984   7.991  0.2727  0.4716  0.3702
 7629SOL     OW34522   0.989   2.175   6.691  0.3553 -0.3053  0.1674
 7629SOL    HW134523   0.981   2.080   6.680  1.2341 -0.4202  0.5124
 7629SOL    HW234524   1.044   2.188   6.769 -0.6142  0.6877  0.6812
 7630SOL     OW34525   0.615   4.175  17.238 -0.2709  0.3893  0.0712
 7630SOL    HW134526   0.530   4.147  17.204  0.4196 -0.0994 -1.2749
 7630SOL    HW234527   0.593   4.149  17.327 -1.6204  4.3451  0.8876
 7631SOL     OW34528   0.389   2.901   8.545 -0.3717 -0.5299 -0.0061
 7631SOL    HW134529   0.342   2.895   8.628 -0.0077 -1.7708  0.1240
 7631SOL    HW234530   0.315   2.940   8.499  0.4428  0.0458 -0.8137
 7632SOL     OW34531   0.127   1.976   5.178  0.2687 -0.5865 -0.2712
 7632SOL    HW134532   0.168   2.041   5.235 -0.0986 -1.0593  0.5267
 7632SOL    HW234533   0.204   1.933   5.141 -0.5046  0.5974 -3.3086
 7633SOL     OW34534   4.728   3.340   5.734 -0.2997 -0.0615  0.2559
 7633SOL    HW134535   4.699   3.250   5.752 -1.8290  0.4081  0.0886
 7633SOL    HW234536   4.679   3.373   5.659 -0.8909 -1.4125  0.0376
 7634SOL     OW34537   0.129   0.565   6.027 -0.6651 -0.6068  0.0181
 7634SOL    HW134538   0.100   0.518   6.105  2.5155  3.1829  3.5141
 7634SOL    HW234539   0.178   0.641   6.059 -0.6884 -0.3258 -0.6234
 7635SOL     OW34540   2.431   1.443  10.982  0.1256  0.2842 -1.0158
 7635SOL    HW134541   2.438   1.537  11.001  0.4933  0.1883 -0.6676
 7635SOL    HW234542   2.338   1.433  10.962 -0.2927  1.1556  0.4655
 7636SOL     OW34543   0.966   1.184   4.124 -0.0252  0.4728  0.4628
 7636SOL    HW134544   0.911   1.235   4.183 -2.2016  0.3184 -1.4062
 7636SOL    HW234545   0.946   1.214   4.035 -0.2722 -3.4269 -0.7989
 7637SOL     OW34546   1.697   1.605   3.525 -0.7484 -0.3111  0.2372
 7637SOL    HW134547   1.701   1.636   3.615  0.8490 -2.5501  0.9593
 7637SOL    HW234548   1.602   1.611   3.516 -0.3116  0.0113 -4.0166
 7638SOL     OW34549   0.383   4.479   7.583  0.0371  0.2166  0.1076
 7638SOL    HW134550   0.307   4.447   7.632  0.3827 -0.7868 -0.0131
 7638SOL    HW234551   0.341   4.519   7.507  1.5050  0.5611 -0.5306
 7639SOL     OW34552   2.970   0.456  16.438 -0.3752  0.2292  0.9648
 7639SOL    HW134553   2.965   0.551  16.431  0.8029  0.2799  0.8371
 7639SOL    HW234554   3.060   0.452  16.470 -0.4397 -0.0687  1.1051
 7640SOL     OW34555   1.236   2.729   3.936 -0.1817  0.3325  0.2461
 7640SOL    HW134556   1.239   2.688   4.022  0.7025  1.8065  0.9089
 7640SOL    HW234557   1.236   2.659   3.871  0.7861  0.2225  0.3579
 7641SOL     OW34558   2.511   0.097  17.116  0.1292  0.1734 -0.0610
 7641SOL    HW134559   2.466   0.159  17.059 -1.5873 -0.5646  0.4793
 7641SOL    HW234560   2.460   0.021  17.086  0.8386 -0.6642  0.8456
 7642SOL     OW34561   2.134   0.196   7.295 -0.5814 -0.2062 -0.1529
 7642SOL    HW134562   2.161   0.275   7.249  2.2730  0.0159  1.9184
 7642SOL    HW234563   2.132   0.138   7.219 -1.9631 -1.1396  0.5937
 7643SOL     OW34564   0.424   1.900   7.512  0.2540 -0.1729 -0.4656
 7643SOL    HW134565   0.363   1.828   7.529 -0.3044  1.0512  2.7426
 7643SOL    HW234566   0.511   1.864   7.528 -0.3241 -0.9815  0.8682
 7644SOL     OW34567   1.103   1.634   9.066 -0.6583  0.0270  0.0409
 7644SOL    HW134568   1.027   1.594   9.108 -0.8871 -0.2906 -0.6798
 7644SOL    HW234569   1.135   1.695   9.133  1.7995 -0.8309 -0.3221
 7645SOL     OW34570   0.826   0.783   7.894 -0.9192 -0.0368  0.3331
 7645SOL    HW134571   0.742   0.787   7.848 -0.0580  1.6464 -1.0594
 7645SOL    HW234572   0.825   0.863   7.946  1.1200  0.0177  0.3031
 7646SOL     OW34573   0.407   4.576  10.449 -0.1927  0.1252  0.2533
 7646SOL    HW134574   0.413   4.634  10.525 -3.7084  2.0977 -0.9784
 7646SOL    HW234575   0.500   4.553  10.442  0.1894  1.5774  0.5941
 7647SOL     OW34576   2.927   3.295   7.816 -0.0713  0.1051  0.6653
 7647SOL    HW134577   2.903   3.204   7.800  0.0963 -0.0718  1.4201
 7647SOL    HW234578   3.002   3.313   7.760 -0.1147 -0.1199  0.5385
 7648SOL     OW34579   2.002   3.080  15.180 -0.2066  0.0331 -0.2934
 7648SOL    HW134580   1.985   3.029  15.101  3.2720 -1.7763  0.1043
 7648SOL    HW234581   1.984   3.171  15.158  0.0270 -0.3482 -2.0500
 7649SOL     OW34582   1.893   4.282  12.766 -0.0402  0.3167  0.1810
 7649SOL    HW134583   1.808   4.240  12.782 -0.4735  0.9307 -0.5642
 7649SOL    HW234584   1.891   4.253  12.675  1.2007  1.4302 -0.2006
 7650SOL     OW34585   3.721   2.232   7.698  0.5088  0.5984 -0.6536
 7650SOL    HW134586   3.763   2.147   7.693  0.7670  0.6459  0.6656
 7650SOL    HW234587   3.799   2.287   7.693  0.4319  0.8436  0.7351
 7651SOL     OW34588   2.225   0.138  10.278 -0.5355  0.3904  0.0719
 7651SOL    HW134589   2.211   0.053  10.320  2.4286 -0.5776 -0.8995
 7651SOL    HW234590   2.160   0.148  10.209 -0.0072 -0.2335 -0.5221
 7652SOL     OW34591   1.953   3.217   8.888  0.4929  0.1580 -0.0255
 7652SOL    HW134592   2.045   3.195   8.904  0.4354 -0.6186 -0.7751
 7652SOL    HW234593   1.960   3.306   8.924 -1.3191 -0.2039  1.2409
 7653SOL     OW34594   1.019   1.689   7.940  0.5081  0.1047  0.3088
 7653SOL    HW134595   1.109   1.718   7.955  1.2216 -1.8105 -0.1362
 7653SOL    HW234596   1.017   1.663   7.848 -2.7866  0.2165  0.3614
 7654SOL     OW34597   0.742   0.266   9.043  0.0484 -0.0660 -0.5543
 7654SOL    HW134598   0.819   0.210   9.033  0.9003  1.2099 -1.0600
 7654SOL    HW234599   0.738   0.280   9.137 -1.0038 -1.5243 -0.3628
 7655SOL     OW34600   1.547   0.341  12.701  0.2213 -0.1642  0.2097
 7655SOL    HW134601   1.583   0.374  12.619  0.4525  1.4829  0.9787
 7655SOL    HW234602   1.457   0.373  12.692  0.1537 -0.6555 -0.9375
 7656SOL     OW34603   0.709   4.564  15.371 -0.5158 -0.0595  0.0769
 7656SOL    HW134604   0.785   4.536  15.422 -1.1956  0.0741  1.1660
 7656SOL    HW234605   0.650   4.502  15.412 -0.1375 -0.6904 -0.3388
 7657SOL     OW34606   0.966   1.628   7.667 -0.2304 -0.0954  0.3575
 7657SOL    HW134607   0.967   1.710   7.616 -0.1393  0.3525  1.0809
 7657SOL    HW234608   0.881   1.597   7.636 -2.4990  4.5990  1.8089
 7658SOL     OW34609   1.477   0.795   3.138  0.4791  0.5092  0.0008
 7658SOL    HW134610   1.559   0.787   3.186 -0.1079  2.9164  1.4416
 7658SOL    HW234611   1.440   0.707   3.143  2.5815 -0.3186  0.7498
 7659SOL     OW34612   3.344   3.500   2.404  0.3117  0.4760  0.2374
 7659SOL    HW134613   3.390   3.542   2.477  0.6560 -2.1212  1.5378
 7659SOL    HW234614   3.413   3.463   2.349 -1.6669 -1.6383 -0.8379
 7660SOL     OW34615   3.874   3.760   6.410  0.3224  0.2484  0.0052
 7660SOL    HW134616   3.925   3.758   6.329  1.9592  2.2468  0.9971
 7660SOL    HW234617   3.792   3.800   6.380  0.4933  0.0295 -0.7480
 7661SOL     OW34618   3.516   4.063   7.932  0.1440  0.2860  0.1089
 7661SOL    HW134619   3.611   4.068   7.947 -0.0657 -0.5321  1.6080
 7661SOL    HW234620   3.509   4.096   7.842 -0.3162 -0.3366 -0.0767
 7662SOL     OW34621   2.728   4.574   6.369  0.2430  0.2020 -0.8074
 7662SOL    HW134622   2.753   4.496   6.319  0.3320  0.6825 -1.5111
 7662SOL    HW234623   2.758   4.645   6.312 -1.6685  0.6879 -1.2024
 7663SOL     OW34624   3.434   2.876  11.300  0.0441 -0.1781 -0.4788
 7663SOL    HW134625   3.367   2.944  11.296  0.6018  0.4269  0.5696
 7663SOL    HW234626   3.477   2.895  11.383  2.2258 -0.6952 -1.4674
 7664SOL     OW34627   4.562   4.453  12.928  0.4609  0.3672  0.4591
 7664SOL    HW134628   4.602   4.426  12.845 -1.6555  0.3220 -0.5484
 7664SOL    HW234629   4.642   4.440  12.979  1.3436 -3.1277 -1.7669
 7665SOL     OW34630   1.280   0.312   6.767 -0.2041  0.0832 -0.0452
 7665SOL    HW134631   1.296   0.252   6.694 -1.5204 -0.8203  0.4116
 7665SOL    HW234632   1.368   0.350   6.768 -0.5320  0.8321 -0.0625
 7666SOL     OW34633   0.649   0.323   6.909  0.0348 -0.1249  1.1275
 7666SOL    HW134634   0.623   0.323   6.817 -1.6039 -1.8412  1.5832
 7666SOL    HW234635   0.572   0.365   6.947  0.6379  2.0368 -0.0971
 7667SOL     OW34636   0.026   3.486   7.435  0.0453  0.6040  0.4905
 7667SOL    HW134637   4.674   3.470   7.459 -0.2385  2.0628  0.3548
 7667SOL    HW234638   0.057   3.493   7.525 -0.7422 -2.4121  1.0072
 7668SOL     OW34639   3.676   3.939   1.994  0.2736 -0.6095 -0.4673
 7668SOL    HW134640   3.686   3.852   1.955 -2.2877 -1.0248 -0.1801
 7668SOL    HW234641   3.594   3.926   2.042 -0.0116 -1.8424 -1.2736
 7669SOL     OW34642   3.996   2.281  12.201 -0.3504  0.1241  0.1266
 7669SOL    HW134643   4.003   2.305  12.294 -2.9124  0.6019  0.1931
 7669SOL    HW234644   4.061   2.339  12.161  0.4508  0.6929  2.2449
 7670SOL     OW34645   2.481   4.120  14.079  0.2462  0.5463 -0.4429
 7670SOL    HW134646   2.562   4.169  14.092  0.7046 -0.1804 -0.6133
 7670SOL    HW234647   2.497   4.058  14.008  0.5428  0.8570 -0.6455
 7671SOL     OW34648   4.463   1.946   6.386  0.0814  0.6209  0.0359
 7671SOL    HW134649   4.509   1.988   6.459 -0.6601  1.7332 -0.1265
 7671SOL    HW234650   4.506   1.861   6.379  2.0039  1.3147  3.1778
 7672SOL     OW34651   4.301   1.391   3.417  0.1679 -0.4685 -0.4616
 7672SOL    HW134652   4.392   1.398   3.445  0.0327  0.1744 -0.1875
 7672SOL    HW234653   4.301   1.340   3.335  1.4831 -0.6950 -0.3156
 7673SOL     OW34654   3.839   1.910  13.686 -0.2537 -0.0727 -0.1471
 7673SOL    HW134655   3.896   1.975  13.646  0.7466  0.3693  2.0027
 7673SOL    HW234656   3.895   1.832  13.684  1.2678  1.0143  0.3757
 7674SOL     OW34657   4.511   1.925   6.969  0.1883  0.4317  0.2269
 7674SOL    HW134658   4.536   1.838   6.938 -0.2462  0.5519 -0.4667
 7674SOL    HW234659   4.428   1.911   7.013 -0.1571 -3.9597 -1.8435
 7675SOL     OW34660   3.598   2.645   2.287  0.2356 -0.3714 -0.4577
 7675SOL    HW134661   3.635   2.711   2.346  0.2649 -0.9140  0.1341
 7675SOL    HW234662   3.603   2.686   2.201 -0.8547 -0.2941 -0.4810
 7676SOL     OW34663   3.993   2.677   7.660  0.2265 -0.4008 -0.1036
 7676SOL    HW134664   4.077   2.722   7.676 -0.8639  0.8767  2.0398
 7676SOL    HW234665   3.990   2.696   7.566 -1.2142 -0.4459 -0.0579
 7677SOL     OW34666   1.239   1.401   9.277  0.2708  0.1979  0.1694
 7677SOL    HW134667   1.202   1.386   9.364 -0.8042 -0.3033 -0.3693
 7677SOL    HW234668   1.317   1.456   9.287  0.3856  0.3327 -1.3658
 7678SOL     OW34669   4.379   2.057   2.183 -0.2576 -0.5501 -0.0414
 7678SOL    HW134670   4.384   1.962   2.189  1.2009 -0.3123  2.3501
 7678SOL    HW234671   4.441   2.083   2.115 -0.2507  1.6808  0.8116
 7679SOL     OW34672   3.185   4.734   6.754  0.1171 -0.2998  0.1624
 7679SOL    HW134673   3.150   0.042   6.829 -0.1980 -0.3130  0.0247
 7679SOL    HW234674   3.111   4.729   6.693 -0.6022  1.4645  0.8959
 7680SOL     OW34675   0.354   0.759   6.911 -0.9805 -0.4448  0.5579
 7680SOL    HW134676   0.322   0.848   6.923 -0.4968 -0.4607  2.0130
 7680SOL    HW234677   0.307   0.723   6.836  0.6530  0.4885 -0.9016
 7681SOL     OW34678   3.748   0.595   2.487 -0.1595 -0.0306 -0.2906
 7681SOL    HW134679   3.763   0.642   2.569 -1.8728  1.1318 -0.6519
 7681SOL    HW234680   3.705   0.661   2.433  0.4658 -0.1322 -0.9271
 7682SOL     OW34681   1.514   2.537   5.999  0.0484  0.3122 -0.2372
 7682SOL    HW134682   1.509   2.586   6.081  0.0734 -1.3188  0.7166
 7682SOL    HW234683   1.563   2.593   5.938  1.1160  3.0793  3.1754
 7683SOL     OW34684   3.098   3.969   5.169  0.1489  0.0615  0.0121
 7683SOL    HW134685   3.049   3.899   5.126 -0.0140 -0.5334  1.1624
 7683SOL    HW234686   3.191   3.950   5.160  0.3679 -0.5919  3.7131
 7684SOL     OW34687   2.455   0.878   8.399 -0.0894 -0.0723  0.2952
 7684SOL    HW134688   2.544   0.850   8.378 -0.2674  0.3909 -1.0771
 7684SOL    HW234689   2.416   0.809   8.453 -1.2579  1.2545  1.1674
 7685SOL     OW34690   1.153   3.048   6.865  0.2048 -0.1972  0.4961
 7685SOL    HW134691   1.097   3.033   6.942 -1.0723  0.0528 -0.3807
 7685SOL    HW234692   1.155   3.144   6.862  2.8678 -0.2797  0.0405
 7686SOL     OW34693   1.832   4.350   6.268  0.0288  0.7110 -0.3501
 7686SOL    HW134694   1.896   4.417   6.292 -0.3406  1.9018 -2.7583
 7686SOL    HW234695   1.746   4.379   6.297  0.2903  0.5567  0.5800
 7687SOL     OW34696   3.430   4.435   8.980  0.0736 -0.3805  1.0678
 7687SOL    HW134697   3.369   4.363   8.992  0.8096 -1.2436 -0.2982
 7687SOL    HW234698   3.514   4.394   9.000  1.7938  2.2609 -0.6317
 7688SOL     OW34699   1.029   0.576   3.089 -0.2570  0.1685 -0.9763
 7688SOL    HW134700   0.981   0.507   3.044 -0.3702 -0.8146  0.6503
 7688SOL    HW234701   1.112   0.579   3.040  1.5604 -1.4172  2.0006
 7689SOL     OW34702   4.395   4.317  11.531 -0.6791 -0.5546  1.0209
 7689SOL    HW134703   4.480   4.361  11.537 -1.1789  0.2779  2.0208
 7689SOL    HW234704   4.415   4.240  11.585  0.6999 -0.5461  0.5181
 7690SOL     OW34705   2.635   2.839   6.056 -0.0655  0.2800  0.2014
 7690SOL    HW134706   2.619   2.791   6.137  1.4482 -2.4860 -1.1276
 7690SOL    HW234707   2.729   2.821   6.053  0.1936  1.7228 -0.5632
 7691SOL     OW34708   4.585   1.672  12.867 -0.1947 -0.1568 -0.1673
 7691SOL    HW134709   4.590   1.633  12.954 -0.9099 -1.0435 -0.5270
 7691SOL    HW234710   4.627   1.756  12.886 -3.1839  1.0804  0.9231
 7692SOL     OW34711   1.295   1.342   8.443  0.3179 -0.0527  0.1799
 7692SOL    HW134712   1.254   1.288   8.511 -0.6124  2.0931  1.3321
 7692SOL    HW234713   1.341   1.409   8.495  0.8979  0.0398 -0.4555
 7693SOL     OW34714   0.051   3.660   5.622  0.1885  0.1901  0.2266
 7693SOL    HW134715   0.041   3.658   5.527 -0.0661  1.1197  0.2383
 7693SOL    HW234716   0.135   3.625   5.650  0.8952  0.9469 -0.9434
 7694SOL     OW34717   1.355   1.167  14.356 -0.1485  0.3585  0.2775
 7694SOL    HW134718   1.440   1.158  14.313 -0.9280  0.0161 -1.1974
 7694SOL    HW234719   1.292   1.135  14.292 -0.5666 -0.5203  1.1130
 7695SOL     OW34720   4.028   0.911  17.163  0.3520  0.0880  0.2005
 7695SOL    HW134721   4.107   0.937  17.211 -0.0974  2.8697 -0.5613
 7695SOL    HW234722   3.969   0.879  17.231 -1.2969  1.6534 -0.5025
 7696SOL     OW34723   2.079   3.232   2.818 -0.1590  0.0825  0.0325
 7696SOL    HW134724   2.011   3.237   2.751 -2.0628  2.5481  2.1694
 7696SOL    HW234725   2.151   3.188   2.772 -1.4178 -0.3108 -1.5519
 7697SOL     OW34726   1.534   4.267   3.568  0.0780 -0.2547 -0.5730
 7697SOL    HW134727   1.600   4.334   3.586  0.8329 -0.9544 -0.7527
 7697SOL    HW234728   1.542   4.265   3.473  2.8505 -3.3935 -0.2717
 7698SOL     OW34729   2.471   3.400  11.099  0.2345 -0.7102 -0.1564
 7698SOL    HW134730   2.567   3.402  11.092  0.1777  0.4763 -0.5029
 7698SOL    HW234731   2.452   3.491  11.077 -1.1642 -1.1095 -0.5933
 7699SOL     OW34732   0.217   3.546  11.105  0.1738 -0.7485 -0.0825
 7699SOL    HW134733   0.223   3.452  11.127  1.8001  0.0421  2.9771
 7699SOL    HW234734   0.135   3.574  11.144  1.2260 -0.2159  1.7630
 7700SOL     OW34735   1.036   1.028   2.297 -0.0241 -0.6188  0.2783
 7700SOL    HW134736   1.091   1.000   2.224  1.1070  0.3780  0.7511
 7700SOL    HW234737   1.105   1.052   2.359  0.4098  1.8599 -1.1933
 7701SOL     OW34738   3.348   2.347   6.263  0.3999  0.0257 -0.3955
 7701SOL    HW134739   3.348   2.442   6.256 -1.1729 -0.1366 -2.4533
 7701SOL    HW234740   3.393   2.320   6.183  2.1972 -2.0843  1.3305
 7702SOL     OW34741   3.303   3.347   4.317 -0.1666  0.3024 -0.4639
 7702SOL    HW134742   3.278   3.352   4.409  2.6722 -0.9182  0.3805
 7702SOL    HW234743   3.332   3.437   4.305 -0.4508  0.4985  0.3250
 7703SOL     OW34744   0.279   4.329   9.288 -0.1755  0.1869 -0.4696
 7703SOL    HW134745   0.188   4.312   9.310 -0.7257  2.1896 -1.2047
 7703SOL    HW234746   0.283   4.318   9.193 -0.4332 -0.0034 -0.4566
 7704SOL     OW34747   0.919   1.948   4.697 -0.1325 -0.4141 -0.4825
 7704SOL    HW134748   0.989   1.980   4.641  0.8742 -1.0330  0.4108
 7704SOL    HW234749   0.843   1.945   4.640 -0.8642 -2.2530  0.5520
 7705SOL     OW34750   4.573   2.148   0.055 -0.0031 -0.2024  0.2344
 7705SOL    HW134751   4.668   2.140   0.051  0.0250  0.8825 -1.3440
 7705SOL    HW234752   4.533   2.097  17.739 -2.1361  1.9536 -0.1156
 7706SOL     OW34753   1.843   2.983   2.949 -0.1914 -0.2964  0.3520
 7706SOL    HW134754   1.828   3.058   3.007  1.6541 -0.1923  0.7094
 7706SOL    HW234755   1.755   2.970   2.915  0.3806 -1.1525 -0.7897
 7707SOL     OW34756   1.198   2.261   5.898 -0.1333 -0.4004  0.5501
 7707SOL    HW134757   1.281   2.297   5.868 -0.6492 -0.3459 -0.8211
 7707SOL    HW234758   1.166   2.330   5.956  0.9988 -0.5706  1.3709
 7708SOL     OW34759   4.712   2.099   2.242  0.1866 -0.2112 -0.2560
 7708SOL    HW134760   0.055   2.067   2.207  0.6238 -0.5386  1.0889
 7708SOL    HW234761   4.720   2.193   2.228 -1.5223 -0.0818 -0.4174
 7709SOL     OW34762   4.082   1.225   5.545 -0.0026 -0.2935  0.0487
 7709SOL    HW134763   4.038   1.193   5.466 -0.2127 -1.6398  0.7042
 7709SOL    HW234764   4.018   1.292   5.570 -0.9512  0.1308 -3.5473
 7710SOL     OW34765   0.073   0.046   9.184 -0.1951  0.2615  0.2900
 7710SOL    HW134766   0.048   0.137   9.198  2.0042  1.0507 -0.9459
 7710SOL    HW234767   0.056   0.016   9.273 -1.2256 -0.7732 -0.2481
 7711SOL     OW34768   4.279   1.266  16.123  0.3037  0.2600 -0.0049
 7711SOL    HW134769   4.359   1.270  16.070 -0.1508  1.6357 -0.5912
 7711SOL    HW234770   4.312   1.306  16.203  1.8823  0.5364 -0.8068
 7712SOL     OW34771   0.716   1.062   3.876  0.7586  0.1807  0.3005
 7712SOL    HW134772   0.786   1.126   3.863  0.1347  0.5839 -1.0861
 7712SOL    HW234773   0.767   0.981   3.871  1.0967  0.3374  1.2998
 7713SOL     OW34774   0.255   2.032   1.205 -0.0000  0.0014  0.3091
 7713SOL    HW134775   0.340   2.027   1.248 -0.1686  1.3323  0.8023
 7713SOL    HW234776   0.247   1.946   1.164 -0.5688  0.7349 -1.1080
 7714SOL     OW34777   3.297   2.466   8.717 -0.5018 -0.0863 -0.2425
 7714SOL    HW134778   3.333   2.378   8.734  0.4945  0.8594  2.6698
 7714SOL    HW234779   3.205   2.445   8.734 -0.2012  0.8360  2.6598
 7715SOL     OW34780   4.539   3.849  11.972  0.0234 -0.1604 -0.1981
 7715SOL    HW134781   4.608   3.899  11.929  1.0376 -1.2249  0.2135
 7715SOL    HW234782   4.581   3.764  11.971 -0.2426 -0.2914 -0.2785
 7716SOL     OW34783   1.560   4.350   3.297 -0.7260 -0.0092 -0.1936
 7716SOL    HW134784   1.523   4.382   3.214  0.5659 -1.2090 -1.2425
 7716SOL    HW234785   1.648   4.380   3.274 -0.6355  0.3260  0.5946
 7717SOL     OW34786   0.745   3.389   5.397  0.0598  0.3408 -0.4558
 7717SOL    HW134787   0.810   3.406   5.328  1.0642 -2.2273 -0.1304
 7717SOL    HW234788   0.684   3.341   5.341 -1.0569 -0.2295  1.2533
 7718SOL     OW34789   0.997   2.082  10.594  0.4119 -0.4529 -0.0197
 7718SOL    HW134790   0.990   2.034  10.511  2.6106 -0.3924 -0.2534
 7718SOL    HW234791   0.941   2.020  10.640 -1.4404  0.6138 -0.8535
 7719SOL     OW34792   3.537   2.794  11.074 -0.3980 -0.1214 -0.1978
 7719SOL    HW134793   3.518   2.838  11.157 -0.8819 -1.5288  0.4327
 7719SOL    HW234794   3.469   2.727  11.077 -1.9914  1.5468  1.3068
 7720SOL     OW34795   1.642   4.078  13.816 -0.1526 -0.4825 -0.1128
 7720SOL    HW134796   1.634   4.131  13.895  3.7142  0.8952 -0.6268
 7720SOL    HW234797   1.712   4.017  13.839 -0.6247 -0.3144  1.7721
 7721SOL     OW34798   0.753   3.479  10.713  0.7216  0.4391 -0.3029
 7721SOL    HW134799   0.677   3.471  10.655  0.2681 -0.0127  0.3578
 7721SOL    HW234800   0.768   3.574  10.707 -0.1307  0.7093  1.9141
 7722SOL     OW34801   2.399   2.276   6.468  0.7509 -0.0132 -0.0349
 7722SOL    HW134802   2.337   2.295   6.397 -1.5827 -2.4040  1.3739
 7722SOL    HW234803   2.371   2.325   6.545  2.8376 -0.0564  0.7513
 7723SOL     OW34804   4.218   3.707   6.218 -0.2904  0.8964  0.0827
 7723SOL    HW134805   4.193   3.647   6.288  1.6526 -2.0914 -1.7866
 7723SOL    HW234806   4.132   3.733   6.186 -0.5497 -0.2654 -0.1486
 7724SOL     OW34807   3.969   3.773   6.147  0.0875  0.3961 -0.0280
 7724SOL    HW134808   3.937   3.859   6.120  2.0937  0.5003 -2.1028
 7724SOL    HW234809   3.961   3.728   6.063  0.8087 -0.9354  0.6250
 7725SOL     OW34810   2.099   1.724  16.798 -0.4448 -0.1810  0.0650
 7725SOL    HW134811   2.192   1.724  16.821 -0.5281 -0.2795  0.4071
 7725SOL    HW234812   2.089   1.630  16.782 -0.3044  0.0617 -1.4156
 7726SOL     OW34813   3.815   3.890   5.368 -0.0439  0.0578 -0.4142
 7726SOL    HW134814   3.750   3.828   5.335  2.1402 -2.6024  0.2550
 7726SOL    HW234815   3.891   3.849   5.327 -0.4319 -0.2044 -0.8673
 7727SOL     OW34816   1.074   1.560   5.509 -0.3181  0.4209  0.6627
 7727SOL    HW134817   1.151   1.594   5.553  1.5719 -1.6590 -1.0606
 7727SOL    HW234818   1.001   1.615   5.539 -0.9772  0.3254 -0.7537
 7728SOL     OW34819   3.133   0.484   7.918 -0.1758  0.4531  0.0150
 7728SOL    HW134820   3.226   0.506   7.924 -0.7858  2.6733  1.0187
 7728SOL    HW234821   3.129   0.500   7.823 -1.1986 -1.5055 -0.2713
 7729SOL     OW34822   0.251   2.473   4.421  0.6056 -0.0357  0.2906
 7729SOL    HW134823   0.160   2.485   4.447  0.5219 -1.6892  0.7557
 7729SOL    HW234824   0.242   2.541   4.354  0.2550 -0.4550 -0.0883
 7730SOL     OW34825   0.476   3.558  15.745 -0.5552  0.1019  0.4570
 7730SOL    HW134826   0.471   3.644  15.704  2.1513 -0.7187 -1.6547
 7730SOL    HW234827   0.517   3.582  15.827  2.0344 -0.9552 -0.5192
 7731SOL     OW34828   2.748   0.420   7.723  0.3628  0.0827 -0.2021
 7731SOL    HW134829   2.653   0.415   7.714  0.4468 -0.6625 -0.6351
 7731SOL    HW234830   2.766   0.443   7.632  2.5447 -1.6900 -0.2320
 7732SOL     OW34831   2.952   1.217   9.895  0.7023 -0.3698  0.1575
 7732SOL    HW134832   2.894   1.293   9.897 -0.1101 -1.0132  1.1982
 7732SOL    HW234833   2.915   1.161   9.826 -3.1909  1.8110  0.4995
 7733SOL     OW34834   1.862   2.275   1.470  0.1632  0.3125 -0.2378
 7733SOL    HW134835   1.779   2.239   1.441  0.2613  0.0836 -0.2335
 7733SOL    HW234836   1.864   2.358   1.422  1.4963  1.5733  1.9647
 7734SOL     OW34837   0.094   3.047   2.465 -0.4891  0.8224 -0.4059
 7734SOL    HW134838   0.115   3.038   2.372 -1.7739  2.7707 -0.8954
 7734SOL    HW234839   0.156   2.984   2.503 -3.2104 -2.3193 -1.1333
 7735SOL     OW34840   1.099   3.307   4.552 -0.3672 -0.0204  0.3318
 7735SOL    HW134841   1.069   3.393   4.584  0.2856 -0.1018  1.1577
 7735SOL    HW234842   1.021   3.252   4.547 -0.1281 -0.3934  0.7481
 7736SOL     OW34843   3.112   2.703   0.753 -0.2388 -0.0687 -0.3755
 7736SOL    HW134844   3.053   2.689   0.827 -1.8776 -0.4147 -1.7381
 7736SOL    HW234845   3.104   2.798   0.742  1.8545  0.0304 -1.0154
 7737SOL     OW34846   0.777   1.114   4.379  0.3880 -0.2270  0.4494
 7737SOL    HW134847   0.725   1.106   4.300 -2.2839  0.9988  2.1142
 7737SOL    HW234848   0.721   1.082   4.449  0.4120  1.7873  1.3600
 7738SOL     OW34849   2.461   4.035   4.125 -0.5482  0.1198 -0.0339
 7738SOL    HW134850   2.403   4.076   4.060 -1.5805  1.7442  1.8956
 7738SOL    HW234851   2.499   4.109   4.172  0.4962  0.2023 -1.0163
 7739SOL     OW34852   3.433   2.912   2.436  0.2017 -0.1125 -0.3957
 7739SOL    HW134853   3.385   2.980   2.484  1.2252  0.7437 -0.5861
 7739SOL    HW234854   3.453   2.955   2.353 -0.0857  0.5782 -0.1093
 7740SOL     OW34855   1.195   4.729  10.678  0.3752 -0.3990  0.1315
 7740SOL    HW134856   1.151   4.647  10.699  0.7445 -0.9908 -1.3405
 7740SOL    HW234857   1.276   4.702  10.633  0.5522 -0.7371  0.6522
 7741SOL     OW34858   1.484   0.304   5.831 -0.2407 -0.2127  0.3675
 7741SOL    HW134859   1.496   0.349   5.747 -0.4024  1.0628  1.0313
 7741SOL    HW234860   1.527   0.359   5.895  1.2364 -0.9797  0.0422
 7742SOL     OW34861   1.971   1.613  11.742  0.1640  0.0151  0.3132
 7742SOL    HW134862   1.981   1.520  11.726 -2.3366 -0.0408 -0.9020
 7742SOL    HW234863   1.904   1.600  11.808  0.7308 -1.4128  0.6107
 7743SOL     OW34864   3.813   1.101   3.750 -0.9111  0.0463 -0.3177
 7743SOL    HW134865   3.879   1.079   3.817 -1.2989 -0.6854 -0.1778
 7743SOL    HW234866   3.730   1.103   3.797 -0.5809  1.6673  0.2201
 7744SOL     OW34867   0.127   4.113   7.806  0.6313  0.2046 -0.6307
 7744SOL    HW134868   0.115   4.133   7.899 -0.4644 -0.2543 -0.6679
 7744SOL    HW234869   0.150   4.199   7.770  1.0543  1.1569  1.9115
 7745SOL     OW34870   1.138   4.045   6.186  0.2405 -0.7747  0.1915
 7745SOL    HW134871   1.116   4.138   6.188  1.0417 -0.6113  1.3700
 7745SOL    HW234872   1.046   4.019   6.198  0.3620 -0.5526  1.5792
 7746SOL     OW34873   4.264   2.877  12.840  0.5488  0.0288  0.7572
 7746SOL    HW134874   4.238   2.945  12.778  1.9226 -0.3059 -0.1775
 7746SOL    HW234875   4.208   2.807  12.805  0.7475  0.9208 -1.3110
 7747SOL     OW34876   1.592   1.162   3.566 -0.3059  0.5604  0.4005
 7747SOL    HW134877   1.500   1.181   3.585 -0.1225  2.6278 -0.7137
 7747SOL    HW234878   1.636   1.223   3.626  0.2927  1.6067 -1.0989
 7748SOL     OW34879   1.551   3.743   5.904 -0.0792 -0.1588  0.2501
 7748SOL    HW134880   1.645   3.757   5.895 -0.2260  0.2068 -0.6474
 7748SOL    HW234881   1.514   3.819   5.949 -0.1059  0.8179 -1.4421
 7749SOL     OW34882   1.865   2.373   2.901  0.5144  0.2483 -0.7845
 7749SOL    HW134883   1.803   2.437   2.864  1.3082  2.1748  1.1628
 7749SOL    HW234884   1.814   2.294   2.884 -0.8451  0.8023  0.6722
 7750SOL     OW34885   3.604   3.423  17.131 -0.0813 -0.0111  0.2191
 7750SOL    HW134886   3.554   3.500  17.103  2.3468  2.4200  2.6203
 7750SOL    HW234887   3.596   3.367  17.053 -1.5709 -3.2837  2.7147
 7751SOL     OW34888   0.077   1.942  16.234 -0.1508  0.2632 -0.4442
 7751SOL    HW134889   0.136   1.976  16.167  0.2347 -0.1701 -0.3246
 7751SOL    HW234890   0.124   1.975  16.311  0.0403  0.9258 -0.8444
 7752SOL     OW34891   4.326   3.919   2.274 -0.6746  0.1852  0.5042
 7752SOL    HW134892   4.343   3.839   2.324 -0.6238  0.1421  0.4176
 7752SOL    HW234893   4.366   3.982   2.335  1.2980 -0.8231  0.2580
 7753SOL     OW34894   0.117   3.501   4.304  0.3664 -0.1343  0.1965
 7753SOL    HW134895   0.050   3.541   4.360  0.6809  1.7754 -0.7664
 7753SOL    HW234896   0.083   3.412   4.303 -0.0815  0.0440 -0.5413
 7754SOL     OW34897   3.200   4.339   8.447  0.6590  0.0638 -0.5359
 7754SOL    HW134898   3.244   4.416   8.410  1.1351  0.3127  0.5457
 7754SOL    HW234899   3.251   4.325   8.527  0.9263  0.1516 -0.6910
 7755SOL     OW34900   0.241   1.019   6.927  0.5765 -0.5184  0.4892
 7755SOL    HW134901   0.222   1.095   6.981  0.1437 -0.2496 -0.0384
 7755SOL    HW234902   0.156   0.974   6.928  0.1316  0.3877  3.0236
 7756SOL     OW34903   0.628   1.501   8.744 -0.0211 -0.3247 -0.3568
 7756SOL    HW134904   0.688   1.445   8.794 -1.1655  0.1806  1.6141
 7756SOL    HW234905   0.555   1.439   8.735  0.0134 -0.5211  0.6526
 7757SOL     OW34906   0.725   3.272   2.860 -0.4441  0.0273 -0.3625
 7757SOL    HW134907   0.668   3.347   2.842  0.8264  0.3814 -2.9887
 7757SOL    HW234908   0.672   3.208   2.812  0.1196  1.0317 -2.3175
 7758SOL     OW34909   0.459   1.401  11.342  0.0790 -0.0648  0.0657
 7758SOL    HW134910   0.439   1.374  11.252  2.3432 -3.4304  0.5629
 7758SOL    HW234911   0.551   1.428  11.344  0.1870 -0.6590  2.8931
 7759SOL     OW34912   3.077   1.345   4.001  0.2077  0.0065  0.0826
 7759SOL    HW134913   3.081   1.263   4.050  1.0099 -0.6296 -1.0432
 7759SOL    HW234914   3.070   1.309   3.912 -1.0772 -0.1660  0.2467
 7760SOL     OW34915   2.661   2.000   2.750  0.5862  0.4911 -0.5401
 7760SOL    HW134916   2.698   1.924   2.706 -0.0439 -0.4630  0.5852
 7760SOL    HW234917   2.585   1.965   2.796  1.1621 -0.3277 -0.2090
 7761SOL     OW34918   1.868   4.666   3.702  0.3704 -0.6682 -0.2220
 7761SOL    HW134919   1.914   0.006   3.674 -1.2892  0.2926 -0.2067
 7761SOL    HW234920   1.916   4.656   3.784  2.5700 -2.2243 -1.6761
 7762SOL     OW34921   0.438   2.083   9.194 -0.4861  0.2546 -0.3917
 7762SOL    HW134922   0.364   2.043   9.241 -1.6073  2.4385 -0.2884
 7762SOL    HW234923   0.405   2.102   9.106  2.8316 -1.1557 -1.9369
 7763SOL     OW34924   1.956   2.437   9.319  0.0706  0.0507  0.3677
 7763SOL    HW134925   1.995   2.509   9.269  0.8464  0.1935  1.1767
 7763SOL    HW234926   2.017   2.365   9.304 -2.0194 -1.5512 -0.4636
 7764SOL     OW34927   4.017   0.404   4.731  0.0063  0.1748  0.0161
 7764SOL    HW134928   3.935   0.416   4.780 -0.4346  5.3500 -1.9338
 7764SOL    HW234929   3.983   0.457   4.658  0.0223  2.2011  1.4657
 7765SOL     OW34930   3.529   0.258   3.617 -0.1058  0.2732 -0.7986
 7765SOL    HW134931   3.441   0.260   3.652  0.5916 -1.6199  1.0666
 7765SOL    HW234932   3.516   0.337   3.564  1.4184  1.3016  0.3771
 7766SOL     OW34933   4.102   3.184   3.212 -0.1926 -0.5746  0.0024
 7766SOL    HW134934   4.176   3.192   3.152 -0.0151  0.6294  0.3964
 7766SOL    HW234935   4.084   3.276   3.231 -0.0594 -0.7143  0.7778
 7767SOL     OW34936   4.364   0.307  14.441  0.2550  0.5437 -0.2766
 7767SOL    HW134937   4.279   0.273  14.415 -0.2955  0.2323  1.8783
 7767SOL    HW234938   4.375   0.384  14.386 -0.9717 -0.1499 -1.4795
 7768SOL     OW34939   3.082   1.674   5.818  0.8024  0.1998  0.4221
 7768SOL    HW134940   3.173   1.646   5.811  1.2720  1.8048  0.1054
 7768SOL    HW234941   3.084   1.725   5.898  0.4124  1.5428 -0.4257
 7769SOL     OW34942   2.182   2.286   2.419 -0.2752 -0.3674 -0.4762
 7769SOL    HW134943   2.143   2.327   2.342 -1.6109  0.0246  0.4152
 7769SOL    HW234944   2.270   2.324   2.418 -0.9476  1.2073  1.4525
 7770SOL     OW34945   0.722   2.063   9.831  0.2623 -0.4417  0.6949
 7770SOL    HW134946   0.676   2.025   9.756 -0.9900  1.8568  0.3184
 7770SOL    HW234947   0.666   2.051   9.908 -1.3655  0.7351 -0.3255
 7771SOL     OW34948   3.401   2.161  11.437  0.4143  0.4788  0.4517
 7771SOL    HW134949   3.455   2.138  11.361  0.0184 -1.6464  0.8029
 7771SOL    HW234950   3.428   2.252  11.444  0.0142  0.7129 -0.9001
 7772SOL     OW34951   2.937   1.898  11.211  0.9364 -0.5995 -0.5739
 7772SOL    HW134952   2.892   1.826  11.168  1.2192 -0.0148 -1.8619
 7772SOL    HW234953   2.895   1.970  11.165 -2.9642 -1.5267  1.5402
 7773SOL     OW34954   2.635   3.146   7.584  0.4333  0.2077  0.4408
 7773SOL    HW134955   2.604   3.097   7.508 -2.6143 -0.5788  2.2055
 7773SOL    HW234956   2.725   3.117   7.599  0.4815  0.4493  0.6273
 7774SOL     OW34957   0.984   4.089  13.772 -0.5716  0.2404 -0.0738
 7774SOL    HW134958   1.055   4.051  13.822  0.8788  1.4227 -1.2295
 7774SOL    HW234959   1.017   4.178  13.765  1.6877 -0.7036 -1.3214
 7775SOL     OW34960   0.553   2.123   3.067 -0.3142 -0.0939  0.5721
 7775SOL    HW134961   0.563   2.028   3.074  1.0378  0.0916  1.0187
 7775SOL    HW234962   0.533   2.135   2.974  1.5487 -1.8115 -0.0344
 7776SOL     OW34963   3.745   3.061   5.619 -0.1661  0.0300 -0.4791
 7776SOL    HW134964   3.658   3.101   5.626  0.7451  2.1733 -1.4496
 7776SOL    HW234965   3.805   3.122   5.662  1.0976  0.4633 -2.8395
 7777SOL     OW34966   3.386   2.006   6.710 -0.0331 -0.6643 -0.0671
 7777SOL    HW134967   3.439   1.971   6.782 -1.3461  1.1678  1.8149
 7777SOL    HW234968   3.340   2.077   6.755  3.6495  1.0362  1.0045
 7778SOL     OW34969   4.230   1.609   1.553 -0.1940 -0.1085  0.0070
 7778SOL    HW134970   4.308   1.566   1.588 -0.1250  0.5580  0.6763
 7778SOL    HW234971   4.270   1.665   1.487  3.1152 -1.0375  1.2576
 7779SOL     OW34972   1.377   3.629   6.844  0.3161  0.0090 -0.7410
 7779SOL    HW134973   1.377   3.577   6.763  0.6886 -1.7584  0.3787
 7779SOL    HW234974   1.307   3.582   6.890  0.8497  0.0109  0.0619
 7780SOL     OW34975   2.166   2.971   7.110 -0.3725  0.3480 -0.3734
 7780SOL    HW134976   2.143   3.013   7.027  0.4408  1.1823 -0.1676
 7780SOL    HW234977   2.107   3.012   7.173 -1.2170 -0.9829 -0.2902
 7781SOL     OW34978   0.020   0.938   6.538  0.4040  0.2799  0.4205
 7781SOL    HW134979   4.702   0.990   6.594 -1.3348 -1.4299  0.2232
 7781SOL    HW234980   0.102   0.988   6.544 -0.3333  1.4959  0.1439
 7782SOL     OW34981   2.680   4.266   5.174 -0.0041 -0.3131 -0.6841
 7782SOL    HW134982   2.769   4.303   5.177  0.1842 -0.9312  1.2191
 7782SOL    HW234983   2.631   4.346   5.154 -2.6916 -1.2715  2.1841
 7783SOL     OW34984   3.599   1.438   4.346  0.7244 -0.2233 -0.3058
 7783SOL    HW134985   3.633   1.486   4.421  1.5269 -0.1330 -0.7288
 7783SOL    HW234986   3.661   1.366   4.341  0.7259 -0.2011 -0.5883
 7784SOL     OW34987   3.518   4.585  12.817  0.2310 -0.3431 -0.4081
 7784SOL    HW134988   3.508   4.680  12.817 -0.2338 -0.3920 -0.5711
 7784SOL    HW234989   3.612   4.584  12.839 -0.2268 -1.1375  1.4856
 7785SOL     OW34990   1.783   0.777   2.963  0.3948  0.1553  0.6971
 7785SOL    HW134991   1.784   0.737   3.049  0.8684 -1.8935 -0.2640
 7785SOL    HW234992   1.786   0.867   2.996  2.4021 -0.9055  3.4051
 7786SOL     OW34993   4.095   0.389   2.331  0.0401  0.3455 -0.1162
 7786SOL    HW134994   4.177   0.339   2.338  0.4088  0.7767 -1.2820
 7786SOL    HW234995   4.074   0.392   2.424  0.4058  1.4158 -0.0648
 7787SOL     OW34996   4.595   2.125   6.556  0.4111  0.1206  0.0145
 7787SOL    HW134997   4.652   2.137   6.481 -2.6075 -2.7760 -2.7456
 7787SOL    HW234998   4.668   2.144   6.616 -0.2108  2.1958  0.1276
 7788SOL     OW34999   1.634   3.489   8.433  0.0376 -0.5756  0.2149
 7788SOL    HW135000   1.697   3.552   8.399  0.3753 -0.4515  1.0843
 7788SOL    HW235001   1.594   3.458   8.351 -2.0622 -0.0604  1.0493
 7789SOL     OW35002   3.824   0.566   8.427 -0.2751  0.3283  0.2476
 7789SOL    HW135003   3.856   0.637   8.483 -1.1988 -0.1109  1.3524
 7789SOL    HW235004   3.763   0.528   8.490  0.0970 -2.9230 -1.3417
 7790SOL     OW35005   3.999   1.049  10.337  0.3248  0.3381 -0.4588
 7790SOL    HW135006   3.965   0.961  10.357  1.1186 -0.3233 -2.0118
 7790SOL    HW235007   3.969   1.108  10.407 -0.5990  0.1443 -0.6844
 7791SOL     OW35008   1.191   1.867   2.968  0.0843 -0.2907 -0.0482
 7791SOL    HW135009   1.201   1.960   2.946  2.3919 -0.5240  0.0505
 7791SOL    HW235010   1.282   1.846   2.987  0.3231  0.6976 -0.0855
 7792SOL     OW35011   3.240   2.676  12.317  0.1509  0.1015 -0.2532
 7792SOL    HW135012   3.290   2.738  12.265 -1.4085  0.8115 -0.9106
 7792SOL    HW235013   3.259   2.691  12.410  0.1671 -0.1587 -0.2131
 7793SOL     OW35014   0.099   3.741   3.530 -0.3209 -0.2135  0.1814
 7793SOL    HW135015   0.157   3.671   3.561  0.5494  0.0577 -0.8394
 7793SOL    HW235016   0.031   3.682   3.497 -1.5903  1.8551 -0.9236
 7794SOL     OW35017   3.440   3.440   8.904  0.0699  0.0067 -0.2847
 7794SOL    HW135018   3.348   3.454   8.881  0.2937  0.4804 -0.8723
 7794SOL    HW235019   3.491   3.445   8.823 -0.5085  0.1241 -0.6394
 7795SOL     OW35020   3.566   1.698   6.092  0.1848 -0.0464  0.0796
 7795SOL    HW135021   3.632   1.701   6.024 -0.0414 -1.1353 -0.1855
 7795SOL    HW235022   3.620   1.698   6.171 -0.7557  0.3145  0.7366
 7796SOL     OW35023   2.548   1.333   8.257  0.0655  0.5041  0.2681
 7796SOL    HW135024   2.575   1.341   8.165  1.3648 -2.6570  0.3776
 7796SOL    HW235025   2.603   1.262   8.289  0.1692  0.1439 -0.7063
 7797SOL     OW35026   0.314   0.362   0.924 -0.1829 -0.4921  0.1329
 7797SOL    HW135027   0.396   0.356   0.875  0.5402  2.8169  0.9744
 7797SOL    HW235028   0.279   0.443   0.887  0.2004 -0.6793 -0.6416
 7798SOL     OW35029   0.322   2.192  12.853  0.1434  0.0761  0.6481
 7798SOL    HW135030   0.265   2.234  12.917  0.3050  0.7147  0.3798
 7798SOL    HW235031   0.309   2.236  12.769 -3.0325  0.7533  1.4854
 7799SOL     OW35032   3.413   2.332   1.951 -0.0468  0.6228 -0.6238
 7799SOL    HW135033   3.401   2.391   2.026  0.6248 -0.8100  0.6029
 7799SOL    HW235034   3.501   2.354   1.919  1.2885 -1.2403  1.7755
 7800SOL     OW35035   2.441   1.818   4.510 -0.8762 -0.0708 -0.2733
 7800SOL    HW135036   2.361   1.870   4.522  0.4853  1.9291  0.2637
 7800SOL    HW235037   2.410   1.729   4.495 -2.6073  0.3452  0.7987
 7801SOL     OW35038   2.050   2.967  14.640 -0.2237  0.3563 -0.2436
 7801SOL    HW135039   2.022   2.936  14.554  0.9626  2.0677 -1.2595
 7801SOL    HW235040   1.988   3.040  14.644 -0.1450  0.4950 -1.4270
 7802SOL     OW35041   2.372   1.865   7.713 -0.4155  0.3764 -0.3522
 7802SOL    HW135042   2.322   1.858   7.795  0.0908  0.6342 -0.0196
 7802SOL    HW235043   2.421   1.947   7.722 -1.2078  1.2384 -3.9785
 7803SOL     OW35044   2.218   4.253   8.125 -0.2160  0.1638 -0.4861
 7803SOL    HW135045   2.191   4.184   8.065 -1.2582 -0.2800  0.4910
 7803SOL    HW235046   2.235   4.197   8.201 -0.2655  1.3970  0.4429
 7804SOL     OW35047   2.053   4.267   5.056 -0.2525 -0.0908  0.0596
 7804SOL    HW135048   2.102   4.326   5.114 -1.0943 -1.4124  2.1415
 7804SOL    HW235049   2.008   4.209   5.117  0.3898 -0.5322  0.1235
 7805SOL     OW35050   1.620   1.831   6.570 -0.4567 -0.1274 -0.9307
 7805SOL    HW135051   1.640   1.865   6.658 -1.5464 -1.5432 -0.1453
 7805SOL    HW235052   1.552   1.895   6.548  1.0929  1.2752 -1.7004
 7806SOL     OW35053   4.257   2.267   8.021  0.1750 -0.4679 -0.4817
 7806SOL    HW135054   4.272   2.190   7.967  0.0436  0.8865 -2.4406
 7806SOL    HW235055   4.201   2.233   8.091  0.8919  0.4730  0.5660
 7807SOL     OW35056   3.214   4.603   8.387  0.0971  0.6403 -0.0924
 7807SOL    HW135057   3.264   4.669   8.339  2.0017 -0.8328 -0.1814
 7807SOL    HW235058   3.143   4.580   8.327 -0.9821 -0.6067  1.6554
 7808SOL     OW35059   0.938   4.564   7.192 -0.1820 -0.8147 -0.0622
 7808SOL    HW135060   0.897   4.538   7.110  1.6499 -0.3289 -1.1351
 7808SOL    HW235061   0.908   4.654   7.196 -1.4063 -1.1943 -0.8695
 7809SOL     OW35062   2.413   1.463  16.636 -0.3093 -0.8047 -0.6747
 7809SOL    HW135063   2.463   1.399  16.584  2.1423  1.8851 -1.6292
 7809SOL    HW235064   2.356   1.498  16.568  0.3496  0.1986 -0.7149
 7810SOL     OW35065   4.355   3.144   9.180  0.4880  0.4073  0.0735
 7810SOL    HW135066   4.435   3.116   9.225  0.8520  2.0726  0.4853
 7810SOL    HW235067   4.290   3.075   9.189  1.5251 -0.4485  0.9735
 7811SOL     OW35068   3.810   4.202  16.845 -0.1937  0.3342 -0.2976
 7811SOL    HW135069   3.886   4.259  16.856  0.8723 -1.4521  1.7741
 7811SOL    HW235070   3.759   4.257  16.786 -0.2991  0.2669 -0.2691
 7812SOL     OW35071   3.314   0.041   8.991 -0.3854  0.7142 -0.1353
 7812SOL    HW135072   3.228   0.080   9.009 -0.7521 -1.0427  1.9946
 7812SOL    HW235073   3.358   0.126   8.987  0.4485  0.2070 -1.7818
 7813SOL     OW35074   4.098   3.622  15.199 -0.6528 -0.1201 -0.2401
 7813SOL    HW135075   4.094   3.607  15.105  3.4463 -2.0976 -0.0759
 7813SOL    HW235076   4.068   3.541  15.240  2.0222 -0.9544  0.0879
 7814SOL     OW35077   3.770   4.059   8.049 -0.1447  0.0639 -0.1975
 7814SOL    HW135078   3.860   4.059   8.017  0.2842 -1.7265  1.0427
 7814SOL    HW235079   3.780   4.095   8.137  2.0963  1.1095 -0.8711
 7815SOL     OW35080   4.511   2.765   5.352  0.0353 -0.1920 -0.2451
 7815SOL    HW135081   4.430   2.806   5.382  0.2314 -1.0046  1.3860
 7815SOL    HW235082   4.566   2.760   5.430  0.6436  0.3381 -0.6295
 7816SOL     OW35083   2.574   0.831   4.378  0.3979 -0.5866 -0.5853
 7816SOL    HW135084   2.528   0.886   4.441  0.0790 -2.0896  0.4919
 7816SOL    HW235085   2.585   0.882   4.297 -1.2934  1.3076  0.3727
 7817SOL     OW35086   4.594   0.869   8.587  0.1629 -0.6889 -0.2277
 7817SOL    HW135087   4.631   0.781   8.594 -0.5050 -1.0923 -1.7210
 7817SOL    HW235088   4.593   0.903   8.676 -0.3123  0.3769 -0.6400
 7818SOL     OW35089   3.837   3.380   3.468 -0.1160 -0.7997 -0.5172
 7818SOL    HW135090   3.865   3.432   3.543 -0.9561 -0.7371 -0.2407
 7818SOL    HW235091   3.742   3.388   3.477  0.0761  0.0045  0.8187
 7819SOL     OW35092   2.721   2.380   0.144  0.2953  0.4154  0.1823
 7819SOL    HW135093   2.704   2.409   0.233  1.0503 -1.7354  1.0291
 7819SOL    HW235094   2.816   2.391   0.144  0.3508 -0.0512 -0.4464
 7820SOL     OW35095   2.273   1.744   7.977 -0.6512 -0.4444 -0.5336
 7820SOL    HW135096   2.367   1.743   7.997 -0.5419  4.3735 -0.6158
 7820SOL    HW235097   2.232   1.676   8.031 -0.5625 -1.0085 -1.1850
 7821SOL     OW35098   3.772   3.116   3.933 -0.1098  0.0603  0.4281
 7821SOL    HW135099   3.766   3.212   3.933  1.3336  0.1504 -0.3990
 7821SOL    HW235100   3.703   3.093   3.994  1.3628 -0.6508  1.8265
 7822SOL     OW35101   4.415   4.411   7.285 -0.2017  0.7746  0.2028
 7822SOL    HW135102   4.348   4.480   7.285 -0.8611  0.1287 -1.3139
 7822SOL    HW235103   4.362   4.332   7.298  0.6053  0.1729 -0.1825
 7823SOL     OW35104   4.503   4.209   8.233 -0.6983  0.4645  0.1957
 7823SOL    HW135105   4.501   4.225   8.327 -0.4310 -1.8569  0.5937
 7823SOL    HW235106   4.596   4.192   8.225 -0.7359  0.4465 -0.2067
 7824SOL     OW35107   2.342   2.936   3.385 -0.4348 -0.0022 -0.5163
 7824SOL    HW135108   2.259   2.971   3.352 -0.1493 -0.4314 -1.6973
 7824SOL    HW235109   2.359   3.007   3.447 -1.1324 -0.2511 -0.0383
 7825SOL     OW35110   1.837   0.051  13.160  0.3939 -0.4081  0.0592
 7825SOL    HW135111   1.838   0.063  13.255  1.5203 -0.7236  0.0846
 7825SOL    HW235112   1.834   0.146  13.145 -0.6502 -0.3848  0.4209
 7826SOL     OW35113   0.702   3.412   6.623 -0.1267 -0.0593  0.5073
 7826SOL    HW135114   0.766   3.382   6.558 -2.1469 -0.5007 -1.3105
 7826SOL    HW235115   0.628   3.363   6.588 -0.2955  0.0911  0.6561
 7827SOL     OW35116   1.962   4.036   5.848  0.0680  0.1002  0.0802
 7827SOL    HW135117   1.903   4.111   5.854 -0.7639 -0.5874  0.4716
 7827SOL    HW235118   2.042   4.085   5.831  0.5632 -0.9568 -0.6465
 7828SOL     OW35119   2.049   0.049   2.248 -0.1157 -0.3180 -0.2558
 7828SOL    HW135120   2.063   0.094   2.165  0.5816 -0.9471 -0.4826
 7828SOL    HW235121   2.044   4.698   2.215 -1.1535  0.3552 -1.9241
 7829SOL     OW35122   0.243   2.070   7.885 -0.6695  0.2890  0.2851
 7829SOL    HW135123   0.210   2.002   7.828  1.2113  0.9879 -1.6298
 7829SOL    HW235124   0.329   2.036   7.911  0.8883  1.8066 -2.8679
 7830SOL     OW35125   3.117   1.168   8.488 -0.3013  0.3498 -0.0197
 7830SOL    HW135126   3.107   1.074   8.474  0.6564  0.0399  1.4009
 7830SOL    HW235127   3.186   1.177   8.423  0.7006 -2.5232  0.6629
 7831SOL     OW35128   1.071   4.495  10.808  0.3513  0.2618 -0.2425
 7831SOL    HW135129   1.051   4.488  10.901 -0.0939 -1.0296 -0.4304
 7831SOL    HW235130   1.068   4.402  10.785 -1.1897  0.0277  0.9952
 7832SOL     OW35131   4.431   0.364  14.693  0.5673  0.4442  0.2343
 7832SOL    HW135132   4.399   0.341  14.606 -1.6628 -0.2008  1.2183
 7832SOL    HW235133   4.520   0.330  14.687  0.0358 -0.9469  0.2235
 7833SOL     OW35134   1.825   4.156   7.648  0.5121 -0.5475  0.0023
 7833SOL    HW135135   1.908   4.198   7.630  1.3786 -1.9060  0.8210
 7833SOL    HW235136   1.806   4.197   7.733 -1.7066 -2.2740  0.3488
 7834SOL     OW35137   0.488   2.626   1.841 -0.2302  0.5123 -0.4294
 7834SOL    HW135138   0.455   2.674   1.765 -0.0034  3.3310  1.2712
 7834SOL    HW235139   0.466   2.537   1.813 -3.1723  0.8988  0.6715
 7835SOL     OW35140   2.731   3.710   6.827  0.1424  0.0793 -0.2005
 7835SOL    HW135141   2.720   3.758   6.909 -2.0300 -1.1655  0.2292
 7835SOL    HW235142   2.692   3.628   6.857  1.6140 -0.8125 -0.7449
 7836SOL     OW35143   4.409   3.792   4.630  0.2508  0.5452 -0.0273
 7836SOL    HW135144   4.323   3.790   4.672  0.1876 -1.4697 -0.2520
 7836SOL    HW235145   4.475   3.777   4.698  0.7868 -0.3300 -0.7398
 7837SOL     OW35146   4.222   3.561   1.875  0.2093 -0.2720  0.3734
 7837SOL    HW135147   4.246   3.611   1.954  0.5991 -0.7071  0.5340
 7837SOL    HW235148   4.304   3.554   1.826  0.2588 -0.3847  0.4715
 7838SOL     OW35149   2.566   2.549   1.169 -0.5399 -0.3112  0.1897
 7838SOL    HW135150   2.558   2.480   1.235 -2.5919 -0.7654 -0.5276
 7838SOL    HW235151   2.592   2.628   1.217  1.4721 -1.5326  1.0726
 7839SOL     OW35152   2.645   0.674   9.126  0.3569 -0.3303 -0.6063
 7839SOL    HW135153   2.681   0.745   9.073  1.1158  1.5121  2.3585
 7839SOL    HW235154   2.561   0.661   9.083  0.3437  2.2435 -1.3475
 7840SOL     OW35155   4.491   0.136   5.933  0.4551  0.0533 -0.1206
 7840SOL    HW135156   4.453   0.221   5.913  0.2281  0.4411  1.9736
 7840SOL    HW235157   4.505   0.102   5.845 -1.0933  1.5831 -0.9478
 7841SOL     OW35158   1.704   1.003  10.000 -0.0489  0.4465 -0.2842
 7841SOL    HW135159   1.649   1.081   9.998 -0.4294  0.1346 -2.2461
 7841SOL    HW235160   1.778   1.025  10.056  1.3673 -0.3983 -1.8297
 7842SOL     OW35161   3.642   3.238   1.198 -0.1062  0.6824 -0.0128
 7842SOL    HW135162   3.548   3.223   1.187  0.1436 -0.6547 -0.2066
 7842SOL    HW235163   3.651   3.234   1.293 -3.2481  0.9341  0.3073
 7843SOL     OW35164   2.045   0.157   7.932 -0.0594 -0.3530  0.0995
 7843SOL    HW135165   2.062   0.249   7.949 -2.7269  0.0141  0.7230
 7843SOL    HW235166   2.097   0.111   7.999  0.6479  1.5797  0.8748
 7844SOL     OW35167   0.269   4.017  14.523 -0.5777  0.1008  0.3558
 7844SOL    HW135168   0.293   4.037  14.433 -0.3688  0.1796  0.4271
 7844SOL    HW235169   0.232   4.103  14.546  0.3901  1.2047 -2.2148
 7845SOL     OW35170   0.270   1.512   2.383 -0.1826  0.2073 -0.0701
 7845SOL    HW135171   0.185   1.471   2.392 -0.7624  0.9473 -2.0705
 7845SOL    HW235172   0.244   1.604   2.392  1.1007  0.4811  0.7823
 7846SOL     OW35173   3.193   4.625   7.436  0.0180 -0.4533  0.1040
 7846SOL    HW135174   3.122   4.686   7.455 -0.7727 -0.4909 -2.6506
 7846SOL    HW235175   3.247   4.680   7.380  0.9708  1.9282  3.4058
 7847SOL     OW35176   3.234   0.865   1.542  0.3312 -0.0457 -0.4569
 7847SOL    HW135177   3.322   0.838   1.515  0.2568 -0.7260 -0.0193
 7847SOL    HW235178   3.220   0.948   1.495  0.7952  0.6110  0.5653
 7848SOL     OW35179   0.414   4.051  15.302  0.4042 -0.6196  0.0279
 7848SOL    HW135180   0.369   3.967  15.296 -1.4095  0.4458 -1.1253
 7848SOL    HW235181   0.390   4.088  15.217  0.3431  0.5404  0.5511
 7849SOL     OW35182   0.212   3.836   2.648  0.0451 -0.0471 -0.1113
 7849SOL    HW135183   0.183   3.876   2.730 -0.3235  1.6904 -1.0822
 7849SOL    HW235184   0.298   3.877   2.639  1.2739 -2.0365  2.6738
 7850SOL     OW35185   4.471   0.507   3.533 -0.2919 -0.1781  0.0997
 7850SOL    HW135186   4.429   0.593   3.531  0.1403  0.0776  2.1824
 7850SOL    HW235187   4.459   0.475   3.443 -1.5221  1.4262 -0.3070
 7851SOL     OW35188   3.660   4.079   6.189 -0.1942 -0.2760 -0.0854
 7851SOL    HW135189   3.594   4.098   6.122  0.1165  0.2919 -0.2247
 7851SOL    HW235190   3.614   4.026   6.254 -1.3478 -0.2128 -0.8496
 7852SOL     OW35191   4.581   3.205   7.715  0.0563  0.2282  0.2858
 7852SOL    HW135192   4.495   3.193   7.674  0.0903 -1.1812  0.6300
 7852SOL    HW235193   4.635   3.189   7.637  2.1518 -0.0946  1.8066
 7853SOL     OW35194   4.669   1.299   5.111 -0.6193 -0.3881  0.1475
 7853SOL    HW135195   4.693   1.367   5.174 -0.7440 -1.1572  1.0290
 7853SOL    HW235196   4.614   1.232   5.154  1.5025 -2.0170  0.3276
 7854SOL     OW35197   0.770   3.492   6.225 -0.7587 -0.4765  0.4070
 7854SOL    HW135198   0.793   3.401   6.208 -3.0305 -1.1341  0.9996
 7854SOL    HW235199   0.731   3.518   6.142  0.9718 -0.5372 -0.4406
 7855SOL     OW35200   2.846   3.371   9.130  0.0093  0.2087 -0.6244
 7855SOL    HW135201   2.888   3.397   9.048 -0.5301 -1.0555 -1.3028
 7855SOL    HW235202   2.851   3.452   9.181  0.2235 -0.4603  0.4228
 7856SOL     OW35203   3.323   2.922  17.599  0.1630  0.5005 -0.5524
 7856SOL    HW135204   3.240   2.954  17.565 -0.9808 -1.2857  0.5768
 7856SOL    HW235205   3.367   2.888  17.521 -0.3489 -0.1821 -0.5455
 7857SOL     OW35206   1.125   3.352  10.425 -0.6118 -0.3836  0.0706
 7857SOL    HW135207   1.054   3.322  10.368 -1.2300  3.4892 -1.2398
 7857SOL    HW235208   1.083   3.348  10.511  1.6880 -0.0614  1.1991
 7858SOL     OW35209   2.363   3.679   6.194 -0.0326 -0.4601 -0.0866
 7858SOL    HW135210   2.383   3.620   6.267  1.2015 -0.6995 -0.6169
 7858SOL    HW235211   2.356   3.766   6.234  1.0371 -1.4450  2.2418
 7859SOL     OW35212   2.836   3.418   2.562  0.0526 -0.1326  0.1231
 7859SOL    HW135213   2.923   3.409   2.602 -0.6718  0.9382  1.9278
 7859SOL    HW235214   2.778   3.428   2.637  0.5008 -0.0646  0.4633
 7860SOL     OW35215   1.041   3.831  16.418 -0.0794  0.4759 -0.2361
 7860SOL    HW135216   0.966   3.784  16.380 -2.5648  4.5828 -0.3691
 7860SOL    HW235217   1.034   3.822  16.513  1.7962 -1.0887 -0.2563
 7861SOL     OW35218   2.552   1.599   8.867 -0.1241 -0.1257 -0.5221
 7861SOL    HW135219   2.568   1.603   8.961  1.5243 -2.1460 -0.7248
 7861SOL    HW235220   2.459   1.579   8.876 -0.0065 -0.4764 -0.0563
 7862SOL     OW35221   1.026   2.740  13.574 -0.5131 -0.5399 -0.3625
 7862SOL    HW135222   1.038   2.717  13.482 -0.0353  0.9846 -0.6929
 7862SOL    HW235223   1.001   2.833  13.577 -0.8646 -0.5083 -4.5951
 7863SOL     OW35224   2.151   0.492   7.728  0.4621  0.4511  0.5654
 7863SOL    HW135225   2.214   0.505   7.799 -1.0950 -1.2485  2.2565
 7863SOL    HW235226   2.205   0.533   7.659 -1.0344  5.4275  2.3140
 7864SOL     OW35227   3.185   2.604   7.370 -0.4605  0.2044 -0.0784
 7864SOL    HW135228   3.145   2.564   7.447  1.0543 -2.6086 -0.7669
 7864SOL    HW235229   3.152   2.555   7.295 -0.5429  1.7303 -1.0482
 7865SOL     OW35230   4.319   1.228  11.224 -0.2874 -0.6838  0.2505
 7865SOL    HW135231   4.360   1.301  11.272 -2.2127  0.0408  0.7836
 7865SOL    HW235232   4.231   1.256  11.200 -0.0276 -0.9476 -1.0218
 7866SOL     OW35233   2.054   1.545   7.919  0.1505 -0.2446 -0.3336
 7866SOL    HW135234   2.012   1.546   7.833 -1.5510 -1.2569  0.4818
 7866SOL    HW235235   2.132   1.493   7.900  0.1037 -0.0479 -1.0594
 7867SOL     OW35236   1.693   4.739   4.893 -0.5650 -0.1979 -0.5876
 7867SOL    HW135237   1.686   0.070   4.957  1.3572 -1.0064  0.5023
 7867SOL    HW235238   1.689   4.670   4.959  1.6169  0.4034  0.1505
 7868SOL     OW35239   0.670   4.153  15.364 -0.0005 -0.7232 -0.1310
 7868SOL    HW135240   0.595   4.094  15.353  0.0965 -1.2593  1.9271
 7868SOL    HW235241   0.728   4.101  15.420  0.9968 -0.7869 -1.2418
 7869SOL     OW35242   4.624   1.200   7.420  0.4329 -0.2396  0.6601
 7869SOL    HW135243   4.586   1.288   7.419  0.7570 -0.1271 -1.4994
 7869SOL    HW235244   4.627   1.184   7.514  0.1579 -3.0506  0.1879
 7870SOL     OW35245   2.935   0.901  14.296  0.1115  0.1332  0.4648
 7870SOL    HW135246   3.013   0.927  14.247 -0.0842  1.4782  0.8691
 7870SOL    HW235247   2.865   0.937  14.243  1.5717  0.3239 -1.3314
 7871SOL     OW35248   1.604   3.441  11.455  0.2786  0.5471  0.2313
 7871SOL    HW135249   1.558   3.476  11.379  2.2282  2.0814 -0.2695
 7871SOL    HW235250   1.599   3.349  11.430 -1.1834 -0.5582  4.6289
 7872SOL     OW35251   3.909   3.451   3.716 -0.0909 -0.0821 -0.1381
 7872SOL    HW135252   3.977   3.391   3.684  0.8012  1.0485 -0.3508
 7872SOL    HW235253   3.876   3.393   3.785 -1.0316  1.1243  0.4147
 7873SOL     OW35254   2.320   3.790   1.231  0.7521  0.3504 -0.1024
 7873SOL    HW135255   2.355   3.815   1.316 -0.8715 -0.5102  0.8231
 7873SOL    HW235256   2.264   3.725   1.273 -0.5254 -0.3833 -2.9159
 7874SOL     OW35257   3.989   3.035   1.166  0.0228  0.2554 -0.4220
 7874SOL    HW135258   3.952   2.974   1.230 -0.4960  1.6682  0.6287
 7874SOL    HW235259   3.940   3.006   1.089 -0.0297 -2.8339  0.7880
 7875SOL     OW35260   4.719   4.444  14.501  0.3724 -0.7097 -0.4906
 7875SOL    HW135261   4.706   4.514  14.566  0.9759  0.3758 -1.5221
 7875SOL    HW235262   4.642   4.390  14.515  0.6553 -0.8220  0.6553
 7876SOL     OW35263   2.985   2.065   7.416 -0.2614  0.2688  0.2747
 7876SOL    HW135264   3.001   2.095   7.327 -2.0331  1.0973  0.2308
 7876SOL    HW235265   2.946   1.980   7.398 -0.5499  0.3568  0.4649
 7877SOL     OW35266   3.629   1.324   5.258  0.3014 -0.2903 -0.2203
 7877SOL    HW135267   3.615   1.380   5.182  0.6700 -1.5125 -1.1931
 7877SOL    HW235268   3.691   1.365   5.318 -0.4917  1.1011 -0.3573
 7878SOL     OW35269   4.561   3.923   7.861  0.1625  0.4490 -0.1692
 7878SOL    HW135270   4.542   4.017   7.868  2.4933  0.8830  0.0278
 7878SOL    HW235271   4.468   3.897   7.861  0.1516  0.4884 -1.5001
 7879SOL     OW35272   1.747   2.982  14.999  0.3448  0.2658  0.4370
 7879SOL    HW135273   1.705   3.060  15.034 -1.0928 -0.0432 -0.5772
 7879SOL    HW235274   1.816   3.021  14.945 -1.0978  0.0516 -1.5736
 7880SOL     OW35275   3.557   2.144  10.846 -0.2495 -0.1751 -0.1349
 7880SOL    HW135276   3.493   2.161  10.915 -0.1626  0.4568 -0.2036
 7880SOL    HW235277   3.633   2.190  10.882 -0.5904 -0.3818  0.8322
 7881SOL     OW35278   4.535   2.376   8.163  0.4720 -0.3714 -0.0534
 7881SOL    HW135279   4.564   2.291   8.130  0.8723 -0.7658  1.3252
 7881SOL    HW235280   4.616   2.422   8.144 -1.1184  0.2913 -5.2917
 7882SOL     OW35281   1.056   0.015   4.857  0.2548 -0.0091 -0.1627
 7882SOL    HW135282   1.031   4.662   4.861 -0.5146  0.2621  1.1331
 7882SOL    HW235283   0.984   0.054   4.906  0.8159  2.6716 -1.4318
 7883SOL     OW35284   1.649   4.493   7.592  0.1744 -0.5467  0.1287
 7883SOL    HW135285   1.614   4.579   7.569 -0.6369  0.2907  4.5212
 7883SOL    HW235286   1.718   4.474   7.528  1.7084  1.0541  1.2873
 7884SOL     OW35287   0.067   0.259   4.777  0.3224 -0.5955  0.1154
 7884SOL    HW135288   0.144   0.274   4.832  1.6071 -2.2436 -1.2394
 7884SOL    HW235289   0.053   0.340   4.729 -0.8638  0.2655  1.9066
 7885SOL     OW35290   3.741   3.761  15.176 -0.6925 -0.4874  0.1034
 7885SOL    HW135291   3.667   3.769  15.116 -0.1307 -1.8008 -0.7585
 7885SOL    HW235292   3.785   3.846  15.172 -0.0111 -0.8448 -0.0628
 7886SOL     OW35293   4.121   4.288   0.463 -0.2756  0.0917  0.0974
 7886SOL    HW135294   4.046   4.239   0.429  0.1493 -1.7008  1.7517
 7886SOL    HW235295   4.164   4.297   0.378 -2.0901  0.3014 -0.8080
 7887SOL     OW35296   3.056   1.734   5.540  0.2094  0.4505  0.1522
 7887SOL    HW135297   3.008   1.655   5.518  0.5009  0.3091  0.0274
 7887SOL    HW235298   3.065   1.710   5.632  0.7296  1.8726  0.4799
 7888SOL     OW35299   2.689   3.353   5.537 -0.0799  0.2737 -0.2391
 7888SOL    HW135300   2.618   3.318   5.591 -2.2876  3.6953 -0.9528
 7888SOL    HW235301   2.768   3.306   5.563 -0.0062 -0.6030 -1.9924
 7889SOL     OW35302   4.422   3.399   3.806 -0.0951  0.0706  0.2813
 7889SOL    HW135303   4.396   3.470   3.866  0.4166  0.0262  0.5533
 7889SOL    HW235304   4.465   3.443   3.733  0.7440  1.4002  1.5814
 7890SOL     OW35305   2.393   4.625   5.318  0.8723  0.0496  0.3622
 7890SOL    HW135306   2.448   4.548   5.323 -0.7453 -1.2925 -2.2413
 7890SOL    HW235307   2.307   4.589   5.341  0.2341  1.1972 -0.1479
 7891SOL     OW35308   1.287   4.085   7.805  0.5005 -0.6102  0.7006
 7891SOL    HW135309   1.307   4.178   7.795 -2.6968  0.1587  1.3136
 7891SOL    HW235310   1.200   4.090   7.846 -0.0209  0.3484 -0.5012
 7892SOL     OW35311   1.765   4.539   0.669  0.3805 -0.3833 -0.0672
 7892SOL    HW135312   1.787   4.466   0.727  3.4253  0.1629 -0.5854
 7892SOL    HW235313   1.849   4.582   0.659  0.6511 -0.8889  0.0455
 7893SOL     OW35314   0.008   2.446   0.577  0.5098 -0.3382 -0.3358
 7893SOL    HW135315   4.665   2.494   0.563  0.8371 -0.4174 -2.5788
 7893SOL    HW235316   0.039   2.474   0.663  0.2393  1.2070 -0.7384
 7894SOL     OW35317   0.041   2.013   0.219 -0.2447 -0.0596 -0.2697
 7894SOL    HW135318   0.091   2.058   0.151 -0.2268  1.5386  0.8148
 7894SOL    HW235319   4.689   2.039   0.204 -1.1063 -3.4914 -0.9248
 7895SOL     OW35320   3.449   0.350  15.448 -0.4582 -0.4186 -0.5245
 7895SOL    HW135321   3.470   0.274  15.394  2.6885 -0.7782  1.1690
 7895SOL    HW235322   3.538   0.379  15.472 -0.4766 -0.6725 -0.1506
 7896SOL     OW35323   4.407   0.655   1.210 -0.7881  0.0414  0.2502
 7896SOL    HW135324   4.492   0.673   1.171 -0.4585 -0.4627  0.7274
 7896SOL    HW235325   4.402   0.561   1.195 -0.8366 -0.0099  0.5717
 7897SOL     OW35326   4.679   3.848   4.756 -0.0032 -0.6142 -0.7289
 7897SOL    HW135327   4.709   3.807   4.838 -0.9683 -0.6919 -0.4160
 7897SOL    HW235328   0.015   3.906   4.747  1.1983 -1.6810  2.4078
 7898SOL     OW35329   1.413   0.483   8.831 -0.3325 -0.2280 -0.1359
 7898SOL    HW135330   1.463   0.550   8.878 -0.2888 -1.0390  0.9830
 7898SOL    HW235331   1.330   0.514   8.868 -0.4596 -0.3327 -0.3329
 7899SOL     OW35332   3.057   1.149   1.925 -0.3428 -0.1175 -0.7837
 7899SOL    HW135333   3.041   1.066   1.880 -0.6948 -0.1576 -0.5854
 7899SOL    HW235334   2.998   1.133   1.999 -0.5959  0.7403 -0.7989
 7900SOL     OW35335   0.580   1.278  14.117  0.1695 -0.3408 -0.2324
 7900SOL    HW135336   0.628   1.214  14.064  1.4532 -0.4802  1.0902
 7900SOL    HW235337   0.607   1.360  14.075  0.4725  1.1740  2.8813
 7901SOL     OW35338   0.666   1.339   1.111 -0.2351 -0.0219  0.0385
 7901SOL    HW135339   0.685   1.334   1.204 -2.6881  1.0363  0.6159
 7901SOL    HW235340   0.700   1.254   1.085  1.3009  0.2630  1.1516
 7902SOL     OW35341   0.346   3.714   4.814  0.1656  0.2016 -0.1668
 7902SOL    HW135342   0.300   3.657   4.753  2.2467 -0.0077 -1.5521
 7902SOL    HW235343   0.273   3.763   4.852  1.1911 -0.2465  2.3853
 7903SOL     OW35344   1.976   2.903   4.577 -0.9872  0.1962  0.6653
 7903SOL    HW135345   2.063   2.942   4.583 -2.1614  3.1027 -1.5553
 7903SOL    HW235346   1.966   2.895   4.482 -2.1816  1.5395  0.6809
 7904SOL     OW35347   1.494   0.325   3.531  0.0546  0.0376  0.6180
 7904SOL    HW135348   1.513   0.364   3.616  0.0052 -0.8119  1.0158
 7904SOL    HW235349   1.462   0.240   3.559 -0.0301  0.4217  1.6697
 7905SOL     OW35350   2.037   1.998   6.095 -0.1772 -0.1269  0.2848
 7905SOL    HW135351   1.990   1.916   6.081  0.6217 -0.9180  2.3099
 7905SOL    HW235352   2.030   2.034   6.006  1.2225 -0.4859  0.0273
 7906SOL     OW35353   2.010   2.894  14.395 -0.5303  0.4184 -0.1116
 7906SOL    HW135354   1.998   2.802  14.374 -0.4132  0.9176 -2.2956
 7906SOL    HW235355   2.007   2.944  14.314  1.4362 -0.2583 -0.5747
 7907SOL     OW35356   2.807   1.871  14.351  0.5343 -0.0864  0.4675
 7907SOL    HW135357   2.755   1.882  14.272  1.2839 -0.9003 -0.1278
 7907SOL    HW235358   2.844   1.959  14.364  2.0059 -0.3471 -1.9082
 7908SOL     OW35359   3.407   1.248   7.065  0.6833  0.0315  0.3463
 7908SOL    HW135360   3.441   1.332   7.095  4.0476 -1.7497  1.5073
 7908SOL    HW235361   3.320   1.272   7.035  0.1160 -0.3544  1.6705
 7909SOL     OW35362   3.483   4.395   1.112  0.5719  0.1092 -0.0534
 7909SOL    HW135363   3.416   4.369   1.049 -0.9490  1.2900  1.0955
 7909SOL    HW235364   3.424   4.438   1.174  3.4116 -0.6672  3.1404
 7910SOL     OW35365   2.069   1.373  15.650  0.0446  0.1151  0.5053
 7910SOL    HW135366   2.104   1.417  15.573  0.5329 -1.5339 -0.2214
 7910SOL    HW235367   1.980   1.409  15.654 -0.8485 -2.0040 -0.1810
 7911SOL     OW35368   3.616   3.071  15.925  0.1231  0.2792  0.1734
 7911SOL    HW135369   3.557   3.050  15.997 -0.9528 -0.1417 -0.8318
 7911SOL    HW235370   3.608   2.988  15.877  1.1327  0.7572 -0.8204
 7912SOL     OW35371   1.150   4.386  14.572  0.1154 -0.5651  0.4084
 7912SOL    HW135372   1.125   4.297  14.598 -1.0350  0.1503  1.7924
 7912SOL    HW235373   1.231   4.367  14.525  0.4632  2.3062 -0.1387
 7913SOL     OW35374   3.138   2.162  11.143 -0.1474 -0.0822  0.3892
 7913SOL    HW135375   3.072   2.093  11.139  0.6239 -0.6928 -1.5788
 7913SOL    HW235376   3.143   2.182  11.236 -1.3297 -0.8129  0.6122
 7914SOL     OW35377   4.467   0.138   3.125 -0.1369 -0.5031 -0.2879
 7914SOL    HW135378   4.442   0.169   3.212 -1.2491 -2.6010  0.1399
 7914SOL    HW235379   4.466   0.045   3.147 -0.7439 -0.7060 -1.1903
 7915SOL     OW35380   4.231   4.151   3.300 -0.1883  0.0192 -0.1573
 7915SOL    HW135381   4.266   4.228   3.254 -1.5320  0.1272 -1.0052
 7915SOL    HW235382   4.191   4.108   3.224  0.5725 -0.9436 -0.0007
 7916SOL     OW35383   1.949   0.321   7.576 -0.0742  0.2435 -0.3911
 7916SOL    HW135384   1.973   0.229   7.579  1.3914  0.6499  0.5525
 7916SOL    HW235385   1.983   0.351   7.661 -1.4669 -1.9006  0.9461
 7917SOL     OW35386   2.917   4.660   9.209  0.1706 -0.1362  1.0806
 7917SOL    HW135387   2.880   4.625   9.129  3.2087  0.1862 -0.4673
 7917SOL    HW235388   2.855   4.720   9.252  0.4566  0.2400  0.9727
 7918SOL     OW35389   0.539   1.429   6.072 -0.5080  0.4401  0.0101
 7918SOL    HW135390   0.518   1.363   6.006  0.9469  0.3377 -0.3666
 7918SOL    HW235391   0.547   1.505   6.015  3.3277  0.2951  0.3249
 7919SOL     OW35392   1.543   3.319  10.767  0.3455 -0.1468 -0.8628
 7919SOL    HW135393   1.462   3.343  10.722 -1.0655 -0.2096  1.6013
 7919SOL    HW235394   1.587   3.267  10.701 -0.2122 -0.5762 -0.9013
 7920SOL     OW35395   1.740   3.550   4.090 -0.4178  0.2094 -0.0234
 7920SOL    HW135396   1.675   3.529   4.023  0.4868  0.2229 -0.8937
 7920SOL    HW235397   1.692   3.519   4.167  2.0885 -2.1828  0.5729
 7921SOL     OW35398   1.567   3.464   3.889 -0.2024  0.7397  0.3779
 7921SOL    HW135399   1.480   3.473   3.930  0.2166  0.3459  1.3406
 7921SOL    HW235400   1.569   3.369   3.900  1.3813  0.6839 -0.4874
 7922SOL     OW35401   1.169   4.621   7.488  0.1074 -0.2024  0.3662
 7922SOL    HW135402   1.147   4.542   7.537 -1.3244 -0.2668 -0.3703
 7922SOL    HW235403   1.194   4.581   7.404 -0.5142 -2.6673  1.3440
 7923SOL     OW35404   0.758   3.548   1.767  0.0077 -0.0959 -0.1977
 7923SOL    HW135405   0.839   3.521   1.810  0.1005 -2.6945 -2.0602
 7923SOL    HW235406   0.700   3.484   1.806 -1.2744  1.4863  0.4856
 7924SOL     OW35407   1.487   3.265   3.603  0.1902 -0.5455 -0.0070
 7924SOL    HW135408   1.464   3.175   3.580 -1.8655  0.5233 -2.0754
 7924SOL    HW235409   1.545   3.246   3.677 -1.5879  0.5308  1.6512
 7925SOL     OW35410   4.534   1.095  17.131 -0.3307 -0.4550  0.7589
 7925SOL    HW135411   4.499   1.015  17.094 -1.8773  1.2712 -1.5297
 7925SOL    HW235412   4.624   1.095  17.098  0.0068  1.3283  1.6301
 7926SOL     OW35413   1.615   1.111   9.628  0.4018  0.4286 -0.5198
 7926SOL    HW135414   1.665   1.108   9.545  2.0370 -2.0333  0.5652
 7926SOL    HW235415   1.637   1.024   9.660  1.1576  0.9785  0.4701
 7927SOL     OW35416   0.515   1.163   7.276  0.5521 -0.7312  0.2459
 7927SOL    HW135417   0.546   1.105   7.207  0.2440 -1.0656  0.3885
 7927SOL    HW235418   0.584   1.167   7.341 -0.7002 -1.5850  1.6145
 7928SOL     OW35419   2.891   2.207   8.841 -0.6905  0.1096 -0.2046
 7928SOL    HW135420   2.872   2.139   8.905 -0.2330  0.1255 -0.0537
 7928SOL    HW235421   2.800   2.224   8.817 -0.8106 -1.2828 -0.7244
 7929SOL     OW35422   3.751   1.147  11.146  0.2395 -0.2875 -0.1765
 7929SOL    HW135423   3.794   1.085  11.205 -0.1577 -1.7816 -1.4531
 7929SOL    HW235424   3.709   1.205  11.209 -0.9963 -1.1426 -0.1973
 7930SOL     OW35425   3.829   4.292   4.367  0.2061  0.3329  0.3253
 7930SOL    HW135426   3.891   4.224   4.342  0.9943  1.2401 -0.2109
 7930SOL    HW235427   3.749   4.253   4.332 -0.6502  1.0798  1.4226
 7931SOL     OW35428   2.900   1.218  17.114 -0.1310 -0.4752 -0.0977
 7931SOL    HW135429   2.828   1.173  17.159 -1.0188  1.9331  0.8945
 7931SOL    HW235430   2.961   1.144  17.123  1.2357  0.3679 -2.6523
 7932SOL     OW35431   2.201   4.396   8.461  0.0540 -0.4182 -0.0822
 7932SOL    HW135432   2.197   4.303   8.438  2.4622 -0.2387 -1.3201
 7932SOL    HW235433   2.295   4.409   8.447  0.2066 -0.6691  0.7396
 7933SOL     OW35434   0.092   4.437  17.698 -0.0031  0.2750  0.2125
 7933SOL    HW135435   0.017   4.402  17.650  0.7627 -0.7391 -0.2347
 7933SOL    HW235436   0.167   4.400  17.651  0.7332  1.6844  0.2641
 7934SOL     OW35437   2.730   1.215  12.996  0.9450 -0.1622 -0.6239
 7934SOL    HW135438   2.687   1.159  13.062  3.6136 -0.5805  0.7835
 7934SOL    HW235439   2.820   1.182  13.001  1.4149  1.5255  2.6235
 7935SOL     OW35440   0.480   2.932   7.251  0.0843  0.1684  0.1760
 7935SOL    HW135441   0.512   2.877   7.323  2.4115  1.5584  0.2219
 7935SOL    HW235442   0.385   2.928   7.262  0.3662 -2.9037  1.5227
 7936SOL     OW35443   0.295   2.137   7.094 -0.1493 -0.8592 -0.2637
 7936SOL    HW135444   0.370   2.085   7.124  0.1495 -0.1633  0.1824
 7936SOL    HW235445   0.335   2.188   7.023 -2.4028  2.7848  1.1319
 7937SOL     OW35446   1.933   4.521   1.536  0.3040 -0.0340 -0.4490
 7937SOL    HW135447   1.974   4.566   1.610 -1.3131  1.0213 -0.2050
 7937SOL    HW235448   1.847   4.561   1.543 -1.2982 -3.3843 -1.2325
 7938SOL     OW35449   3.870   0.959   3.334 -0.1462 -0.2300  0.0118
 7938SOL    HW135450   3.885   1.052   3.348  0.3966 -0.2520 -0.4332
 7938SOL    HW235451   3.845   0.911   3.413 -0.6196  0.5974  0.3608
 7939SOL     OW35452   2.826   1.335   3.190 -0.2774 -0.4020 -0.1322
 7939SOL    HW135453   2.735   1.327   3.217 -0.4858 -1.8031 -1.2187
 7939SOL    HW235454   2.836   1.428   3.169  0.3786 -0.4239  0.0574
 7940SOL     OW35455   1.177   1.814   9.244  0.5346 -0.2211  0.7702
 7940SOL    HW135456   1.155   1.880   9.309  1.0802  0.8692 -0.1355
 7940SOL    HW235457   1.163   1.735   9.295  2.3187  0.0735  1.7082
 7941SOL     OW35458   0.526   2.975   8.154  0.1152 -0.2451 -0.5858
 7941SOL    HW135459   0.475   2.896   8.172 -0.9380  0.5865  0.1181
 7941SOL    HW235460   0.599   2.960   8.214  0.3836  1.6208 -0.4242
 7942SOL     OW35461   2.772   4.430   2.148 -0.0329 -0.6734 -0.4707
 7942SOL    HW135462   2.736   4.417   2.060  0.2009  1.6239 -0.9207
 7942SOL    HW235463   2.725   4.360   2.192  0.9477  0.4530  2.3744
 7943SOL     OW35464   2.262   1.764   9.002 -0.1631 -0.5736  0.2384
 7943SOL    HW135465   2.233   1.835   9.060 -1.0990 -0.8438  0.1140
 7943SOL    HW235466   2.301   1.808   8.927 -1.5112  0.6633  0.2467
 7944SOL     OW35467   0.796   0.756   4.125  0.1082 -0.4176 -0.8960
 7944SOL    HW135468   0.819   0.665   4.107  1.7823 -0.2362  0.3278
 7944SOL    HW235469   0.848   0.809   4.064 -0.0161  1.0547  0.2709
 7945SOL     OW35470   1.658   0.111   5.986 -0.1114 -0.0024 -0.7376
 7945SOL    HW135471   1.677   0.145   5.899  1.3413 -0.9248 -0.7712
 7945SOL    HW235472   1.742   0.117   6.030 -0.9072  1.7105  0.5964
 7946SOL     OW35473   0.383   2.619   6.643 -0.3064  0.3295  0.6053
 7946SOL    HW135474   0.392   2.531   6.605 -1.2641 -0.1208  1.4123
 7946SOL    HW235475   0.318   2.592   6.707  0.2520 -0.5520  0.8030
 7947SOL     OW35476   0.798   1.460   4.967 -0.0876 -0.0787  0.6683
 7947SOL    HW135477   0.719   1.425   5.009 -0.9294  3.9638  2.4411
 7947SOL    HW235478   0.760   1.544   4.942 -1.5936 -0.6805  0.9084
 7948SOL     OW35479   1.162   4.253   2.323 -0.1217  1.0047  0.4585
 7948SOL    HW135480   1.182   4.327   2.266  0.2066  0.7439  0.2359
 7948SOL    HW235481   1.092   4.206   2.279 -1.1868  0.4405  2.7570
 7949SOL     OW35482   1.057   4.214  17.179  0.4728 -0.1817 -0.5928
 7949SOL    HW135483   0.989   4.257  17.231 -0.9059 -0.2575 -2.3564
 7949SOL    HW235484   1.086   4.139  17.231 -0.2577 -0.4363 -0.5602
 7950SOL     OW35485   2.161   0.773   6.618  0.5374  0.0679 -0.1922
 7950SOL    HW135486   2.252   0.758   6.594  1.3180  3.8875  0.3537
 7950SOL    HW235487   2.164   0.743   6.709  0.3233  0.1517 -0.1572
 7951SOL     OW35488   4.621   2.722   7.396  0.1606  0.3143  0.2265
 7951SOL    HW135489   4.562   2.686   7.463 -1.2917 -1.6151 -2.0906
 7951SOL    HW235490   4.692   2.758   7.449  0.5548  0.1793 -0.2153
 7952SOL     OW35491   2.185   4.336   6.569  0.0457 -0.1726  0.0859
 7952SOL    HW135492   2.223   4.418   6.537 -0.3482 -0.5929 -1.4543
 7952SOL    HW235493   2.091   4.341   6.553  0.2706 -0.4526 -1.3343
 7953SOL     OW35494   2.725   0.466   7.463 -0.9947  1.0523 -0.0262
 7953SOL    HW135495   2.713   0.442   7.371 -0.2350 -0.9058  0.3961
 7953SOL    HW235496   2.763   0.553   7.457  2.2526 -0.2517  1.9220
 7954SOL     OW35497   1.198   4.689   4.436  0.1076 -0.0640 -0.0165
 7954SOL    HW135498   1.103   4.685   4.436  0.2288 -3.2808  0.6587
 7954SOL    HW235499   1.212   4.716   4.345  1.2963  1.8468  0.7190
 7955SOL     OW35500   0.182   3.398   8.592  0.0017 -0.3333 -0.1525
 7955SOL    HW135501   0.252   3.353   8.545 -0.6527  1.4875 -2.8221
 7955SOL    HW235502   0.197   3.369   8.682  2.2094  1.8396  0.2085
 7956SOL     OW35503   4.058   3.884   7.284  0.1099 -0.2560  0.2103
 7956SOL    HW135504   3.993   3.818   7.261  1.7376 -0.8662 -2.5779
 7956SOL    HW235505   4.118   3.832   7.338 -0.9368  0.6004  2.2077
 7957SOL     OW35506   3.720   0.821  11.913 -0.0629  0.1203  0.4323
 7957SOL    HW135507   3.704   0.752  11.978 -2.5018 -0.2335 -0.5427
 7957SOL    HW235508   3.796   0.864  11.952 -0.1377  1.1315 -0.5645
 7958SOL     OW35509   0.243   0.081   3.827  0.1936  0.1417  0.3692
 7958SOL    HW135510   0.287   0.022   3.889 -0.8868 -1.2182 -0.1722
 7958SOL    HW235511   0.163   0.097   3.876  0.5415  3.3743 -0.1064
 7959SOL     OW35512   4.156   0.132   6.911 -0.3889  0.2438 -0.0155
 7959SOL    HW135513   4.182   0.065   6.848  0.1088  0.2107  0.2260
 7959SOL    HW235514   4.062   0.123   6.896 -0.3685 -0.9450  0.6070
 7960SOL     OW35515   0.475   3.444  10.308 -0.0217  0.2085 -0.3538
 7960SOL    HW135516   0.387   3.456  10.272  0.6939 -1.5701 -2.7350
 7960SOL    HW235517   0.506   3.393  10.232 -0.1358 -1.8520  0.9851
 7961SOL     OW35518   0.862   2.973  16.986  0.0715  0.3030 -0.2788
 7961SOL    HW135519   0.934   3.031  17.013  0.3312 -0.1636  0.0245
 7961SOL    HW235520   0.876   2.898  17.044 -0.9405  0.3310 -0.0047
 7962SOL     OW35521   2.441   2.474   4.953 -0.3088 -0.3212  0.3600
 7962SOL    HW135522   2.514   2.509   5.004 -1.1225  1.0113  0.6078
 7962SOL    HW235523   2.479   2.398   4.909  0.0441 -0.6159  1.1715
 7963SOL     OW35524   0.318   3.217   6.740  0.0087 -0.1495  0.6330
 7963SOL    HW135525   0.311   3.148   6.805 -2.0310  0.5391  1.1707
 7963SOL    HW235526   0.235   3.206   6.693  0.3036 -0.5391  0.2063
 7964SOL     OW35527   2.024   0.474   3.340  0.5426 -0.0333  0.0624
 7964SOL    HW135528   1.979   0.461   3.424 -0.6766 -2.9747 -1.0385
 7964SOL    HW235529   2.109   0.504   3.372  0.7022  0.5327 -0.8900
 7965SOL     OW35530   0.708   1.654   3.391  0.0999 -0.3071 -0.6555
 7965SOL    HW135531   0.735   1.704   3.468 -1.5496 -3.1985  1.8297
 7965SOL    HW235532   0.629   1.705   3.374  0.2000 -0.5979 -1.9580
 7966SOL     OW35533   3.490   0.765   4.268 -0.1653 -0.3218 -0.3962
 7966SOL    HW135534   3.411   0.721   4.298 -0.6277  0.1954 -0.8479
 7966SOL    HW235535   3.473   0.792   4.177 -0.6554  0.8980  0.0634
 7967SOL     OW35536   4.591   2.627   2.793 -0.3957 -0.1214  0.3814
 7967SOL    HW135537   4.545   2.711   2.786 -0.8054 -0.2641  1.3818
 7967SOL    HW235538   4.515   2.584   2.832 -0.3748  0.2251  0.8065
 7968SOL     OW35539   4.351   0.442   1.567 -0.2030  0.5082  0.5242
 7968SOL    HW135540   4.416   0.510   1.582 -1.0608  1.3779  0.3456
 7968SOL    HW235541   4.266   0.482   1.588  0.2140  1.3970  0.5509
 7969SOL     OW35542   0.419   3.849   5.114 -0.2694 -0.3556 -0.0504
 7969SOL    HW135543   0.453   3.781   5.057  1.2835  2.4205 -2.4357
 7969SOL    HW235544   0.496   3.904   5.099 -0.0138 -0.6048  0.3369
 7970SOL     OW35545   1.092   1.216  16.672  0.0310 -0.2315  0.3640
 7970SOL    HW135546   1.066   1.157  16.601 -2.5184  0.7834  0.4361
 7970SOL    HW235547   1.170   1.257  16.635  0.2406 -1.0808 -0.1293
 7971SOL     OW35548   3.580   1.870  12.255  0.6834  0.3638  0.0900
 7971SOL    HW135549   3.631   1.927  12.198 -0.5695  2.2522  0.8251
 7971SOL    HW235550   3.580   1.926  12.333  1.2531  1.7356 -0.8986
 7972SOL     OW35551   4.413   2.695   5.629  0.2914  0.0618 -0.0376
 7972SOL    HW135552   4.347   2.746   5.676 -0.6812  1.0080 -2.4445
 7972SOL    HW235553   4.416   2.743   5.546 -0.3905  1.1187  0.5460
 7973SOL     OW35554   1.826   3.099  10.180  0.3306 -0.0878  0.0352
 7973SOL    HW135555   1.819   3.005  10.198 -1.9742  0.0666 -0.0838
 7973SOL    HW235556   1.855   3.127  10.267 -0.4848  2.7413 -0.6078
 7974SOL     OW35557   4.251   3.797   2.026 -0.0872 -0.0714 -0.6743
 7974SOL    HW135558   4.287   3.834   2.107 -0.9181  1.8907 -1.1898
 7974SOL    HW235559   4.245   3.872   1.967  0.4447 -0.3281 -1.0539
 7975SOL     OW35560   4.522   0.732   3.123 -0.2931  0.0459 -0.1976
 7975SOL    HW135561   4.445   0.739   3.066  0.0401  0.0381 -0.6418
 7975SOL    HW235562   4.564   0.817   3.108  1.4925 -0.8928 -0.4402
 7976SOL     OW35563   1.843   1.652   8.782 -0.1832 -0.0264 -0.1230
 7976SOL    HW135564   1.853   1.718   8.713 -1.0764  0.7237  0.4664
 7976SOL    HW235565   1.933   1.654   8.814  0.4716 -3.0114 -1.7694
 7977SOL     OW35566   0.555   4.561   7.050  0.0776 -0.2752  0.1706
 7977SOL    HW135567   0.549   4.488   6.988  1.4054  0.7471 -1.1325
 7977SOL    HW235568   0.460   4.570   7.059  0.0705 -0.5167  0.3467
 7978SOL     OW35569   1.339   0.665   6.560 -0.4205  0.3074 -0.5867
 7978SOL    HW135570   1.313   0.757   6.562 -4.3102 -0.7755 -1.2191
 7978SOL    HW235571   1.253   0.625   6.544 -0.7397  0.6863  0.1956
 7979SOL     OW35572   0.199   1.602   6.609 -0.1231  0.4700 -0.0426
 7979SOL    HW135573   0.235   1.552   6.682 -2.8330  2.5840  2.7510
 7979SOL    HW235574   0.143   1.672   6.644 -1.4786 -1.2463  1.1822
 7980SOL     OW35575   2.443   4.533   7.762 -0.2798 -0.1184 -0.0170
 7980SOL    HW135576   2.481   4.445   7.766  3.7814  1.5363 -2.7140
 7980SOL    HW235577   2.424   4.549   7.854  1.0597 -1.1193  0.4369
 7981SOL     OW35578   4.017   3.093  11.393  0.8983 -0.2842 -1.0165
 7981SOL    HW135579   3.946   3.157  11.380  0.1061 -1.1249 -0.8658
 7981SOL    HW235580   4.037   3.078  11.301 -1.4427 -0.0117 -1.5701
 7982SOL     OW35581   1.787   4.472  15.368  0.0594 -0.0167 -0.1389
 7982SOL    HW135582   1.700   4.495  15.401  1.1160 -0.5963  3.0347
 7982SOL    HW235583   1.835   4.460  15.449  0.1976  0.2066 -0.1862
 7983SOL     OW35584   1.379   2.704   6.507  0.2318 -0.3826  0.5233
 7983SOL    HW135585   1.414   2.769   6.568 -3.0157  1.7703  0.0510
 7983SOL    HW235586   1.320   2.645   6.555  1.4001  2.0048  4.8812
 7984SOL     OW35587   2.226   3.258   5.410  0.1510 -0.2837  0.2387
 7984SOL    HW135588   2.153   3.288   5.463  0.8476 -0.3488  1.2443
 7984SOL    HW235589   2.187   3.178   5.373  0.2244 -0.0581 -0.3287
 7985SOL     OW35590   3.556   0.353   2.826  0.0157  0.2114 -0.0888
 7985SOL    HW135591   3.467   0.321   2.839  0.5932 -0.5859  1.7856
 7985SOL    HW235592   3.604   0.270   2.836  0.1360  0.2024 -0.7079
 7986SOL     OW35593   0.513   0.582   4.259 -0.2262  0.3286  0.2506
 7986SOL    HW135594   0.577   0.539   4.202 -0.7616 -0.2941  0.1246
 7986SOL    HW235595   0.522   0.523   4.334  0.1129 -0.9654 -0.8161
 7987SOL     OW35596   2.692   0.627  17.750 -0.3432  0.0254 -0.6796
 7987SOL    HW135597   2.703   0.698   0.059  0.8497 -1.4168  0.7271
 7987SOL    HW235598   2.780   0.632  17.713  0.8875 -3.0230  1.8020
 7988SOL     OW35599   0.115   0.028   6.516  0.4694 -0.3768 -0.0823
 7988SOL    HW135600   0.072   4.705   6.457 -2.0735  1.7822 -0.4939
 7988SOL    HW235601   0.208   0.016   6.495  1.0297  0.5165  1.8525
 7989SOL     OW35602   0.645   3.986   2.104  0.0595  0.2091 -0.0218
 7989SOL    HW135603   0.625   3.903   2.062  1.8265 -0.3302  0.1881
 7989SOL    HW235604   0.669   3.951   2.190 -0.2117 -2.3490 -1.0083
 7990SOL     OW35605   0.977   4.732   9.382  0.3692 -0.3251 -0.1972
 7990SOL    HW135606   1.047   0.028   9.327  0.4985  1.4928  1.1238
 7990SOL    HW235607   0.968   4.644   9.347 -2.4581 -0.8808  1.9481
 7991SOL     OW35608   1.875   3.234   1.390  0.0112  0.7116 -0.3147
 7991SOL    HW135609   1.871   3.181   1.470 -0.5747 -2.5521 -2.5152
 7991SOL    HW235610   1.782   3.255   1.390 -0.4033 -1.0431  0.3008
 7992SOL     OW35611   0.908   2.396   8.309 -0.2350 -0.1738  0.1839
 7992SOL    HW135612   0.952   2.378   8.226 -0.2678  1.4332 -0.1706
 7992SOL    HW235613   0.951   2.333   8.368  1.2273  1.0309  0.4157
 7993SOL     OW35614   0.176   3.034   3.964  0.3634  0.5875 -0.0758
 7993SOL    HW135615   0.248   3.097   3.958  0.5143  0.4715  0.4865
 7993SOL    HW235616   0.097   3.087   3.976 -0.4030 -0.7037  0.4973
 7994SOL     OW35617   0.482   0.248   5.088 -0.1329 -0.2336 -0.0627
 7994SOL    HW135618   0.486   0.164   5.134  0.7010 -0.6026 -0.8136
 7994SOL    HW235619   0.567   0.290   5.105 -0.9531  1.4286 -0.0874
 7995SOL     OW35620   4.033   0.722  12.664  0.5823 -0.5535  0.2094
 7995SOL    HW135621   4.056   0.764  12.581 -1.9823  1.7010  0.6505
 7995SOL    HW235622   4.096   0.759  12.727  1.6060 -1.5100 -0.2469
 7996SOL     OW35623   2.874   2.726  14.066  0.3762  1.0064  0.1305
 7996SOL    HW135624   2.945   2.754  14.008 -0.4845 -0.7874 -1.7850
 7996SOL    HW235625   2.803   2.767  14.017 -1.0164 -1.9807 -0.3318
 7997SOL     OW35626   2.507   1.052   4.559 -0.2828  0.1105  0.4037
 7997SOL    HW135627   2.582   1.104   4.531 -0.2639  0.6995  1.5232
 7997SOL    HW235628   2.501   1.066   4.654  3.6732  0.7838  0.5501
 7998SOL     OW35629   4.565   1.777  16.120  0.8126  0.6112  0.1267
 7998SOL    HW135630   4.637   1.828  16.157  1.9509 -0.5951 -0.4503
 7998SOL    HW235631   4.497   1.844  16.110  1.9368  1.5998 -0.9853
 7999SOL     OW35632   1.772   4.344   6.924  0.2611  0.0039 -0.5527
 7999SOL    HW135633   1.714   4.315   6.995 -0.6619  1.8471 -0.5473
 7999SOL    HW235634   1.850   4.364   6.977 -1.0227  2.0420  0.5995
 8000SOL     OW35635   1.336   1.888   8.835 -0.0286  0.3056  0.3211
 8000SOL    HW135636   1.282   1.832   8.778 -1.5990  0.3659  1.7300
 8000SOL    HW235637   1.260   1.916   8.886 -0.0870 -0.6351  0.7645
 8001SOL     OW35638   0.561   0.945   3.127  0.5472 -0.1905 -0.0361
 8001SOL    HW135639   0.568   1.031   3.086 -1.0355  0.5080  1.1909
 8001SOL    HW235640   0.601   0.887   3.061  3.0481 -0.9157  2.1151
 8002SOL     OW35641   3.888   0.054  14.395 -0.4182  0.7258 -0.2613
 8002SOL    HW135642   3.826   0.125  14.378 -0.2925  1.3884  2.0861
 8002SOL    HW235643   3.875   4.729  14.325 -1.1926  0.3925  0.1799
 8003SOL     OW35644   0.964   0.288   1.485 -0.1724 -0.1960  0.3228
 8003SOL    HW135645   0.954   0.333   1.569 -0.4160  0.6664 -0.1658
 8003SOL    HW235646   0.889   0.228   1.483 -1.9994  2.0751  0.9307
 8004SOL     OW35647   4.005   0.284  12.166 -0.3772 -0.7391  0.2539
 8004SOL    HW135648   3.960   0.207  12.133 -2.9125  1.2272 -0.8591
 8004SOL    HW235649   3.939   0.331  12.217 -1.3571  0.1875 -1.8997
 8005SOL     OW35650   1.351   0.567  14.252  0.0422  0.1577 -0.3994
 8005SOL    HW135651   1.303   0.649  14.264  0.0109  0.2244 -1.0249
 8005SOL    HW235652   1.354   0.534  14.342 -0.1922 -1.8392 -1.1366
 8006SOL     OW35653   0.550   4.691   4.390 -0.0265  0.4029  0.4505
 8006SOL    HW135654   0.540   4.670   4.297  0.2055  2.0342  0.0488
 8006SOL    HW235655   0.509   4.608   4.414  0.1233  0.4923  1.0276
 8007SOL     OW35656   0.118   0.438   3.941 -0.2202 -0.2337  0.6294
 8007SOL    HW135657   0.161   0.430   4.026  1.7875  2.6380 -0.1526
 8007SOL    HW235658   0.025   0.444   3.966 -0.1596  0.1446  0.7617
 8008SOL     OW35659   1.942   0.757   2.620 -0.5534  1.0017  0.7697
 8008SOL    HW135660   1.902   0.837   2.585  0.3215  0.4322 -1.5257
 8008SOL    HW235661   1.985   0.788   2.700 -1.6120  1.1258  1.2935
 8009SOL     OW35662   3.123   1.856   9.403 -0.0099 -0.2027  0.1440
 8009SOL    HW135663   3.072   1.924   9.448 -0.4647 -1.9309  2.2047
 8009SOL    HW235664   3.078   1.774   9.420 -0.0128 -0.4981 -1.3678
 8010SOL     OW35665   3.352   2.074   8.327  0.4105  0.3092  0.0358
 8010SOL    HW135666   3.305   2.070   8.243  1.3900  0.6615 -0.5330
 8010SOL    HW235667   3.310   1.994   8.359 -2.4589  1.8884  0.1748
 8011SOL     OW35668   2.108   3.765   8.666  0.0226  0.1388  0.2986
 8011SOL    HW135669   2.070   3.705   8.601 -1.5541  0.5222  0.8492
 8011SOL    HW235670   2.139   3.697   8.726 -2.3854 -0.2970  1.0516
 8012SOL     OW35671   3.494   0.768   1.504 -0.3400 -0.2782  0.6094
 8012SOL    HW135672   3.577   0.801   1.539 -0.0122  0.0545 -0.4882
 8012SOL    HW235673   3.527   0.764   1.414 -4.6022 -0.9204 -0.9084
 8013SOL     OW35674   1.489   4.263   7.559 -0.1335 -0.1160  0.4051
 8013SOL    HW135675   1.577   4.239   7.589 -0.4676 -1.1620  0.5485
 8013SOL    HW235676   1.507   4.344   7.511 -0.2825 -0.7537 -0.7325
 8014SOL     OW35677   2.669   1.232  15.195 -0.6238  0.2654 -0.3947
 8014SOL    HW135678   2.649   1.317  15.157  2.7874  0.7919 -1.0417
 8014SOL    HW235679   2.606   1.226  15.267  0.7747  1.6263  0.9563
 8015SOL     OW35680   1.443   2.172  12.183 -0.2852  0.1185  0.0631
 8015SOL    HW135681   1.376   2.147  12.118 -1.9884  0.9218  1.5312
 8015SOL    HW235682   1.499   2.235  12.137 -1.1669 -0.2726 -1.5742
 8016SOL     OW35683   0.554   3.742   6.543 -0.2117  0.4451 -0.1367
 8016SOL    HW135684   0.480   3.700   6.499  0.7753 -0.5904 -0.8513
 8016SOL    HW235685   0.613   3.746   6.467 -1.6264  0.4899 -1.2154
 8017SOL     OW35686   3.971   3.487   7.810  0.0426  0.3062  0.1647
 8017SOL    HW135687   3.905   3.442   7.863 -1.3791  0.7875 -1.1974
 8017SOL    HW235688   3.986   3.566   7.861  0.2743  1.1752 -1.2411
 8018SOL     OW35689   2.423   1.260   1.880  0.2346 -0.5305 -0.7700
 8018SOL    HW135690   2.486   1.193   1.909 -0.9480 -0.8820  1.0403
 8018SOL    HW235691   2.473   1.327   1.835 -2.3068  0.9532 -1.3724
 8019SOL     OW35692   1.293   4.619   7.004  0.2072 -0.2342 -0.4358
 8019SOL    HW135693   1.219   4.671   6.973 -0.8919 -0.4599  1.7473
 8019SOL    HW235694   1.344   4.689   7.044 -0.7882  1.5824 -2.3897
 8020SOL     OW35695   4.234   1.118   5.734 -0.3196  0.3604 -0.0850
 8020SOL    HW135696   4.185   1.176   5.674  0.0038 -0.1906 -0.8822
 8020SOL    HW235697   4.290   1.180   5.781  0.1186 -0.5888  0.6280
 8021SOL     OW35698   0.392   0.420   6.223 -0.1151  0.5411 -0.4572
 8021SOL    HW135699   0.419   0.454   6.138  0.4393  0.9521 -0.1159
 8021SOL    HW235700   0.336   0.350   6.191  1.6542 -1.6073  1.1316
 8022SOL     OW35701   0.334   4.327  14.077 -0.0804  0.2065  0.0604
 8022SOL    HW135702   0.299   4.258  14.021  1.8309  0.3642 -1.3310
 8022SOL    HW235703   0.302   4.403  14.028 -1.0501  0.8034  1.5904
 8023SOL     OW35704   0.246   0.397  15.833  0.3287  0.1819 -0.5410
 8023SOL    HW135705   0.218   0.394  15.742  0.0672  1.9143 -0.5215
 8023SOL    HW235706   0.337   0.371  15.820  1.5468  3.8603  0.3714
 8024SOL     OW35707   1.996   0.231  15.123  0.0167 -0.3492 -0.1346
 8024SOL    HW135708   2.075   0.271  15.088 -0.2195 -0.4482 -0.7811
 8024SOL    HW235709   1.979   0.250  15.216 -0.8051 -0.5141 -0.2523
 8025SOL     OW35710   2.253   4.719  13.123  0.7055 -0.0454 -0.4130
 8025SOL    HW135711   2.324   4.654  13.129  0.3020 -0.2509  1.9579
 8025SOL    HW235712   2.181   4.673  13.080 -0.1281  1.0991 -0.2418
 8026SOL     OW35713   3.275   2.668   1.843  0.1631  0.1041 -0.5438
 8026SOL    HW135714   3.267   2.577   1.872 -0.6246  0.4595  0.3406
 8026SOL    HW235715   3.290   2.712   1.926  0.0287  0.9537 -0.9690
 8027SOL     OW35716   2.883   3.991  16.659  0.4044 -0.1886  0.2336
 8027SOL    HW135717   2.923   3.980  16.745 -2.3950 -2.3394  1.2822
 8027SOL    HW235718   2.793   4.018  16.678  0.5253  0.1646  0.3096
 8028SOL     OW35719   0.887   3.992   9.168 -0.2949  0.0588 -0.3662
 8028SOL    HW135720   0.864   3.926   9.104  0.5014  1.2715 -1.9028
 8028SOL    HW235721   0.952   3.946   9.222 -0.7984  0.0596  0.2462
 8029SOL     OW35722   1.233   1.989   8.318 -0.1041  0.7756 -0.3086
 8029SOL    HW135723   1.313   2.043   8.323  2.3014 -2.7819 -0.5511
 8029SOL    HW235724   1.263   1.905   8.283 -0.3809  0.0249  1.2722
 8030SOL     OW35725   4.446   3.444  16.652  0.3821 -0.4716  0.1055
 8030SOL    HW135726   4.506   3.507  16.611 -0.3492 -0.5902 -1.1418
 8030SOL    HW235727   4.434   3.387  16.577 -0.7049  0.1782 -0.2058
 8031SOL     OW35728   2.991   0.494   9.523 -0.4237 -0.4488 -0.2207
 8031SOL    HW135729   2.934   0.569   9.542  0.0958  0.0145 -0.4873
 8031SOL    HW235730   3.058   0.530   9.465  0.1340  1.3133  1.4946
 8032SOL     OW35731   3.564   2.767  11.643  0.0460 -0.5627 -0.5423
 8032SOL    HW135732   3.630   2.808  11.698  1.2709  0.0963 -2.4951
 8032SOL    HW235733   3.519   2.844  11.607  0.0190  0.1970  1.1576
 8033SOL     OW35734   0.350   4.129   9.692 -0.8367  0.0254  0.4896
 8033SOL    HW135735   0.408   4.170   9.756 -1.2479 -1.3730  1.7733
 8033SOL    HW235736   0.340   4.048   9.743  0.0749  0.4337  1.3103
 8034SOL     OW35737   1.835   4.640  13.860  0.3698  0.5243 -0.1483
 8034SOL    HW135738   1.928   4.622  13.856  0.3474  0.4826 -0.4879
 8034SOL    HW235739   1.788   4.557  13.851 -0.9327  1.3635 -1.1449
 8035SOL     OW35740   2.661   3.626   8.833 -0.6551 -0.1377  0.7344
 8035SOL    HW135741   2.592   3.651   8.895 -1.6174  0.4844 -0.5985
 8035SOL    HW235742   2.740   3.656   8.878  1.1950 -1.2051 -1.7868
 8036SOL     OW35743   3.659   1.394   7.517 -0.2433  0.2266 -0.1300
 8036SOL    HW135744   3.752   1.379   7.531  0.0901  1.5251 -0.9027
 8036SOL    HW235745   3.639   1.374   7.425 -1.5289  1.5641 -0.1547
 8037SOL     OW35746   0.033   3.812  13.159 -0.1487 -0.7162  0.0169
 8037SOL    HW135747   0.021   3.904  13.181 -0.5440 -1.3003  2.3083
 8037SOL    HW235748   0.126   3.816  13.135 -0.2234  1.2970  0.1123
 8038SOL     OW35749   4.083   3.258  11.803 -0.4122 -0.0264 -0.8245
 8038SOL    HW135750   4.062   3.350  11.822  0.8751  0.2104 -0.5783
 8038SOL    HW235751   4.174   3.249  11.832 -0.1752  0.1297 -1.5174
 8039SOL     OW35752   2.303   0.794  13.219 -0.0376  0.2277 -0.3494
 8039SOL    HW135753   2.249   0.856  13.269  0.4854 -1.0751  1.8384
 8039SOL    HW235754   2.263   0.800  13.133 -2.3936  1.5995  0.8607
 8040SOL     OW35755   4.057   4.611   2.965 -0.2215 -0.3846  0.1089
 8040SOL    HW135756   4.026   4.640   3.051 -1.5013 -2.6692  0.3945
 8040SOL    HW235757   3.988   4.549   2.943 -0.0035 -0.3564 -0.6427
 8041SOL     OW35758   3.698   3.856   3.526  0.2466 -0.5130  0.1882
 8041SOL    HW135759   3.649   3.937   3.538  2.2372  0.8355 -0.7112
 8041SOL    HW235760   3.784   3.887   3.496  0.3141 -0.2332  0.6688
 8042SOL     OW35761   3.261   3.095  15.797 -1.0993  0.3214  0.6360
 8042SOL    HW135762   3.165   3.092  15.794 -1.0720  1.2122 -0.6973
 8042SOL    HW235763   3.286   3.003  15.795 -0.7173  0.4630 -0.7363
 8043SOL     OW35764   0.784   0.377  17.734  0.4087 -0.6501  0.0301
 8043SOL    HW135765   0.699   0.383  17.691 -0.4173 -1.6693  1.5136
 8043SOL    HW235766   0.834   0.435  17.677  4.0501 -3.3187  0.4686
 8044SOL     OW35767   0.190   3.098   2.206  0.1751  0.3025 -0.2248
 8044SOL    HW135768   0.258   3.032   2.221  0.2085  0.7793  1.7323
 8044SOL    HW235769   0.145   3.053   2.134  0.2267  0.5162 -0.3889
 8045SOL     OW35770   4.114   4.047   3.529  0.3432 -0.3069  0.0302
 8045SOL    HW135771   4.153   4.122   3.484  0.7994 -0.2056  0.5901
 8045SOL    HW235772   4.195   4.004   3.559  0.3181 -0.8711 -0.7065
 8046SOL     OW35773   1.922   0.297  14.051 -0.3902  0.2603 -1.1016
 8046SOL    HW135774   1.884   0.272  13.966 -1.4573 -0.2449 -0.4749
 8046SOL    HW235775   2.009   0.257  14.054  0.5280  2.4215  0.8657
 8047SOL     OW35776   4.577   3.187   2.130 -0.3105  0.1051  0.5106
 8047SOL    HW135777   4.533   3.269   2.107 -0.6910 -0.1853  0.2173
 8047SOL    HW235778   4.538   3.118   2.077  2.3925  1.6532 -3.4893
 8048SOL     OW35779   3.423   2.298   5.912  0.4906  0.1191  0.5224
 8048SOL    HW135780   3.357   2.304   5.843  0.4062  0.1212  0.6048
 8048SOL    HW235781   3.426   2.206   5.939  0.3271  0.1913  0.7813
 8049SOL     OW35782   0.652   3.226  12.965 -0.1599 -0.2372  0.4000
 8049SOL    HW135783   0.633   3.259  13.053 -2.3919 -0.4032 -0.0233
 8049SOL    HW235784   0.601   3.287  12.912 -0.6460 -1.6402 -0.7499
 8050SOL     OW35785   0.442   1.213   8.128  0.4804  0.1964  0.2743
 8050SOL    HW135786   0.514   1.263   8.167  1.3052 -0.0327 -0.9553
 8050SOL    HW235787   0.413   1.172   8.209 -1.7952  0.9718 -0.1633
 8051SOL     OW35788   3.517   4.061   3.605  0.0903 -0.2603 -0.0278
 8051SOL    HW135789   3.499   4.137   3.549 -2.7798 -1.0108 -0.0899
 8051SOL    HW235790   3.531   4.106   3.688 -0.8128  1.8783 -1.0282
 8052SOL     OW35791   1.746   0.843   1.383 -0.2395 -0.3657  0.3455
 8052SOL    HW135792   1.702   0.833   1.468  0.3915 -2.6262  0.3899
 8052SOL    HW235793   1.732   0.758   1.342  2.0867 -1.6352  2.1591
 8053SOL     OW35794   1.651   3.923  12.453 -0.0477  0.3317 -0.2478
 8053SOL    HW135795   1.594   3.924  12.529  0.6616  0.9457  0.2820
 8053SOL    HW235796   1.634   3.840  12.408  1.1277  1.6363 -3.1292
 8054SOL     OW35797   2.014   2.653   4.109  0.0691 -0.4815 -0.1930
 8054SOL    HW135798   1.959   2.613   4.042  0.9142 -3.0836  0.6674
 8054SOL    HW235799   2.098   2.665   4.065  0.2870  0.5787  0.5075
 8055SOL     OW35800   3.427   2.192   5.083  0.0320  0.5031 -0.0598
 8055SOL    HW135801   3.363   2.262   5.094 -1.8222 -1.2982  0.7224
 8055SOL    HW235802   3.503   2.222   5.134 -0.2500 -0.1374  0.7452
 8056SOL     OW35803   3.088   4.395   5.469 -0.0570 -0.1632  0.3527
 8056SOL    HW135804   3.021   4.463   5.467 -3.8375 -3.9327  0.4182
 8056SOL    HW235805   3.150   4.427   5.535 -1.0651 -0.3435  1.3896
 8057SOL     OW35806   3.844   2.826   5.728  0.0091 -0.6281  0.3537
 8057SOL    HW135807   3.890   2.801   5.648 -0.6673  1.3743 -0.6417
 8057SOL    HW235808   3.804   2.909   5.704  1.3841 -0.3991 -1.1286
 8058SOL     OW35809   2.716   2.739   1.302 -0.3347  0.0413 -0.3046
 8058SOL    HW135810   2.743   2.793   1.376 -1.6767  1.5781 -0.9353
 8058SOL    HW235811   2.801   2.737   1.258 -1.2904 -1.0348 -2.1034
 8059SOL     OW35812   3.651   1.287  16.340  0.3492 -0.0573 -0.1624
 8059SOL    HW135813   3.679   1.266  16.251 -1.1083 -1.0570 -0.3889
 8059SOL    HW235814   3.569   1.238  16.350  0.0613  0.9727  2.5565
 8060SOL     OW35815   1.525   3.185  11.200 -0.1724  0.0575 -0.4404
 8060SOL    HW135816   1.448   3.133  11.178 -0.0527 -0.8928  1.4107
 8060SOL    HW235817   1.528   3.188  11.295 -2.3049  0.4761 -0.3850
 8061SOL     OW35818   1.580   1.645   4.057 -0.1439 -0.2602  0.5599
 8061SOL    HW135819   1.530   1.723   4.033 -1.0426 -1.3902 -1.2287
 8061SOL    HW235820   1.631   1.671   4.134  0.8106  1.6134 -0.7105
 8062SOL     OW35821   4.406   2.413   6.376 -0.3180 -0.2738 -0.0283
 8062SOL    HW135822   4.495   2.436   6.349  0.1076 -0.6865  0.9949
 8062SOL    HW235823   4.354   2.478   6.329 -1.4345 -0.1647  1.3620
 8063SOL     OW35824   3.831   1.510   6.863  0.1176  0.6546 -0.0614
 8063SOL    HW135825   3.811   1.504   6.957 -0.5060 -1.8173 -0.3426
 8063SOL    HW235826   3.885   1.588   6.857 -0.2364  0.7105 -2.4940
 8064SOL     OW35827   2.319   3.509   1.956  0.6706  0.1457  0.0289
 8064SOL    HW135828   2.304   3.514   2.050 -1.9213  1.1334 -0.4343
 8064SOL    HW235829   2.240   3.542   1.913  0.0203 -0.8431  0.4511
 8065SOL     OW35830   2.986   2.949  12.916 -0.1975 -0.0236  0.0490
 8065SOL    HW135831   2.994   2.855  12.934  1.9643 -0.2164 -1.8837
 8065SOL    HW235832   3.074   2.976  12.890  0.3530 -2.3991 -0.5742
 8066SOL     OW35833   1.637   2.270   3.253  0.3322  0.4740  0.0204
 8066SOL    HW135834   1.727   2.237   3.260  0.4469  0.5893 -0.8647
 8066SOL    HW235835   1.605   2.227   3.332  0.6800  1.6258  0.7845
 8067SOL     OW35836   1.626   0.461  12.472 -0.2680 -0.3647  0.3731
 8067SOL    HW135837   1.687   0.437  12.403 -0.4527 -2.0421  0.8079
 8067SOL    HW235838   1.665   0.544  12.500 -1.5699 -0.2333  1.7976
 8068SOL     OW35839   2.657   3.633   1.211  0.3721 -0.5485 -0.3615
 8068SOL    HW135840   2.663   3.556   1.268 -0.2351  0.1379  0.6299
 8068SOL    HW235841   2.569   3.620   1.174 -0.0396  1.3697 -0.0175
 8069SOL     OW35842   3.367   1.711   5.205 -0.1710  0.2177  0.2794
 8069SOL    HW135843   3.429   1.782   5.188 -1.0401  0.6030 -1.2228
 8069SOL    HW235844   3.376   1.703   5.300 -2.3017  0.3534  0.4842
 8070SOL     OW35845   2.629   4.724   7.439 -0.6521 -0.3055  0.0125
 8070SOL    HW135846   2.675   0.013   7.360  0.5841  1.2444  1.2980
 8070SOL    HW235847   2.551   4.689   7.397 -0.0045  0.1040 -1.5267
 8071SOL     OW35848   1.995   2.601   3.741 -0.3527 -0.5742 -0.3577
 8071SOL    HW135849   2.064   2.641   3.687  0.1057 -1.9431 -0.7810
 8071SOL    HW235850   1.989   2.676   3.801  1.9368  0.3971 -1.3201
 8072SOL     OW35851   0.842   1.759   7.469  0.1700  0.0476 -0.2776
 8072SOL    HW135852   0.789   1.787   7.395  1.8447  2.7468 -0.4437
 8072SOL    HW235853   0.930   1.739   7.437  0.3784 -3.0426  2.1544
 8073SOL     OW35854   0.657   4.551   5.530  0.6103  0.0539  0.7772
 8073SOL    HW135855   0.670   4.625   5.589  0.6277  0.7813 -0.1439
 8073SOL    HW235856   0.574   4.527   5.571 -1.7006  0.3773 -3.7096
 8074SOL     OW35857   2.589   4.648   0.980 -0.0189  0.1635 -0.0497
 8074SOL    HW135858   2.528   4.664   1.052  0.5668  2.8545 -0.1400
 8074SOL    HW235859   2.526   4.612   0.918  0.2647 -0.1198 -0.1736
 8075SOL     OW35860   3.165   2.012  17.009  0.9164  0.4873  0.1673
 8075SOL    HW135861   3.117   2.091  16.984 -2.1884 -1.1109  1.1362
 8075SOL    HW235862   3.103   1.945  16.979  1.9880 -1.1632  1.6082
 8076SOL     OW35863   3.740   1.966   3.255  0.8287  0.4203  1.1407
 8076SOL    HW135864   3.701   1.902   3.315 -2.0557  1.9291  0.8941
 8076SOL    HW235865   3.748   1.912   3.177 -1.0975 -0.7460  1.7391
 8077SOL     OW35866   2.139   1.785   4.824  0.0867  0.0232  0.7598
 8077SOL    HW135867   2.081   1.728   4.874 -0.7771  0.5494  0.3633
 8077SOL    HW235868   2.108   1.772   4.735  1.2879  0.1471  0.3246
 8078SOL     OW35869   4.082   1.821   3.893  0.4929  0.2665  0.2537
 8078SOL    HW135870   4.115   1.878   3.963  1.4556 -1.0299  0.8630
 8078SOL    HW235871   3.987   1.828   3.901  0.3890  0.0296 -0.8706
 8079SOL     OW35872   2.045   2.010   2.656  0.4800  0.6655 -0.2926
 8079SOL    HW135873   2.110   2.052   2.600 -0.1832 -0.4764 -1.9316
 8079SOL    HW235874   2.094   1.933   2.685 -0.9385 -0.4435 -0.8474
 8080SOL     OW35875   3.493   3.852  12.666  0.1584  0.2394  0.2772
 8080SOL    HW135876   3.527   3.886  12.583  1.3944 -0.5198  0.4678
 8080SOL    HW235877   3.558   3.893  12.723  0.9016 -1.6573  0.8074
 8081SOL     OW35878   3.159   3.141   3.823 -0.0211  0.0625  0.3360
 8081SOL    HW135879   3.093   3.198   3.784  2.5922  1.9555 -1.3181
 8081SOL    HW235880   3.117   3.056   3.811  1.2231 -0.6615  1.0737
 8082SOL     OW35881   2.492   1.633   5.066  0.1770  0.2410 -0.2334
 8082SOL    HW135882   2.525   1.549   5.100  0.7704 -0.3095 -2.1931
 8082SOL    HW235883   2.438   1.602   4.994 -0.5160  2.4045 -0.6302
 8083SOL     OW35884   3.977   1.581   1.494  0.3234 -0.2178  0.0630
 8083SOL    HW135885   4.066   1.604   1.522  0.1317 -1.0724  1.3977
 8083SOL    HW235886   3.992   1.499   1.447 -0.1006  1.0369 -2.2099
 8084SOL     OW35887   4.212   3.848   8.103 -0.7070 -0.4414  0.1063
 8084SOL    HW135888   4.181   3.937   8.123 -1.4727 -0.8725  0.8523
 8084SOL    HW235889   4.268   3.834   8.179  2.8903  1.4179 -2.2520
 8085SOL     OW35890   2.421   2.934  12.540 -0.2480  0.6883  0.2271
 8085SOL    HW135891   2.504   2.896  12.570  0.9945  1.9862 -1.5311
 8085SOL    HW235892   2.435   3.025  12.567  1.1542  0.1615  1.3109
 8086SOL     OW35893   2.698   0.604   4.069 -0.1097 -0.4011 -0.3087
 8086SOL    HW135894   2.769   0.577   4.011  0.5896  1.1524 -0.1692
 8086SOL    HW235895   2.678   0.685   4.023 -1.9311 -1.0387 -0.6368
 8087SOL     OW35896   0.098   3.137   6.602 -0.9982 -0.0215  0.2164
 8087SOL    HW135897   0.043   3.201   6.556 -0.8480  0.1954  0.3410
 8087SOL    HW235898   0.037   3.096   6.664 -0.0447 -0.8872  0.5774
 8088SOL     OW35899   2.608   0.014   9.617 -0.4155 -0.4065 -0.5917
 8088SOL    HW135900   2.524   4.724   9.581 -0.7079 -3.0916  2.2677
 8088SOL    HW235901   2.568   0.091   9.657  0.9767 -0.3033  0.6019
 8089SOL     OW35902   4.369   4.626   1.762  0.2420  0.4723  0.5048
 8089SOL    HW135903   4.327   4.700   1.805 -0.8356 -0.2281  0.6474
 8089SOL    HW235904   4.319   4.624   1.680 -0.8039 -0.4204  1.1739
 8090SOL     OW35905   4.649   4.448  17.321  0.0766 -0.0954  0.1887
 8090SOL    HW135906   4.648   4.447  17.417 -0.0168 -0.6188  0.1785
 8090SOL    HW235907   4.595   4.371  17.305 -1.8764  1.6905 -1.7458
 8091SOL     OW35908   2.583   4.115   8.545 -0.4149  0.5566 -0.2562
 8091SOL    HW135909   2.543   4.076   8.468 -0.7439  2.2814 -0.9547
 8091SOL    HW235910   2.554   4.062   8.620  2.2957 -0.6444 -0.0598
 8092SOL     OW35911   1.070   0.721   7.775 -0.4083 -0.2229  0.4099
 8092SOL    HW135912   1.023   0.650   7.733  0.9038 -0.3586 -0.8476
 8092SOL    HW235913   1.007   0.745   7.843  0.8376  1.4872  0.9623
 8093SOL     OW35914   4.460   2.616   7.594  0.3072 -0.2813 -0.1951
 8093SOL    HW135915   4.367   2.595   7.582 -0.4786  1.6238  2.7150
 8093SOL    HW235916   4.476   2.616   7.688 -1.9708 -2.4097  0.2277
 8094SOL     OW35917   1.991   3.256   2.424  0.2232 -0.4994 -0.8196
 8094SOL    HW135918   1.939   3.287   2.499 -0.2159 -0.3172 -1.2011
 8094SOL    HW235919   2.079   3.268   2.459 -0.1116 -0.9103  0.1687
 8095SOL     OW35920   3.964   3.156   9.147  0.2756 -0.5217 -0.1192
 8095SOL    HW135921   3.940   3.244   9.117  0.4492 -0.4937 -0.1743
 8095SOL    HW235922   3.908   3.102   9.092  1.0635 -0.2487 -1.1868
 8096SOL     OW35923   3.036   3.629   1.990  0.7146  0.1028 -0.4731
 8096SOL    HW135924   3.070   3.583   2.067 -0.9998 -1.1996 -0.4985
 8096SOL    HW235925   2.991   3.696   2.041 -0.6702 -0.3533 -1.0930
 8097SOL     OW35926   0.392   4.705   6.640 -0.1475 -0.0525 -0.0395
 8097SOL    HW135927   0.416   4.690   6.549 -0.8595 -1.1643 -0.0463
 8097SOL    HW235928   0.463   0.017   6.677 -0.6089  1.4015 -1.1732
 8098SOL     OW35929   2.814   0.603   8.791  0.0868  0.1624 -0.3317
 8098SOL    HW135930   2.723   0.582   8.768  0.2403  0.1691 -0.9402
 8098SOL    HW235931   2.806   0.685   8.839 -1.3150 -1.7599  2.7318
 8099SOL     OW35932   3.526   4.627   2.650  0.5145  0.4308  0.1258
 8099SOL    HW135933   3.514   4.556   2.586 -1.0641  0.7394  0.0756
 8099SOL    HW235934   3.468   4.696   2.620  2.1474  2.1812  1.0255
 8100SOL     OW35935   2.146   0.422  10.647  0.3467  0.3329  0.2468
 8100SOL    HW135936   2.136   0.517  10.637  0.6075  0.4823  1.4161
 8100SOL    HW235937   2.240   0.416  10.666  0.4643 -0.4459 -0.5649
 8101SOL     OW35938   3.521   0.128   4.661 -0.0688 -0.0792  0.3463
 8101SOL    HW135939   3.533   0.206   4.607 -1.4102  0.2345  0.5210
 8101SOL    HW235940   3.578   0.063   4.618 -0.4911 -0.1371 -0.1228
 8102SOL     OW35941   1.442   3.504  10.535  0.1974  0.8122  0.1862
 8102SOL    HW135942   1.448   3.583  10.480 -0.2626  3.1387  3.4837
 8102SOL    HW235943   1.497   3.446  10.482  0.1347  1.2443 -0.3556
 8103SOL     OW35944   4.366   3.110   6.176 -0.2522  0.0545  0.1108
 8103SOL    HW135945   4.302   3.039   6.168 -1.0877  0.5296  2.7270
 8103SOL    HW235946   4.432   3.049   6.144  0.0812 -0.7629  2.3543
 8104SOL     OW35947   1.154   4.352  15.521  0.4717  0.0833 -0.0175
 8104SOL    HW135948   1.220   4.372  15.588  0.1548  1.9256 -0.2545
 8104SOL    HW235949   1.209   4.326  15.446 -0.9216 -1.0214 -0.6429
 8105SOL     OW35950   1.777   4.051   6.164 -0.0328  0.2449 -0.4624
 8105SOL    HW135951   1.735   4.003   6.092 -1.1307 -0.3991  0.6030
 8105SOL    HW235952   1.707   4.046   6.229 -0.6239 -0.5005 -1.1497
 8106SOL     OW35953   1.877   4.233   8.465 -0.0444  0.4196 -0.4511
 8106SOL    HW135954   1.956   4.184   8.484 -1.3123 -0.7229  1.8139
 8106SOL    HW235955   1.807   4.173   8.439  0.7065 -0.6865  0.0797
 8107SOL     OW35956   1.409   1.934   5.596 -0.2776 -0.2307  0.0128
 8107SOL    HW135957   1.428   1.931   5.502  1.6617  0.2287  0.3917
 8107SOL    HW235958   1.369   2.021   5.602  2.0000  0.7662  0.6766
 8108SOL     OW35959   1.800   3.669   1.942 -0.2099  0.3194  0.3423
 8108SOL    HW135960   1.887   3.638   1.915  0.5757  3.2797 -0.4606
 8108SOL    HW235961   1.819   3.711   2.026  1.4925 -0.1596  0.2082
 8109SOL     OW35962   3.857   3.106   8.581 -0.3488  0.0919  0.2883
 8109SOL    HW135963   3.814   3.023   8.601  3.7471 -1.6038  2.0995
 8109SOL    HW235964   3.887   3.078   8.495  0.1667 -0.1623  0.5485
 8110SOL     OW35965   2.498   1.127  17.688 -0.0026  0.3951 -0.2357
 8110SOL    HW135966   2.524   1.072   0.007 -1.7649  1.5584  1.2571
 8110SOL    HW235967   2.580   1.167  17.660  0.1587 -0.2108 -0.6384
 8111SOL     OW35968   2.046   3.997   4.178 -0.2560 -0.5013 -0.4154
 8111SOL    HW135969   2.029   4.031   4.090 -0.6694  2.9717  0.9796
 8111SOL    HW235970   1.963   3.950   4.188  0.3126 -1.2766  0.5794
 8112SOL     OW35971   2.832   4.720   0.894  0.1671  0.2883  0.3867
 8112SOL    HW135972   2.877   4.640   0.919  0.5969 -0.4884 -2.8678
 8112SOL    HW235973   2.747   4.702   0.934  0.4017  1.4373  1.4079
 8113SOL     OW35974   3.055   1.607  16.644  0.1705 -0.1438 -0.0228
 8113SOL    HW135975   3.063   1.517  16.675 -1.5717 -0.7412 -1.3451
 8113SOL    HW235976   3.147   1.632  16.636  0.5457 -0.4112  3.5010
 8114SOL     OW35977   4.379   1.320   5.854 -0.1826 -0.5818  0.2451
 8114SOL    HW135978   4.324   1.312   5.932 -1.7167  0.5892 -0.7111
 8114SOL    HW235979   4.444   1.382   5.886 -2.0624  0.1052  2.7326
 8115SOL     OW35980   1.865   3.695   8.830  0.3015  0.1095 -0.4203
 8115SOL    HW135981   1.809   3.631   8.874 -0.6888  1.3752  0.1453
 8115SOL    HW235982   1.910   3.641   8.765  0.6614 -0.3419  0.2014
 8116SOL     OW35983   3.581   0.896   1.945 -0.4332  0.8311  0.4647
 8116SOL    HW135984   3.577   0.955   2.020  2.3633  1.2447  0.2965
 8116SOL    HW235985   3.497   0.919   1.904  0.7393 -0.0707 -2.4704
 8117SOL     OW35986   3.460   1.950   3.885  0.0034 -0.8800 -0.1508
 8117SOL    HW135987   3.426   2.023   3.937 -0.4906  0.5315 -2.4340
 8117SOL    HW235988   3.442   1.885   3.953  0.2454 -1.7888 -0.9581
 8118SOL     OW35989   4.226   4.558   4.221 -0.0194 -0.3720  0.0729
 8118SOL    HW135990   4.169   4.628   4.189  0.0732  0.2086  1.1798
 8118SOL    HW235991   4.299   4.600   4.266  0.1718 -1.2698  0.5964
 8119SOL     OW35992   0.436   0.170   7.164 -0.4163 -0.5654 -0.5790
 8119SOL    HW135993   0.414   0.222   7.241 -0.8286 -1.2669 -0.2325
 8119SOL    HW235994   0.398   0.219   7.090 -0.5365  0.8090  0.3908
 8120SOL     OW35995   2.704   4.195   7.447 -0.3886 -0.1388  0.5961
 8120SOL    HW135996   2.677   4.212   7.537 -1.0670 -2.2485  0.7840
 8120SOL    HW235997   2.696   4.099   7.454 -0.8832 -0.2702 -1.8380
 8121SOL     OW35998   4.481   1.886   5.531  0.6169  0.5019  0.6051
 8121SOL    HW135999   4.389   1.903   5.550  1.0455  1.4663  1.8092
 8121SOL    HW236000   4.499   1.839   5.612  0.6290 -1.7291 -0.6978
 8122SOL     OW36001   0.443   4.480   0.122 -0.3099 -0.1638 -0.1222
 8122SOL    HW136002   0.389   4.480   0.200  0.4927 -0.5674  0.4275
 8122SOL    HW236003   0.510   4.547   0.137 -0.9061  0.1816  0.9472
 8123SOL     OW36004   0.834   1.225  16.745 -0.1060 -0.0513  0.1135
 8123SOL    HW136005   0.928   1.227  16.727 -0.1443  0.0622 -0.0659
 8123SOL    HW236006   0.813   1.317  16.761 -0.8279  0.2173 -2.3671
 8124SOL     OW36007   2.123   3.541  13.955 -0.4922  0.5392  0.1802
 8124SOL    HW136008   2.037   3.567  13.986 -1.1988  0.2045 -1.5049
 8124SOL    HW236009   2.122   3.448  13.979 -0.3166  0.0569 -1.7195
 8125SOL     OW36010   3.065   4.179   9.802  0.2671 -0.4975  0.0707
 8125SOL    HW136011   3.054   4.264   9.759  0.1230 -1.4882 -1.8107
 8125SOL    HW236012   3.138   4.198   9.861  0.1095 -3.4884  1.2315
 8126SOL     OW36013   3.286   4.160  14.178 -0.3340  0.6467 -0.2353
 8126SOL    HW136014   3.243   4.243  14.196 -0.9407  0.0452  1.1252
 8126SOL    HW236015   3.213   4.108  14.142  0.6113 -1.6177  1.0906
 8127SOL     OW36016   3.022   3.872   2.407  0.4193  0.2367  0.2428
 8127SOL    HW136017   3.104   3.900   2.449  0.5886  0.7449 -0.4315
 8127SOL    HW236018   2.962   3.878   2.481  2.9012 -2.0373  2.4451
 8128SOL     OW36019   3.266   3.129   1.778  0.1542 -0.2981 -0.5781
 8128SOL    HW136020   3.220   3.049   1.753 -0.9648 -0.1088  0.8349
 8128SOL    HW236021   3.237   3.194   1.713 -0.9097 -1.1782 -0.9848
 8129SOL     OW36022   0.310   1.792   5.057  0.4634  0.1967 -0.3595
 8129SOL    HW136023   0.354   1.709   5.076  0.3107  0.2688  0.3252
 8129SOL    HW236024   0.339   1.794   4.966  2.2524  0.9897  0.2210
 8130SOL     OW36025   3.697   3.650   5.293  0.0356 -0.3663  0.5907
 8130SOL    HW136026   3.767   3.601   5.337  0.4215 -0.6555 -0.3457
 8130SOL    HW236027   3.640   3.574   5.281 -0.1745  0.0318 -0.9023
 8131SOL     OW36028   4.426   1.886   3.833 -0.3018 -0.2965 -0.1731
 8131SOL    HW136029   4.371   1.938   3.892 -1.1245  0.1616 -1.3590
 8131SOL    HW236030   4.503   1.942   3.835 -0.2946 -0.2597 -2.2793
 8132SOL     OW36031   0.529   0.285   3.961  0.3128  0.4277 -0.2463
 8132SOL    HW136032   0.497   0.330   3.883  0.0180  1.4149  0.4305
 8132SOL    HW236033   0.456   0.299   4.022  2.0257  1.5497  1.5627
 8133SOL     OW36034   0.526   4.091   5.936 -0.0202 -0.1619 -0.5586
 8133SOL    HW136035   0.556   4.107   5.847 -2.2825  1.2919 -1.0504
 8133SOL    HW236036   0.580   4.017   5.965  2.4334  2.5501  1.7388
 8134SOL     OW36037   3.574   1.584   0.622 -0.1096 -0.7912  0.3054
 8134SOL    HW136038   3.645   1.531   0.587 -1.2997 -0.5082 -2.6046
 8134SOL    HW236039   3.556   1.631   0.540  2.2149  0.6708  0.6299
 8135SOL     OW36040   0.234   0.678   2.709  0.5071  0.4278 -0.0551
 8135SOL    HW136041   0.311   0.630   2.677  0.4910 -0.5987  1.4466
 8135SOL    HW236042   0.203   0.620   2.779  1.9335  2.2172  2.0703
 8136SOL     OW36043   0.492   1.826   4.792 -0.9795 -0.1195  0.2708
 8136SOL    HW136044   0.453   1.835   4.705  2.4595 -0.9589 -1.3502
 8136SOL    HW236045   0.528   1.738   4.783  0.3995  0.7154 -2.2653
 8137SOL     OW36046   0.684   2.730  17.406 -0.0327  0.0930 -0.1502
 8137SOL    HW136047   0.639   2.792  17.464  0.2749  2.1158 -2.0736
 8137SOL    HW236048   0.673   2.776  17.323  0.3221 -0.9901 -0.7867
 8138SOL     OW36049   3.888   0.295   5.563  0.0635 -0.2940  0.3400
 8138SOL    HW136050   3.923   0.227   5.505 -0.2004  2.5936 -3.2399
 8138SOL    HW236051   3.966   0.347   5.582  2.2178 -2.0777 -3.6990
 8139SOL     OW36052   1.427   1.799   9.976 -0.6950  0.8786 -0.2231
 8139SOL    HW136053   1.346   1.850   9.975 -2.1520 -1.4297  0.3220
 8139SOL    HW236054   1.485   1.868   9.943  0.1972  1.1564  1.9156
 8140SOL     OW36055   1.142   4.575  15.823 -0.1231 -0.1666 -0.2263
 8140SOL    HW136056   1.162   4.518  15.898 -0.7282 -1.5264 -1.1014
 8140SOL    HW236057   1.047   4.579  15.834  0.2257  0.7033  2.5794
 8141SOL     OW36058   3.307   1.135   8.292  0.1490 -0.0749 -0.1382
 8141SOL    HW136059   3.345   1.207   8.243 -0.6788  0.0266 -0.6253
 8141SOL    HW236060   3.255   1.095   8.223 -0.0463  0.6622 -0.4165
 8142SOL     OW36061   0.411   1.085   7.596 -0.0981  0.2073 -0.4125
 8142SOL    HW136062   0.506   1.090   7.586  0.0865 -1.4150  0.4612
 8142SOL    HW236063   0.382   1.173   7.575 -0.7843  0.1910  0.4486
 8143SOL     OW36064   3.293   1.234   4.338  0.1292  0.0969 -0.5333
 8143SOL    HW136065   3.378   1.235   4.383  0.3483 -1.8540 -0.9308
 8143SOL    HW236066   3.300   1.313   4.284  1.1043 -0.0726 -0.6694
 8144SOL     OW36067   0.995   2.829   1.093  0.3211 -0.6352 -0.4921
 8144SOL    HW136068   1.023   2.888   1.023  0.4226 -0.2362 -0.1121
 8144SOL    HW236069   0.929   2.877   1.143  1.4168 -0.0695  0.4133
 8145SOL     OW36070   3.300   2.652   2.270  0.5387  0.0385  0.0988
 8145SOL    HW136071   3.293   2.689   2.357  0.8809 -1.9983  0.9951
 8145SOL    HW236072   3.394   2.632   2.270  0.2393 -1.3282  1.2766
 8146SOL     OW36073   0.018   3.001   9.028  0.8653  0.1902 -0.5966
 8146SOL    HW136074   4.703   3.059   8.974  0.0438  0.6452  0.7130
 8146SOL    HW236075   4.707   2.923   9.003 -0.2277  0.6784  0.0518
 8147SOL     OW36076   1.174   1.029   2.982  0.0828  0.5404 -0.3104
 8147SOL    HW136077   1.080   1.028   2.962  0.0707  0.3353 -0.2417
 8147SOL    HW236078   1.178   1.102   3.044 -1.2692 -0.0053  0.4333
 8148SOL     OW36079   0.682   4.525  12.262  0.3920 -0.1091  0.3978
 8148SOL    HW136080   0.644   4.507  12.348 -0.0003 -1.2598 -0.0260
 8148SOL    HW236081   0.602   4.527  12.210  1.7032 -0.3151 -1.6143
 8149SOL     OW36082   3.971   1.755   4.631 -0.3270  0.4939  0.1496
 8149SOL    HW136083   3.913   1.696   4.680 -1.6317  1.8503  0.2546
 8149SOL    HW236084   4.012   1.803   4.703  1.6659  0.3957 -0.9200
 8150SOL     OW36085   4.624   4.422   5.808  0.1083  0.5902 -0.4073
 8150SOL    HW136086   4.676   4.350   5.843 -0.6903 -0.4548 -1.3645
 8150SOL    HW236087   4.558   4.372   5.760  0.9893 -0.8839 -0.0561
 8151SOL     OW36088   1.483   0.610   5.944  0.3702  0.2802  0.0869
 8151SOL    HW136089   1.577   0.624   5.957  0.0230  2.1232  0.6002
 8151SOL    HW236090   1.450   0.695   5.918 -1.0868 -0.4611 -0.4645
 8152SOL     OW36091   0.181   0.834   5.698  0.0759 -0.1245  0.0098
 8152SOL    HW136092   0.159   0.747   5.731  0.8732 -0.1868  0.3995
 8152SOL    HW236093   0.093   0.869   5.690  2.0290  4.5854 -0.5905
 8153SOL     OW36094   3.700   3.717   1.822  0.6987  0.1338 -0.1082
 8153SOL    HW136095   3.642   3.640   1.823  0.2896  0.4341 -0.7057
 8153SOL    HW236096   3.788   3.694   1.851  1.0999 -0.9044 -2.1422
 8154SOL     OW36097   4.704   3.297   8.475  0.6039  0.5319  0.1684
 8154SOL    HW136098   4.697   3.333   8.387 -2.0511 -1.5301 -0.4450
 8154SOL    HW236099   0.035   3.351   8.512  0.5853 -0.2212  1.2952
 8155SOL     OW36100   4.738   3.891  13.846  0.5291 -0.3752  0.2445
 8155SOL    HW136101   4.721   3.932  13.761 -0.1814 -2.5282 -0.6370
 8155SOL    HW236102   0.088   3.857  13.841  1.1786  1.4358 -0.7809
 8156SOL     OW36103   0.949   1.741   2.510 -0.0294  0.8295  0.3947
 8156SOL    HW136104   0.943   1.785   2.595  0.3884  1.6612 -0.0065
 8156SOL    HW236105   0.969   1.651   2.535 -1.3382  0.9162  1.7308
 8157SOL     OW36106   1.311   3.358   5.009 -0.2443 -0.1098 -0.6892
 8157SOL    HW136107   1.217   3.374   5.008 -0.1976  0.1838 -0.6190
 8157SOL    HW236108   1.312   3.285   4.947  0.5844  0.2094 -1.0491
 8158SOL     OW36109   2.685   2.996  17.727  0.1713 -0.0018  0.3079
 8158SOL    HW136110   2.677   2.934  17.655  0.2527 -0.8694  1.0452
 8158SOL    HW236111   2.637   3.073  17.696 -0.8696 -0.2348  1.3539
 8159SOL     OW36112   3.619   1.005  16.466 -0.0758  0.1564  0.0389
 8159SOL    HW136113   3.649   1.062  16.537 -0.1608 -2.2631  2.0335
 8159SOL    HW236114   3.551   1.046  16.413  0.0175 -0.9720 -0.9580
 8160SOL     OW36115   0.519   4.235   7.578  0.0470  0.1835  0.0895
 8160SOL    HW136116   0.484   4.324   7.567  2.1350  0.9706 -0.0461
 8160SOL    HW236117   0.436   4.188   7.570  0.9231 -1.1993 -0.8177
 8161SOL     OW36118   2.843   3.758   9.006 -0.3755 -0.0803 -0.1569
 8161SOL    HW136119   2.820   3.719   9.090  0.4943  0.8384  0.5060
 8161SOL    HW236120   2.848   3.849   9.034 -0.9015  0.0377 -0.4380
 8162SOL     OW36121   2.232   2.889   2.644  0.0024 -0.2602 -0.0836
 8162SOL    HW136122   2.174   2.918   2.715  3.2259  0.6627  2.1637
 8162SOL    HW236123   2.197   2.800   2.635 -1.8636  0.4634 -0.0596
 8163SOL     OW36124   0.157   2.222   6.088  0.4518  0.0137  0.1092
 8163SOL    HW136125   0.187   2.136   6.059 -1.1928 -0.5289  0.0006
 8163SOL    HW236126   0.233   2.275   6.063 -0.0178 -1.1910 -3.8541
 8164SOL     OW36127   1.367   0.427   9.904  0.0663 -0.1048 -0.0582
 8164SOL    HW136128   1.400   0.494   9.963 -0.7750  0.4480 -0.2201
 8164SOL    HW236129   1.298   0.479   9.864  0.8427  2.4230  1.9002
 8165SOL     OW36130   2.001   0.246  12.876  0.4277  0.0250 -0.2949
 8165SOL    HW136131   1.923   0.193  12.861  1.7020 -1.7669 -0.7445
 8165SOL    HW236132   1.965   0.333  12.893  1.5480  0.4644 -0.1578
 8166SOL     OW36133   3.595   2.823   7.440  0.2318 -0.0883  0.1802
 8166SOL    HW136134   3.519   2.778   7.476  0.2264  0.7181  1.1833
 8166SOL    HW236135   3.559   2.840   7.353 -2.3236  1.8244  1.6202
 8167SOL     OW36136   4.472   0.841   9.996  0.1312  0.2521 -0.1347
 8167SOL    HW136137   4.547   0.784   9.976  0.9222  0.2010  2.9847
 8167SOL    HW236138   4.441   0.795  10.074  0.3246 -0.2784 -0.3723
 8168SOL     OW36139   1.045   1.443   4.822  0.5653  0.1953  0.0784
 8168SOL    HW136140   0.965   1.431   4.874 -0.3382  1.6467 -0.9716
 8168SOL    HW236141   1.075   1.356   4.795  0.4266  1.0819 -2.9283
 8169SOL     OW36142   0.613   0.056   0.404  0.3202 -0.2605 -0.2017
 8169SOL    HW136143   0.547   0.080   0.469 -0.0446  1.0933 -1.0521
 8169SOL    HW236144   0.616   0.142   0.360 -0.2233 -0.5884 -0.8926
 8170SOL     OW36145   2.798   2.771   4.171 -0.0356  0.2974 -0.1533
 8170SOL    HW136146   2.797   2.863   4.145 -1.0368  0.6288  1.0424
 8170SOL    HW236147   2.868   2.770   4.236  0.4440 -0.2724 -0.6791
 8171SOL     OW36148   1.254   4.267  10.168 -0.0902  0.2913 -0.5239
 8171SOL    HW136149   1.225   4.333  10.230  0.8597  1.3128 -1.1735
 8171SOL    HW236150   1.348   4.279  10.174 -0.0355 -0.9312  1.0108
 8172SOL     OW36151   4.527   1.185   1.342 -0.2431 -0.3056  0.0844
 8172SOL    HW136152   4.511   1.095   1.315  3.1713 -1.1518  0.8358
 8172SOL    HW236153   4.614   1.181   1.382  0.1020  0.0518 -0.6258
 8173SOL     OW36154   3.699   4.119   5.445  0.0222 -0.3267  0.1142
 8173SOL    HW136155   3.753   4.039   5.440  3.4019  2.2288 -3.9643
 8173SOL    HW236156   3.671   4.135   5.356  1.6211 -1.9866 -0.6966
 8174SOL     OW36157   0.328   0.024   8.509  0.2227 -0.0352  0.2978
 8174SOL    HW136158   0.338   4.712   8.589 -0.0889  2.1180  1.7224
 8174SOL    HW236159   0.271   0.094   8.543  0.0215  0.3337 -0.7995
 8175SOL     OW36160   2.371   4.178   4.675  0.1954 -0.1412 -0.2695
 8175SOL    HW136161   2.285   4.164   4.636 -0.0414 -0.9307  0.5299
 8175SOL    HW236162   2.365   4.147   4.766 -1.7472 -1.9676 -1.0446
 8176SOL     OW36163   1.046   0.054   5.729 -0.2558 -0.0239  0.2378
 8176SOL    HW136164   1.047   0.072   5.635  1.7494  1.0295  0.4568
 8176SOL    HW236165   1.136   0.078   5.749  0.3010 -2.1695  0.2693
 8177SOL     OW36166   2.536   2.867   0.185  0.3194 -0.2463  0.4979
 8177SOL    HW136167   2.484   2.930   0.235 -0.3006 -1.8797  1.9221
 8177SOL    HW236168   2.572   2.918   0.113 -1.1198  2.3375  1.6346
 8178SOL     OW36169   0.075   0.718   7.498  0.0263 -0.0289 -0.0856
 8178SOL    HW136170   0.032   0.698   7.581  0.0905  0.0613 -0.0311
 8178SOL    HW236171   0.111   0.805   7.517 -0.1503  0.3050 -1.2616
 8179SOL     OW36172   2.226   1.576   4.547 -0.0071 -0.5149 -0.3067
 8179SOL    HW136173   2.131   1.577   4.539 -0.0124 -0.4672 -0.2346
 8179SOL    HW236174   2.246   1.485   4.572  1.3792 -0.5075 -1.4124
 8180SOL     OW36175   4.338   0.169  13.036  0.4646  0.0982 -0.3366
 8180SOL    HW136176   4.356   0.234  13.104 -0.3180 -1.5908  1.5223
 8180SOL    HW236177   4.401   0.198  12.970 -0.1521 -0.2986 -1.1008
 8181SOL     OW36178   1.737   3.049   6.948  0.0525  0.4528 -0.0454
 8181SOL    HW136179   1.686   2.968   6.943  1.3329 -0.3273 -0.4446
 8181SOL    HW236180   1.756   3.029   7.040 -1.4345  0.7204  0.3138
 8182SOL     OW36181   1.383   2.436   5.720 -0.3259  0.1529 -0.1517
 8182SOL    HW136182   1.464   2.463   5.676 -0.6446  0.7641 -0.3462
 8182SOL    HW236183   1.324   2.511   5.717  0.4715  0.8262  1.0294
 8183SOL     OW36184   0.187   3.668   5.367 -0.2285  0.1035 -0.0684
 8183SOL    HW136185   0.269   3.713   5.388 -1.0658  1.1080  1.1010
 8183SOL    HW236186   0.224   3.593   5.319  0.8030  0.5939 -0.0370
 8184SOL     OW36187   0.776   4.507  16.706  0.6236 -0.2299  0.2314
 8184SOL    HW136188   0.691   4.547  16.689  0.0354 -0.9964  1.3254
 8184SOL    HW236189   0.788   4.466  16.621 -2.9382  2.9115 -1.7976
 8185SOL     OW36190   4.650   3.063  12.252  0.3391  0.0586  0.5310
 8185SOL    HW136191   4.611   3.149  12.234 -0.1357 -0.5356 -1.2500
 8185SOL    HW236192   4.646   3.015  12.169 -0.9020  0.3454  0.4218
 8186SOL     OW36193   3.773   4.407   8.419  0.2515  0.0915  0.1899
 8186SOL    HW136194   3.821   4.436   8.496 -0.5185  2.9642 -0.3822
 8186SOL    HW236195   3.711   4.480   8.414 -1.0488 -1.0942 -1.0064
 8187SOL     OW36196   0.358   3.396   7.836 -0.3327  0.6065  0.3269
 8187SOL    HW136197   0.385   3.456   7.906  3.5080  0.8772 -1.3602
 8187SOL    HW236198   0.439   3.362   7.797 -1.1010 -1.5684  0.5933
 8188SOL     OW36199   4.572   2.310   4.271  0.1069  0.4174  0.8515
 8188SOL    HW136200   4.534   2.359   4.198  1.6474 -0.3108 -0.4339
 8188SOL    HW236201   4.572   2.220   4.239 -3.0087  0.6904  0.1236
 8189SOL     OW36202   1.596   4.085   6.361  0.0718  0.2727  0.2013
 8189SOL    HW136203   1.528   4.019   6.353  2.1380 -1.9562  1.2603
 8189SOL    HW236204   1.583   4.107   6.453 -0.4978  0.8357 -0.0130
 8190SOL     OW36205   3.511   4.710   3.242  0.0030 -0.1428 -0.3476
 8190SOL    HW136206   3.430   4.693   3.290 -0.1030 -1.5542 -1.0381
 8190SOL    HW236207   3.495   0.058   3.205  4.7272  0.4733 -1.0177
 8191SOL     OW36208   0.905   3.604   7.507  0.5624  0.0389 -0.0236
 8191SOL    HW136209   0.882   3.692   7.537 -0.7184  0.1608 -1.3007
 8191SOL    HW236210   0.945   3.629   7.424 -1.8005 -1.2054 -1.5641
 8192SOL     OW36211   0.501   2.344   6.256  0.0866 -0.2366 -0.7616
 8192SOL    HW136212   0.433   2.411   6.261  0.5510  0.0829  1.2709
 8192SOL    HW236213   0.468   2.288   6.185  1.7690 -0.2282 -1.5456
 8193SOL     OW36214   0.313   4.717   5.765 -0.7998  0.5695  0.0207
 8193SOL    HW136215   0.245   4.739   5.701 -1.6663 -0.8425  0.4548
 8193SOL    HW236216   0.306   4.623   5.779 -0.5859  0.5561  0.0283
 8194SOL     OW36217   2.711   2.830  17.496  0.3895  0.5593 -0.5788
 8194SOL    HW136218   2.675   2.771  17.562 -1.3440  1.1296 -1.0126
 8194SOL    HW236219   2.674   2.795  17.415 -0.8723  0.7828 -0.0983
 8195SOL     OW36220   1.998   1.719   4.305 -0.1989 -0.2000  0.1311
 8195SOL    HW136221   2.039   1.633   4.309  1.6095  0.6653  0.1351
 8195SOL    HW236222   2.027   1.745   4.218 -0.7907  1.6750  0.4814
 8196SOL     OW36223   0.509   0.670   6.348  0.3167  0.5039 -0.3963
 8196SOL    HW136224   0.552   0.663   6.262  1.1501 -0.8637  0.1252
 8196SOL    HW236225   0.492   0.577   6.363 -0.3334  0.9498  1.5239
 8197SOL     OW36226   4.424   2.823   7.239  0.3748  0.2546 -0.0875
 8197SOL    HW136227   4.484   2.766   7.287 -0.2539 -1.3180 -1.2126
 8197SOL    HW236228   4.431   2.897   7.300 -2.4049 -0.1330  0.6941
 8198SOL     OW36229   2.335   3.349   2.960  0.1839  0.1827  0.1244
 8198SOL    HW136230   2.404   3.307   3.012  1.9875  0.6762 -1.8561
 8198SOL    HW236231   2.358   3.311   2.875 -2.7380  0.9998 -1.0141
 8199SOL     OW36232   4.451   3.739  16.071  0.3919 -0.5129 -0.1243
 8199SOL    HW136233   4.517   3.705  16.131  0.3885 -0.9331 -0.3590
 8199SOL    HW236234   4.393   3.663  16.074  1.4602 -1.3374 -0.5117
 8200SOL     OW36235   2.814   2.075   5.413 -0.3623  0.0323 -0.1629
 8200SOL    HW136236   2.722   2.071   5.387 -0.6190  0.9292  0.5938
 8200SOL    HW236237   2.854   2.153   5.375  0.2452  0.0153  0.4244
 8201SOL     OW36238   2.873   0.150   7.747  0.2749  0.2004 -0.0711
 8201SOL    HW136239   2.937   0.198   7.694 -1.6450  2.9710  0.0735
 8201SOL    HW236240   2.796   0.206   7.760 -0.1513 -0.9601  2.4434
 8202SOL     OW36241   4.719   0.313   7.922 -0.2796 -0.2523  0.0341
 8202SOL    HW136242   4.677   0.399   7.918 -1.2923 -0.8021 -1.1620
 8202SOL    HW236243   4.644   0.271   7.965 -1.3909  0.6377 -1.0476
 8203SOL     OW36244   2.021   0.315  16.796  0.1586 -0.7056  0.1078
 8203SOL    HW136245   2.000   0.403  16.766  1.8839 -0.8312 -1.4647
 8203SOL    HW236246   1.953   0.260  16.755 -2.9116  2.0097  1.5564
 8204SOL     OW36247   4.512   4.611   2.156  0.0949  0.4110  0.2099
 8204SOL    HW136248   4.554   4.575   2.078  0.6425  0.6327  0.4077
 8204SOL    HW236249   4.583   4.612   2.220 -0.3678  0.8504  0.7155
 8205SOL     OW36250   1.017   2.474   6.795 -0.5008  0.0525 -0.3854
 8205SOL    HW136251   0.954   2.535   6.834 -0.9137 -0.7321  0.1730
 8205SOL    HW236252   0.981   2.465   6.707  0.2368 -0.4385 -0.6327
 8206SOL     OW36253   2.948   1.490  13.765  0.2334 -0.2990  0.2827
 8206SOL    HW136254   3.026   1.541  13.786 -2.4315  2.8201  2.7221
 8206SOL    HW236255   2.889   1.509  13.839 -0.0774 -1.6658  0.3857
 8207SOL     OW36256   4.462   4.167   7.876  0.2172 -0.2732  0.3398
 8207SOL    HW136257   4.405   4.212   7.815 -0.0134 -0.2839  0.5469
 8207SOL    HW236258   4.472   4.236   7.942  3.4176 -3.6985  3.4809
 8208SOL     OW36259   3.365   0.040   1.075 -0.5247 -0.0738  0.1061
 8208SOL    HW136260   3.312   4.701   1.058 -0.7959  0.0098  0.5880
 8208SOL    HW236261   3.420   0.016   1.149 -4.5900 -0.6165  2.9783
 8209SOL     OW36262   4.387   0.479   3.215  0.1458  0.0833 -0.1321
 8209SOL    HW136263   4.294   0.480   3.189  0.6487  2.1962 -1.8637
 8209SOL    HW236264   4.413   0.571   3.207  0.3571  0.0982  0.7799
 8210SOL     OW36265   3.475   4.293   7.286  1.0435 -0.1413 -0.0580
 8210SOL    HW136266   3.556   4.322   7.245  0.8390  0.6027  0.0654
 8210SOL    HW236267   3.496   4.327   7.373  3.9087 -1.5349 -0.2193
 8211SOL     OW36268   2.757   3.295   6.976 -0.0504 -0.3316  0.0423
 8211SOL    HW136269   2.810   3.373   6.990  0.8244 -0.8745 -0.1905
 8211SOL    HW236270   2.697   3.290   7.051 -0.1576  0.6999  0.0253
 8212SOL     OW36271   4.241   1.084   4.648  0.0547  0.3910 -0.4330
 8212SOL    HW136272   4.306   1.013   4.652 -0.2808  0.2204  1.9066
 8212SOL    HW236273   4.297   1.157   4.675  0.8604  0.1901 -1.5374
 8213SOL     OW36274   2.750   1.277  13.746  0.2326  0.0289  0.1280
 8213SOL    HW136275   2.814   1.347  13.757  0.9309 -0.3740 -1.3651
 8213SOL    HW236276   2.767   1.267  13.653 -0.6495 -0.3994  0.0183
 8214SOL     OW36277   1.600   2.411  12.417  0.1422 -0.2593  0.4696
 8214SOL    HW136278   1.634   2.323  12.433  0.1163 -0.3386  0.0911
 8214SOL    HW236279   1.652   2.449  12.346  0.3779 -2.7387 -0.6740
 8215SOL     OW36280   2.585   0.602  17.237 -0.2854 -0.2607 -0.4273
 8215SOL    HW136281   2.540   0.518  17.228 -0.9815 -0.0481  1.1931
 8215SOL    HW236282   2.544   0.650  17.165 -2.0942 -0.0881  0.7322
 8216SOL     OW36283   3.218   4.670   4.220 -0.4167 -0.5031 -0.4814
 8216SOL    HW136284   3.169   4.727   4.160 -0.1668 -0.9728 -1.1287
 8216SOL    HW236285   3.271   4.618   4.161  0.3447 -0.2278 -0.0342
 8217SOL     OW36286   1.549   4.362  12.500  0.1027 -0.1896 -0.4431
 8217SOL    HW136287   1.534   4.430  12.565 -3.2176 -0.4952 -0.8956
 8217SOL    HW236288   1.544   4.418  12.423  1.2060 -0.7710 -0.9456
 8218SOL     OW36289   4.728   1.153   8.247  0.0593 -0.5868  0.5272
 8218SOL    HW136290   0.003   1.176   8.156 -0.4204  0.3293  0.6795
 8218SOL    HW236291   0.001   1.059   8.236 -0.3891 -0.7963  1.7641
 8219SOL     OW36292   0.153   1.227   7.084  0.5409 -0.6799 -0.1408
 8219SOL    HW136293   0.089   1.162   7.112 -1.4838  1.8412  1.0748
 8219SOL    HW236294   0.098   1.305   7.087  2.7249  0.8448 -0.0317
 8220SOL     OW36295   1.370   0.358  13.582  0.3181 -0.2388  0.0523
 8220SOL    HW136296   1.315   0.395  13.512  0.2532  1.6413  1.0840
 8220SOL    HW236297   1.307   0.305  13.631 -1.5760  1.7852 -0.1422
 8221SOL     OW36298   1.344   2.617   4.326 -0.6231 -0.0036  0.7118
 8221SOL    HW136299   1.363   2.595   4.235 -0.8781 -4.1514  1.6498
 8221SOL    HW236300   1.426   2.586   4.365 -0.7542  2.0121  2.5699
 8222SOL     OW36301   4.448   2.417   7.348 -1.0118  0.2751  0.3123
 8222SOL    HW136302   4.516   2.457   7.403 -0.2909  1.3871 -1.3801
 8222SOL    HW236303   4.402   2.495   7.317 -0.8279 -0.1530 -1.0130
 8223SOL     OW36304   4.669   3.917   9.525 -0.0809 -0.0941  0.1187
 8223SOL    HW136305   4.688   4.005   9.556  1.1110  0.1222 -1.2057
 8223SOL    HW236306   0.015   3.884   9.554 -0.4414 -1.2573 -0.1422
 8224SOL     OW36307   2.305   1.728   7.472 -0.0201  0.1734 -0.7435
 8224SOL    HW136308   2.324   1.791   7.541 -1.9734  2.1023 -1.9902
 8224SOL    HW236309   2.389   1.682   7.470  0.3275  0.8425 -1.2408
 8225SOL     OW36310   2.876   3.618   9.241 -0.2788 -0.6982  0.1035
 8225SOL    HW136311   2.824   3.628   9.321  0.0037  1.0190  0.0598
 8225SOL    HW236312   2.955   3.672   9.243 -1.2286  0.6479  1.2836
 8226SOL     OW36313   3.347   2.845  15.808 -0.1475 -0.0456 -1.3229
 8226SOL    HW136314   3.331   2.752  15.790  0.4005  0.0860 -2.4827
 8226SOL    HW236315   3.437   2.840  15.841 -0.3350  1.0233 -0.6333
 8227SOL     OW36316   3.512   4.024   5.788  0.0181 -0.4637 -0.5743
 8227SOL    HW136317   3.438   4.066   5.745 -2.2001 -1.7380  2.0231
 8227SOL    HW236318   3.582   4.089   5.781 -0.2120 -0.0834  0.6124
 8228SOL     OW36319   2.601   1.057   4.212 -0.1864 -0.4749  0.5660
 8228SOL    HW136320   2.638   1.115   4.279 -1.0178 -0.6095  1.1567
 8228SOL    HW236321   2.506   1.066   4.222 -0.1054  2.5565 -1.4719
 8229SOL     OW36322   1.175   0.562   7.319 -0.1494  0.4889  0.1893
 8229SOL    HW136323   1.091   0.560   7.365  0.1914 -0.1537  0.7784
 8229SOL    HW236324   1.172   0.480   7.270  1.7046  0.7676 -0.3836
 8230SOL     OW36325   2.940   0.296   5.597  1.1113 -0.3218 -0.0518
 8230SOL    HW136326   3.014   0.236   5.597  1.1173 -0.3152 -0.1920
 8230SOL    HW236327   2.897   0.263   5.676  0.0698 -1.1189 -0.9534
 8231SOL     OW36328   3.084   2.571  11.249  0.0488 -0.3656 -0.3436
 8231SOL    HW136329   3.179   2.556  11.247  0.2331  0.8725 -0.5614
 8231SOL    HW236330   3.059   2.594  11.159 -0.7623  0.5376  0.1092
 8232SOL     OW36331   4.483   2.706   8.473 -0.0718 -0.5049  0.1337
 8232SOL    HW136332   4.514   2.690   8.562  0.3083  3.0222  0.6470
 8232SOL    HW236333   4.477   2.616   8.440 -0.6107 -0.0502 -1.0217
 8233SOL     OW36334   2.308   4.136   3.283 -0.2562  0.0162  0.0941
 8233SOL    HW136335   2.275   4.215   3.325  2.5600  0.4208  1.5813
 8233SOL    HW236336   2.269   4.064   3.332 -0.0304  1.8025  2.8981
 8234SOL     OW36337   1.578   0.016   3.678  0.3377 -0.7972 -0.4356
 8234SOL    HW136338   1.651   0.072   3.652  0.2409 -0.7824 -0.6807
 8234SOL    HW236339   1.518   0.031   3.605  0.0839  1.8960  0.3160
 8235SOL     OW36340   1.430   1.656   1.438 -0.6526  0.0407 -0.5216
 8235SOL    HW136341   1.499   1.719   1.419 -1.4151  1.1233  0.2695
 8235SOL    HW236342   1.442   1.595   1.366  1.3163 -2.2151  1.7451
 8236SOL     OW36343   3.039   3.775   6.918  0.0715  0.3166  0.7535
 8236SOL    HW136344   2.993   3.849   6.879 -0.1080  0.1297  0.6096
 8236SOL    HW236345   3.094   3.756   6.843  1.0468  1.6189  1.1285
 8237SOL     OW36346   0.234   4.542   5.145  0.3121 -0.4017  0.1179
 8237SOL    HW136347   0.174   4.603   5.189  0.5809  1.2676 -1.8086
 8237SOL    HW236348   0.192   4.456   5.148 -0.7362  0.1100  0.3560
 8238SOL     OW36349   0.327   4.133   4.307  0.5188 -0.4348  0.5977
 8238SOL    HW136350   0.300   4.179   4.387 -1.2921 -0.4623 -0.0059
 8238SOL    HW236351   0.284   4.182   4.237  1.3653 -1.3820 -0.5914
 8239SOL     OW36352   4.371   4.680   7.083 -0.0671  0.0564  0.3468
 8239SOL    HW136353   4.361   4.652   6.992  2.9980  0.8086 -0.2047
 8239SOL    HW236354   4.293   4.642   7.123  1.3736 -2.4988  0.7581
 8240SOL     OW36355   4.584   0.394   4.897  0.0321  0.1640 -0.4377
 8240SOL    HW136356   4.514   0.329   4.905 -0.8998  1.3060  0.5349
 8240SOL    HW236357   4.656   0.331   4.886  0.5260  0.6941 -0.2124
 8241SOL     OW36358   3.031   3.087   2.665  0.1903  0.6845 -0.5632
 8241SOL    HW136359   3.125   3.068   2.663 -0.0689 -0.7142  0.0707
 8241SOL    HW236360   3.034   3.163   2.608 -2.5504  2.3001  1.4595
 8242SOL     OW36361   1.953   3.043   8.659 -0.3644  0.1837  0.3597
 8242SOL    HW136362   2.047   3.055   8.642 -0.5573 -1.7796 -2.1615
 8242SOL    HW236363   1.947   3.105   8.732 -2.4096  1.5650 -1.0067
 8243SOL     OW36364   3.787   2.547   7.500  0.1036 -0.7314  0.3594
 8243SOL    HW136365   3.727   2.552   7.575 -0.5601  0.4927 -0.2618
 8243SOL    HW236366   3.752   2.464   7.467 -0.0145 -0.5701  0.0857
 8244SOL     OW36367   2.257   1.655   1.207 -0.1286  0.5622 -0.1095
 8244SOL    HW136368   2.277   1.698   1.290  2.7559  1.2330 -1.1645
 8244SOL    HW236369   2.303   1.713   1.147  0.7502 -0.6564 -0.6251
 8245SOL     OW36370   3.038   3.002   7.133 -0.6881  0.7706  0.3270
 8245SOL    HW136371   3.061   3.011   7.226  2.1603 -1.8451 -0.1407
 8245SOL    HW236372   3.092   3.070   7.095  1.6478 -2.4490 -2.1363
 8246SOL     OW36373   3.967   4.171   0.046  0.0557  0.2208  0.2605
 8246SOL    HW136374   3.945   4.243   0.105 -2.6484  0.1949 -0.6820
 8246SOL    HW236375   3.993   4.110   0.114  1.7487  0.7722  0.1059
 8247SOL     OW36376   3.942   2.531   4.460 -0.4238 -0.0865 -0.3422
 8247SOL    HW136377   3.909   2.457   4.409  0.2676  0.0610 -0.9936
 8247SOL    HW236378   4.030   2.521   4.424 -0.6373 -1.3738 -0.5081
 8248SOL     OW36379   1.609   4.407   9.185  0.4007  0.1037  0.1242
 8248SOL    HW136380   1.521   4.417   9.221  1.1544 -1.2060  2.3212
 8248SOL    HW236381   1.592   4.386   9.093  0.3279 -1.8797  0.5852
 8249SOL     OW36382   0.296   4.183   6.712  0.0047 -0.0098  0.1430
 8249SOL    HW136383   0.289   4.278   6.701 -0.3801 -0.2423 -1.4867
 8249SOL    HW236384   0.361   4.164   6.645  1.4626 -1.2855  1.8921
 8250SOL     OW36385   0.194   0.669   8.589 -0.7451  0.6223  0.0103
 8250SOL    HW136386   0.201   0.600   8.655  0.0034  0.5012 -0.2048
 8250SOL    HW236387   0.203   0.621   8.507 -2.6178 -0.4581  0.4337
 8251SOL     OW36388   1.787   4.457   5.162 -0.0815  0.5324  0.2322
 8251SOL    HW136389   1.835   4.379   5.187 -0.4487  0.2308 -0.0059
 8251SOL    HW236390   1.787   4.507   5.244  0.8519  1.7995 -0.5477
 8252SOL     OW36391   3.647   1.265   2.992  0.1969  0.4968 -0.0742
 8252SOL    HW136392   3.580   1.229   3.051 -0.0671  1.5296  0.2471
 8252SOL    HW236393   3.608   1.300   2.912 -0.5643 -2.3585 -0.9489
 8253SOL     OW36394   0.111   2.838  12.317  0.4051  0.3761  0.2007
 8253SOL    HW136395   0.033   2.893  12.329 -1.5438 -2.2588 -0.3507
 8253SOL    HW236396   0.076   2.749  12.329 -0.1401  0.4641 -0.7816
 8254SOL     OW36397   3.513   1.166  15.621  0.0448 -0.4184 -0.0243
 8254SOL    HW136398   3.583   1.102  15.639  0.4100  0.4490  1.5959
 8254SOL    HW236399   3.498   1.203  15.707  0.0898  0.4437 -0.3870
 8255SOL     OW36400   2.713   3.544   2.205  0.8226  0.2814  0.5392
 8255SOL    HW136401   2.618   3.555   2.211  0.7738 -0.1457  0.5027
 8255SOL    HW236402   2.724   3.470   2.145 -0.6840  0.0650  0.5297
 8256SOL     OW36403   3.167   2.911   6.135 -0.0505  0.2913  0.0403
 8256SOL    HW136404   3.237   2.959   6.179 -0.5452  0.6037  0.4868
 8256SOL    HW236405   3.090   2.906   6.192  0.5990  2.9984  1.1854
 8257SOL     OW36406   0.373   3.422   5.247  0.0587  0.1665  0.2691
 8257SOL    HW136407   0.356   3.335   5.283 -2.8274  0.4219 -0.5149
 8257SOL    HW236408   0.437   3.458   5.309  1.0544  0.1362 -0.7376
 8258SOL     OW36409   1.128   2.006   9.435 -0.8597 -0.3190 -0.1424
 8258SOL    HW136410   1.054   1.963   9.477 -0.4020 -2.1478 -1.2154
 8258SOL    HW236411   1.082   2.085   9.407 -0.4292 -0.9517 -2.6462
 8259SOL     OW36412   0.314   3.549  13.705  0.5847  0.1979  0.7825
 8259SOL    HW136413   0.359   3.583  13.628 -1.2713 -0.1071 -0.4302
 8259SOL    HW236414   0.265   3.474  13.671  1.4841 -1.1545  2.4638
 8260SOL     OW36415   3.066   0.994   5.908 -0.2781 -0.5508 -0.3787
 8260SOL    HW136416   3.080   0.955   5.822 -0.4628 -0.7601 -0.3147
 8260SOL    HW236417   2.983   1.041   5.899  0.1055  0.4502  1.1912
 8261SOL     OW36418   2.066   1.541  12.845 -0.1075  0.2731  0.4306
 8261SOL    HW136419   2.019   1.621  12.869 -0.7984 -0.2524  0.8494
 8261SOL    HW236420   2.082   1.495  12.928  0.0269 -0.4504  0.0045
 8262SOL     OW36421   1.086   3.588   4.623 -0.1816  0.1722 -0.4162
 8262SOL    HW136422   1.172   3.607   4.585  1.2262 -1.1735  2.1120
 8262SOL    HW236423   1.031   3.666   4.619  2.0133  1.7931  0.6776
 8263SOL     OW36424   4.431   2.078   7.676  0.4659 -0.5115  0.4782
 8263SOL    HW136425   4.508   2.115   7.720  1.3017 -0.3075 -1.1492
 8263SOL    HW236426   4.455   2.081   7.584 -0.8079  2.1783  0.2495
 8264SOL     OW36427   2.404   1.067   8.602  0.0988 -0.2590  0.3179
 8264SOL    HW136428   2.422   1.016   8.523  2.0085 -0.7242  1.0590
 8264SOL    HW236429   2.351   1.140   8.570  1.7200  1.1781  0.9366
 8265SOL     OW36430   4.065   4.669   0.636 -0.4481  0.1674 -0.2363
 8265SOL    HW136431   3.987   4.696   0.587 -0.1451 -1.6975 -1.7376
 8265SOL    HW236432   4.041   4.581   0.664  2.4608 -0.4493  0.2651
 8266SOL     OW36433   2.108   1.977  16.670  0.3037  0.1623  0.4074
 8266SOL    HW136434   2.066   2.053  16.710  0.9581  0.2700  0.8977
 8266SOL    HW236435   2.088   1.900  16.722  1.0560 -0.0239  0.4246
 8267SOL     OW36436   0.258   0.723   7.166 -0.1856 -0.4207 -0.2247
 8267SOL    HW136437   0.297   0.732   7.079  2.5756  0.5682  1.1216
 8267SOL    HW236438   0.313   0.781   7.218 -0.1599 -0.7883  0.1618
 8268SOL     OW36439   3.198   4.491   2.680  0.4114  0.3843  0.0953
 8268SOL    HW136440   3.110   4.514   2.707 -0.3676 -0.6159 -1.5639
 8268SOL    HW236441   3.192   4.500   2.585  1.6624 -0.1556 -0.0331
 8269SOL     OW36442   0.280   4.428  15.848 -0.4553  0.6538  0.5127
 8269SOL    HW136443   0.331   4.350  15.825 -2.4409  0.2749 -2.6485
 8269SOL    HW236444   0.237   4.394  15.926  0.3038 -0.2036  0.5606
 8270SOL     OW36445   1.840   0.102   9.957 -0.1438 -0.1677 -0.0073
 8270SOL    HW136446   1.841   0.151   9.875 -0.9844  0.3335  0.2833
 8270SOL    HW236447   1.842   0.014   9.919 -1.4971  0.2425 -1.0536
 8271SOL     OW36448   2.820   0.366   9.738  0.1682 -0.2473 -0.2550
 8271SOL    HW136449   2.889   0.417   9.780  1.2767  1.0909 -3.7155
 8271SOL    HW236450   2.741   0.414   9.762 -0.8238 -1.3515 -1.3209
 8272SOL     OW36451   4.502   3.882  14.037  0.2298  0.3244  0.0133
 8272SOL    HW136452   4.593   3.875  14.008  0.3404  0.7719  0.2503
 8272SOL    HW236453   4.511   3.847  14.126 -0.3897 -0.2986 -0.1676
 8273SOL     OW36454   3.871   4.146   9.676  0.1157 -0.2658 -0.0694
 8273SOL    HW136455   3.830   4.233   9.675  1.8706  0.5358 -0.9009
 8273SOL    HW236456   3.854   4.115   9.766  0.5811 -1.4852 -0.3986
 8274SOL     OW36457   4.556   4.138   4.395  0.0152 -0.4133 -0.2506
 8274SOL    HW136458   4.529   4.093   4.315 -0.0435  0.2366 -0.5922
 8274SOL    HW236459   4.640   4.100   4.421  0.1888 -0.1879 -0.4868
 8275SOL     OW36460   3.665   2.428   9.227 -0.1209  0.0410  0.4836
 8275SOL    HW136461   3.605   2.388   9.289 -1.5091 -1.3752 -1.7891
 8275SOL    HW236462   3.692   2.356   9.170 -1.6080 -1.6138  1.8784
 8276SOL     OW36463   0.561   1.285  15.510 -0.0392 -0.0812  0.0171
 8276SOL    HW136464   0.604   1.357  15.464  1.4873 -0.4939  0.7954
 8276SOL    HW236465   0.472   1.319  15.523 -0.2313  0.0282 -1.5788
 8277SOL     OW36466   1.506   2.350  16.753 -0.0796  0.3723 -0.1602
 8277SOL    HW136467   1.452   2.273  16.771 -0.0718 -0.1328 -2.2884
 8277SOL    HW236468   1.543   2.353  16.841  0.1160  0.5753 -0.2499
 8278SOL     OW36469   3.006   1.430   4.418  0.6490  0.2027  0.0725
 8278SOL    HW136470   3.075   1.493   4.396  1.3902 -0.4282  0.6020
 8278SOL    HW236471   3.067   1.362   4.447 -0.9040  0.0154  2.9464
 8279SOL     OW36472   1.547   1.117  13.927  0.2658 -0.0249 -0.2217
 8279SOL    HW136473   1.594   1.145  14.006 -0.5892  0.7254  0.0250
 8279SOL    HW236474   1.477   1.181  13.914  1.2290  1.2403  0.8015
 8280SOL     OW36475   0.557   3.456  16.643 -0.5281 -0.3631  0.6276
 8280SOL    HW136476   0.609   3.424  16.569 -2.0215 -0.4819 -0.3801
 8280SOL    HW236477   0.612   3.429  16.716 -0.6341  1.5132  1.3970
 8281SOL     OW36478   2.373   0.329   3.312 -0.4610 -0.1181  0.4216
 8281SOL    HW136479   2.313   0.315   3.385 -0.2718  0.8825  0.7642
 8281SOL    HW236480   2.356   0.422   3.296  2.6940  0.3294 -0.2076
 8282SOL     OW36481   3.899   1.821   6.470 -0.2421 -0.2485  0.2344
 8282SOL    HW136482   3.888   1.877   6.547 -0.5306 -0.5172  0.3888
 8282SOL    HW236483   3.924   1.881   6.400 -0.0977 -0.2695  0.2691
 8283SOL     OW36484   0.907   0.224   6.833 -0.2031  0.1881 -1.0697
 8283SOL    HW136485   0.937   0.312   6.810 -0.2259  0.1248 -1.3451
 8283SOL    HW236486   0.821   0.232   6.873 -0.1253  1.6276 -1.1932
 8284SOL     OW36487   3.696   1.097   6.429 -0.3501 -0.0074  0.0667
 8284SOL    HW136488   3.752   1.147   6.488 -0.0834  1.6736 -1.6226
 8284SOL    HW236489   3.670   1.027   6.489 -1.7172  2.9575  2.9258
 8285SOL     OW36490   1.831   0.284   7.266  0.6239 -0.0264  0.7541
 8285SOL    HW136491   1.823   0.379   7.273  1.0125  0.2019 -1.7312
 8285SOL    HW236492   1.912   0.275   7.317  1.2733 -1.5163 -0.5410
 8286SOL     OW36493   2.257   4.495   2.621 -0.0954  0.0272  0.0102
 8286SOL    HW136494   2.193   4.525   2.686 -1.9614 -2.4565 -0.6976
 8286SOL    HW236495   2.198   4.464   2.552  2.0279 -0.5222 -1.5594
 8287SOL     OW36496   3.978   2.021   9.227 -0.4951 -0.0809 -0.5562
 8287SOL    HW136497   4.051   1.966   9.199 -0.0401  0.1704  0.1272
 8287SOL    HW236498   4.007   2.100   9.181  1.2751  0.5307  1.5576
 8288SOL     OW36499   3.690   3.403  15.629 -0.4080 -0.2239  0.2399
 8288SOL    HW136500   3.634   3.478  15.651 -1.4615 -1.7638  2.7931
 8288SOL    HW236501   3.775   3.445  15.631 -1.4984  2.0121 -0.1398
 8289SOL     OW36502   0.311   1.258   5.448  0.2500 -0.3467 -0.2244
 8289SOL    HW136503   0.390   1.218   5.484 -0.5835 -1.1279  0.7659
 8289SOL    HW236504   0.274   1.269   5.535 -0.7868  0.5127 -0.7651
 8290SOL     OW36505   1.171   2.276  11.395  0.4917  0.3369 -0.3797
 8290SOL    HW136506   1.223   2.270  11.475 -0.3681 -2.4051 -0.0078
 8290SOL    HW236507   1.091   2.232  11.423  0.9119  0.1841  0.5606
 8291SOL     OW36508   3.230   2.820   7.038 -0.5981  0.5221  0.2938
 8291SOL    HW136509   3.165   2.881   7.071  0.1234  1.0938  0.6507
 8291SOL    HW236510   3.229   2.840   6.944  0.8680  0.8969  0.3629
 8292SOL     OW36511   3.777   3.857   0.288 -0.4138  0.1453 -0.0745
 8292SOL    HW136512   3.710   3.822   0.347 -0.7334 -0.0838 -0.5687
 8292SOL    HW236513   3.793   3.774   0.242 -2.1528  0.3449 -1.0662
 8293SOL     OW36514   1.796   4.468   8.614 -0.5356  0.0982 -0.0001
 8293SOL    HW136515   1.829   4.389   8.570  1.0832 -0.5189  2.3508
 8293SOL    HW236516   1.714   4.428   8.645 -0.6478  0.0910 -0.3049
 8294SOL     OW36517   0.245   2.917   8.778 -0.1570 -0.6045 -0.6490
 8294SOL    HW136518   0.167   2.862   8.777 -0.4172 -0.2466 -0.2899
 8294SOL    HW236519   0.303   2.859   8.827 -0.3467  0.1740  0.4986
 8295SOL     OW36520   3.852   3.605   4.716 -0.0097 -0.2056 -0.1198
 8295SOL    HW136521   3.837   3.610   4.811 -0.8050  0.9885 -0.3067
 8295SOL    HW236522   3.902   3.685   4.698  0.1072 -0.2992 -0.2150
 8296SOL     OW36523   0.508   1.671   5.412  0.9322 -0.2396  0.7904
 8296SOL    HW136524   0.471   1.751   5.450  0.7720 -0.7020  1.5957
 8296SOL    HW236525   0.433   1.612   5.407  0.7093 -0.0791  2.4186
 8297SOL     OW36526   2.265   1.614   1.805 -0.3097  0.4655  0.5013
 8297SOL    HW136527   2.280   1.708   1.805 -2.2958  0.7789 -0.6965
 8297SOL    HW236528   2.355   1.579   1.813 -0.6602 -0.7325 -0.8545
 8298SOL     OW36529   1.371   2.234  17.398 -0.9354  0.1058  0.2891
 8298SOL    HW136530   1.301   2.192  17.348 -1.1917  0.1101  0.6445
 8298SOL    HW236531   1.390   2.308  17.340  1.4610 -0.3470  0.5251
 8299SOL     OW36532   1.637   2.635  12.578 -0.1003 -0.0167  0.4236
 8299SOL    HW136533   1.667   2.569  12.640  0.1982  0.2216  0.5332
 8299SOL    HW236534   1.603   2.580  12.508  1.0781 -0.7262  0.4179
 8300SOL     OW36535   2.631   1.996   3.521  0.1136 -0.1493  0.0224
 8300SOL    HW136536   2.572   2.071   3.526  0.1079 -0.2604  1.5180
 8300SOL    HW236537   2.708   2.042   3.488 -0.0259 -1.0169 -1.5121
 8301SOL     OW36538   4.551   4.003   2.737  0.5344  0.0872  0.1517
 8301SOL    HW136539   4.533   3.910   2.728  0.6096 -0.1853  2.6181
 8301SOL    HW236540   4.521   4.017   2.827 -1.0711  0.9711 -0.5170
 8302SOL     OW36541   4.341   3.923   3.616 -0.0717  0.3234 -0.5809
 8302SOL    HW136542   4.348   3.828   3.601 -2.7715 -0.3779  2.5266
 8302SOL    HW236543   4.401   3.958   3.550  0.8852  0.9652  0.6452
 8303SOL     OW36544   1.941   3.877   3.037 -0.3390  0.1050  0.2075
 8303SOL    HW136545   1.995   3.823   2.978 -0.0614  2.5482 -1.7702
 8303SOL    HW236546   2.003   3.889   3.109  0.9451  1.1176 -1.0623
 8304SOL     OW36547   1.421   0.095   5.383  0.0120  0.0481  0.1957
 8304SOL    HW136548   1.476   0.052   5.448  1.9403 -0.0207 -1.5017
 8304SOL    HW236549   1.345   0.112   5.440 -0.3245  0.2270 -0.3060
 8305SOL     OW36550   4.343   3.831  14.554  0.3731 -0.1412  0.0823
 8305SOL    HW136551   4.347   3.927  14.554 -0.9023 -0.0977  0.9828
 8305SOL    HW236552   4.370   3.798  14.468 -0.5139  0.1138 -0.3002
 8306SOL     OW36553   4.497   3.244   6.377  0.0373 -0.5591 -0.4988
 8306SOL    HW136554   4.437   3.226   6.304 -0.5675  2.3264 -0.7454
 8306SOL    HW236555   4.480   3.163   6.425 -2.2009 -0.7414 -1.5850
 8307SOL     OW36556   1.143   4.612   1.865  0.0545 -0.8854  0.1792
 8307SOL    HW136557   1.210   4.638   1.802  0.9510 -1.1712  1.0159
 8307SOL    HW236558   1.085   4.559   1.810 -0.6347  0.5916 -0.5196
 8308SOL     OW36559   4.011   4.560   3.908 -0.4406 -0.2857  0.0788
 8308SOL    HW136560   4.001   4.603   3.823 -0.8116  2.8706  1.7020
 8308SOL    HW236561   4.096   4.522   3.887 -0.8186 -0.9897 -0.1953
 8309SOL     OW36562   2.802   4.257   2.498  0.0357  0.0374 -0.3257
 8309SOL    HW136563   2.842   4.344   2.509  1.5162 -0.8589  1.4953
 8309SOL    HW236564   2.806   4.223   2.588 -0.4009  0.1869 -0.2529
 8310SOL     OW36565   1.062   3.849   7.678 -1.0341 -0.1130  0.1216
 8310SOL    HW136566   1.030   3.850   7.588 -1.2404 -1.3778  0.1818
 8310SOL    HW236567   1.129   3.918   7.685 -1.2341  0.3263 -2.4055
 8311SOL     OW36568   1.250   2.658   6.853  0.7326 -0.0075  0.0363
 8311SOL    HW136569   1.288   2.734   6.811  0.7365  0.2383  0.4890
 8311SOL    HW236570   1.160   2.671   6.822  1.2410 -0.8808 -1.7872
 8312SOL     OW36571   4.264   1.998   6.230  0.2755  0.5328  0.1029
 8312SOL    HW136572   4.298   1.953   6.153 -0.1064 -1.3443  1.0366
 8312SOL    HW236573   4.333   1.995   6.296 -1.9058 -2.3273  2.2449
 8313SOL     OW36574   4.593   4.730   1.529 -0.0265  0.0053  0.0694
 8313SOL    HW136575   4.558   4.717   1.441  0.6280 -1.8414  0.0697
 8313SOL    HW236576   4.508   0.005   1.570 -1.2544 -1.2116 -2.0177
 8314SOL     OW36577   4.003   2.053   8.485 -0.1215  0.6414  0.0591
 8314SOL    HW136578   3.941   2.110   8.530  1.6525  2.3055  0.3838
 8314SOL    HW236579   3.940   1.991   8.449  1.7286 -2.0779  1.5139
 8315SOL     OW36580   2.266   4.220  10.733  0.2337 -0.3124 -0.4164
 8315SOL    HW136581   2.292   4.312  10.732  1.9459 -0.7674  0.6040
 8315SOL    HW236582   2.319   4.170  10.670 -0.9865 -0.6158 -1.1954
 8316SOL     OW36583   0.138   2.108   8.236  0.3869  0.8239 -0.0796
 8316SOL    HW136584   0.130   2.108   8.331  2.6472  0.1837  0.1250
 8316SOL    HW236585   0.233   2.122   8.233  0.2933  1.8355  1.6598
 8317SOL     OW36586   2.399   2.252  15.161  0.2416 -0.8840 -0.0791
 8317SOL    HW136587   2.354   2.275  15.243  1.9377  3.1082 -0.2424
 8317SOL    HW236588   2.414   2.158  15.172  1.0002 -0.7740 -0.2033
 8318SOL     OW36589   3.078   2.539   1.576 -0.5934 -0.4037  0.2022
 8318SOL    HW136590   3.100   2.447   1.589  0.3138 -0.2528 -0.2448
 8318SOL    HW236591   3.140   2.568   1.509 -1.8331 -0.0745 -0.8080
 8319SOL     OW36592   4.338   0.044  12.161  0.5481 -0.4530  0.2418
 8319SOL    HW136593   4.401   0.093  12.108 -1.3643 -0.7741 -2.3530
 8319SOL    HW236594   4.264   0.086  12.117  1.1270 -0.0985 -0.3919
 8320SOL     OW36595   0.436   2.681   3.443 -0.0560 -0.4483 -0.2612
 8320SOL    HW136596   0.349   2.715   3.463 -0.0757 -0.3514 -0.5126
 8320SOL    HW236597   0.442   2.722   3.357 -0.8330 -0.2322 -0.2167
 8321SOL     OW36598   2.913   0.088   2.673  0.2346 -0.2008 -0.5745
 8321SOL    HW136599   2.907   0.065   2.581 -0.8024  1.8796 -1.0179
 8321SOL    HW236600   3.008   0.095   2.679  0.3476 -1.7815 -0.4622
 8322SOL     OW36601   3.579   3.090   9.152  0.0857  0.6130 -0.0714
 8322SOL    HW136602   3.541   3.015   9.107 -0.1177  0.3612  0.5267
 8322SOL    HW236603   3.594   3.148   9.077 -0.2383  1.2944  0.3901
 8323SOL     OW36604   0.289   3.467   9.148  0.5841  0.8872 -0.4785
 8323SOL    HW136605   0.380   3.437   9.151  0.8449  2.0141  2.9532
 8323SOL    HW236606   0.295   3.550   9.196  0.4362  0.8151 -0.3353
 8324SOL     OW36607   4.478   3.589   6.557  0.1217 -0.2510 -0.2869
 8324SOL    HW136608   4.550   3.622   6.503 -0.3472 -0.6746 -1.1766
 8324SOL    HW236609   4.400   3.578   6.502 -0.1191 -0.1477  0.0313
 8325SOL     OW36610   2.440   2.499   8.581 -0.0769 -0.3836  0.6137
 8325SOL    HW136611   2.439   2.514   8.676  2.8226 -1.2641  0.7639
 8325SOL    HW236612   2.515   2.550   8.550 -1.5425  1.2779 -0.2136
 8326SOL     OW36613   0.177   3.466   1.796 -0.0701  0.0371 -0.0454
 8326SOL    HW136614   0.229   3.389   1.773 -0.7777 -0.5431  0.3039
 8326SOL    HW236615   0.133   3.429   1.873  0.8925 -1.6447 -0.2966
 8327SOL     OW36616   2.563   1.028   3.345  0.0404 -0.3971  0.4512
 8327SOL    HW136617   2.567   1.111   3.297  4.4368  0.9019  3.1393
 8327SOL    HW236618   2.468   1.015   3.350 -0.0397 -0.0171 -0.0690
 8328SOL     OW36619   0.468   4.342   8.546 -0.3430 -0.0161 -0.5084
 8328SOL    HW136620   0.526   4.409   8.582 -0.3429 -0.3151  0.0363
 8328SOL    HW236621   0.394   4.361   8.602 -0.1521 -0.4710 -0.1009
 8329SOL     OW36622   4.462   2.049   1.445  0.1479 -0.3820  0.4022
 8329SOL    HW136623   4.550   2.047   1.407 -0.6472  0.3616 -1.5125
 8329SOL    HW236624   4.423   1.968   1.411  0.9916 -0.5693 -0.1278
 8330SOL     OW36625   0.516   2.637   3.722 -0.5790 -0.3507  0.2087
 8330SOL    HW136626   0.595   2.690   3.720  1.2868 -3.2155 -1.4002
 8330SOL    HW236627   0.489   2.635   3.631 -1.0900 -2.3337  0.4089
 8331SOL     OW36628   0.620   0.432  13.541 -0.4462 -0.0661  0.1975
 8331SOL    HW136629   0.566   0.424  13.462  1.1986 -0.7055 -0.8437
 8331SOL    HW236630   0.552   0.421  13.608  0.1238  1.6425  1.0509
 8332SOL     OW36631   1.847   3.927   7.013 -0.2507  0.8290  0.1144
 8332SOL    HW136632   1.811   3.853   6.964 -2.2620  2.1110 -0.3503
 8332SOL    HW236633   1.865   3.985   6.939  0.1689  1.1124  0.4362
 8333SOL     OW36634   0.307   1.486  11.576  0.2167 -0.1215 -0.2190
 8333SOL    HW136635   0.346   1.440  11.501  0.8067 -2.2551  1.3728
 8333SOL    HW236636   0.319   1.421  11.646 -0.3103  0.4844  0.4296
 8334SOL     OW36637   2.462   2.733   3.254 -0.6952  0.0042  0.4877
 8334SOL    HW136638   2.405   2.753   3.179 -2.3304 -1.5848  1.3056
 8334SOL    HW236639   2.420   2.788   3.320 -3.2515 -0.7978 -0.4691
 8335SOL     OW36640   0.144   4.228   5.450 -1.0691 -0.7921 -0.3952
 8335SOL    HW136641   0.214   4.173   5.415  1.5356  1.6894  0.8963
 8335SOL    HW236642   0.085   4.171   5.500 -1.8520  0.1007 -0.2952
 8336SOL     OW36643   0.298   0.150   2.003  0.8749 -0.1277  0.0622
 8336SOL    HW136644   0.335   0.075   2.050  3.5307  0.3542 -1.2613
 8336SOL    HW236645   0.357   0.221   2.030 -1.1288  1.5882 -0.0161
 8337SOL     OW36646   1.428   4.568   8.099 -0.9307 -0.3262 -0.0302
 8337SOL    HW136647   1.367   4.495   8.084 -1.2421  0.4206 -2.3939
 8337SOL    HW236648   1.459   4.586   8.011 -2.0958 -2.4143 -0.8783
 8338SOL     OW36649   3.461   4.602   0.706 -0.4413  0.3304 -0.2105
 8338SOL    HW136650   3.479   4.670   0.771  0.1438 -0.5852  0.5842
 8338SOL    HW236651   3.403   4.634   0.637 -0.4309 -0.2957 -0.5127
 8339SOL     OW36652   1.914   0.375  10.782 -0.6762 -0.8492 -0.8454
 8339SOL    HW136653   1.992   0.377  10.727 -0.6221  1.5772 -0.6820
 8339SOL    HW236654   1.958   0.358  10.866 -0.2084 -0.7294 -1.0645
 8340SOL     OW36655   0.580   0.285  13.922  0.3438  0.3620 -0.6001
 8340SOL    HW136656   0.533   0.354  13.877  0.9100  1.6799  0.8403
 8340SOL    HW236657   0.649   0.263  13.859 -0.4005 -4.0385  0.1098
 8341SOL     OW36658   3.907   2.103   8.851 -0.1142 -0.4050  0.3402
 8341SOL    HW136659   3.892   2.149   8.768 -1.9850 -0.7442  0.4916
 8341SOL    HW236660   3.814   2.088   8.870  0.4100 -1.8918  1.6722
 8342SOL     OW36661   1.529   2.009   8.380 -0.0898  0.1637  0.2414
 8342SOL    HW136662   1.505   2.090   8.425  1.3647  0.1854  0.9829
 8342SOL    HW236663   1.529   1.947   8.453 -0.9764 -1.5016 -1.1676
 8343SOL     OW36664   1.403   3.655  10.031  0.4547  0.2804 -0.0807
 8343SOL    HW136665   1.440   3.659   9.943  0.8988 -1.7619  0.0063
 8343SOL    HW236666   1.445   3.573  10.058 -1.2120 -1.0026 -1.3918
 8344SOL     OW36667   1.583   0.269   9.906 -0.2861  0.2053 -0.1838
 8344SOL    HW136668   1.507   0.314   9.870 -0.3245  0.8893  0.7567
 8344SOL    HW236669   1.572   0.279  10.001  0.7886 -0.2944  0.0004
 8345SOL     OW36670   1.847   0.713   3.493  0.8463 -0.3452 -0.1183
 8345SOL    HW136671   1.818   0.801   3.516 -0.6218 -1.2741  1.5655
 8345SOL    HW236672   1.802   0.660   3.559 -0.3313  3.0780  1.8034
 8346SOL     OW36673   3.780   3.450  17.362  0.4153  0.0273  0.4671
 8346SOL    HW136674   3.735   3.454  17.278 -0.2901  0.6813  0.8665
 8346SOL    HW236675   3.794   3.356  17.375 -0.7191 -0.1724  0.2751
 8347SOL     OW36676   1.163   2.778   5.326  0.7428  0.1279  0.4172
 8347SOL    HW136677   1.210   2.833   5.389  0.3456  0.5853  0.3181
 8347SOL    HW236678   1.127   2.848   5.271  0.2921 -2.5472 -2.6672
 8348SOL     OW36679   1.776   4.161  12.521 -0.3137  0.0192  0.0122
 8348SOL    HW136680   1.716   4.095  12.486 -1.3300 -0.3889  2.5309
 8348SOL    HW236681   1.732   4.240  12.488  0.3563  0.9694  1.3783
 8349SOL     OW36682   1.882   2.099   3.603 -0.2410  0.0998  0.8701
 8349SOL    HW136683   1.938   2.175   3.593 -0.7009  0.5204  1.4977
 8349SOL    HW236684   1.806   2.128   3.553 -1.1497 -0.8334  1.6915
 8350SOL     OW36685   2.792   0.090  17.146 -0.0321 -0.3976  0.8961
 8350SOL    HW136686   2.703   0.097  17.112  0.7672  0.0168 -1.0902
 8350SOL    HW236687   2.831   0.033  17.080 -1.8860  0.8396 -1.2555
 8351SOL     OW36688   1.443   0.991   9.155 -0.3498 -0.4691  0.5555
 8351SOL    HW136689   1.357   0.953   9.173 -1.1368  1.1931  0.3691
 8351SOL    HW236690   1.406   1.075   9.126 -0.7662 -1.2576 -1.1523
 8352SOL     OW36691   3.772   3.098   3.534  1.0027 -0.0443  0.5738
 8352SOL    HW136692   3.754   3.167   3.470 -0.2667  0.0605  1.0431
 8352SOL    HW236693   3.761   3.022   3.477  0.0897 -0.1884  0.9408
 8353SOL     OW36694   0.934   2.782   9.459  0.4679 -0.0352 -0.1086
 8353SOL    HW136695   0.852   2.796   9.413 -0.6582  0.5760  2.0591
 8353SOL    HW236696   0.917   2.852   9.522  0.5596 -0.1921  0.0907
 8354SOL     OW36697   3.871   2.444   3.644  0.1647  0.2036 -0.3738
 8354SOL    HW136698   3.879   2.435   3.739  0.4049  1.6106 -0.2522
 8354SOL    HW236699   3.956   2.409   3.620  0.3834 -0.0075  0.7279
 8355SOL     OW36700   3.506   1.519   3.691  0.0261 -0.2682  0.2409
 8355SOL    HW136701   3.582   1.550   3.740  1.4237 -1.9529 -0.8216
 8355SOL    HW236702   3.558   1.487   3.617 -2.4707  0.5593 -1.8593
 8356SOL     OW36703   2.419   0.297   7.448  0.7740 -0.4660  0.4864
 8356SOL    HW136704   2.460   0.268   7.367  1.9860  1.3555  0.4429
 8356SOL    HW236705   2.325   0.292   7.432  1.1550  0.0993 -1.9428
 8357SOL     OW36706   2.678   3.419   1.357 -0.0032 -0.7864  0.1993
 8357SOL    HW136707   2.667   3.350   1.291  1.5369 -2.7769  2.0317
 8357SOL    HW236708   2.770   3.413   1.384  0.5295  0.0462 -1.3791
 8358SOL     OW36709   0.275   2.528   2.209 -0.1589 -0.0242 -0.0603
 8358SOL    HW136710   0.209   2.570   2.264  0.6147  1.7499 -0.4799
 8358SOL    HW236711   0.310   2.475   2.280 -0.4006  1.1128  0.9078
 8359SOL     OW36712   3.279   3.832   7.987 -0.3233  0.0689  0.2516
 8359SOL    HW136713   3.191   3.868   7.976 -0.3730  0.4799  1.8694
 8359SOL    HW236714   3.312   3.902   8.043  3.2777 -1.7239  0.3796
 8360SOL     OW36715   4.705   1.185   4.419 -0.0626  0.4269  0.0792
 8360SOL    HW136716   4.633   1.171   4.358 -1.0842 -0.7307  1.5580
 8360SOL    HW236717   4.719   1.104   4.469  0.5801 -1.2770 -2.8477
 8361SOL     OW36718   1.319   0.000   3.012  0.0341 -0.6797  0.4251
 8361SOL    HW136719   1.312   4.678   2.939  2.8049 -0.5697  0.0599
 8361SOL    HW236720   1.386   0.067   2.996 -0.7750  0.6397  2.5051
 8362SOL     OW36721   1.084   3.185   3.622 -0.1735  0.7762 -0.0607
 8362SOL    HW136722   1.068   3.271   3.660  1.2852  1.5195 -1.1307
 8362SOL    HW236723   1.115   3.140   3.701  0.3574 -0.2372 -0.8409
 8363SOL     OW36724   2.130   0.160   2.485  0.0520  0.1825  0.1002
 8363SOL    HW136725   2.219   0.138   2.456 -0.6490  0.7706 -2.4849
 8363SOL    HW236726   2.086   0.115   2.412  0.8077 -1.1424  0.4648
 8364SOL     OW36727   1.102   2.171   0.546 -0.2175 -0.0190  1.1328
 8364SOL    HW136728   1.073   2.107   0.611 -0.1805  0.6834  1.8423
 8364SOL    HW236729   1.184   2.131   0.518  0.8602  0.5428  3.4468
 8365SOL     OW36730   2.978   2.156   7.170 -0.2926  0.1993 -0.1004
 8365SOL    HW136731   2.886   2.166   7.194  0.5191  1.4764  2.4001
 8365SOL    HW236732   2.961   2.121   7.082 -1.7966 -0.7477  0.5640
 8366SOL     OW36733   0.269   2.632   4.179  0.4778 -0.5462  0.1832
 8366SOL    HW136734   0.194   2.663   4.127 -0.0654 -1.1368  0.6185
 8366SOL    HW236735   0.339   2.626   4.113  0.7122 -0.3047  0.4096
 8367SOL     OW36736   4.483   4.348  14.587 -0.1153  1.1676  0.6868
 8367SOL    HW136737   4.394   4.382  14.581 -0.3039  0.1548 -2.4173
 8367SOL    HW236738   4.495   4.312  14.675  0.3164  0.5354  0.3737
 8368SOL     OW36739   2.502   0.425  17.749 -0.0068  0.4687  0.0796
 8368SOL    HW136740   2.502   0.397   0.085 -0.6800 -1.1248 -0.4196
 8368SOL    HW236741   2.579   0.482  17.739  0.5321 -0.6352 -2.2182
 8369SOL     OW36742   0.020   1.762   7.101 -0.2619 -0.0555  0.1560
 8369SOL    HW136743   0.086   1.760   7.170 -3.1020  0.9308  2.9318
 8369SOL    HW236744   4.687   1.803   7.149  0.8442  0.5640  1.2947
 8370SOL     OW36745   0.355   3.148   4.295  0.0840  0.2228 -0.4220
 8370SOL    HW136746   0.449   3.164   4.283 -0.1623  2.9622  1.3939
 8370SOL    HW236747   0.334   3.073   4.239 -1.1453  0.5254 -0.3665
 8371SOL     OW36748   3.932   2.156   2.784 -0.2073  0.9308 -0.2662
 8371SOL    HW136749   3.981   2.185   2.861  1.1039  2.4184 -1.6623
 8371SOL    HW236750   3.992   2.087   2.755 -1.6101 -0.6097  0.5030
 8372SOL     OW36751   4.669   3.685  11.602  0.6897 -0.3408 -0.0169
 8372SOL    HW136752   4.680   3.595  11.573 -0.0181  0.0899 -1.6281
 8372SOL    HW236753   4.656   3.670  11.696  2.7999 -0.3468  0.2679
 8373SOL     OW36754   4.084   0.441  11.425 -0.3338 -0.2271  0.0599
 8373SOL    HW136755   4.044   0.356  11.445 -0.1021 -0.2258  0.5409
 8373SOL    HW236756   4.171   0.425  11.461 -0.7259  1.6672  1.8866
 8374SOL     OW36757   2.689   3.003   4.469 -0.2086 -0.0794 -0.2741
 8374SOL    HW136758   2.636   3.036   4.396  1.4363  0.0109 -1.4291
 8374SOL    HW236759   2.670   2.909   4.472 -0.6555 -0.0539 -2.2669
 8375SOL     OW36760   2.042   1.474   4.933 -0.2759  0.0814 -0.2033
 8375SOL    HW136761   2.135   1.463   4.951 -0.3984 -0.3289  0.1814
 8375SOL    HW236762   2.014   1.384   4.915  2.3452 -0.6599 -0.5274
 8376SOL     OW36763   2.122   0.129   6.455  0.3050  0.5223  0.0381
 8376SOL    HW136764   2.028   0.148   6.461  0.5543  1.8462 -0.3302
 8376SOL    HW236765   2.137   0.144   6.361  4.1336  0.4825  0.6389
 8377SOL     OW36766   1.299   1.740   7.992  0.5531  0.1321  0.0591
 8377SOL    HW136767   1.332   1.688   8.065 -1.7736 -0.3686  0.7393
 8377SOL    HW236768   1.381   1.786   7.971 -1.7038  3.3199 -1.8191
 8378SOL     OW36769   3.021   1.431   9.669 -0.4582  0.1647  0.1298
 8378SOL    HW136770   2.973   1.360   9.713 -0.2863 -1.0639 -1.6478
 8378SOL    HW236771   3.111   1.400   9.679  0.8825  3.3258 -1.9828
 8379SOL     OW36772   2.019   2.298  17.247 -0.0696  0.2490 -0.1139
 8379SOL    HW136773   2.041   2.234  17.180  1.7768  1.1124 -0.3285
 8379SOL    HW236774   2.081   2.276  17.316  1.1313  2.2068 -0.5735
 8380SOL     OW36775   4.138   3.229  13.062 -0.1956 -0.0683  0.1303
 8380SOL    HW136776   4.177   3.313  13.086  2.0126 -0.5667 -1.6808
 8380SOL    HW236777   4.060   3.267  13.022  1.7055  1.5316 -2.0611
 8381SOL     OW36778   1.861   2.521  10.750  0.2392 -0.6515 -0.1543
 8381SOL    HW136779   1.826   2.597  10.796  1.1994  0.0248 -0.5251
 8381SOL    HW236780   1.951   2.523  10.782  0.2845  1.6103 -0.4025
 8382SOL     OW36781   3.411   2.643   8.137  0.2232  0.3365 -0.4083
 8382SOL    HW136782   3.450   2.558   8.159  0.5540  0.5437 -0.1917
 8382SOL    HW236783   3.488   2.699   8.128 -0.5609  1.7683  1.6811
 8383SOL     OW36784   0.672   0.522   4.958  0.2718 -0.4061 -0.2519
 8383SOL    HW136785   0.642   0.611   4.979  1.0646  0.5611 -3.1813
 8383SOL    HW236786   0.625   0.505   4.876 -1.5169  1.6181  0.3378
 8384SOL     OW36787   1.893   1.902   8.673  0.0657 -0.6952 -0.1870
 8384SOL    HW136788   1.943   1.900   8.591  3.4866 -0.1410  1.8832
 8384SOL    HW236789   1.950   1.953   8.730 -0.6082 -0.5814  0.3830
 8385SOL     OW36790   0.780   3.799  15.234 -0.6063  0.2340  0.1726
 8385SOL    HW136791   0.799   3.817  15.142 -1.9492  1.2352  0.0876
 8385SOL    HW236792   0.752   3.707  15.232  0.3325 -0.0612  0.4582
 8386SOL     OW36793   4.306   1.760   1.955  0.5285 -0.4660 -0.1256
 8386SOL    HW136794   4.324   1.777   2.048 -0.2555 -1.1214  0.1489
 8386SOL    HW236795   4.386   1.715   1.929  0.6193 -1.6581  2.1234
 8387SOL     OW36796   1.339   3.480   9.543 -0.5752 -1.3722 -0.5353
 8387SOL    HW136797   1.408   3.468   9.609  0.1892  0.2745 -1.0308
 8387SOL    HW236798   1.298   3.560   9.577  0.3947 -1.1004  0.0122
 8388SOL     OW36799   1.157   1.473   0.406  0.2323 -0.1972 -0.3115
 8388SOL    HW136800   1.157   1.552   0.352  2.8634  0.6121  0.8694
 8388SOL    HW236801   1.231   1.493   0.464  0.8343 -0.1732 -1.0853
 8389SOL     OW36802   0.436   4.128  12.106 -0.2159 -0.0012 -0.1927
 8389SOL    HW136803   0.482   4.164  12.182 -1.2648 -0.6441  0.7423
 8389SOL    HW236804   0.499   4.058  12.088  0.4149  0.8140 -1.2035
 8390SOL     OW36805   1.968   2.340   9.614 -0.0512  0.3910  0.3720
 8390SOL    HW136806   2.014   2.318   9.533 -2.3118  1.7210 -1.2954
 8390SOL    HW236807   1.957   2.259   9.664  0.5005 -0.1330 -0.3613
 8391SOL     OW36808   0.659   3.293   5.851 -0.0323 -0.6915 -0.2173
 8391SOL    HW136809   0.588   3.349   5.881 -0.4815 -0.0878 -2.3832
 8391SOL    HW236810   0.735   3.342   5.883  0.0668  0.3276 -1.9899
 8392SOL     OW36811   4.576   2.709   6.160  0.1307  0.0258  0.0847
 8392SOL    HW136812   4.523   2.636   6.127 -0.5324  0.0949  1.0095
 8392SOL    HW236813   4.663   2.670   6.173  0.5230  1.5452  1.9791
 8393SOL     OW36814   1.986   1.668   0.251 -0.7523 -0.4509 -0.5437
 8393SOL    HW136815   1.900   1.711   0.250  0.8007  2.6516 -1.0329
 8393SOL    HW236816   1.971   1.574   0.238  0.4582 -1.2402  3.6838
 8394SOL     OW36817   4.248   0.628   5.801  0.0508 -0.3456  0.1282
 8394SOL    HW136818   4.174   0.570   5.821 -1.2594  1.2012 -0.2031
 8394SOL    HW236819   4.201   0.711   5.788  0.6309  0.1014  0.8723
 8395SOL     OW36820   2.581   4.102  11.191  0.0925  0.0432  0.0606
 8395SOL    HW136821   2.519   4.042  11.150  0.3989 -0.0856 -0.2081
 8395SOL    HW236822   2.633   4.040  11.242 -3.4029 -0.8247  2.5896
 8396SOL     OW36823   1.230   1.539   2.552 -0.3910  0.3465  0.5012
 8396SOL    HW136824   1.135   1.534   2.564 -0.5540  1.2382 -0.5137
 8396SOL    HW236825   1.263   1.487   2.625 -1.9629  0.5690  1.3786
 8397SOL     OW36826   1.025   3.227   2.432  0.4188 -0.1712 -0.2426
 8397SOL    HW136827   0.969   3.243   2.356 -0.4417 -1.0569  0.2155
 8397SOL    HW236828   1.022   3.315   2.472 -0.3479  0.2970 -1.3434
 8398SOL     OW36829   3.031   4.625   8.177  0.1499  0.3144 -0.0177
 8398SOL    HW136830   3.068   4.617   8.089  0.0797 -0.8226  0.0559
 8398SOL    HW236831   2.992   4.712   8.170  0.9997  0.6143 -1.1327
 8399SOL     OW36832   2.475   2.247   5.934 -0.4078 -0.2126  0.1883
 8399SOL    HW136833   2.438   2.318   5.882  0.3366  0.1033  0.0849
 8399SOL    HW236834   2.537   2.303   5.982  2.9799 -3.0952 -0.8192
 8400SOL     OW36835   3.867   0.880   8.044  0.0106 -0.5323 -0.2302
 8400SOL    HW136836   3.930   0.848   8.109  1.0779  0.9144 -0.5700
 8400SOL    HW236837   3.925   0.921   7.980  0.0500 -0.3135 -0.0530
 8401SOL     OW36838   2.597   2.085   5.730  0.4478 -0.1682  0.0590
 8401SOL    HW136839   2.566   2.153   5.671  1.1664 -1.2341 -1.5716
 8401SOL    HW236840   2.526   2.085   5.794  1.0953 -0.0987  0.7857
 8402SOL     OW36841   0.905   2.284   3.622 -0.0863 -0.2035 -0.2584
 8402SOL    HW136842   0.957   2.264   3.544  1.2847 -1.3731  0.9277
 8402SOL    HW236843   0.942   2.222   3.686 -0.1402 -1.2147 -1.2055
 8403SOL     OW36844   2.922   2.548   5.268 -0.5455  0.2905  0.7300
 8403SOL    HW136845   2.974   2.545   5.349  2.2188  2.6043 -0.9632
 8403SOL    HW236846   2.924   2.460   5.231 -0.0153  0.2809  0.7802
 8404SOL     OW36847   1.125   4.412  15.211 -0.5985  0.1091 -0.1203
 8404SOL    HW136848   1.041   4.367  15.214  0.0730 -1.1824 -0.7795
 8404SOL    HW236849   1.161   4.378  15.130 -2.0815 -2.3658  0.2678
 8405SOL     OW36850   3.851   3.387   7.145 -0.2555  0.2114 -0.4214
 8405SOL    HW136851   3.857   3.296   7.117 -1.7867  0.5480 -1.8124
 8405SOL    HW236852   3.880   3.383   7.236 -0.5703 -2.1815 -0.4181
 8406SOL     OW36853   1.051   2.732   6.662 -0.3010 -0.9899  0.8246
 8406SOL    HW136854   0.988   2.801   6.642  0.8164  0.4836  2.3632
 8406SOL    HW236855   1.073   2.714   6.571  1.7665  0.5346  1.0282
 8407SOL     OW36856   1.928   4.330   3.514  0.2958 -0.0407 -0.2446
 8407SOL    HW136857   1.854   4.389   3.497  0.1443 -0.4092 -0.8369
 8407SOL    HW236858   1.881   4.266   3.568 -2.1065  0.6937 -1.4625
 8408SOL     OW36859   1.249   0.436   2.979  0.2748  0.4258  0.2900
 8408SOL    HW136860   1.336   0.454   3.012  0.6433  0.6365 -0.7740
 8408SOL    HW236861   1.265   0.444   2.885 -0.0321 -0.5867  0.1454
 8409SOL     OW36862   4.264   2.483   4.153  0.0934 -0.3329 -0.1454
 8409SOL    HW136863   4.232   2.553   4.097 -0.3528  0.1693  0.7408
 8409SOL    HW236864   4.203   2.413   4.133  1.2999 -0.9547 -1.6828
 8410SOL     OW36865   3.815   3.675   1.062  0.0320  0.3077  0.1000
 8410SOL    HW136866   3.897   3.722   1.070  1.2158 -1.7658  0.1814
 8410SOL    HW236867   3.804   3.647   1.153  0.5720  2.1419  0.7244
 8411SOL     OW36868   1.549   0.251   5.184  0.0138  0.1240 -0.2701
 8411SOL    HW136869   1.489   0.198   5.237  1.3720 -0.0453  1.0984
 8411SOL    HW236870   1.580   0.297   5.262  1.1979  2.2657 -2.0101
 8412SOL     OW36871   4.482   0.248   2.087 -0.2921  0.5062 -0.2051
 8412SOL    HW136872   4.565   0.209   2.113 -0.3847  0.4039 -0.0616
 8412SOL    HW236873   4.431   0.169   2.069  1.7940 -1.0757  1.0106
 8413SOL     OW36874   0.709   2.504  12.898  0.3343 -0.5636 -0.2979
 8413SOL    HW136875   0.668   2.425  12.934 -0.8137 -0.5934 -1.6877
 8413SOL    HW236876   0.762   2.465  12.829  1.4476  0.3427  0.0472
 8414SOL     OW36877   1.709   1.850   2.425  0.1478 -0.0948  0.0244
 8414SOL    HW136878   1.755   1.788   2.368  0.3966  0.4306 -0.3517
 8414SOL    HW236879   1.620   1.836   2.393  0.9191 -0.2325 -2.1022
 8415SOL     OW36880   0.090   0.339   3.075  0.0464  0.0394 -0.0995
 8415SOL    HW136881   0.098   0.410   3.139  1.4250 -1.7782  1.7491
 8415SOL    HW236882   0.004   0.353   3.036 -0.1603 -0.0785  0.3199
 8416SOL     OW36883   3.713   4.716   5.227  0.1984  0.7041 -0.0207
 8416SOL    HW136884   3.708   4.634   5.178  2.1379 -0.2364  1.3491
 8416SOL    HW236885   3.642   4.697   5.289 -0.1394 -0.8562 -0.8985
 8417SOL     OW36886   3.342   1.308   8.595  0.2366 -0.0368 -0.1882
 8417SOL    HW136887   3.274   1.364   8.633  1.9725  0.4684  2.1763
 8417SOL    HW236888   3.286   1.237   8.564 -0.5309 -1.0138  3.3954
 8418SOL     OW36889   0.314   2.301   9.456 -0.6234  0.3743 -0.1879
 8418SOL    HW136890   0.374   2.279   9.528 -1.2728  0.4541  0.3843
 8418SOL    HW236891   0.367   2.369   9.415 -0.4828  1.0606  1.1256
 8419SOL     OW36892   1.050   2.830   9.041  0.0295  0.1654 -0.6632
 8419SOL    HW136893   1.009   2.877   8.968 -1.8052  1.0033  0.9022
 8419SOL    HW236894   0.976   2.774   9.067  0.3019  0.0089 -0.2285
 8420SOL     OW36895   3.869   1.427   1.717  0.2361  0.2771 -0.4478
 8420SOL    HW136896   3.933   1.363   1.747  0.3068  0.7143  0.3350
 8420SOL    HW236897   3.916   1.454   1.638  3.4703 -2.0217  0.7275
 8421SOL     OW36898   2.137   0.135   9.690  0.1335  0.4140 -0.1849
 8421SOL    HW136899   2.077   0.209   9.678  0.2906  0.4054 -1.0112
 8421SOL    HW236900   2.075   0.066   9.665 -0.5332  0.7382  0.5935
 8422SOL     OW36901   4.661   0.733   0.110  0.2159  1.1455 -0.1209
 8422SOL    HW136902   4.630   0.677   0.181  1.7883 -1.7019 -1.6495
 8422SOL    HW236903   4.606   0.692   0.043  0.3066 -0.6089  0.8913
 8423SOL     OW36904   0.235   4.577   3.231  0.1924  0.0111  0.3958
 8423SOL    HW136905   0.205   4.653   3.282 -0.8493 -0.4949  0.5188
 8423SOL    HW236906   0.182   4.586   3.152  1.6620 -2.2161 -0.8366
 8424SOL     OW36907   1.621   3.299   8.691 -0.1359 -0.3526 -0.0425
 8424SOL    HW136908   1.682   3.268   8.624  0.1766  1.0485 -0.3991
 8424SOL    HW236909   1.585   3.379   8.653 -1.0083 -0.8407 -0.2418
 8425SOL     OW36910   0.488   1.025   6.755 -0.1418 -0.0123  0.0395
 8425SOL    HW136911   0.541   1.101   6.780  0.3052  0.2333 -1.6901
 8425SOL    HW236912   0.410   1.032   6.810 -0.4366  1.3594 -0.5630
 8426SOL     OW36913   4.715   4.021  10.640  0.1081  0.1745  0.3835
 8426SOL    HW136914   0.054   4.063  10.603 -1.0688  3.3593  1.5715
 8426SOL    HW236915   4.689   4.081  10.710 -0.7784 -0.0195  0.2228
 8427SOL     OW36916   0.449   4.344   6.918 -0.2220 -0.0572  1.0429
 8427SOL    HW136917   0.416   4.282   6.853  0.0946 -0.3669  1.1735
 8427SOL    HW236918   0.368   4.364   6.965 -1.2717  0.3836 -0.9909
 8428SOL     OW36919   3.128   3.085   8.386  0.1429  0.0049 -0.3114
 8428SOL    HW136920   3.221   3.101   8.369  0.4002 -1.7973 -0.6601
 8428SOL    HW236921   3.129   2.989   8.385 -2.1818  0.0020 -0.6463
 8429SOL     OW36922   2.824   0.697  14.783  0.0046  0.7952  0.3428
 8429SOL    HW136923   2.799   0.787  14.804 -2.8675  0.0559  0.1185
 8429SOL    HW236924   2.861   0.707  14.696 -2.3863  1.8247 -0.5468
 8430SOL     OW36925   1.107   1.232   7.428  0.1521  0.3325  0.3679
 8430SOL    HW136926   1.132   1.266   7.514  2.3860  0.8279 -0.4674
 8430SOL    HW236927   1.193   1.233   7.385  0.5541  0.3495  1.1728
 8431SOL     OW36928   0.057   0.191   1.390  0.5028 -0.5767  0.1352
 8431SOL    HW136929   0.010   0.259   1.342 -0.4112 -0.7563  0.7741
 8431SOL    HW236930   4.723   0.138   1.422  1.0120 -1.2006  0.2604
 8432SOL     OW36931   2.051   1.910   8.026  0.3574 -0.1104 -0.4304
 8432SOL    HW136932   1.995   1.850   8.074  2.1690 -2.8689 -1.7688
 8432SOL    HW236933   2.117   1.854   7.984 -1.5986  0.6207 -4.4422
 8433SOL     OW36934   0.556   0.148  16.835 -0.6144  0.2737 -0.3802
 8433SOL    HW136935   0.528   0.094  16.761  1.5029 -1.8587  0.3523
 8433SOL    HW236936   0.523   0.096  16.908  0.4879  0.6549  0.3860
 8434SOL     OW36937   0.043   2.436  17.693  0.1333 -0.0589 -0.5304
 8434SOL    HW136938   0.108   2.480  17.638  2.2911 -1.2743  1.0677
 8434SOL    HW236939   4.718   2.398  17.634  0.2936 -2.1474  0.6454
 8435SOL     OW36940   0.491   3.139   3.516 -0.3669  0.4804 -0.0623
 8435SOL    HW136941   0.564   3.080   3.534 -0.9218  0.1536  1.1341
 8435SOL    HW236942   0.425   3.082   3.556  1.8232 -2.7350 -1.0333
 8436SOL     OW36943   3.244   3.291   6.745  0.1624  0.6298  0.0334
 8436SOL    HW136944   3.233   3.383   6.720  0.8934  0.7193  0.0482
 8436SOL    HW236945   3.158   3.264   6.712 -0.0836  1.3217  0.0942
 8437SOL     OW36946   2.533   3.746   7.885 -0.1619  0.2746  0.4682
 8437SOL    HW136947   2.608   3.806   7.884 -0.1547  0.2674  0.6457
 8437SOL    HW236948   2.478   3.799   7.827 -0.0974 -1.0950 -0.8389
 8438SOL     OW36949   0.192   1.158   1.772 -0.1767  0.2530 -0.0344
 8438SOL    HW136950   0.282   1.191   1.781 -0.2776  0.2465  0.9623
 8438SOL    HW236951   0.214   1.070   1.739  2.3901  0.8648 -0.0230
 8439SOL     OW36952   3.887   2.605  13.523 -0.2432  0.5850 -0.0194
 8439SOL    HW136953   3.795   2.590  13.545 -0.5737  0.9257 -1.1629
 8439SOL    HW236954   3.888   2.602  13.428  1.5740 -0.3369  0.0407
 8440SOL     OW36955   2.187   0.129   4.691  0.7245  0.2759 -0.5340
 8440SOL    HW136956   2.230   0.045   4.674 -0.8314 -0.4215 -0.9600
 8440SOL    HW236957   2.116   0.093   4.743  1.5949  0.7109  0.9896
 8441SOL     OW36958   3.146   3.422   0.951 -0.4218  0.0620 -0.1432
 8441SOL    HW136959   3.101   3.397   0.870  2.9116 -0.1139 -1.9748
 8441SOL    HW236960   3.077   3.479   0.985  1.3599  1.2121  1.5281
 8442SOL     OW36961   3.380   1.907   5.469  0.1947 -0.5011  0.0952
 8442SOL    HW136962   3.285   1.899   5.473  0.4210 -3.7514 -1.0333
 8442SOL    HW236963   3.419   1.847   5.533 -2.9032 -0.1117  2.3430
 8443SOL     OW36964   1.139   2.278   7.574 -0.2991 -0.2966  0.3248
 8443SOL    HW136965   1.201   2.265   7.502  0.4668 -1.8222  1.2452
 8443SOL    HW236966   1.195   2.278   7.652 -0.3664  2.0000  0.3738
 8444SOL     OW36967   2.151   4.124   1.577 -0.4316  0.2681 -0.1943
 8444SOL    HW136968   2.078   4.065   1.561  1.0676 -1.3207 -1.1736
 8444SOL    HW236969   2.165   4.108   1.671  0.7750  0.7951 -0.2869
 8445SOL     OW36970   3.240   1.138   9.042  0.1273 -0.0295 -0.3719
 8445SOL    HW136971   3.319   1.133   8.987 -1.4314 -2.7691 -2.3954
 8445SOL    HW236972   3.274   1.186   9.117  0.7290 -1.2034  0.1158
 8446SOL     OW36973   2.366   4.026   1.035 -0.3907  0.3153 -0.2567
 8446SOL    HW136974   2.395   3.945   0.992  0.6701  0.8566 -0.5609
 8446SOL    HW236975   2.315   3.983   1.104  0.8063 -0.3289  0.2458
 8447SOL     OW36976   4.254   3.650   3.237  0.1600  0.1910  0.0409
 8447SOL    HW136977   4.168   3.614   3.258  1.5719 -2.8934  0.4972
 8447SOL    HW236978   4.279   3.589   3.167  1.5512  1.8423 -0.9057
 8448SOL     OW36979   4.027   4.139   7.993  0.2971  0.6758  0.1713
 8448SOL    HW136980   4.094   4.147   8.060  2.3803 -0.2834 -1.7665
 8448SOL    HW236981   4.021   4.228   7.957 -0.4579  0.9527  0.9960
 8449SOL     OW36982   2.202   0.663   8.530  0.9515 -0.2171 -0.7441
 8449SOL    HW136983   2.126   0.668   8.472 -0.5065  2.1302  1.3524
 8449SOL    HW236984   2.219   0.569   8.525  3.3171  0.3151 -2.4624
 8450SOL     OW36985   4.609   3.433   3.572 -0.0626  0.3722  0.1861
 8450SOL    HW136986   4.619   3.364   3.506  0.2686 -0.1945  0.8314
 8450SOL    HW236987   4.557   3.492   3.517 -2.4933 -1.6580  0.2974
 8451SOL     OW36988   0.406   4.717   5.014 -0.4845  0.3214  0.2816
 8451SOL    HW136989   0.320   4.680   5.030 -0.0384 -0.8078  0.0471
 8451SOL    HW236990   0.451   4.692   5.095 -1.8944 -0.4959  0.8088
 8452SOL     OW36991   1.068   0.076  12.921 -0.2085 -0.8567 -0.2375
 8452SOL    HW136992   1.052   0.022  12.998 -1.1870 -0.4082 -0.1322
 8452SOL    HW236993   1.164   0.080  12.921 -0.1765 -1.5783  0.1222
 8453SOL     OW36994   2.360   1.069   1.239  0.3422 -0.0196  0.2081
 8453SOL    HW136995   2.364   1.058   1.144  1.2918 -0.1255  0.2569
 8453SOL    HW236996   2.427   1.004   1.260 -0.3647 -0.6493  0.5155
 8454SOL     OW36997   1.896   2.264  10.874  0.2983  0.1189  0.3982
 8454SOL    HW136998   1.836   2.238  10.945  0.4296 -0.6989  0.2144
 8454SOL    HW236999   1.865   2.353  10.860  0.2832 -0.2918 -2.2173
 8455SOL     OW37000   2.180   2.855   9.104  0.4561 -0.0163  0.2649
 8455SOL    HW137001   2.199   2.849   9.010  1.4847 -3.9054  0.7001
 8455SOL    HW237002   2.087   2.877   9.104  0.1225 -1.4389  1.5989
 8456SOL     OW37003   3.852   4.241   1.903  0.1993  0.3111  0.0026
 8456SOL    HW137004   3.914   4.263   1.834  0.3882  0.8823  0.3471
 8456SOL    HW237005   3.780   4.195   1.860  0.5448  0.3268 -0.5876
 8457SOL     OW37006   2.244   0.792  17.269  0.4282 -0.1022 -0.4593
 8457SOL    HW137007   2.283   0.717  17.313  0.9878  0.0738 -0.6561
 8457SOL    HW237008   2.310   0.798  17.200  1.1769 -0.0153  0.2708
 8458SOL     OW37009   3.573   2.272   3.399  0.4900 -0.2252  0.2585
 8458SOL    HW137010   3.570   2.178   3.383 -0.1437 -0.1458 -0.0826
 8458SOL    HW237011   3.612   2.304   3.318 -0.9058 -0.4911 -0.5207
 8459SOL     OW37012   0.320   2.803   8.229  0.3999  0.2439  0.5575
 8459SOL    HW137013   0.349   2.767   8.313  2.2969  1.7618  0.5657
 8459SOL    HW237014   0.225   2.799   8.236  0.2029  2.1673 -1.0939
 8460SOL     OW37015   1.817   2.157   4.286 -0.2592  0.0618  0.0170
 8460SOL    HW137016   1.780   2.111   4.361 -1.9567 -0.4102 -1.0952
 8460SOL    HW237017   1.744   2.205   4.247 -0.6313 -1.0951 -0.7336
 8461SOL     OW37018   3.055   2.340   0.794 -0.0405 -0.1004  0.5215
 8461SOL    HW137019   3.146   2.368   0.786  0.2393 -1.0055  0.5986
 8461SOL    HW237020   3.019   2.417   0.839  0.0993  1.0271 -1.3133
 8462SOL     OW37021   4.195   2.522   6.576  0.1582  0.2212 -0.6603
 8462SOL    HW137022   4.250   2.478   6.641  0.1352 -0.7093 -1.2689
 8462SOL    HW237023   4.253   2.511   6.500  0.4188 -0.6676 -0.3317
 8463SOL     OW37024   4.147   4.715   7.739  0.2417 -0.0666 -0.1521
 8463SOL    HW137025   4.174   4.660   7.813  0.3987 -1.7804 -1.4796
 8463SOL    HW237026   4.208   0.048   7.754  3.2008 -2.8794  1.4682
 8464SOL     OW37027   1.445   1.854   7.264 -0.0212  0.2195  0.1890
 8464SOL    HW137028   1.444   1.759   7.269 -0.7721  0.2846  1.3598
 8464SOL    HW237029   1.524   1.874   7.314  0.0176  3.7510 -1.2688
 8465SOL     OW37030   1.355   2.007  13.696  0.2578 -0.4970  0.1074
 8465SOL    HW137031   1.417   2.035  13.763  0.6039  1.3343 -0.9804
 8465SOL    HW237032   1.397   2.047  13.620  1.0197  1.0112  1.3272
 8466SOL     OW37033   3.704   2.378   3.173  0.5246  0.4717  1.0964
 8466SOL    HW137034   3.651   2.448   3.137 -2.2725 -3.0707 -1.6562
 8466SOL    HW237035   3.779   2.431   3.200  1.9454 -0.3409 -1.2272
 8467SOL     OW37036   1.167   3.087   7.740  0.1479  0.2501 -0.5544
 8467SOL    HW137037   1.200   3.000   7.764 -0.5092 -0.0905 -0.8833
 8467SOL    HW237038   1.180   3.128   7.825  2.0699  0.2098 -0.8229
 8468SOL     OW37039   0.434   2.819   4.333  0.2070 -0.4721 -0.1056
 8468SOL    HW137040   0.518   2.848   4.296 -0.2238  1.1484  0.1791
 8468SOL    HW237041   0.390   2.767   4.266  3.2334 -0.9244 -1.7345
 8469SOL     OW37042   4.173   0.180   0.749  0.2684 -0.2284  0.8864
 8469SOL    HW137043   4.264   0.163   0.772  0.3758 -0.8889 -0.0630
 8469SOL    HW237044   4.142   0.091   0.736  0.6807 -0.2628  0.1288
 8470SOL     OW37045   0.606   0.157   8.573 -0.3983 -0.0345 -0.0221
 8470SOL    HW137046   0.594   0.191   8.661  0.5339  0.7674 -0.2043
 8470SOL    HW237047   0.527   0.109   8.549 -0.8138  1.2039 -1.1041
 8471SOL     OW37048   2.747   4.385   6.128 -0.1809  0.1853  0.0910
 8471SOL    HW137049   2.831   4.429   6.142 -0.0392  0.0542 -0.3631
 8471SOL    HW237050   2.710   4.438   6.058  0.6368  0.7927  0.1237
 8472SOL     OW37051   2.153   2.672   8.638 -0.2524 -0.2522  0.5986
 8472SOL    HW137052   2.090   2.615   8.595  2.7232 -1.8731 -1.5963
 8472SOL    HW237053   2.175   2.736   8.570  0.3684  0.7491  1.7352
 8473SOL     OW37054   2.313   3.400   7.863 -0.0113 -0.5434 -0.1430
 8473SOL    HW137055   2.348   3.439   7.782  0.8144 -1.0360 -0.0210
 8473SOL    HW237056   2.353   3.314   7.872  0.2231 -0.6098 -1.8207
 8474SOL     OW37057   3.182   2.331   8.192  0.1503  0.5658 -0.7068
 8474SOL    HW137058   3.225   2.272   8.254 -2.2026  0.4639  0.8340
 8474SOL    HW237059   3.113   2.364   8.250  0.0089 -0.4735 -0.2863
 8475SOL     OW37060   3.495   1.546   8.503  0.0673  0.8746 -0.4398
 8475SOL    HW137061   3.468   1.458   8.528 -1.2185  1.0865 -1.0954
 8475SOL    HW237062   3.465   1.598   8.578  1.0625 -1.0438  1.2887
 8476SOL     OW37063   2.241   2.851   8.832 -0.3994 -0.6813  0.3195
 8476SOL    HW137064   2.324   2.848   8.783 -1.5823 -0.0491 -1.7429
 8476SOL    HW237065   2.182   2.800   8.776 -2.3919  1.3020  0.6718
 8477SOL     OW37066   0.645   2.293   4.542  0.1569 -0.2890  0.1878
 8477SOL    HW137067   0.627   2.314   4.450  0.8886 -0.1924  0.0645
 8477SOL    HW237068   0.740   2.304   4.547  0.0085  0.7080  0.6257
 8478SOL     OW37069   2.927   4.399   0.728  0.3336 -0.1272 -0.4894
 8478SOL    HW137070   2.994   4.405   0.797  0.4864 -2.0758 -0.4676
 8478SOL    HW237071   2.958   4.315   0.696 -0.3600 -0.7433  0.4687
 8479SOL     OW37072   0.938   1.370   8.726  0.3099  0.2755 -0.1096
 8479SOL    HW137073   0.964   1.459   8.750 -0.8680 -0.0413  2.4100
 8479SOL    HW237074   0.926   1.385   8.633  0.4190 -2.6363 -0.5945
 8480SOL     OW37075   3.005   3.125   9.596 -0.1238 -0.3356  0.9321
 8480SOL    HW137076   2.977   3.036   9.574 -1.5329  0.1866  0.5973
 8480SOL    HW237077   2.925   3.178   9.602  0.1203  0.1652 -0.3203
 8481SOL     OW37078   0.548   0.395   5.387  0.4064  0.0722 -0.3520
 8481SOL    HW137079   0.488   0.455   5.432  0.3025 -0.8966  0.8215
 8481SOL    HW237080   0.612   0.453   5.346 -0.1675  1.6096  0.9152
 8482SOL     OW37081   3.002   3.745   6.030  0.2620  0.5463  0.3542
 8482SOL    HW137082   2.939   3.795   6.083  1.3861  0.5072  1.7176
 8482SOL    HW237083   2.938   3.694   5.980  1.7665 -0.0446 -0.9713
 8483SOL     OW37084   4.647   4.066   1.728  0.4521  0.2214  1.0656
 8483SOL    HW137085   4.686   4.153   1.730  2.5049 -0.6721  0.0469
 8483SOL    HW237086   4.562   4.082   1.688  1.1411  1.8059  0.2649
 8484SOL     OW37087   3.287   3.134  13.978 -0.1374 -0.1457  0.4493
 8484SOL    HW137088   3.239   3.216  13.967  1.3142  0.5802 -0.4556
 8484SOL    HW237089   3.224   3.091  14.036  2.0535  0.8043  3.5580
 8485SOL     OW37090   4.601   0.080   7.486 -0.0009 -0.5053  1.1325
 8485SOL    HW137091   4.615   4.738   7.438 -0.0848  0.2233 -0.1334
 8485SOL    HW237092   4.685   0.123   7.472 -0.2206 -0.0849  1.0722
 8486SOL     OW37093   2.280   3.573   6.938 -0.3742 -0.0644  0.0167
 8486SOL    HW137094   2.194   3.614   6.942  0.0489  0.9268 -1.2058
 8486SOL    HW237095   2.324   3.614   6.864  0.8222 -1.5718 -0.1098
 8487SOL     OW37096   3.826   1.974   7.685 -0.2528 -0.3133  0.2131
 8487SOL    HW137097   3.832   1.911   7.613 -2.8454  1.1602 -1.2836
 8487SOL    HW237098   3.818   1.916   7.761 -0.7294  1.1359  1.2637
 8488SOL     OW37099   0.057   1.739   0.252  0.3200 -1.0929  0.0350
 8488SOL    HW137100   0.044   1.833   0.261 -0.1122 -1.1416 -0.0845
 8488SOL    HW237101   4.704   1.715   0.241  0.2124 -1.0932  0.9288
 8489SOL     OW37102   3.969   2.589   6.445  0.3884  0.1268  0.7934
 8489SOL    HW137103   3.958   2.501   6.409  0.0345  0.4541  0.0894
 8489SOL    HW237104   4.047   2.584   6.500  1.8709 -0.0221 -1.3344
 8490SOL     OW37105   0.427   2.008  17.652 -0.3271  0.2455  0.0906
 8490SOL    HW137106   0.438   2.102  17.668  0.5849  0.3676 -1.2148
 8490SOL    HW237107   0.512   2.001  17.607 -0.4195 -1.3391  0.1550
 8491SOL     OW37108   4.362   1.934   7.367 -0.0779  0.8886  0.3067
 8491SOL    HW137109   4.413   1.990   7.308  0.1955 -0.7792 -1.0409
 8491SOL    HW237110   4.276   1.967   7.342 -1.4285 -3.6462 -1.0984
 8492SOL     OW37111   1.106   2.137  11.925  0.4816  0.1497  0.2235
 8492SOL    HW137112   1.165   2.211  11.939 -0.1633  0.5216  0.9582
 8492SOL    HW237113   1.031   2.159  11.981 -0.3608  0.6762 -1.1043
 8493SOL     OW37114   2.104   0.550  12.854 -0.1135 -0.2325  0.9872
 8493SOL    HW137115   2.036   0.616  12.869  0.7671  0.8693  0.1475
 8493SOL    HW237116   2.164   0.614  12.813  0.4124 -2.1203 -1.1971
 8494SOL     OW37117   3.852   0.274   3.747 -0.1087  0.3782  0.2826
 8494SOL    HW137118   3.831   0.340   3.681 -0.1429  1.3514  1.2675
 8494SOL    HW237119   3.815   0.311   3.827  1.4618 -0.0311  1.2131
 8495SOL     OW37120   1.767   4.068   9.259 -0.3167  0.4491 -0.1467
 8495SOL    HW137121   1.855   4.052   9.225  0.6864 -1.5834  3.4397
 8495SOL    HW237122   1.730   4.098   9.176 -0.5629 -1.3883 -0.6923
 8496SOL     OW37123   4.455   4.613   9.901 -0.1404  0.1289  0.2592
 8496SOL    HW137124   4.372   4.573   9.926  0.4960  0.1993  2.4769
 8496SOL    HW237125   4.472   4.651   9.987  0.4489 -0.3374  0.3534
 8497SOL     OW37126   4.231   4.228   2.607  0.0029  0.5165 -0.7780
 8497SOL    HW137127   4.183   4.208   2.688  0.5573 -0.1672 -0.6234
 8497SOL    HW237128   4.281   4.306   2.633  0.5644  0.8860 -2.9204
 8498SOL     OW37129   1.080   1.462  11.057  0.0820  0.1373 -0.0282
 8498SOL    HW137130   1.126   1.461  11.141  1.2841 -0.4163 -0.7008
 8498SOL    HW237131   1.072   1.556  11.040 -0.3157 -0.0082 -0.6379
 8499SOL     OW37132   4.063   0.521   3.691  0.7771  0.0717 -0.0230
 8499SOL    HW137133   3.971   0.532   3.668  0.2338 -0.2713  2.0272
 8499SOL    HW237134   4.099   0.576   3.621  0.0297  1.3099  0.5730
 8500SOL     OW37135   1.371   0.222  16.644  0.3688 -0.0335 -0.0185
 8500SOL    HW137136   1.367   0.131  16.614 -3.6406  0.4028 -0.7539
 8500SOL    HW237137   1.465   0.226  16.660  0.2853  1.3200  0.0888
 8501SOL     OW37138   3.945   3.337  15.247  0.0470 -0.0705  0.4981
 8501SOL    HW137139   3.941   3.281  15.169  1.5789 -3.4344  2.8307
 8501SOL    HW237140   4.038   3.342  15.266  0.0430 -1.3120  0.8388
 8502SOL     OW37141   3.494   4.012   2.824 -0.0478 -0.2665  0.1237
 8502SOL    HW137142   3.432   3.947   2.858 -2.6068  1.6017 -1.0162
 8502SOL    HW237143   3.454   4.093   2.856 -0.7249 -0.1262 -1.0751
 8503SOL     OW37144   3.361   4.702   8.171 -0.6488 -0.8043 -0.2832
 8503SOL    HW137145   3.414   0.030   8.128  2.4138 -1.4018  2.5181
 8503SOL    HW237146   3.298   4.685   8.102 -2.5783 -0.3249  1.3658
 8504SOL     OW37147   4.355   0.442   2.604 -0.7485 -0.0311  0.5382
 8504SOL    HW137148   4.338   0.349   2.623 -4.3534  0.1293 -2.0262
 8504SOL    HW237149   4.448   0.438   2.580 -1.4927  0.0098 -2.3648
 8505SOL     OW37150   3.638   3.209   1.882 -0.6141 -0.5631  0.2440
 8505SOL    HW137151   3.570   3.144   1.900  0.6270 -1.5251  1.5616
 8505SOL    HW237152   3.624   3.229   1.790  1.9056  0.6739  0.1281
 8506SOL     OW37153   4.587   0.699  16.468 -0.1526 -0.5403  0.1752
 8506SOL    HW137154   4.608   0.694  16.562  0.4430 -1.2007  0.0070
 8506SOL    HW237155   4.568   0.609  16.444  0.5675 -0.5914 -0.2188
 8507SOL     OW37156   1.440   0.623  12.375  0.0814 -0.1144  0.5088
 8507SOL    HW137157   1.524   0.585  12.402  0.4636  1.0691  1.0004
 8507SOL    HW237158   1.394   0.544  12.347  1.4589 -0.9183  0.5303
 8508SOL     OW37159   3.084   1.967   6.570 -0.1383 -0.6030  0.0199
 8508SOL    HW137160   3.007   2.023   6.561  0.6375  0.4385 -0.1375
 8508SOL    HW237161   3.139   2.009   6.504  0.1300  1.0188  1.2827
 8509SOL     OW37162   1.191   3.885   8.985 -0.0983 -0.0776  0.4504
 8509SOL    HW137163   1.151   3.799   8.971  1.0321 -0.6650  0.7797
 8509SOL    HW237164   1.223   3.891   8.895 -2.8111 -0.9104 -0.5702
 8510SOL     OW37165   4.598   0.045   5.705 -0.4413  0.1213 -0.2032
 8510SOL    HW137166   4.652   4.725   5.653  0.5381  0.8705 -0.0549
 8510SOL    HW237167   4.556   0.088   5.630 -1.4967  0.4149  0.5609
 8511SOL     OW37168   0.846   1.859   6.354  0.1629  0.0338  0.3342
 8511SOL    HW137169   0.816   1.839   6.265 -2.4876  3.5259  0.4784
 8511SOL    HW237170   0.818   1.950   6.364 -0.2638 -0.1562  0.8899
 8512SOL     OW37171   2.651   1.759   6.898 -0.7924  0.2485 -0.1117
 8512SOL    HW137172   2.588   1.770   6.827 -1.8800  1.4903  1.0439
 8512SOL    HW237173   2.739   1.768   6.862 -0.5909 -1.4102 -0.0315
 8513SOL     OW37174   2.521   1.191   6.856 -0.1958  0.2347 -0.4229
 8513SOL    HW137175   2.431   1.212   6.834 -0.1091  1.4816  0.4480
 8513SOL    HW237176   2.541   1.116   6.800  0.7695  0.9610 -1.0641
 8514SOL     OW37177   3.781   0.921   3.056 -0.4160  0.7034 -0.0827
 8514SOL    HW137178   3.754   0.876   3.137 -1.0746 -1.2657 -1.4071
 8514SOL    HW237179   3.720   0.890   2.989  0.3966  1.7438 -1.2906
 8515SOL     OW37180   4.695   0.339   5.456 -0.0103 -0.1445 -0.7521
 8515SOL    HW137181   4.706   0.434   5.469 -0.1452 -0.2107 -0.1667
 8515SOL    HW237182   4.668   0.347   5.364 -1.3743  2.8263 -0.1207
 8516SOL     OW37183   4.002   2.685  11.284  0.0093  0.7611 -0.1557
 8516SOL    HW137184   3.925   2.709  11.336 -1.1586 -2.6893 -0.2450
 8516SOL    HW237185   4.068   2.683  11.353 -0.1590 -0.8546 -0.0324
 8517SOL     OW37186   1.399   1.770   0.476  0.1090  0.4138  0.0278
 8517SOL    HW137187   1.386   1.702   0.541  1.8119  0.9397  0.9243
 8517SOL    HW237188   1.492   1.764   0.451  0.5198  0.1134  1.6671
 8518SOL     OW37189   2.485   2.342  13.201  0.5763  0.4654  0.1882
 8518SOL    HW137190   2.393   2.325  13.216  0.8089 -0.3697  0.6304
 8518SOL    HW237191   2.521   2.352  13.289  0.0359 -0.0233  0.4586
 8519SOL     OW37192   1.036   0.867  11.328  0.4168  0.2254  0.0106
 8519SOL    HW137193   1.111   0.817  11.361  1.2039  1.1071 -0.4539
 8519SOL    HW237194   1.076   0.921  11.259  1.6789 -1.8612 -0.9146
 8520SOL     OW37195   3.801   0.861   3.586  0.0351 -0.7399 -0.5572
 8520SOL    HW137196   3.797   0.939   3.640 -0.6800 -2.7926  2.3456
 8520SOL    HW237197   3.819   0.797   3.655  0.8040 -0.6446 -0.6747
 8521SOL     OW37198   0.948   1.149   6.424  0.5856 -0.4543 -0.0286
 8521SOL    HW137199   0.965   1.213   6.354  0.5676  0.3314  0.6788
 8521SOL    HW237200   1.038   1.121   6.439  0.5262  0.6036  2.2771
 8522SOL     OW37201   4.335   0.513   4.253  0.1751  0.2290  1.1620
 8522SOL    HW137202   4.415   0.465   4.272  2.7155  3.7238 -0.9162
 8522SOL    HW237203   4.287   0.499   4.335  0.0247 -0.9999  0.8683
 8523SOL     OW37204   1.586   0.222   7.043 -0.3278 -0.3820  0.8161
 8523SOL    HW137205   1.540   0.161   7.101 -0.3497 -0.1876  1.0025
 8523SOL    HW237206   1.555   0.304   7.080  2.8726  0.8389  0.7873
 8524SOL     OW37207   2.550   0.101   6.419  0.0903 -0.0110  0.1182
 8524SOL    HW137208   2.609   0.029   6.397 -2.7521 -2.0810 -0.6246
 8524SOL    HW237209   2.618   0.151   6.466  0.6895  1.3170 -2.1588
 8525SOL     OW37210   3.470   0.940   8.836 -0.2146 -0.2217  0.0590
 8525SOL    HW137211   3.534   0.870   8.824 -2.0920 -1.8348 -0.5452
 8525SOL    HW237212   3.386   0.896   8.830 -2.3200  3.7177  0.2886
 8526SOL     OW37213   4.443   3.954   8.771  0.6110  0.1190 -0.2222
 8526SOL    HW137214   4.472   3.901   8.697 -0.7702 -2.7278  1.2851
 8526SOL    HW237215   4.474   3.902   8.845  0.6494  0.3751 -0.0572
 8527SOL     OW37216   0.388   2.498  14.777 -0.0637  0.1498 -0.0708
 8527SOL    HW137217   0.443   2.426  14.748  0.5194  0.4646  0.2650
 8527SOL    HW237218   0.301   2.480  14.741  0.1835  0.5574 -0.8510
 8528SOL     OW37219   0.132   2.350   0.343  0.0209 -0.2334 -0.0991
 8528SOL    HW137220   0.119   2.427   0.288 -0.0845 -0.2847 -0.1456
 8528SOL    HW237221   0.068   2.363   0.413 -1.1736 -0.0525 -1.2344
 8529SOL     OW37222   3.663   1.903   1.954 -0.1407  0.0970  0.1050
 8529SOL    HW137223   3.705   1.961   1.890  0.6551  0.1921  0.7155
 8529SOL    HW237224   3.588   1.872   1.902  0.0457 -0.7042  0.3158
 8530SOL     OW37225   4.477   2.039  12.151  0.4039  0.6928  0.3951
 8530SOL    HW137226   4.451   2.021  12.061  0.6844  0.6905  0.3144
 8530SOL    HW237227   4.547   2.102  12.137  1.5819 -0.7188 -0.0470
 8531SOL     OW37228   2.381   0.168   6.013  0.3131 -0.2125 -0.2617
 8531SOL    HW137229   2.463   0.119   6.006  1.5803  1.9156 -0.2297
 8531SOL    HW237230   2.378   0.197   5.922 -0.0030 -0.5213 -0.3517
 8532SOL     OW37231   2.455   1.027  17.379  0.5596  0.0294  0.3328
 8532SOL    HW137232   2.432   0.937  17.402 -1.2943  0.4984  0.2633
 8532SOL    HW237233   2.371   1.070  17.366  0.1891 -0.2496  1.8002
 8533SOL     OW37234   0.887   1.270   3.586 -0.0385 -0.5496 -0.2017
 8533SOL    HW137235   0.857   1.191   3.541  0.0111 -1.3886  1.2470
 8533SOL    HW237236   0.809   1.325   3.577 -1.9947 -3.5334 -1.3749
 8534SOL     OW37237   1.332   0.075   5.824 -0.1634  0.1111  0.0985
 8534SOL    HW137238   1.404   0.058   5.764 -0.6282  0.2654 -0.5063
 8534SOL    HW237239   1.372   0.137   5.886  0.4009  0.1379 -0.3041
 8535SOL     OW37240   0.431   3.862   8.004 -0.1951 -0.4865 -0.5622
 8535SOL    HW137241   0.390   3.902   8.081 -1.8251 -1.5617 -0.8857
 8535SOL    HW237242   0.499   3.923   7.974 -1.9225  2.1811  0.9607
 8536SOL     OW37243   3.611   3.835   2.631  0.0621  0.6007  0.7135
 8536SOL    HW137244   3.696   3.830   2.674  0.3544 -1.9293 -0.1452
 8536SOL    HW237245   3.581   3.915   2.675 -0.9617  0.0026  1.1110
 8537SOL     OW37246   4.689   0.640   5.222 -0.7319  0.0453 -0.1597
 8537SOL    HW137247   4.679   0.632   5.317 -1.4215  0.3617 -0.1991
 8537SOL    HW237248   4.711   0.733   5.223  0.5120 -0.2810  1.3934
 8538SOL     OW37249   4.722   0.002   9.750  0.2634 -1.0200  0.7241
 8538SOL    HW137250   0.009   4.650   9.766 -1.2366 -0.9829  3.5894
 8538SOL    HW237251   4.643   0.000   9.805 -1.1049  1.6135 -1.1994
 8539SOL     OW37252   0.098   3.249   2.629  0.1337 -0.1669  0.3776
 8539SOL    HW137253   0.151   3.291   2.562  1.6549 -1.3601  0.8383
 8539SOL    HW237254   0.081   3.165   2.586 -0.9247  1.0392 -1.5442
 8540SOL     OW37255   1.175   3.829   9.896  0.1013 -0.0902 -0.3996
 8540SOL    HW137256   1.265   3.807   9.922  0.2921  0.0856 -0.9023
 8540SOL    HW237257   1.160   3.903   9.954  0.2525 -0.5150  0.1771
 8541SOL     OW37258   4.275   2.594   7.227 -0.4699  0.1118 -0.0442
 8541SOL    HW137259   4.271   2.548   7.143 -0.3194  0.5646 -0.2963
 8541SOL    HW237260   4.323   2.673   7.204 -2.2626  1.3956  0.6856
 8542SOL     OW37261   4.404   4.167   6.306 -0.0851 -0.3713  0.1412
 8542SOL    HW137262   4.475   4.231   6.303 -1.1675  0.8335  0.5130
 8542SOL    HW237263   4.436   4.105   6.371  1.3070 -0.1352 -0.3094
 8543SOL     OW37264   0.010   1.001   4.614  0.1953 -0.1645 -0.4052
 8543SOL    HW137265   0.088   1.045   4.648  0.9682 -1.0615 -1.0285
 8543SOL    HW237266   4.692   1.043   4.678  0.0279 -0.1874 -0.5404
 8544SOL     OW37267   2.929   2.625   8.802  0.0316  0.4829  0.1193
 8544SOL    HW137268   2.877   2.628   8.883 -1.8204 -0.2340 -1.0363
 8544SOL    HW237269   2.919   2.716   8.774 -0.9306 -0.4346 -2.4918
 8545SOL     OW37270   1.047   4.725   3.895 -0.7660  0.3801 -0.4968
 8545SOL    HW137271   1.059   0.080   3.909 -1.0243  0.3640 -0.1761
 8545SOL    HW237272   1.077   4.730   3.804 -1.5992 -0.3745 -0.8121
 8546SOL     OW37273   3.869   0.195  17.542  0.6080 -0.5639 -0.0329
 8546SOL    HW137274   3.804   0.172  17.476  1.5802 -1.8669 -0.5347
 8546SOL    HW237275   3.819   0.181  17.622  1.5645 -1.1575  0.4687
 8547SOL     OW37276   0.075   1.147   0.725  0.0013 -0.1841 -0.4182
 8547SOL    HW137277   0.146   1.212   0.733 -0.9341  0.8839 -0.7805
 8547SOL    HW237278   0.028   1.170   0.645 -1.1112  2.5283  1.0291
 8548SOL     OW37279   3.799   2.129   1.855 -1.0669  0.2646  0.3037
 8548SOL    HW137280   3.795   2.150   1.948  0.8217 -0.8635  0.6516
 8548SOL    HW237281   3.771   2.217   1.828  1.3340  0.1969 -2.3991
 8549SOL     OW37282   0.011   2.194  17.289  0.3962  0.0357  0.3892
 8549SOL    HW137283   4.698   2.120  17.259  1.4823 -0.8054  0.5898
 8549SOL    HW237284   0.041   2.228  17.205 -0.0402  2.2645  1.1249
 8550SOL     OW37285   3.692   1.025  14.981 -0.2834  0.7805  0.3703
 8550SOL    HW137286   3.762   1.091  14.990  0.0376  0.4919 -0.0033
 8550SOL    HW237287   3.706   0.989  14.893  0.6872  0.5240  0.6280
 8551SOL     OW37288   0.505   3.725   3.772 -0.2141 -0.5632 -0.4806
 8551SOL    HW137289   0.517   3.639   3.732 -0.8655  0.0484 -1.9929
 8551SOL    HW237290   0.470   3.777   3.700  1.4446  0.8351 -0.2827
 8552SOL     OW37291   3.871   1.081   6.931  0.5395 -0.2752 -0.5349
 8552SOL    HW137292   3.921   1.117   7.004 -0.2655 -1.6326  0.6741
 8552SOL    HW237293   3.781   1.086   6.964  0.8867 -1.5652  0.6177
 8553SOL     OW37294   4.394   3.290  12.885 -0.5309  0.5199  0.3112
 8553SOL    HW137295   4.476   3.252  12.917 -0.5583  2.1447  2.3311
 8553SOL    HW237296   4.369   3.343  12.960  2.0158  0.6375  1.0718
 8554SOL     OW37297   1.314   4.121   3.522  0.3085 -0.3170 -0.2855
 8554SOL    HW137298   1.353   4.053   3.468  2.7388  1.0803 -0.3050
 8554SOL    HW237299   1.383   4.182   3.550 -0.8916  0.1043  1.7751
 8555SOL     OW37300   2.314   1.008   4.359  0.0608  0.8299 -0.1958
 8555SOL    HW137301   2.286   0.926   4.402 -2.3291  1.9984  0.4736
 8555SOL    HW237302   2.368   1.048   4.427 -0.0167  1.3891 -0.4635
 8556SOL     OW37303   3.326   3.844   6.719 -0.2591  0.9081  0.0670
 8556SOL    HW137304   3.400   3.894   6.686 -0.8224  1.2268 -0.7154
 8556SOL    HW237305   3.261   3.913   6.732 -0.8704  0.2510  0.5274
 8557SOL     OW37306   1.260   3.160   8.944  0.1723  0.4518  0.1862
 8557SOL    HW137307   1.349   3.189   8.960  0.2251  1.3625 -1.6738
 8557SOL    HW237308   1.251   3.093   9.011 -0.1839 -1.8477 -2.1490
 8558SOL     OW37309   1.868   1.533   2.608 -0.7694  0.0106 -0.5145
 8558SOL    HW137310   1.888   1.574   2.692  1.4802  0.0438 -1.0674
 8558SOL    HW237311   1.775   1.555   2.601 -0.6635  0.2646 -1.1406
 8559SOL     OW37312   0.799   0.215   1.828 -0.2957 -0.3020 -0.0401
 8559SOL    HW137313   0.739   0.160   1.777 -0.5125 -2.3897  2.4243
 8559SOL    HW237314   0.758   0.302   1.828 -1.5057 -0.8431 -3.8680
 8560SOL     OW37315   4.546   2.768   1.344 -0.3739 -0.1123 -0.3540
 8560SOL    HW137316   4.578   2.690   1.390 -0.2978  0.1104 -0.0303
 8560SOL    HW237317   4.460   2.748   1.307 -0.2631  1.0368 -1.2566
 8561SOL     OW37318   3.806   3.872   9.255  0.1262 -0.2487 -0.1250
 8561SOL    HW137319   3.781   3.786   9.287  0.4481 -0.7415 -1.2048
 8561SOL    HW237320   3.862   3.898   9.329 -0.0657 -0.3446  0.0542
 8562SOL     OW37321   4.255   1.416   5.014  0.0026 -0.1905  0.0039
 8562SOL    HW137322   4.306   1.488   4.978  0.7470  0.4005  2.2385
 8562SOL    HW237323   4.304   1.341   4.980  0.3135  0.2352 -0.4832
 8563SOL     OW37324   3.193   2.200   2.900  0.1938  0.0316  0.0397
 8563SOL    HW137325   3.111   2.220   2.855  0.8504 -3.0170 -2.4942
 8563SOL    HW237326   3.193   2.104   2.897  1.6992 -0.0027  0.9596
 8564SOL     OW37327   1.822   1.390   4.193 -0.4184 -0.5296  0.0045
 8564SOL    HW137328   1.772   1.468   4.216 -2.0741 -1.9881  1.3191
 8564SOL    HW237329   1.855   1.416   4.106  0.6387  2.5015  1.2932
 8565SOL     OW37330   4.659   0.907  10.789 -0.4807  0.1580 -0.0560
 8565SOL    HW137331   4.568   0.876  10.790 -0.6339  0.6451  1.1425
 8565SOL    HW237332   4.653   0.984  10.846  2.4386 -0.7136  1.3756
 8566SOL     OW37333   4.245   2.749  17.219  0.3115 -0.2948 -0.0939
 8566SOL    HW137334   4.174   2.795  17.174 -1.7002 -1.8462  1.4573
 8566SOL    HW237335   4.218   2.745  17.311 -0.7770  2.6287 -0.2700
 8567SOL     OW37336   0.096   4.325   3.354  0.0967 -0.2936  0.1263
 8567SOL    HW137337   0.055   4.399   3.399  0.3026 -0.1306  0.0511
 8567SOL    HW237338   0.140   4.363   3.278  0.3021 -0.2492  0.2645
 8568SOL     OW37339   1.128   0.247   3.899 -0.2451  0.1833 -0.0593
 8568SOL    HW137340   1.201   0.276   3.953  0.1790  1.5731 -1.3739
 8568SOL    HW237341   1.144   0.290   3.815  2.7138 -3.4626 -1.3078
 8569SOL     OW37342   4.193   4.315   4.380 -1.2008 -0.0449 -0.1318
 8569SOL    HW137343   4.190   4.396   4.329  1.5901  0.6257  0.7655
 8569SOL    HW237344   4.153   4.248   4.325  0.9685 -0.7317 -0.8388
 8570SOL     OW37345   2.371   1.958  15.189  0.4972 -0.0173 -0.4931
 8570SOL    HW137346   2.296   1.944  15.132 -2.3417  0.5498  3.0598
 8570SOL    HW237347   2.324   1.980  15.270  0.5759 -1.4740 -0.0601
 8571SOL     OW37348   3.967   3.232   4.669 -0.1997  0.6827  0.9086
 8571SOL    HW137349   4.004   3.173   4.735 -1.4082  0.9304  1.8186
 8571SOL    HW237350   3.991   3.190   4.586 -0.6687  0.3358  0.9440
 8572SOL     OW37351   0.489   3.455   2.789 -0.5649 -0.3228  0.8372
 8572SOL    HW137352   0.453   3.445   2.700 -0.8499 -2.0005  1.1264
 8572SOL    HW237353   0.407   3.470   2.836 -0.2479 -1.4467  1.7645
 8573SOL     OW37354   4.409   3.535   8.596  0.0434 -0.3808  0.0445
 8573SOL    HW137355   4.354   3.465   8.561 -1.7670  0.6346  0.8962
 8573SOL    HW237356   4.384   3.535   8.689  0.5880 -1.1655  0.1933
 8574SOL     OW37357   3.292   0.847   9.375 -0.0085  0.4196  0.1724
 8574SOL    HW137358   3.246   0.762   9.368 -1.4194  1.4723 -3.5861
 8574SOL    HW237359   3.364   0.838   9.313 -0.0284 -1.9857  0.4884
 8575SOL     OW37360   3.579   1.498   4.065 -0.5228 -0.1778 -0.0239
 8575SOL    HW137361   3.569   1.452   4.148 -0.3505  0.4204  0.3335
 8575SOL    HW237362   3.632   1.432   4.022  0.7983  1.3417 -0.7483
 8576SOL     OW37363   1.480   2.647   7.826 -0.1817  0.1291 -0.2355
 8576SOL    HW137364   1.467   2.583   7.897 -0.3284  2.0152  1.4294
 8576SOL    HW237365   1.419   2.613   7.761 -0.0488  1.8026 -1.2134
 8577SOL     OW37366   3.054   3.956   5.827  0.3444 -0.3975  0.2314
 8577SOL    HW137367   3.002   3.980   5.904 -0.0946  2.2391 -0.8980
 8577SOL    HW237368   3.095   3.877   5.862  0.0065 -0.2988  0.8449
 8578SOL     OW37369   1.838   2.224   6.834 -0.3472  0.4363 -0.4315
 8578SOL    HW137370   1.780   2.164   6.788  2.0683 -1.9029 -0.4105
 8578SOL    HW237371   1.901   2.236   6.762  1.7589  1.1827  1.5260
 8579SOL     OW37372   4.531   1.239   9.249  0.1124  0.2761 -0.6244
 8579SOL    HW137373   4.511   1.285   9.330 -1.6525 -1.3107 -0.1484
 8579SOL    HW237374   4.607   1.284   9.212  0.4259 -0.2864 -0.6675
 8580SOL     OW37375   4.332   3.563   8.860 -0.0766  0.2166 -0.1533
 8580SOL    HW137376   4.361   3.642   8.906 -1.2339  1.2068 -1.1314
 8580SOL    HW237377   4.338   3.499   8.931 -1.1813 -1.5014 -1.6181
 8581SOL     OW37378   2.048   2.276   6.673 -0.0974  0.1646  0.3534
 8581SOL    HW137379   2.063   2.192   6.630 -1.8121  0.1568 -0.2285
 8581SOL    HW237380   2.131   2.323   6.664  0.1321 -0.3600 -0.2866
 8582SOL     OW37381   0.251   3.781  13.834  0.7497  0.1731 -0.3668
 8582SOL    HW137382   0.300   3.783  13.916 -1.0214 -3.2643  0.7895
 8582SOL    HW237383   0.280   3.693  13.809 -1.5886 -0.2067 -1.8063
 8583SOL     OW37384   0.168   3.145  15.027  0.6491  0.2895  0.0449
 8583SOL    HW137385   0.102   3.080  15.052 -0.1464  1.6732  1.5717
 8583SOL    HW237386   0.176   3.194  15.109  2.1499 -0.7789  0.5417
 8584SOL     OW37387   0.428   4.424   3.071 -0.4224  0.5924 -0.4049
 8584SOL    HW137388   0.390   4.512   3.071  0.1826  0.8577  0.4547
 8584SOL    HW237389   0.350   4.371   3.055  0.1363 -0.6738  0.9665
 8585SOL     OW37390   1.919   1.084   7.573  0.0557  0.1933 -0.1853
 8585SOL    HW137391   1.915   1.167   7.620 -2.2997  0.9233 -1.6919
 8585SOL    HW237392   1.857   1.036   7.628  0.3086  1.7693  1.4774
 8586SOL     OW37393   3.437   0.743   7.657  0.1827 -0.3585 -0.4397
 8586SOL    HW137394   3.530   0.737   7.679  0.1926  1.6525  0.0319
 8586SOL    HW237395   3.449   0.758   7.563  0.5637  2.0874 -0.0020
 8587SOL     OW37396   0.078   4.466  13.028  0.3111 -0.2583 -0.3977
 8587SOL    HW137397   0.170   4.475  13.054  0.1268  1.0808 -0.2272
 8587SOL    HW237398   0.060   4.554  12.996 -1.0079 -0.0380  0.9743
 8588SOL     OW37399   1.034   1.689   5.938  0.6120  0.0082 -0.0744
 8588SOL    HW137400   1.066   1.756   5.878 -0.5399 -1.6180 -2.4831
 8588SOL    HW237401   1.109   1.666   5.994  0.4668 -3.9476 -1.5252
 8589SOL     OW37402   3.945   4.717   3.703  0.7752 -0.2018  0.3601
 8589SOL    HW137403   3.850   4.715   3.712  0.6058  3.4131 -0.8145
 8589SOL    HW237404   3.967   0.069   3.719  0.5424 -0.1589  0.4438
 8590SOL     OW37405   2.273   0.539  17.363 -0.3650 -0.1671  0.0367
 8590SOL    HW137406   2.337   0.473  17.339  1.4591  2.0625 -1.2586
 8590SOL    HW237407   2.254   0.510  17.452 -2.0500 -1.9151 -0.8870
 8591SOL     OW37408   2.304   4.722  16.268  0.3600  0.2687 -0.6363
 8591SOL    HW137409   2.377   4.661  16.258 -0.5278 -0.6651 -1.4865
 8591SOL    HW237410   2.243   4.681  16.330  0.2125  1.0634 -0.2564
 8592SOL     OW37411   3.992   0.455  17.466 -0.4324  0.0433  0.0057
 8592SOL    HW137412   3.961   0.368  17.491  0.8908 -0.2374  0.6633
 8592SOL    HW237413   3.923   0.509  17.503  0.5167  0.3466  1.3174
 8593SOL     OW37414   0.877   4.248   9.210 -0.1371  0.1287 -0.3263
 8593SOL    HW137415   0.941   4.249   9.281  0.0555 -2.3005 -0.4332
 8593SOL    HW237416   0.884   4.159   9.174  0.1354 -0.3623  0.9487
 8594SOL     OW37417   2.778   4.088   7.120 -0.7872 -0.1111  0.3927
 8594SOL    HW137418   2.747   4.140   7.046  0.6393  0.3913  0.1545
 8594SOL    HW237419   2.863   4.063   7.085 -2.1043 -0.3112 -2.7018
 8595SOL     OW37420   3.141   1.543   1.794 -0.4354  0.3549 -0.2920
 8595SOL    HW137421   3.101   1.602   1.858  2.3445 -0.4233  2.1968
 8595SOL    HW237422   3.206   1.497   1.848 -3.2218 -2.6804  0.4528
 8596SOL     OW37423   3.834   2.081   6.889 -0.0035 -0.4348 -0.1471
 8596SOL    HW137424   3.799   2.169   6.899 -2.3310 -1.4886  1.0587
 8596SOL    HW237425   3.795   2.032   6.961  0.4391 -0.9986 -0.2856
 8597SOL     OW37426   2.067   1.141   4.613  0.0158  0.3467  0.1445
 8597SOL    HW137427   2.063   1.048   4.635 -0.3930  0.0207 -1.2769
 8597SOL    HW237428   2.076   1.131   4.518  0.1688 -2.7015  0.4847
 8598SOL     OW37429   1.245   3.977   9.397 -0.0964  0.4287 -0.1749
 8598SOL    HW137430   1.340   3.985   9.385  0.0120 -1.0205 -0.2297
 8598SOL    HW237431   1.239   3.888   9.431 -1.9126  0.9622  0.9584
 8599SOL     OW37432   0.361   3.269  15.702  0.5119 -0.3710 -0.8761
 8599SOL    HW137433   0.270   3.288  15.727  0.3181  0.1838 -2.0051
 8599SOL    HW237434   0.406   3.351  15.719  1.9972 -1.7750  2.0817
 8600SOL     OW37435   1.743   1.578  12.964  0.1295 -0.3307 -0.1114
 8600SOL    HW137436   1.787   1.569  13.048 -2.3075  2.1622  1.4328
 8600SOL    HW237437   1.732   1.484  12.949  1.9400 -0.5956  0.2720
 8601SOL     OW37438   0.381   3.306  13.458 -0.3068 -0.6923 -0.2824
 8601SOL    HW137439   0.405   3.398  13.466  0.5077 -0.8899 -0.4934
 8601SOL    HW237440   0.298   3.311  13.506  1.7509 -0.3338  3.2242
 8602SOL     OW37441   4.308   4.430  16.575 -0.1404  0.0646  0.4938
 8602SOL    HW137442   4.309   4.507  16.631  1.3876 -0.5189  1.2624
 8602SOL    HW237443   4.214   4.418  16.562  0.1318  0.1950 -1.5626
 8603SOL     OW37444   2.612   2.276   3.820  0.0817 -0.0943 -0.0432
 8603SOL    HW137445   2.680   2.209   3.810 -0.1354 -0.2949 -0.1939
 8603SOL    HW237446   2.632   2.337   3.749 -1.0907  0.8870  0.4754
 8604SOL     OW37447   2.122   0.165   1.620 -0.1915  0.0803 -0.0978
 8604SOL    HW137448   2.047   0.199   1.667 -0.3886 -0.6199  0.0969
 8604SOL    HW237449   2.117   0.071   1.639 -0.6531  0.6514  2.5862
 8605SOL     OW37450   4.528   0.967   4.809 -0.3623  0.1842  0.8237
 8605SOL    HW137451   4.464   0.916   4.760 -0.0995 -0.5488  1.2536
 8605SOL    HW237452   4.582   0.901   4.853 -0.0972 -0.1568 -0.0143
 8606SOL     OW37453   0.938   3.426  15.181  0.7722 -0.1106 -0.6223
 8606SOL    HW137454   0.996   3.366  15.229  1.0966 -0.0178 -0.8943
 8606SOL    HW237455   0.952   3.403  15.089 -1.1463  0.1492 -0.9747
 8607SOL     OW37456   0.198   3.532   1.343 -0.3567  0.1677 -0.0450
 8607SOL    HW137457   0.171   3.614   1.303 -0.1935  0.0437 -0.4154
 8607SOL    HW237458   0.133   3.525   1.412 -0.7516 -0.2791 -0.4581
 8608SOL     OW37459   3.375   0.414   5.129 -0.3118  0.1672  0.0212
 8608SOL    HW137460   3.382   0.327   5.167  0.5504  0.3905  0.3759
 8608SOL    HW237461   3.282   0.437   5.132 -0.8556 -1.7846 -1.8321
 8609SOL     OW37462   0.485   2.407   8.213  0.2378 -0.3439  0.3586
 8609SOL    HW137463   0.548   2.396   8.142 -1.8724 -3.0487 -1.1204
 8609SOL    HW237464   0.531   2.471   8.267  1.8661 -1.7638  0.6358
 8610SOL     OW37465   2.696   4.540   5.907 -0.8190 -0.1837 -0.4026
 8610SOL    HW137466   2.769   4.498   5.863 -1.5934 -1.9096 -0.0675
 8610SOL    HW237467   2.623   4.539   5.844 -1.0472  1.9348 -0.1708
 8611SOL     OW37468   4.639   1.808   1.390 -0.1186  0.5142  0.2346
 8611SOL    HW137469   4.642   1.835   1.482 -2.3565  0.4448  0.3169
 8611SOL    HW237470   4.672   1.886   1.345  0.1812  0.7973  0.9372
 8612SOL     OW37471   0.165   2.072   3.410 -0.0105  0.2685  0.3436
 8612SOL    HW137472   0.180   2.077   3.315 -1.1306 -4.3297 -0.1002
 8612SOL    HW237473   0.256   2.061   3.439 -0.2547 -3.5006 -0.2311
 8613SOL     OW37474   0.287   2.178   8.547 -0.2819  0.0582  0.5943
 8613SOL    HW137475   0.335   2.104   8.585  1.3465  0.4132 -0.7660
 8613SOL    HW237476   0.195   2.153   8.560 -0.3578 -0.3265 -0.6820
 8614SOL     OW37477   3.728   3.287   8.177  0.1689 -0.4053 -0.1122
 8614SOL    HW137478   3.680   3.368   8.193  1.4537  0.3927 -0.2798
 8614SOL    HW237479   3.764   3.321   8.095 -0.7320  0.1605 -0.2677
 8615SOL     OW37480   2.654   0.050   5.990  0.0663 -0.1226 -0.0810
 8615SOL    HW137481   2.686   4.706   5.956 -1.7128 -0.1451 -1.6979
 8615SOL    HW237482   2.708   0.054   6.069 -0.0154  1.4587 -0.0941
 8616SOL     OW37483   1.289   4.135   4.240  0.3216  0.3252 -0.5076
 8616SOL    HW137484   1.215   4.184   4.205 -0.5134 -0.8924 -0.4765
 8616SOL    HW237485   1.275   4.050   4.197  0.1583  0.2098 -0.2306
 8617SOL     OW37486   3.001   3.308   3.691  0.1155  0.4887  0.3987
 8617SOL    HW137487   2.928   3.267   3.739 -0.9450  0.7240 -1.0127
 8617SOL    HW237488   2.975   3.304   3.599  0.6122 -1.6595  0.3452
 8618SOL     OW37489   1.256   1.465   4.339  0.5013  0.6375 -0.5404
 8618SOL    HW137490   1.191   1.526   4.375 -0.4706 -0.4137 -0.5310
 8618SOL    HW237491   1.263   1.397   4.406  1.3137  0.1920 -1.0739
 8619SOL     OW37492   1.795   2.541  11.102 -0.2590 -0.0550  0.2101
 8619SOL    HW137493   1.725   2.476  11.097 -2.5916  2.4589  0.2605
 8619SOL    HW237494   1.824   2.534  11.192  1.0980  0.2674 -0.1959
 8620SOL     OW37495   0.921   3.260   3.894  0.4389 -0.1443 -0.4754
 8620SOL    HW137496   0.943   3.284   3.984  0.6278 -0.2194 -0.5016
 8620SOL    HW237497   0.974   3.328   3.852  0.7461  0.5163  1.0168
 8621SOL     OW37498   0.110   2.577  14.384 -0.8007  0.0985  0.0713
 8621SOL    HW137499   0.048   2.612  14.321  1.1128  1.2037 -1.1895
 8621SOL    HW237500   0.059   2.579  14.465 -1.1023 -0.1043 -0.1137
 8622SOL     OW37501   3.059   1.773   8.188  0.3864 -0.2114  0.1560
 8622SOL    HW137502   3.081   1.728   8.106  1.0145 -0.9642  0.7374
 8622SOL    HW237503   3.072   1.707   8.256 -0.8909 -0.3244  0.2951
 8623SOL     OW37504   0.137   1.847   3.972  0.6549 -0.9697  0.4324
 8623SOL    HW137505   0.071   1.840   4.041  0.8154  0.2833  0.7169
 8623SOL    HW237506   0.092   1.806   3.899  0.7929 -1.6190  0.7138
 8624SOL     OW37507   2.691   0.569   7.016  0.1387 -0.1068  0.0823
 8624SOL    HW137508   2.767   0.551   6.960  0.3340  0.8497  0.0270
 8624SOL    HW237509   2.710   0.660   7.041  0.4037 -0.5587  1.5087
 8625SOL     OW37510   0.670   0.794   4.809 -0.2524 -0.3984  0.3530
 8625SOL    HW137511   0.647   0.793   4.902 -3.8322 -1.4389 -0.5470
 8625SOL    HW237512   0.587   0.816   4.767 -0.0463  0.0441  0.1693
 8626SOL     OW37513   4.552   4.693   7.752  0.0571  0.6772 -0.2706
 8626SOL    HW137514   4.568   0.012   7.678  2.3241 -0.1277 -0.4457
 8626SOL    HW237515   4.526   4.613   7.706  0.8612 -0.2671  0.9261
 8627SOL     OW37516   1.831   0.663   6.847 -0.2850  0.4209 -0.5304
 8627SOL    HW137517   1.878   0.613   6.781  1.6377  0.6534  0.6428
 8627SOL    HW237518   1.759   0.701   6.797  0.1324  0.8456 -0.8189
 8628SOL     OW37519   3.467   1.188   4.566  0.3126  0.1901  0.0734
 8628SOL    HW137520   3.503   1.140   4.641 -0.9445 -1.2846 -0.2725
 8628SOL    HW237521   3.487   1.274   4.604 -2.0924  1.1705 -0.8489
 8629SOL     OW37522   4.182   2.267  15.834 -0.8183 -0.5528  0.6789
 8629SOL    HW137523   4.256   2.214  15.805  0.9943  1.2687  1.9892
 8629SOL    HW237524   4.218   2.292  15.919  0.0088  0.2749  0.0845
 8630SOL     OW37525   1.701   1.798   3.763  0.3132 -0.3399  0.3552
 8630SOL    HW137526   1.681   1.736   3.833 -0.4687  0.3003  0.7078
 8630SOL    HW237527   1.644   1.875   3.772  0.7866  0.1295 -0.6489
 8631SOL     OW37528   1.412   0.916   4.848 -0.2294 -0.1891  0.2617
 8631SOL    HW137529   1.471   0.912   4.773 -0.5050  0.6866 -0.0082
 8631SOL    HW237530   1.334   0.872   4.813  0.0842 -0.8963  0.4531
 8632SOL     OW37531   1.296   3.007   6.211 -0.5846  0.3807 -0.4776
 8632SOL    HW137532   1.247   3.033   6.289 -0.5342 -0.5139 -0.1423
 8632SOL    HW237533   1.352   3.082   6.194  0.8114 -0.4114  0.6128
 8633SOL     OW37534   4.474   1.546   1.875 -0.3315 -0.2979 -0.4622
 8633SOL    HW137535   4.505   1.466   1.918  0.9937 -1.1740 -3.0710
 8633SOL    HW237536   4.512   1.541   1.787  2.1805 -1.3729  0.6972
 8634SOL     OW37537   0.175   3.768  14.412  0.0445 -0.2040  0.1113
 8634SOL    HW137538   0.215   3.839  14.462 -0.9664  0.7323 -0.3948
 8634SOL    HW237539   0.087   3.774  14.450 -0.1679 -0.3686 -0.3634
 8635SOL     OW37540   1.778   1.909   9.537  0.2436 -0.3085 -0.2986
 8635SOL    HW137541   1.763   1.832   9.481  0.1394 -0.1810 -0.4437
 8635SOL    HW237542   1.738   1.981   9.489  0.2996 -0.6790 -0.8954
 8636SOL     OW37543   2.081   4.453   4.141 -0.0886 -0.0698 -0.3889
 8636SOL    HW137544   2.011   4.435   4.203  1.0918  0.5469  1.1399
 8636SOL    HW237545   2.150   4.443   4.207  1.0237  1.8628 -1.2600
 8637SOL     OW37546   1.106   0.133  14.761 -0.3150  0.1071 -0.1150
 8637SOL    HW137547   1.018   0.122  14.723 -0.1842  2.3225 -1.0967
 8637SOL    HW237548   1.098   0.109  14.853 -1.4299 -0.2270 -0.2875
 8638SOL     OW37549   3.929   3.235   5.714 -0.2044  0.2178  0.3361
 8638SOL    HW137550   4.016   3.265   5.741 -0.8007  0.1156  2.4200
 8638SOL    HW237551   3.892   3.322   5.705  1.0229  0.7578  0.4413
 8639SOL     OW37552   0.186   2.688   1.831  0.2207  0.5267 -0.0755
 8639SOL    HW137553   0.099   2.718   1.805  0.1262  1.9589  1.9125
 8639SOL    HW237554   0.243   2.762   1.808 -2.0629  2.3805  0.1965
 8640SOL     OW37555   4.162   2.981  16.743 -0.0945 -0.0622  0.6428
 8640SOL    HW137556   4.078   2.997  16.699 -0.2958 -1.4607  0.5126
 8640SOL    HW237557   4.144   3.048  16.808 -2.4586  0.4289 -0.5110
 8641SOL     OW37558   2.770   0.613   0.990  0.2390 -0.0746 -0.5651
 8641SOL    HW137559   2.851   0.651   1.024 -0.7064 -1.8806  3.8261
 8641SOL    HW237560   2.728   0.573   1.067  0.8834 -1.3179 -0.8568
 8642SOL     OW37561   3.925   4.003   2.044 -0.1045  0.7190 -0.1586
 8642SOL    HW137562   3.830   3.998   2.041  0.0798 -1.8609 -1.8337
 8642SOL    HW237563   3.934   4.073   1.979  0.1736  0.8210 -0.0111
 8643SOL     OW37564   0.404   0.030   8.989  0.0874  0.1932  0.4966
 8643SOL    HW137565   0.450   0.100   8.942 -2.2724  1.5119  0.1700
 8643SOL    HW237566   0.381   0.078   9.069  0.1940  1.6244 -0.3293
 8644SOL     OW37567   3.434   1.509   9.902 -0.2476 -0.2989  0.9653
 8644SOL    HW137568   3.514   1.494   9.951 -1.1703  0.5520  2.7223
 8644SOL    HW237569   3.371   1.557   9.955  0.3483 -0.5357  1.8765
 8645SOL     OW37570   4.673   1.903  10.531 -0.0092  0.0663  0.5474
 8645SOL    HW137571   4.693   1.811  10.516 -0.2831  0.1098 -0.0791
 8645SOL    HW237572   4.703   1.910  10.622 -2.4531  1.9903  1.2184
 8646SOL     OW37573   0.748   0.355   5.151  0.4700 -0.0053  0.2747
 8646SOL    HW137574   0.728   0.428   5.092  1.9909  0.5844  0.4950
 8646SOL    HW237575   0.842   0.365   5.166  0.2427  3.0712 -0.4021
 8647SOL     OW37576   2.234   2.765   6.203  0.0746 -0.1800  0.0173
 8647SOL    HW137577   2.233   2.707   6.127 -1.2493  1.3185 -1.1300
 8647SOL    HW237578   2.145   2.799   6.212  0.2878  0.1897  0.7353
 8648SOL     OW37579   0.662   0.296   2.556  0.0138  0.2318  0.2551
 8648SOL    HW137580   0.757   0.297   2.567 -0.1614 -1.6958  1.9080
 8648SOL    HW237581   0.659   0.357   2.483  0.8952 -1.5464 -1.2827
 8649SOL     OW37582   4.429   4.485   6.335 -0.3551 -0.8687  0.4197
 8649SOL    HW137583   4.478   4.403   6.326 -1.0422 -1.1419 -0.8376
 8649SOL    HW237584   4.464   4.532   6.259  1.1622 -2.5807  0.0688
 8650SOL     OW37585   2.897   0.675  10.829 -0.0336  0.1407  0.5155
 8650SOL    HW137586   2.938   0.726  10.898 -1.1212  0.8014  0.6764
 8650SOL    HW237587   2.956   0.694  10.756  3.2073 -0.8596  2.8840
 8651SOL     OW37588   2.184   3.013  13.843 -0.0383 -0.3769  0.3439
 8651SOL    HW137589   2.206   2.923  13.819  1.7734  0.1370  0.0485
 8651SOL    HW237590   2.251   3.064  13.797  1.8157 -2.3963  0.8391
 8652SOL     OW37591   2.017   0.577   7.021  0.4119 -0.5230 -0.1326
 8652SOL    HW137592   1.952   0.592   6.952 -0.7650  0.4976  1.2188
 8652SOL    HW237593   2.000   0.484   7.035  0.5988 -0.0547  3.0577
 8653SOL     OW37594   3.409   2.973   6.259  0.0922  0.6264 -0.6880
 8653SOL    HW137595   3.451   2.890   6.238 -0.7709  0.0203 -0.0424
 8653SOL    HW237596   3.463   3.008   6.329  0.2217  0.8864 -0.9182
 8654SOL     OW37597   4.678   1.229  13.747 -0.4021 -0.1048  0.2329
 8654SOL    HW137598   4.722   1.147  13.772  1.5564  0.4102 -1.4940
 8654SOL    HW237599   4.671   1.271  13.832  2.1144  0.0389  0.3616
 8655SOL     OW37600   1.786   1.801  10.052 -0.5151 -0.1738 -0.2705
 8655SOL    HW137601   1.742   1.886  10.052 -0.2885 -0.0534  0.9531
 8655SOL    HW237602   1.749   1.760  10.130  1.0131 -2.6617 -0.8680
 8656SOL     OW37603   2.479   1.997   8.216 -0.9708  0.2239  0.0940
 8656SOL    HW137604   2.451   1.966   8.130 -0.0072 -3.8518  1.2495
 8656SOL    HW237605   2.395   2.025   8.251 -1.5169 -0.7048 -0.5076
 8657SOL     OW37606   0.605   0.677   7.273 -0.5760  0.2866 -0.5329
 8657SOL    HW137607   0.597   0.733   7.350  0.9173 -1.3073  0.7670
 8657SOL    HW237608   0.665   0.724   7.214  0.0382 -1.1882 -1.0806
 8658SOL     OW37609   1.204   3.351   8.774 -0.0924  0.3708 -0.7454
 8658SOL    HW137610   1.241   3.270   8.810  0.1715  0.8449  0.0429
 8658SOL    HW237611   1.215   3.416   8.842 -0.6399  1.9010 -2.1273
 8659SOL     OW37612   2.405   0.719   4.120 -0.4705 -0.2481  0.4235
 8659SOL    HW137613   2.455   0.653   4.167  0.4265  0.6934  0.7690
 8659SOL    HW237614   2.369   0.762   4.197  0.9804 -0.6032  1.2916
 8660SOL     OW37615   0.658   0.024   6.900  0.2819 -0.5865  0.0121
 8660SOL    HW137616   0.622   0.104   6.938 -0.4420 -1.5420  1.3255
 8660SOL    HW237617   0.605   4.704   6.953 -1.1595  1.6297  1.0500
 8661SOL     OW37618   3.175   3.766  14.219 -0.0157  0.4494  0.2580
 8661SOL    HW137619   3.196   3.828  14.290  1.5892  1.2395 -0.9006
 8661SOL    HW237620   3.155   3.687  14.269  0.0298 -0.3570 -1.0166
 8662SOL     OW37621   4.145   0.886   5.792 -0.7121 -0.0064 -0.2632
 8662SOL    HW137622   4.203   0.963   5.790  0.5665 -0.9343  0.8372
 8662SOL    HW237623   4.064   0.908   5.837  0.3515  0.6135  1.3420
 8663SOL     OW37624   2.816   2.918   2.715  0.2944  0.2709  0.2209
 8663SOL    HW137625   2.886   2.984   2.715  0.2670  0.3015 -0.6603
 8663SOL    HW237626   2.860   2.854   2.770 -2.2772  1.2372  3.3823
 8664SOL     OW37627   2.409   0.454  10.021 -0.7171  0.2803 -0.2565
 8664SOL    HW137628   2.489   0.451  10.074 -1.4862 -2.3652  0.7172
 8664SOL    HW237629   2.334   0.469  10.078  1.9473  0.1102  3.2497
 8665SOL     OW37630   2.142   3.543   3.313 -0.4222  0.4025 -0.4106
 8665SOL    HW137631   2.161   3.549   3.406 -1.8745  1.7768 -0.1999
 8665SOL    HW237632   2.058   3.497   3.308 -0.9656  1.1117  2.5929
 8666SOL     OW37633   2.509   0.293   2.617 -0.3050  0.3004 -0.0263
 8666SOL    HW137634   2.557   0.334   2.688  0.0455  1.7899 -1.1283
 8666SOL    HW237635   2.482   0.211   2.659  3.2715  0.1048  1.8086
 8667SOL     OW37636   0.380   1.437  12.943 -0.0007  0.4343 -0.3555
 8667SOL    HW137637   0.377   1.347  12.976 -0.1944  0.4959 -0.2072
 8667SOL    HW237638   0.362   1.429  12.850 -1.4287 -2.7515  0.2035
 8668SOL     OW37639   0.047   1.056  17.023  0.0527 -0.0899 -0.2262
 8668SOL    HW137640   0.066   1.027  17.112 -2.9209 -2.0515 -0.2467
 8668SOL    HW237641   0.021   0.974  16.980 -3.4293  1.6362 -1.3854
 8669SOL     OW37642   4.377   3.727   7.121  0.2433  0.3418 -0.4124
 8669SOL    HW137643   4.470   3.722   7.140  0.4625  0.3690 -1.4513
 8669SOL    HW237644   4.369   3.817   7.153 -0.2587  0.6623 -1.4259
 8670SOL     OW37645   0.820   0.872   5.418 -0.0482  0.3149 -0.4114
 8670SOL    HW137646   0.913   0.868   5.442 -0.2075  0.4700  0.2384
 8670SOL    HW237647   0.814   0.908   5.330 -0.5809 -0.0573 -0.5301
 8671SOL     OW37648   1.801   0.577  17.265 -0.0436  0.7636  0.1790
 8671SOL    HW137649   1.807   0.672  17.281  0.3049  0.9449 -0.9941
 8671SOL    HW237650   1.883   0.561  17.218  0.1619  2.3812 -0.0092
 8672SOL     OW37651   4.572   3.357  16.283 -0.2791  0.4905 -0.0674
 8672SOL    HW137652   4.598   3.290  16.347 -1.2149  0.2398  0.0542
 8672SOL    HW237653   4.485   3.330  16.253 -0.5541 -0.5970  1.7131
 8673SOL     OW37654   3.568   3.477   6.098 -0.0702  0.0845 -0.0356
 8673SOL    HW137655   3.600   3.525   6.174 -1.3812  1.3224 -0.2551
 8673SOL    HW237656   3.497   3.538   6.076  0.8278  1.9365  2.1417
 8674SOL     OW37657   1.285   2.921   1.762 -0.3507  0.2961 -0.6877
 8674SOL    HW137658   1.214   2.918   1.697 -3.1278  2.0797  2.2698
 8674SOL    HW237659   1.337   2.988   1.718  1.4554  1.4588  3.2962
 8675SOL     OW37660   2.783   3.195   9.330  0.1229  0.3556 -0.9645
 8675SOL    HW137661   2.779   3.107   9.295  0.8003 -0.5551  1.2259
 8675SOL    HW237662   2.825   3.239   9.257 -0.4250 -0.1758 -1.5954
 8676SOL     OW37663   3.356   3.077  16.900 -1.1159  0.5329  0.4185
 8676SOL    HW137664   3.447   3.085  16.929 -0.6160  0.6368 -1.2096
 8676SOL    HW237665   3.313   3.109  16.980 -0.4504  0.0352  0.9838
 8677SOL     OW37666   4.559   4.174   8.658  0.5038 -0.0228  0.3958
 8677SOL    HW137667   4.491   4.223   8.611 -0.9502 -1.7275  0.7404
 8677SOL    HW237668   4.508   4.168   8.739  0.0170  0.1717  0.1006
 8678SOL     OW37669   2.334   2.168   7.587  0.4237  0.0024  0.1157
 8678SOL    HW137670   2.266   2.189   7.651 -0.4373  0.0594 -0.8253
 8678SOL    HW237671   2.408   2.186   7.645  2.4594 -1.0247 -2.1862
 8679SOL     OW37672   0.941   0.296  12.986  0.1679  0.3025 -0.0122
 8679SOL    HW137673   1.005   0.233  12.954  0.7465  0.7318  0.3079
 8679SOL    HW237674   0.864   0.268  12.937 -0.5338  1.4716  0.4082
 8680SOL     OW37675   0.001   4.365   4.332 -0.0786  0.0111 -0.0743
 8680SOL    HW137676   4.688   4.302   4.283  0.5531  2.2823 -3.6303
 8680SOL    HW237677   4.709   4.453   4.311 -1.6615 -0.9530 -1.6778
 8681SOL     OW37678   0.731   0.732   3.298 -0.0951 -0.1480 -0.7570
 8681SOL    HW137679   0.688   0.651   3.324 -0.5733  0.8890  1.6262
 8681SOL    HW237680   0.662   0.793   3.323  0.8163  1.4198 -2.0215
 8682SOL     OW37681   1.138   3.569   0.501  0.0184 -0.3150 -0.2712
 8682SOL    HW137682   1.096   3.632   0.443 -3.0031 -2.4070 -0.4093
 8682SOL    HW237683   1.165   3.516   0.426  1.2441  0.9735 -0.7421
 8683SOL     OW37684   4.262   4.127  14.513 -0.4231 -0.6658 -0.4396
 8683SOL    HW137685   4.182   4.138  14.564  1.3762  2.0916  1.8034
 8683SOL    HW237686   4.258   4.205  14.458  0.1400 -2.9706 -3.7435
 8684SOL     OW37687   0.312   3.054   6.372  0.7450 -0.2861  0.6290
 8684SOL    HW137688   0.327   3.006   6.454 -2.2023  0.2228  1.4873
 8684SOL    HW237689   0.224   3.087   6.389  0.3061 -0.9668 -0.3171
 8685SOL     OW37690   4.036   3.779   5.237  0.1611 -0.4563  0.7336
 8685SOL    HW137691   4.037   3.774   5.141  1.0998 -1.6729  0.8059
 8685SOL    HW237692   4.113   3.832   5.257  0.7131 -1.2176  0.6096
 8686SOL     OW37693   2.392   2.608   9.370  0.4916  0.6921 -0.4861
 8686SOL    HW137694   2.465   2.624   9.431  0.4131 -3.1435  0.6098
 8686SOL    HW237695   2.316   2.649   9.410  1.1868  1.9340 -0.4187
 8687SOL     OW37696   0.082   2.470   3.758  0.2569 -0.4048 -0.3846
 8687SOL    HW137697   0.003   2.523   3.752 -0.6839 -1.4583  2.4217
 8687SOL    HW237698   0.077   2.406   3.687 -1.5543 -2.0455  1.1827
 8688SOL     OW37699   3.420   4.482   2.870  0.0512  0.2901 -0.0384
 8688SOL    HW137700   3.332   4.487   2.906 -0.1495 -0.0905 -0.4807
 8688SOL    HW237701   3.396   4.512   2.783 -0.8907 -2.0680 -0.5773
 8689SOL     OW37702   0.995   1.229   5.765 -0.0849  0.5981 -0.0081
 8689SOL    HW137703   1.021   1.232   5.673 -0.0787 -1.8569 -0.0989
 8689SOL    HW237704   0.920   1.289   5.766 -0.8692 -0.4537  3.0319
 8690SOL     OW37705   3.771   4.500   0.537 -0.1455  0.4303  0.1904
 8690SOL    HW137706   3.758   4.523   0.445  0.5780 -2.6390 -0.6821
 8690SOL    HW237707   3.761   4.586   0.577 -2.9357  0.4181 -0.4858
 8691SOL     OW37708   1.244   1.507   5.274  0.0306  0.6756 -0.0021
 8691SOL    HW137709   1.192   1.516   5.195  1.7738  3.4808 -0.8570
 8691SOL    HW237710   1.186   1.533   5.346 -0.3453  0.9377 -0.4018
 8692SOL     OW37711   2.675   2.106  11.382  0.1114  0.3831  0.2712
 8692SOL    HW137712   2.622   2.031  11.357 -0.9828  1.5521 -0.8589
 8692SOL    HW237713   2.627   2.148  11.454 -1.1534  0.5775 -0.6939
 8693SOL     OW37714   0.539   4.216   2.530  0.2473 -0.5749 -0.4569
 8693SOL    HW137715   0.609   4.235   2.592 -0.8123  2.4863 -0.1834
 8693SOL    HW237716   0.588   4.222   2.448  1.8695  0.3040  0.5690
 8694SOL     OW37717   0.333   3.678  10.893  0.3728 -0.0789  0.5572
 8694SOL    HW137718   0.263   3.657  10.830  0.2749 -3.2705  1.7439
 8694SOL    HW237719   0.302   3.643  10.976 -0.3428  0.8063  0.6544
 8695SOL     OW37720   0.298   1.548   8.122 -0.0474 -0.2080  0.1936
 8695SOL    HW137721   0.350   1.550   8.202 -0.2143  2.3654  0.2289
 8695SOL    HW237722   0.331   1.618   8.066 -1.9235  0.9125  0.4877
 8696SOL     OW37723   1.515   1.904   7.982 -0.1699  0.3950  0.5290
 8696SOL    HW137724   1.574   1.965   8.026  0.0985  1.9686 -2.0104
 8696SOL    HW237725   1.533   1.935   7.893 -1.4216  0.4989  0.3038
 8697SOL     OW37726   1.514   3.116   9.571  0.6888 -0.2347  0.4564
 8697SOL    HW137727   1.597   3.153   9.541 -0.2419  0.8399 -0.7848
 8697SOL    HW237728   1.455   3.188   9.591  0.1211 -0.2824 -1.0281
 8698SOL     OW37729   3.254   0.395   1.837 -0.0997 -0.2480 -0.4638
 8698SOL    HW137730   3.253   0.489   1.857  0.1224 -0.2400 -0.4897
 8698SOL    HW237731   3.313   0.402   1.761  0.3606 -0.0483 -0.0921
 8699SOL     OW37732   2.042   2.993   9.357 -0.4286 -0.8255 -0.3205
 8699SOL    HW137733   2.055   3.084   9.332 -0.9557  0.1286  2.9912
 8699SOL    HW237734   2.022   2.964   9.268  0.9153 -2.4293 -0.1156
 8700SOL     OW37735   3.564   0.210   6.956 -0.3603 -0.0960  0.0007
 8700SOL    HW137736   3.550   0.289   7.007  0.0581  0.0428 -0.0978
 8700SOL    HW237737   3.498   0.155   6.999 -1.1881 -0.2287 -1.4353
 8701SOL     OW37738   0.936   4.007   8.041  0.3717  0.2967 -0.2387
 8701SOL    HW137739   0.973   4.008   8.130  0.3233 -0.1579 -0.2168
 8701SOL    HW237740   0.972   4.083   7.996  0.1682  1.2045  1.1284
 8702SOL     OW37741   1.483   3.192  11.472 -0.0909  0.0863 -0.5627
 8702SOL    HW137742   1.565   3.162  11.512 -0.9002  1.3359  2.0246
 8702SOL    HW237743   1.422   3.183  11.545 -0.9314 -0.6299 -1.3493
 8703SOL     OW37744   0.473   1.541  15.817  0.0132  0.2562  0.2899
 8703SOL    HW137745   0.511   1.603  15.754  1.5858 -1.0728 -0.0730
 8703SOL    HW237746   0.464   1.580  15.904  2.1826 -1.0492  1.1308
 8704SOL     OW37747   4.508   2.434   5.618  0.1629 -0.0143 -0.1891
 8704SOL    HW137748   4.577   2.437   5.684 -1.6196 -0.9455  1.7417
 8704SOL    HW237749   4.463   2.517   5.635  0.4367  0.0033  0.4335
 8705SOL     OW37750   3.342   1.422   1.972  0.0571 -0.2147 -0.1107
 8705SOL    HW137751   3.418   1.449   1.921  1.1940  2.6158  3.0590
 8705SOL    HW237752   3.377   1.348   2.022  2.1929  0.3375 -0.8038
 8706SOL     OW37753   0.199   0.111  12.075  0.2146  0.0390 -0.3928
 8706SOL    HW137754   0.170   0.099  11.985 -2.2059 -0.4014  0.4523
 8706SOL    HW237755   0.115   0.140  12.111  1.3238  1.6160  0.9378
 8707SOL     OW37756   3.404   0.414   7.064  0.2621  0.1766 -0.8861
 8707SOL    HW137757   3.369   0.450   7.146  2.3752 -0.0732  0.1277
 8707SOL    HW237758   3.462   0.486   7.037  0.5194 -0.0823 -1.0203
 8708SOL     OW37759   2.836   3.134   8.665 -0.5851  0.3883  0.1248
 8708SOL    HW137760   2.807   3.221   8.690  1.0490  0.7443  0.7820
 8708SOL    HW237761   2.920   3.149   8.621 -1.4553  0.9955 -1.3247
 8709SOL     OW37762   3.878   1.187   5.118  0.0194 -0.7563  0.6746
 8709SOL    HW137763   3.876   1.181   5.022  2.4570  0.2386  0.5671
 8709SOL    HW237764   3.971   1.172   5.131 -0.2250 -2.2927  0.6444
 8710SOL     OW37765   0.063   2.182   6.361 -0.0373 -0.6626  0.5774
 8710SOL    HW137766   0.067   2.233   6.279  1.2710 -1.4442  0.1604
 8710SOL    HW237767   0.031   2.107   6.311  0.0210 -1.5872  1.9400
 8711SOL     OW37768   3.209   0.123   3.557  0.3459  0.0292  0.3716
 8711SOL    HW137769   3.142   0.057   3.574  1.6190 -1.2971  0.2642
 8711SOL    HW237770   3.228   0.150   3.646  2.3467 -2.3023  0.6551
 8712SOL     OW37771   0.414   1.700   9.240 -0.2785 -0.0336 -0.1881
 8712SOL    HW137772   0.464   1.760   9.184 -0.0922 -0.7453 -0.7817
 8712SOL    HW237773   0.488   1.670   9.293 -1.1071  1.4510  1.7987
 8713SOL     OW37774   1.124   2.429   4.270  0.2981  0.5287 -1.0520
 8713SOL    HW137775   1.203   2.482   4.268  0.8101 -0.0811  3.0905
 8713SOL    HW237776   1.170   2.347   4.286 -1.4300 -0.6694 -2.3129
 8714SOL     OW37777   0.478   0.041  11.780  0.3765  0.3858 -0.0236
 8714SOL    HW137778   0.555   0.096  11.773  1.2197 -1.1011 -2.1629
 8714SOL    HW237779   0.463   0.036  11.686 -1.6058  1.1126  0.2487
 8715SOL     OW37780   2.486   0.231   3.722  0.0446 -0.3010  0.3586
 8715SOL    HW137781   2.574   0.216   3.688 -2.0255 -1.9202 -4.3847
 8715SOL    HW237782   2.488   0.151   3.775  1.7583 -0.1132  0.5722
 8716SOL     OW37783   4.426   4.117   6.698  0.3809  0.1213 -0.4517
 8716SOL    HW137784   4.372   4.181   6.744 -1.6365  0.3889 -3.2140
 8716SOL    HW237785   4.425   4.048   6.765 -1.0393  1.4744  0.9319
 8717SOL     OW37786   3.221   1.593   9.063  0.0297  0.1529  0.1464
 8717SOL    HW137787   3.177   1.508   9.065 -0.2475  0.3192  0.9730
 8717SOL    HW237788   3.308   1.558   9.044  0.1655  0.9475 -0.6687
 8718SOL     OW37789   3.910   3.201   2.935  0.5851  0.0859 -0.2444
 8718SOL    HW137790   3.956   3.122   2.908  1.6209  1.2373 -1.8100
 8718SOL    HW237791   3.978   3.265   2.913 -0.1652  1.5145  1.5040
 8719SOL     OW37792   2.810   2.088  11.082 -0.2407 -0.3099 -0.1023
 8719SOL    HW137793   2.744   2.085  11.012  1.4284  0.7500 -1.6977
 8719SOL    HW237794   2.790   2.174  11.119 -2.2086 -0.7850 -0.0156
 8720SOL     OW37795   0.596   3.429   4.040  0.2862  0.1988  0.2890
 8720SOL    HW137796   0.518   3.486   4.043  1.4894  1.8616 -0.0569
 8720SOL    HW237797   0.654   3.491   3.996  0.1396  0.0873 -0.0629
 8721SOL     OW37798   2.202   4.373  11.139  0.4422  0.6125 -0.9514
 8721SOL    HW137799   2.265   4.386  11.068 -1.8510  0.2235 -3.0068
 8721SOL    HW237800   2.269   4.354  11.206 -0.1508 -0.7606 -0.7535
 8722SOL     OW37801   0.409   0.741   8.727  0.1465  0.6594  0.3591
 8722SOL    HW137802   0.359   0.767   8.805 -2.1628 -2.6594 -0.0263
 8722SOL    HW237803   0.343   0.717   8.663  0.7392 -1.6968  0.6521
 8723SOL     OW37804   4.657   0.795  10.356  0.3898 -0.0201 -0.6971
 8723SOL    HW137805   4.717   0.775  10.428  0.7087 -0.2418 -1.0234
 8723SOL    HW237806   4.708   0.863  10.313  0.4548  0.0217 -0.5540
 8724SOL     OW37807   1.755   4.602   6.112 -0.5833 -0.5779 -0.1487
 8724SOL    HW137808   1.711   4.664   6.053 -3.1487 -1.0390  1.2758
 8724SOL    HW237809   1.762   4.521   6.062 -0.0255  0.8244 -2.3540
 8725SOL     OW37810   0.021   2.215   9.402 -0.6354 -0.6042  0.4059
 8725SOL    HW137811   4.698   2.256   9.341  1.3742  0.0080 -1.2157
 8725SOL    HW237812   0.077   2.289   9.425 -1.3097  0.6342 -1.9105
 8726SOL     OW37813   3.712   1.721  13.849  0.4262  0.4105  0.6414
 8726SOL    HW137814   3.739   1.774  13.774  1.2274 -0.5004  0.2877
 8726SOL    HW237815   3.678   1.642  13.805  0.7550 -0.3922  1.8376
 8727SOL     OW37816   2.861   2.616   0.020 -0.3432 -0.0929 -0.4413
 8727SOL    HW137817   2.771   2.585   0.015 -0.2622 -0.4710  0.4755
 8727SOL    HW237818   2.897   2.592  17.689 -1.7454  1.6663 -1.5479
 8728SOL     OW37819   3.387   2.674   7.845 -0.3049  0.3353  0.2287
 8728SOL    HW137820   3.295   2.653   7.827 -0.0611  1.3362 -2.1341
 8728SOL    HW237821   3.406   2.674   7.939  1.8716  1.6409 -0.2183
 8729SOL     OW37822   3.146   0.613   9.334  0.0897 -0.4857 -0.2008
 8729SOL    HW137823   3.175   0.537   9.285 -1.3161 -3.3478  3.3673
 8729SOL    HW237824   3.081   0.654   9.277 -0.4633  1.3458  1.7043
 8730SOL     OW37825   2.336   0.564   5.384  0.7807 -0.3264 -0.2310
 8730SOL    HW137826   2.256   0.569   5.331 -0.9261 -0.7271  2.3026
 8730SOL    HW237827   2.408   0.576   5.322 -1.5114 -1.9989 -3.2436
 8731SOL     OW37828   1.139   2.921   3.575 -0.4911  0.3893 -0.1511
 8731SOL    HW137829   1.232   2.932   3.557 -0.4486  0.1770 -0.0661
 8731SOL    HW237830   1.111   3.012   3.581  0.7610  0.8045 -0.5668
 8732SOL     OW37831   3.178   2.085   4.825 -0.3379 -0.1793  0.1608
 8732SOL    HW137832   3.157   2.178   4.816  1.2018  0.4996  3.7666
 8732SOL    HW237833   3.212   2.090   4.914 -1.1959  1.5401  0.3944
 8733SOL     OW37834   2.002   1.011   9.327 -0.2406 -0.0727  0.2407
 8733SOL    HW137835   2.071   0.989   9.390  1.9847 -0.5565 -2.3881
 8733SOL    HW237836   2.004   1.106   9.313 -1.6848 -0.3820 -2.0530
 8734SOL     OW37837   1.675   2.837   3.181 -0.3512 -0.2931 -0.9376
 8734SOL    HW137838   1.595   2.829   3.128 -0.9286 -0.2606 -0.0593
 8734SOL    HW237839   1.744   2.776   3.155  0.2601 -0.9133  2.2494
 8735SOL     OW37840   2.056   3.097  10.011  0.1585  0.1437  0.1595
 8735SOL    HW137841   2.096   3.038  10.075 -0.1336 -0.5687 -0.3162
 8735SOL    HW237842   1.973   3.112  10.057 -0.1986  0.9190 -0.7302
 8736SOL     OW37843   1.096   1.323   9.502  0.0799  0.1034  0.2818
 8736SOL    HW137844   1.036   1.275   9.560 -1.4810  0.5869 -0.9449
 8736SOL    HW237845   1.180   1.314   9.547  0.7800 -2.0934 -1.5174
 8737SOL     OW37846   3.491   0.842   3.012 -0.5295  0.6386  0.0423
 8737SOL    HW137847   3.434   0.788   3.067 -0.6482  0.7046 -0.0171
 8737SOL    HW237848   3.557   0.777   2.986 -2.5925 -0.6958 -1.8199
 8738SOL     OW37849   3.745   3.059   7.514  0.1155  0.0467 -0.5301
 8738SOL    HW137850   3.805   3.092   7.447 -0.2131  0.4037 -0.6470
 8738SOL    HW237851   3.721   2.973   7.482  0.6970 -0.8303  1.3720
 8739SOL     OW37852   3.750   4.181   5.755  0.3467 -0.1323 -0.7668
 8739SOL    HW137853   3.744   4.130   5.675  2.5242  0.6238 -1.4029
 8739SOL    HW237854   3.767   4.270   5.722 -0.6652  1.2450  2.4151
 8740SOL     OW37855   0.507   2.699   7.531 -1.0270 -0.2240  0.6073
 8740SOL    HW137856   0.450   2.768   7.566  1.2606  1.6716  0.5684
 8740SOL    HW237857   0.584   2.755   7.519 -1.9492  0.9313  0.0217
 8741SOL     OW37858   1.811   2.136   9.954 -0.0410 -0.7090 -0.5541
 8741SOL    HW137859   1.740   2.112  10.014 -0.0840  0.1080 -0.2788
 8741SOL    HW237860   1.826   2.229   9.971  0.6924 -0.8067 -0.6944
 8742SOL     OW37861   4.246   1.599   5.977 -0.3299 -0.4421  0.1634
 8742SOL    HW137862   4.169   1.655   5.987 -0.6137 -0.8215  0.1037
 8742SOL    HW237863   4.210   1.511   5.970  3.1672 -1.8326 -0.8554
 8743SOL     OW37864   1.052   3.653   9.033  0.1881 -0.3294 -0.1278
 8743SOL    HW137865   0.968   3.642   8.989 -0.2466  1.1058  0.3216
 8743SOL    HW237866   1.025   3.666   9.124 -1.3175  1.2867 -0.7894
 8744SOL     OW37867   3.632   1.460   3.467  0.2029  0.1522 -0.3299
 8744SOL    HW137868   3.708   1.404   3.483  0.9430  0.7733 -1.5768
 8744SOL    HW237869   3.578   1.393   3.426 -1.4132  0.7874  0.7954
 8745SOL     OW37870   1.993   1.296   2.508 -0.3036 -0.0650 -0.6357
 8745SOL    HW137871   1.979   1.380   2.552  1.2026 -1.8974  3.2814
 8745SOL    HW237872   1.927   1.245   2.555 -0.3356  0.6514  0.1027
 8746SOL     OW37873   2.923   0.908   0.442  0.3139  0.2063  0.1714
 8746SOL    HW137874   2.910   0.996   0.478 -0.2419 -0.4896  1.6680
 8746SOL    HW237875   2.865   0.863   0.503 -0.5855  1.0649 -0.0333
 8747SOL     OW37876   2.053   3.227   7.612 -0.0176  0.6474 -0.5522
 8747SOL    HW137877   1.969   3.189   7.638  1.0991 -0.8867  0.8128
 8747SOL    HW237878   2.038   3.305   7.665 -2.1360  0.9091 -1.5460
 8748SOL     OW37879   4.043   4.402   7.876 -0.4741 -0.0623 -0.6464
 8748SOL    HW137880   4.116   4.451   7.913  1.0784 -1.6106 -1.6755
 8748SOL    HW237881   3.976   4.450   7.924  0.2685 -1.3347  1.6682
 8749SOL     OW37882   3.606   3.750   4.875  0.2791  0.0609  0.1495
 8749SOL    HW137883   3.554   3.680   4.913  1.6799 -2.3549 -2.3249
 8749SOL    HW237884   3.535   3.803   4.839  0.4251  0.5740  0.6185
 8750SOL     OW37885   3.581   1.977   2.853  0.0066 -0.2701  0.6965
 8750SOL    HW137886   3.573   2.045   2.919  4.0337  0.6344  0.2226
 8750SOL    HW237887   3.492   1.943   2.846 -0.2762  0.7761 -0.7143
 8751SOL     OW37888   0.232   1.618   3.336 -0.2367  0.0810  0.1892
 8751SOL    HW137889   0.248   1.625   3.431  2.6143  0.8730 -0.3654
 8751SOL    HW237890   0.142   1.651   3.325  0.0611 -0.8191 -4.4849
 8752SOL     OW37891   0.495   0.752   3.766  0.1122 -0.0208 -0.2789
 8752SOL    HW137892   0.513   0.787   3.679 -1.9244 -0.1298 -0.7371
 8752SOL    HW237893   0.415   0.700   3.760  1.6383 -2.1425 -2.0948
 8753SOL     OW37894   3.521   2.750  17.074 -0.2795  0.1033 -0.2192
 8753SOL    HW137895   3.536   2.840  17.046 -1.5808  0.4676  0.2675
 8753SOL    HW237896   3.606   2.716  17.045  0.2802  1.6341 -0.3914
 8754SOL     OW37897   1.357   4.076   3.831 -0.0030 -0.7865  0.0048
 8754SOL    HW137898   1.344   4.164   3.864 -1.0244  0.1316 -2.9080
 8754SOL    HW237899   1.401   4.082   3.746  0.0909 -1.0219  0.0368
 8755SOL     OW37900   1.581   1.268   4.855  0.3038 -0.2805 -0.6108
 8755SOL    HW137901   1.626   1.184   4.855  0.5011 -0.1777  1.7139
 8755SOL    HW237902   1.489   1.242   4.863  0.4484 -0.8676 -0.8505
 8756SOL     OW37903   2.899   3.758   8.063  0.0073  0.1865 -0.4236
 8756SOL    HW137904   2.959   3.739   8.136 -0.1091  2.4367  0.2586
 8756SOL    HW237905   2.905   3.678   8.011  1.4010 -0.1418  0.2438
 8757SOL     OW37906   3.119   3.821   4.791  0.2430  0.4081  0.4363
 8757SOL    HW137907   3.119   3.769   4.711 -3.1637  1.7488 -0.4655
 8757SOL    HW237908   3.026   3.847   4.791 -0.1055 -0.8441  0.8662
 8758SOL     OW37909   3.209   1.087  15.811  0.6567  0.3734  0.7335
 8758SOL    HW137910   3.257   1.169  15.815 -0.3283  0.9149  1.3925
 8758SOL    HW237911   3.126   1.121  15.779 -0.0699 -3.0558 -0.9985
 8759SOL     OW37912   0.826   3.118   7.350 -0.3448  0.0426 -0.0942
 8759SOL    HW137913   0.863   3.060   7.417 -1.7592  0.9638  1.4661
 8759SOL    HW237914   0.828   3.205   7.389  0.5137  0.5578 -1.3213
 8760SOL     OW37915   4.516   0.966   3.408  0.4733  0.1446  0.0156
 8760SOL    HW137916   4.554   0.880   3.390 -0.2833 -0.1784 -0.0156
 8760SOL    HW237917   4.547   1.016   3.332 -0.6425 -0.1883 -0.6584
 8761SOL     OW37918   4.038   3.017  10.742 -0.9830  0.5291 -0.0410
 8761SOL    HW137919   4.086   3.091  10.705  0.8837 -1.5823 -1.8162
 8761SOL    HW237920   3.968   3.012  10.677 -1.0121  2.0993 -0.1342
 8762SOL     OW37921   2.150   3.242  14.000  0.3882  0.2430 -0.0661
 8762SOL    HW137922   2.148   3.161  13.948 -2.4978  0.3368 -0.1210
 8762SOL    HW237923   2.236   3.279  13.981 -0.3974  2.6572  1.1448
 8763SOL     OW37924   0.231   1.863   8.109 -0.6748  0.2314  0.4589
 8763SOL    HW137925   0.179   1.798   8.061 -2.6299  2.2926 -0.2342
 8763SOL    HW237926   0.186   1.947   8.102  0.6258  0.8704 -0.2770
 8764SOL     OW37927   0.550   3.920   6.182 -0.2834  0.3925  0.1802
 8764SOL    HW137928   0.559   4.006   6.223 -1.7716  0.7359 -0.1900
 8764SOL    HW237929   0.600   3.858   6.234 -0.4709  0.4728  0.4572
 8765SOL     OW37930   3.617   3.770  14.739  0.0442  0.1444  0.2150
 8765SOL    HW137931   3.712   3.773  14.725  0.2890 -0.4846  1.7150
 8765SOL    HW237932   3.602   3.769  14.834  2.3404  1.3974  0.5917
 8766SOL     OW37933   0.377   0.921   6.491 -0.4265 -0.2305 -0.2704
 8766SOL    HW137934   0.470   0.907   6.476 -0.6644 -0.6144 -1.4295
 8766SOL    HW237935   0.379   0.958   6.579  0.9368  2.1806 -1.3211
 8767SOL     OW37936   3.620   2.736   2.031 -0.5124 -0.0754 -0.3914
 8767SOL    HW137937   3.576   2.816   2.002 -0.4070  0.1792  0.1505
 8767SOL    HW237938   3.660   2.695   1.955  1.1038 -0.5787  0.7472
 8768SOL     OW37939   0.695   4.491   3.371 -0.7015 -0.1624 -0.7607
 8768SOL    HW137940   0.622   4.553   3.360 -0.2341  0.9851  2.6385
 8768SOL    HW237941   0.672   4.455   3.456  0.6662 -0.7547 -0.6410
 8769SOL     OW37942   0.897   1.966   5.492 -0.0955 -0.2661  0.4021
 8769SOL    HW137943   0.987   1.960   5.461  0.4227  0.1340  1.8164
 8769SOL    HW237944   0.881   2.060   5.486  1.2290 -0.0597  0.2495
 8770SOL     OW37945   1.811   4.280   8.133  0.1191  0.1783 -0.7911
 8770SOL    HW137946   1.820   4.189   8.163 -1.6668  0.6208  1.0473
 8770SOL    HW237947   1.811   4.330   8.214 -1.3450  0.9120 -1.2337
 8771SOL     OW37948   0.982   0.995   7.359  0.0228  0.3952 -0.2707
 8771SOL    HW137949   0.972   0.928   7.427  0.4264  0.1711 -0.4368
 8771SOL    HW237950   1.028   1.069   7.398  0.4929  0.7692 -1.5661
 8772SOL     OW37951   0.045   4.118   0.773  0.3846  0.0073  0.4087
 8772SOL    HW137952   4.718   4.132   0.841 -0.6273  0.7559 -0.7336
 8772SOL    HW237953   0.075   4.030   0.794 -0.0743 -0.2888 -0.1885
 8773SOL     OW37954   0.003   3.008   6.290 -0.1613 -0.6809  0.3028
 8773SOL    HW137955   4.653   2.974   6.282  0.2449 -1.2748 -1.8695
 8773SOL    HW237956   0.010   3.054   6.206 -0.3034  0.0680  0.6991
 8774SOL     OW37957   4.024   0.394   7.447 -0.3192  0.2941 -0.1234
 8774SOL    HW137958   4.008   0.487   7.432 -1.5089  0.3198  1.3275
 8774SOL    HW237959   4.005   0.352   7.363  1.7499  0.3860 -0.6352
 8775SOL     OW37960   4.505   1.363  11.013 -0.2128 -0.2154  0.0839
 8775SOL    HW137961   4.467   1.306  11.080 -1.3543  1.5772  0.9753
 8775SOL    HW237962   4.563   1.299  10.973  0.9788  0.4826  0.6925
 8776SOL     OW37963   2.107   0.036   8.972 -0.3011  0.4410  0.1797
 8776SOL    HW137964   2.047   0.004   8.905  0.9095  0.0796 -0.7280
 8776SOL    HW237965   2.089   4.706   9.035  0.1740  1.0840  1.0247
 8777SOL     OW37966   1.830   1.009   3.179 -0.4093 -0.4130  0.0615
 8777SOL    HW137967   1.803   0.963   3.258 -2.1510  0.3288 -0.1123
 8777SOL    HW237968   1.771   1.083   3.189  0.1612 -0.0401  0.6910
 8778SOL     OW37969   2.328   1.001  15.537  0.2566 -0.1120  0.2326
 8778SOL    HW137970   2.335   0.914  15.577  1.6374 -0.0889  0.0562
 8778SOL    HW237971   2.293   1.052  15.609 -2.9760 -0.8790 -0.7705
 8779SOL     OW37972   3.901   3.487  14.628 -0.0861 -0.0910  0.0270
 8779SOL    HW137973   3.848   3.563  14.605 -1.0199 -0.0950  2.1616
 8779SOL    HW237974   3.874   3.471  14.718  1.0045 -0.7205  0.2428
 8780SOL     OW37975   1.670   2.801  10.014 -0.0076  0.3953 -0.5734
 8780SOL    HW137976   1.609   2.866  10.051 -0.2075  1.4988 -2.8563
 8780SOL    HW237977   1.754   2.813  10.057  0.2479 -2.3813 -0.2865
 8781SOL     OW37978   1.029   3.890  10.727  0.0998  0.4416  0.2080
 8781SOL    HW137979   0.997   3.967  10.773  0.2672 -0.1439  1.3304
 8781SOL    HW237980   0.976   3.898  10.648  0.4741 -0.9911 -0.1862
 8782SOL     OW37981   1.319   0.676   3.534  0.3824 -0.2132 -0.2922
 8782SOL    HW137982   1.396   0.716   3.493  0.2881  0.5353  0.2682
 8782SOL    HW237983   1.275   0.643   3.456  1.4576  1.7946 -1.7562
 8783SOL     OW37984   2.669   2.551  11.824 -0.8165  0.1139 -0.4980
 8783SOL    HW137985   2.663   2.458  11.804  1.1235 -0.7971  3.1525
 8783SOL    HW237986   2.634   2.551  11.913  0.4900  2.7651  0.0243
 8784SOL     OW37987   3.760   1.817   9.247 -0.4499  0.3100 -0.4349
 8784SOL    HW137988   3.837   1.873   9.240  1.4161 -2.3009 -0.8017
 8784SOL    HW237989   3.686   1.877   9.254  0.8149  1.9189 -0.9200
 8785SOL     OW37990   0.532   4.479   2.816 -0.0849  0.0391  0.1639
 8785SOL    HW137991   0.496   4.567   2.816 -2.6678 -1.0309  0.1717
 8785SOL    HW237992   0.487   4.432   2.886 -0.1679  0.8761  0.6646
 8786SOL     OW37993   2.521   4.513   6.549  0.3513 -0.5240 -0.1075
 8786SOL    HW137994   2.595   4.529   6.490 -0.8294 -1.2846 -1.7976
 8786SOL    HW237995   2.554   4.435   6.593  0.4912 -0.5197 -0.2036
 8787SOL     OW37996   0.654   1.881  11.333 -0.0992 -0.2007 -0.2618
 8787SOL    HW137997   0.570   1.925  11.321 -0.0115 -0.1965 -0.8237
 8787SOL    HW237998   0.640   1.809  11.273  2.9341 -1.9646  1.1215
 8788SOL     OW37999   0.388   0.368   2.135 -0.4063  0.2951  0.1211
 8788SOL    HW138000   0.468   0.408   2.168 -0.6813  1.6371 -0.8667
 8788SOL    HW238001   0.367   0.437   2.072  3.2901  0.6868 -0.6571
 8789SOL     OW38002   3.891   0.809   9.139 -0.2527  0.0857  0.0021
 8789SOL    HW138003   3.982   0.786   9.160 -0.3183  1.3006  1.6184
 8789SOL    HW238004   3.876   0.730   9.088 -2.8309  0.3422  0.3949
 8790SOL     OW38005   4.291   0.043   2.135  0.6215  0.0770  0.6863
 8790SOL    HW138006   4.234   0.014   2.206  0.3924 -1.0293  0.0444
 8790SOL    HW238007   4.364   4.724   2.155  0.7807  0.5547  1.5146
 8791SOL     OW38008   4.383   0.832   4.612 -0.4311 -0.5169  0.4623
 8791SOL    HW138009   4.405   0.749   4.655  0.7352 -0.0880  0.6923
 8791SOL    HW238010   4.368   0.815   4.519  0.3597  0.6697  0.1219
 8792SOL     OW38011   4.091   4.041  16.363  0.2966 -0.3897 -0.4642
 8792SOL    HW138012   4.028   4.037  16.291  0.0013 -0.3155 -0.2089
 8792SOL    HW238013   4.166   4.074  16.314 -1.6343  0.3567 -2.9182
 8793SOL     OW38014   0.686   3.341  13.571  0.7160 -0.3892 -0.5800
 8793SOL    HW138015   0.666   3.400  13.498 -3.3105  1.9802  2.4215
 8793SOL    HW238016   0.740   3.397  13.627 -1.3332  3.1097 -2.0700
 8794SOL     OW38017   1.348   2.893   9.522 -0.4781 -0.2900  0.1637
 8794SOL    HW138018   1.404   2.920   9.595  0.1128 -1.5296  0.1849
 8794SOL    HW238019   1.386   2.958   9.463  0.5062 -1.3334 -0.3489
 8795SOL     OW38020   0.213   2.341   5.379  0.2439 -0.3235  0.3229
 8795SOL    HW138021   0.183   2.430   5.357 -0.7158 -0.5410  0.7909
 8795SOL    HW238022   0.131   2.304   5.411 -0.5074  0.5848 -0.5504
 8796SOL     OW38023   0.509   2.465  15.528  0.4201 -0.1377  0.3068
 8796SOL    HW138024   0.453   2.525  15.576 -0.2277 -0.5103  0.0161
 8796SOL    HW238025   0.568   2.532  15.494 -0.3973 -0.3696 -1.5785
 8797SOL     OW38026   1.467   0.582   3.925 -0.3294  0.4729  0.5774
 8797SOL    HW138027   1.417   0.504   3.946  1.6096 -1.4186 -1.8454
 8797SOL    HW238028   1.467   0.619   4.014 -1.7721 -0.8001  1.1004
 8798SOL     OW38029   1.196   0.818  14.293 -0.1406  0.0347  0.0523
 8798SOL    HW138030   1.103   0.839  14.278 -0.6873  0.1386  3.7416
 8798SOL    HW238031   1.232   0.888  14.239  0.1393 -1.2754 -1.4725
 8799SOL     OW38032   3.608   0.443  14.679  0.3400 -0.1797  0.4678
 8799SOL    HW138033   3.577   0.501  14.609  0.7615 -1.8698 -1.1269
 8799SOL    HW238034   3.529   0.390  14.687  1.9142 -2.3307  1.8727
 8800SOL     OW38035   1.826   2.511   3.378  0.1562  0.2668  0.4191
 8800SOL    HW138036   1.826   2.588   3.321 -0.6402  0.6443  0.9335
 8800SOL    HW238037   1.780   2.539   3.457 -0.0026  0.1224  0.3789
 8801SOL     OW38038   0.016   4.393   8.338  0.5986  0.0470  0.0217
 8801SOL    HW138039   0.079   4.350   8.395 -0.3221 -1.7591 -0.3285
 8801SOL    HW238040   4.691   4.420   8.403  0.2657 -0.4972 -0.0792
 8802SOL     OW38041   3.286   1.543   7.007  0.3380 -0.0815  0.1188
 8802SOL    HW138042   3.295   1.626   7.054 -0.9781  0.5470 -0.7249
 8802SOL    HW238043   3.256   1.566   6.919  0.6168 -0.9740 -0.2155
 8803SOL     OW38044   1.256   1.649   6.088  0.5226 -0.5363 -0.4759
 8803SOL    HW138045   1.232   1.703   6.163  2.7308  0.3506 -0.4153
 8803SOL    HW238046   1.349   1.630   6.101 -0.5187 -2.4606  4.3104
 8804SOL     OW38047   2.846   1.830   2.943  0.3619  0.1619  0.0112
 8804SOL    HW138048   2.930   1.841   2.900  0.3914  0.0699  0.0446
 8804SOL    HW238049   2.786   1.875   2.883 -0.3403 -0.6070  0.1334
 8805SOL     OW38050   1.302   4.533  11.942 -0.1659 -0.1777  0.1724
 8805SOL    HW138051   1.276   4.503  11.855  1.4912 -0.7478 -0.1282
 8805SOL    HW238052   1.397   4.544  11.938  0.0239 -2.2744 -1.1763
 8806SOL     OW38053   1.525   2.530  10.656 -0.4540 -0.1316  0.0733
 8806SOL    HW138054   1.556   2.536  10.746 -1.2747 -0.0679  0.3454
 8806SOL    HW238055   1.513   2.622  10.634 -0.8009 -0.3334 -0.5889
 8807SOL     OW38056   0.675   4.517  10.440 -0.4059  0.2153  0.6683
 8807SOL    HW138057   0.685   4.429  10.476  0.8730  0.4081  0.7700
 8807SOL    HW238058   0.716   4.575  10.504  0.6080 -1.0818  1.1950
 8808SOL     OW38059   1.513   1.780   5.816  0.1311  0.7103  0.8952
 8808SOL    HW138060   1.480   1.838   5.747  3.2582  1.3923 -0.0194
 8808SOL    HW238061   1.605   1.806   5.818  0.8185 -1.4449 -3.1611
 8809SOL     OW38062   3.899   0.066  12.016 -0.0079  0.3855 -0.1755
 8809SOL    HW138063   3.805   0.081  12.019  0.2414  1.5826  2.1022
 8809SOL    HW238064   3.896   4.719  11.975 -0.3778 -0.4710  1.6479
 8810SOL     OW38065   3.931   4.648  11.367  0.2423  0.2307  0.0565
 8810SOL    HW138066   3.879   4.568  11.374  0.1058  0.4284  1.4321
 8810SOL    HW238067   3.930   4.658  11.272 -2.6378 -0.4827  0.0293
 8811SOL     OW38068   0.604   3.220  15.895 -0.7163  0.1122  0.9732
 8811SOL    HW138069   0.522   3.215  15.845 -2.0682 -0.2966  3.2291
 8811SOL    HW238070   0.633   3.310  15.880  2.2186 -0.9080  0.5885
 8812SOL     OW38071   2.406   3.614   6.618  0.3830 -0.6606  0.6647
 8812SOL    HW138072   2.326   3.639   6.570  0.6045 -0.9751  0.1333
 8812SOL    HW238073   2.403   3.678   6.689 -2.6163 -0.1351  0.0854
 8813SOL     OW38074   2.707   4.007  12.461 -0.7209  0.4948 -0.1092
 8813SOL    HW138075   2.625   4.003  12.411 -1.2564 -1.0070  0.9024
 8813SOL    HW238076   2.763   3.984  12.387 -1.2033  1.2267 -0.7060
 8814SOL     OW38077   3.653   3.107  11.367  0.8764  0.0095  0.0586
 8814SOL    HW138078   3.711   3.182  11.374  0.1339  0.3089  2.8711
 8814SOL    HW238079   3.586   3.146  11.311  1.0267  1.5286  0.9519
 8815SOL     OW38080   2.445   0.689   7.377 -0.1963  0.7138 -0.1591
 8815SOL    HW138081   2.439   0.729   7.291  0.1071 -0.1206 -0.5705
 8815SOL    HW238082   2.528   0.727   7.405  0.5332 -1.7257  1.0355
 8816SOL     OW38083   4.105   3.273   9.814  0.0173 -0.8524  0.4226
 8816SOL    HW138084   4.086   3.187   9.775 -2.9470 -0.3685  0.8099
 8816SOL    HW238085   4.129   3.321   9.735  0.0729  0.1390  1.0459
 8817SOL     OW38086   0.376   2.185   8.942 -0.2057 -0.1311  0.0339
 8817SOL    HW138087   0.281   2.183   8.929 -0.4236  0.1068  1.5585
 8817SOL    HW238088   0.403   2.169   8.852  0.1193  0.2923  0.0583
 8818SOL     OW38089   3.958   1.852   4.244  0.4553  0.0651 -0.2072
 8818SOL    HW138090   3.921   1.766   4.223  0.4445 -0.1074  0.5004
 8818SOL    HW238091   3.887   1.914   4.229  0.3011  0.1021  0.6979
 8819SOL     OW38092   3.182   3.139   5.020  0.0427 -0.0667 -0.0635
 8819SOL    HW138093   3.149   3.050   5.026  1.3126 -0.6882 -2.2524
 8819SOL    HW238094   3.277   3.125   5.011  0.3747 -0.6928  4.0651
 8820SOL     OW38095   2.610   2.517   2.211 -0.0654 -0.1852 -0.4037
 8820SOL    HW138096   2.630   2.594   2.264  5.2471 -2.0344  0.3192
 8820SOL    HW238097   2.656   2.527   2.127 -0.3704  0.5579 -0.4810
 8821SOL     OW38098   1.429   2.669  15.529 -0.1877 -0.4804 -0.0381
 8821SOL    HW138099   1.424   2.702  15.619 -0.4144 -1.6313  0.3694
 8821SOL    HW238100   1.389   2.584  15.546  1.0758 -0.5941  2.2575
 8822SOL     OW38101   0.727   2.823   2.602  0.1674 -0.1652 -0.0212
 8822SOL    HW138102   0.716   2.887   2.531 -0.7656  1.4672  1.6044
 8822SOL    HW238103   0.747   2.751   2.542  0.5804 -1.6923  1.9701
 8823SOL     OW38104   3.273   0.262   3.776 -0.3839 -0.1602  0.2780
 8823SOL    HW138105   3.219   0.340   3.791  0.6554  0.5965  0.1329
 8823SOL    HW238106   3.304   0.242   3.865  0.2737 -0.5944 -0.0506
 8824SOL     OW38107   2.695   4.270   6.922 -0.3729 -0.6032 -0.3376
 8824SOL    HW138108   2.679   4.354   6.966 -0.9226 -1.9018  1.9296
 8824SOL    HW238109   2.770   4.295   6.869 -1.0367  1.2328 -0.4353
 8825SOL     OW38110   1.479   1.144   2.787 -0.5255  0.0380 -0.5951
 8825SOL    HW138111   1.398   1.159   2.738  0.6370  1.0181 -2.1991
 8825SOL    HW238112   1.456   1.063   2.832  0.0730 -0.5074 -1.2808
 8826SOL     OW38113   2.094   0.955   2.825  0.2379  0.1097 -0.1370
 8826SOL    HW138114   2.098   1.048   2.847  1.6414  0.1241 -0.4430
 8826SOL    HW238115   2.179   0.937   2.783  1.2776 -0.2303  2.1143
 8827SOL     OW38116   2.963   1.438   5.655 -0.4044  0.0821 -0.0527
 8827SOL    HW138117   2.997   1.402   5.737  0.8698  1.2730 -0.0552
 8827SOL    HW238118   2.895   1.491   5.695  0.3616  0.0601  1.2681
 8828SOL     OW38119   3.287   2.888   6.765 -0.1300  0.0321  0.8241
 8828SOL    HW138120   3.230   2.940   6.708 -0.0978  1.2347  1.8871
 8828SOL    HW238121   3.266   2.807   6.718 -1.1509  1.8453 -1.8630
 8829SOL     OW38122   0.701   3.808   8.154 -0.3677 -0.3125  0.0631
 8829SOL    HW138123   0.620   3.760   8.170  0.5682 -1.4522  1.3315
 8829SOL    HW238124   0.681   3.869   8.083  1.2978  0.2171  0.0367
 8830SOL     OW38125   1.765   0.787  14.023 -0.4035  0.6278 -0.3903
 8830SOL    HW138126   1.731   0.827  13.943  0.5263 -0.4998 -1.3492
 8830SOL    HW238127   1.685   0.758  14.067 -0.5266  0.1599 -0.9175
 8831SOL     OW38128   4.263   0.925   6.630  0.2696  0.3380 -0.3375
 8831SOL    HW138129   4.211   0.846   6.644 -0.9199  1.0911 -0.4783
 8831SOL    HW238130   4.205   0.998   6.652  1.7508  1.5757 -0.5519
 8832SOL     OW38131   0.241   0.161   6.125  0.0723  0.8669  0.1226
 8832SOL    HW138132   0.289   0.145   6.043  0.3465  1.7020  0.1222
 8832SOL    HW238133   0.154   0.174   6.087 -0.2034  1.8212  1.0881
 8833SOL     OW38134   1.667   2.729  14.993  0.5482 -0.4130  0.0112
 8833SOL    HW138135   1.700   2.818  14.984  0.7928 -0.3613  1.4448
 8833SOL    HW238136   1.651   2.727  15.087  0.6077  0.3070  0.0336
 8834SOL     OW38137   4.681   1.737   5.402 -0.3096 -0.1729  0.1572
 8834SOL    HW138138   4.622   1.799   5.446 -0.5366 -0.1819 -0.1309
 8834SOL    HW238139   4.651   1.747   5.312  1.8758 -0.4327 -0.5946
 8835SOL     OW38140   3.152   3.633   5.206  0.4625  0.1092 -0.3309
 8835SOL    HW138141   3.067   3.674   5.188 -0.4570 -2.5420 -2.1189
 8835SOL    HW238142   3.123   3.544   5.225 -0.7010  1.1989  3.0828
 8836SOL     OW38143   4.594   1.030  16.203  0.1746 -0.0209  0.4240
 8836SOL    HW138144   4.635   1.115  16.186 -0.2221 -0.0564 -0.7305
 8836SOL    HW238145   4.549   1.013  16.120  0.4249 -0.9885  0.4939
 8837SOL     OW38146   1.136   0.779   3.751  0.2562  0.3743  0.4517
 8837SOL    HW138147   1.076   0.823   3.690 -1.2527 -0.7967  1.1040
 8837SOL    HW238148   1.204   0.738   3.698 -0.7790 -1.8713  0.8867
 8838SOL     OW38149   1.178   2.038   3.944 -0.2424  0.0036 -0.0718
 8838SOL    HW138150   1.198   2.129   3.963  1.8293 -0.6663  0.9544
 8838SOL    HW238151   1.169   2.019   4.037 -0.7853  0.0978 -0.1074
 8839SOL     OW38152   2.973   4.056   7.327  0.1150 -1.0454 -0.1758
 8839SOL    HW138153   2.901   4.082   7.269 -0.6511 -0.2249  1.1302
 8839SOL    HW238154   2.916   4.023   7.397 -0.2150 -4.3498 -2.0267
 8840SOL     OW38155   1.140   3.558   0.067 -0.1003  0.5688 -0.0018
 8840SOL    HW138156   1.203   3.629   0.075 -1.4277  1.7342  0.0852
 8840SOL    HW238157   1.067   3.589   0.121 -0.6328 -1.5644  0.5152
 8841SOL     OW38158   2.504   2.625   5.274  0.1026  0.1739  0.1799
 8841SOL    HW138159   2.508   2.712   5.234 -0.8966 -0.4631 -1.3254
 8841SOL    HW238160   2.592   2.600   5.245  0.1185  0.6188 -0.1573
 8842SOL     OW38161   0.902   4.480  15.515  0.2762  0.4089  0.6894
 8842SOL    HW138162   0.873   4.534  15.589 -0.7365  4.8105 -2.9184
 8842SOL    HW238163   0.974   4.427  15.548 -0.6947 -1.0326  0.5109
 8843SOL     OW38164   1.329   4.268  13.478  0.2200 -0.0637  0.2865
 8843SOL    HW138165   1.347   4.333  13.546 -3.4661 -0.8801  2.0186
 8843SOL    HW238166   1.315   4.185  13.522 -1.2509 -0.8421 -1.6392
 8844SOL     OW38167   2.526   2.165   7.776 -0.1807 -0.3647 -0.3279
 8844SOL    HW138168   2.601   2.108   7.792 -1.6610 -1.7137  1.6317
 8844SOL    HW238169   2.522   2.208   7.861  1.0581  2.9281 -1.8811
 8845SOL     OW38170   1.362   2.002   5.949  0.1942  0.4548  0.2469
 8845SOL    HW138171   1.415   1.972   6.023  1.4216  0.5333 -0.6217
 8845SOL    HW238172   1.379   2.096   5.951 -2.4988  0.8936  3.1746
 8846SOL     OW38173   3.672   0.989   9.221  0.3919 -0.4052  0.1017
 8846SOL    HW138174   3.742   0.925   9.236  0.7889  0.2385  1.0134
 8846SOL    HW238175   3.635   0.992   9.309  0.9641 -2.3712  0.4150
 8847SOL     OW38176   4.138   4.328   9.645 -0.3206  0.2196 -0.1257
 8847SOL    HW138177   4.191   4.407   9.656 -0.2811  0.3066 -0.9258
 8847SOL    HW238178   4.083   4.329   9.723  1.3348  2.3691  0.9990
 8848SOL     OW38179   2.933   3.517  13.992  0.3721 -0.2148  0.9419
 8848SOL    HW138180   3.017   3.471  13.994 -0.5100 -1.8831 -1.1598
 8848SOL    HW238181   2.966   3.606  13.979 -2.5531  0.6778 -0.3228
 8849SOL     OW38182   4.613   1.603   9.233 -0.4022  0.4561  0.2545
 8849SOL    HW138183   4.639   1.511   9.240 -2.7816 -0.1710  1.0272
 8849SOL    HW238184   4.698   1.640   9.255 -0.1061 -1.1503  1.8276
 8850SOL     OW38185   1.935   2.787   5.755  0.1868 -0.2048 -0.4921
 8850SOL    HW138186   1.955   2.766   5.664  0.8183 -3.1629  0.3327
 8850SOL    HW238187   2.025   2.792   5.785 -0.1093 -0.8865  0.5050
 8851SOL     OW38188   4.008   3.117   6.335  0.1196  0.5186 -0.8496
 8851SOL    HW138189   4.021   3.033   6.378 -0.9898  1.7932  2.0054
 8851SOL    HW238190   3.967   3.172   6.402 -1.0482 -1.1212 -0.2470
 8852SOL     OW38191   0.365   2.850   2.727 -0.2773 -0.2000 -0.1963
 8852SOL    HW138192   0.439   2.824   2.782  0.0622  2.8036  0.7930
 8852SOL    HW238193   0.321   2.765   2.737  1.9078 -1.3412 -0.2919
 8853SOL     OW38194   4.160   0.658  10.292 -1.0325  0.2287 -0.2827
 8853SOL    HW138195   4.139   0.658  10.386 -3.3926 -1.0811 -0.8102
 8853SOL    HW238196   4.233   0.596  10.291  0.2190  1.6830 -0.0346
 8854SOL     OW38197   2.525   3.186  12.603  0.0847  0.3387  0.0323
 8854SOL    HW138198   2.603   3.178  12.658 -1.1138 -3.1677  1.2408
 8854SOL    HW238199   2.496   3.276  12.617 -1.7608  0.0607 -2.0544
 8855SOL     OW38200   3.858   4.589   7.493 -0.1899  0.2062 -0.3210
 8855SOL    HW138201   3.881   4.595   7.586 -0.6809  1.4869 -0.2814
 8855SOL    HW238202   3.916   4.659   7.465  2.5232 -1.4350  1.1930
 8856SOL     OW38203   1.225   2.628   3.229 -0.0647  0.0642 -0.1263
 8856SOL    HW138204   1.197   2.575   3.155  2.9785  0.4932 -1.5847
 8856SOL    HW238205   1.162   2.698   3.243  1.5028  1.4235  0.0381
 8857SOL     OW38206   3.781   1.450   0.499  0.4396 -0.1842 -0.0813
 8857SOL    HW138207   3.819   1.377   0.546 -1.9983 -2.1730 -1.1797
 8857SOL    HW238208   3.853   1.471   0.440  0.2584  0.9639  0.1032
 8858SOL     OW38209   0.854   4.654   6.745  0.3290 -0.4053  0.2884
 8858SOL    HW138210   0.801   4.676   6.669  2.3590 -0.2183 -1.0633
 8858SOL    HW238211   0.801   4.688   6.817 -1.9702 -2.5126 -0.3998
 8859SOL     OW38212   1.285   2.671   8.965  0.1022  0.3472  0.1186
 8859SOL    HW138213   1.289   2.617   9.045  3.0539 -0.9479 -0.9058
 8859SOL    HW238214   1.204   2.722   8.972 -0.7994 -1.3082  1.9522
 8860SOL     OW38215   1.121   2.340   9.195 -0.2171 -0.5238  0.0825
 8860SOL    HW138216   1.035   2.302   9.213 -0.1258 -1.4593 -1.4347
 8860SOL    HW238217   1.098   2.398   9.123  0.2714 -0.4046  0.0261
 8861SOL     OW38218   0.302   1.027   3.617 -0.1855 -0.0479  0.6526
 8861SOL    HW138219   0.353   1.056   3.542 -2.1071  0.5353 -0.4256
 8861SOL    HW238220   0.343   1.060   3.697 -0.8387  0.7354  0.6567
 8862SOL     OW38221   4.043   2.267   9.075  0.3024 -0.3308  0.1657
 8862SOL    HW138222   3.981   2.220   9.019  2.8642 -2.1940 -1.0812
 8862SOL    HW238223   4.115   2.274   9.013  0.0377 -0.8817 -0.2021
 8863SOL     OW38224   3.755   0.750   5.771 -0.4609 -0.3370  0.6959
 8863SOL    HW138225   3.796   0.694   5.836  0.3030 -1.4461 -0.7475
 8863SOL    HW238226   3.745   0.693   5.695  0.4455  0.2549  0.1288
 8864SOL     OW38227   2.043   1.607   9.980 -0.0963 -0.3017  0.0268
 8864SOL    HW138228   2.056   1.514   9.999  2.8404  0.1501  0.3148
 8864SOL    HW238229   1.991   1.634  10.056  0.4810 -1.1178  0.7221
 8865SOL     OW38230   3.200   0.385  15.610  0.0594 -0.2314 -0.0245
 8865SOL    HW138231   3.277   0.360  15.560  1.2425 -2.0779  2.6758
 8865SOL    HW238232   3.211   0.478  15.627 -0.6153  0.4664 -3.4131
 8866SOL     OW38233   2.717   0.271   4.312 -0.3704  0.0155 -0.3178
 8866SOL    HW138234   2.701   0.176   4.312  1.3475 -0.2608 -1.6690
 8866SOL    HW238235   2.669   0.297   4.234 -1.9645  1.4489  1.1267
 8867SOL     OW38236   1.292   3.293   1.853  0.3743  0.4004 -0.3635
 8867SOL    HW138237   1.301   3.336   1.938  1.8173  2.1368 -1.4172
 8867SOL    HW238238   1.312   3.359   1.787  1.6282  0.6694  0.3021
 8868SOL     OW38239   0.398   2.904   2.170  0.7089 -0.5417  0.3006
 8868SOL    HW138240   0.441   2.818   2.169  1.3388 -0.2051 -1.1817
 8868SOL    HW238241   0.453   2.953   2.109  1.2484 -0.5566  0.7749
 8869SOL     OW38242   0.399   0.148   5.484 -0.2566  0.6628  0.8156
 8869SOL    HW138243   0.351   0.169   5.404 -1.5428  1.1492  1.7215
 8869SOL    HW238244   0.431   0.233   5.513  0.2343  1.2922 -1.5492
 8870SOL     OW38245   1.100   0.003   0.095  0.3955 -0.0335 -0.4343
 8870SOL    HW138246   1.028   0.063   0.113  1.2362  1.7421 -2.8781
 8870SOL    HW238247   1.143   0.046   0.020  0.7167  2.2860  1.0635
 8871SOL     OW38248   1.751   0.452   4.100  0.3335 -0.2865 -0.2890
 8871SOL    HW138249   1.663   0.481   4.126  0.6800  0.2969  0.2172
 8871SOL    HW238250   1.774   0.527   4.045 -2.2315  0.0604 -0.8813
 8872SOL     OW38251   4.285   4.149   4.679 -0.0282 -0.3134 -0.3362
 8872SOL    HW138252   4.195   4.171   4.653  0.1857  1.2483  0.2628
 8872SOL    HW238253   4.331   4.213   4.624 -1.5953  1.8512  0.8510
 8873SOL     OW38254   3.963   3.571  11.197  0.2620  0.4791 -0.1845
 8873SOL    HW138255   3.909   3.494  11.179 -0.1177 -0.0464  3.0953
 8873SOL    HW238256   3.910   3.640  11.157 -1.4183 -0.4853  0.4065
 8874SOL     OW38257   0.416   3.116   1.909 -0.2010  0.1374 -0.5669
 8874SOL    HW138258   0.329   3.075   1.917  0.7801 -1.8330  0.0702
 8874SOL    HW238259   0.407   3.179   1.981 -0.1291 -0.8242  0.2882
 8875SOL     OW38260   0.788   0.185   9.361  0.7593  0.0988 -0.2867
 8875SOL    HW138261   0.705   0.140   9.380  1.4033 -1.6308 -1.5366
 8875SOL    HW238262   0.849   0.111   9.365  0.0139 -0.5368 -0.4382
 8876SOL     OW38263   3.632   0.078   2.856  0.1388 -0.0466 -0.0038
 8876SOL    HW138264   3.727   0.069   2.858 -0.0855 -3.0196 -1.4031
 8876SOL    HW238265   3.612   4.731   2.820 -0.6952  0.8888 -1.7860
 8877SOL     OW38266   2.957   1.733  12.685 -0.4478  0.3490 -0.2964
 8877SOL    HW138267   3.042   1.739  12.640 -1.1674 -0.9274 -1.8238
 8877SOL    HW238268   2.911   1.804  12.641 -2.1740  0.8624  2.3456
 8878SOL     OW38269   3.180   1.624   7.952  0.4222 -0.0162 -0.3757
 8878SOL    HW138270   3.142   1.536   7.958  0.6030 -0.0645  0.0706
 8878SOL    HW238271   3.137   1.653   7.872 -2.0950  0.7185  1.2237
 8879SOL     OW38272   2.724   1.850   5.637 -0.0724 -0.0516 -0.1161
 8879SOL    HW138273   2.800   1.906   5.619  0.6009 -0.7552  0.5833
 8879SOL    HW238274   2.657   1.915   5.661 -0.4417 -0.4695 -0.0236
 8880SOL     OW38275   4.522   1.443   4.129 -0.3562 -0.1213 -0.6066
 8880SOL    HW138276   4.470   1.386   4.072  0.9469 -2.0079  0.1119
 8880SOL    HW238277   4.601   1.390   4.133 -0.6411 -0.3771  1.5213
 8881SOL     OW38278   0.053   0.154   8.885  0.0796 -0.0337  0.5812
 8881SOL    HW138279   0.096   0.115   8.961  0.6732  0.2759  0.3959
 8881SOL    HW238280   0.079   0.245   8.895  0.1670 -0.0578  0.5674
 8882SOL     OW38281   3.154   0.251   7.281  0.0463  0.8772  0.0723
 8882SOL    HW138282   3.225   0.187   7.286  0.2956  1.2917  1.5849
 8882SOL    HW238283   3.208   0.328   7.268  2.0582 -0.3580  1.0393
 8883SOL     OW38284   3.062   4.362   1.793  0.8533  0.0731 -0.0204
 8883SOL    HW138285   3.060   4.449   1.831  2.0217  0.2639 -0.3971
 8883SOL    HW238286   2.979   4.349   1.747  0.1096 -0.5425  1.4996
 8884SOL     OW38287   2.619   4.662  15.419 -0.4848 -0.2339  0.1591
 8884SOL    HW138288   2.557   4.722  15.378  1.0403  0.2075 -1.4308
 8884SOL    HW238289   2.685   4.728  15.437 -1.1565  0.1480  1.2215
 8885SOL     OW38290   4.427   0.946   2.019 -0.1495 -0.4109  0.1365
 8885SOL    HW138291   4.355   0.962   2.080  1.1951 -2.3227  2.2183
 8885SOL    HW238292   4.486   0.887   2.065 -2.3711 -3.4421 -0.9284
 8886SOL     OW38293   0.387   2.681   9.514  0.2035 -0.0489  0.4897
 8886SOL    HW138294   0.372   2.639   9.429  0.9141  2.2675 -0.7917
 8886SOL    HW238295   0.301   2.705   9.547 -0.8439 -2.3598 -0.5256
 8887SOL     OW38296   4.320   2.403   2.672 -0.8051 -0.2674 -0.7477
 8887SOL    HW138297   4.245   2.451   2.706  1.5891  2.7669  0.3016
 8887SOL    HW238298   4.274   2.356   2.603 -0.7881 -1.6950  0.2156
 8888SOL     OW38299   2.931   4.314   3.567  1.0724 -0.0930 -0.4484
 8888SOL    HW138300   2.980   4.244   3.524  2.4253  1.2900 -1.1445
 8888SOL    HW238301   2.916   4.371   3.492  2.2166  1.7147  0.6888
 8889SOL     OW38302   4.293   3.922  11.865  0.1385  0.3424 -0.3019
 8889SOL    HW138303   4.369   3.909  11.923  0.1701 -0.6174 -0.5693
 8889SOL    HW238304   4.331   3.895  11.782 -1.4209 -1.8078 -0.3086
 8890SOL     OW38305   0.292   0.376  16.556  0.4408  0.1630  0.5529
 8890SOL    HW138306   0.226   0.358  16.488  1.2187  1.5162 -0.5525
 8890SOL    HW238307   0.358   0.431  16.514  1.2540 -0.3407  1.1752
 8891SOL     OW38308   0.791   4.190   7.633 -0.1511 -0.0735  0.0217
 8891SOL    HW138309   0.700   4.217   7.644  0.1498  2.0289 -2.8097
 8891SOL    HW238310   0.790   4.188   7.537 -0.7034  0.3038  0.0203
 8892SOL     OW38311   4.358   4.251   8.874 -0.0384 -0.3137 -0.2959
 8892SOL    HW138312   4.362   4.257   8.970 -2.6973  1.6403 -0.3419
 8892SOL    HW238313   4.263   4.243   8.864 -0.0341 -0.8805  0.0581
 8893SOL     OW38314   1.494   0.191   3.052 -0.1253  0.1546 -0.2343
 8893SOL    HW138315   1.415   0.240   3.073  0.8474  2.7640 -2.5957
 8893SOL    HW238316   1.552   0.221   3.122  0.6801 -0.4216 -0.6454
 8894SOL     OW38317   4.422   1.679   5.201 -0.2225  0.6517  0.2116
 8894SOL    HW138318   4.440   1.772   5.213  0.1298  0.6582 -0.3454
 8894SOL    HW238319   4.471   1.646   5.125 -1.3233 -1.6001  0.5054
 8895SOL     OW38320   4.181   2.943   6.615 -0.1694  0.2987  0.5665
 8895SOL    HW138321   4.226   2.906   6.691  0.0529 -0.2683  0.1624
 8895SOL    HW238322   4.261   2.969   6.570  0.2411  2.0624  2.3025
 8896SOL     OW38323   2.527   1.608   7.502  0.6012  0.0979 -0.4520
 8896SOL    HW138324   2.594   1.546   7.475  0.8429  0.9303 -1.7519
 8896SOL    HW238325   2.577   1.686   7.526  0.0669  0.6532 -1.1679
 8897SOL     OW38326   0.273   4.628   6.176 -0.3726  0.0102  0.1123
 8897SOL    HW138327   0.250   4.716   6.147  3.0786  0.5802 -0.9048
 8897SOL    HW238328   0.184   4.610   6.206 -0.0511 -0.4312  0.7822
 8898SOL     OW38329   4.502   0.432   6.499 -0.0581 -0.3062  0.1221
 8898SOL    HW138330   4.511   0.421   6.405  1.0487  0.6162  0.1249
 8898SOL    HW238331   4.587   0.472   6.518 -0.3099  0.6906 -0.8397
 8899SOL     OW38332   0.094   0.733   4.601 -0.0959 -0.4737  0.3753
 8899SOL    HW138333   0.137   0.763   4.521 -1.9050 -1.9120 -1.1244
 8899SOL    HW238334   0.066   0.822   4.623  0.4039  0.4805 -2.8025
 8900SOL     OW38335   1.783   1.512   3.940  0.4598 -0.0192 -0.0199
 8900SOL    HW138336   1.722   1.566   3.989  0.3514  0.0616 -0.2431
 8900SOL    HW238337   1.858   1.567   3.920 -0.2352  1.1070  0.4989
 8901SOL     OW38338   0.862   0.326   0.480 -0.2821  0.3380  0.4433
 8901SOL    HW138339   0.794   0.332   0.412  0.4918 -1.3222 -0.4810
 8901SOL    HW238340   0.861   0.417   0.510 -1.4590  0.5345 -0.1624
 8902SOL     OW38341   1.059   2.279  15.035 -0.1552 -0.5846 -0.3703
 8902SOL    HW138342   1.001   2.340  14.990 -0.9062 -1.3351 -0.4281
 8902SOL    HW238343   1.142   2.319  15.009 -0.8426  1.5995  0.8064
 8903SOL     OW38344   3.025   1.364  16.460 -0.3748 -0.7896 -0.6975
 8903SOL    HW138345   2.949   1.396  16.412 -0.6684  1.0914  1.0269
 8903SOL    HW238346   2.987   1.326  16.540  0.4061 -0.7718 -0.3248
 8904SOL     OW38347   1.610   0.364   2.565  0.5102 -0.2746  0.4315
 8904SOL    HW138348   1.612   0.271   2.588  2.1292 -0.8317 -1.9297
 8904SOL    HW238349   1.686   0.369   2.506 -0.3167 -0.7251 -0.6670
 8905SOL     OW38350   1.004   0.281   2.959  0.1785 -0.7367 -0.0114
 8905SOL    HW138351   1.086   0.323   2.984  0.6568 -1.5948 -0.1610
 8905SOL    HW238352   0.984   0.232   3.039 -0.2744  0.2582  0.4838
 8906SOL     OW38353   3.836   2.617  14.450 -0.2281 -0.1060 -0.1954
 8906SOL    HW138354   3.861   2.526  14.461 -0.5616 -0.4247 -2.1669
 8906SOL    HW238355   3.797   2.635  14.536 -0.0750 -2.2158  0.3062
 8907SOL     OW38356   1.567   2.137  13.855  0.3280 -0.1829  0.2892
 8907SOL    HW138357   1.613   2.086  13.789 -1.7911  0.0058 -1.3621
 8907SOL    HW238358   1.597   2.224  13.828  0.0782 -0.6325 -1.4400
 8908SOL     OW38359   1.449   0.524  11.364  0.5169 -0.2212  0.1639
 8908SOL    HW138360   1.474   0.496  11.276  1.4515 -3.7703  1.5600
 8908SOL    HW238361   1.464   0.443  11.413 -1.0374  0.3179  1.5260
 8909SOL     OW38362   2.284   1.755   3.696 -0.1832 -0.1820 -0.1872
 8909SOL    HW138363   2.301   1.701   3.773 -0.1061 -0.2770 -0.2717
 8909SOL    HW238364   2.374   1.773   3.670 -0.5682  1.1065 -0.6326
 8910SOL     OW38365   0.909   4.255   3.055 -0.2142  0.2751  0.2299
 8910SOL    HW138366   0.858   4.333   3.077 -1.1787 -0.1783 -0.3995
 8910SOL    HW238367   0.859   4.190   3.105  0.0414 -0.6855 -0.7569
 8911SOL     OW38368   2.658   0.459  16.812 -0.1019 -0.4449 -0.1036
 8911SOL    HW138369   2.601   0.428  16.883  1.5687  0.1240  1.4948
 8911SOL    HW238370   2.663   0.551  16.837 -0.2657  0.3463 -2.9342
 8912SOL     OW38371   3.682   1.616   0.068 -0.3714  0.6510  0.0642
 8912SOL    HW138372   3.714   1.527   0.080 -0.6299  0.4050 -1.0629
 8912SOL    HW238373   3.682   1.597  17.729  2.1922 -0.3858  0.2503
 8913SOL     OW38374   3.637   3.119  10.741  0.3477 -0.0873  0.2681
 8913SOL    HW138375   3.666   3.060  10.811 -0.4268  0.0576  0.7045
 8913SOL    HW238376   3.710   3.124  10.679 -0.7485  2.2807 -0.8073
 8914SOL     OW38377   3.184   3.364   8.121  0.0157  0.2793 -0.5881
 8914SOL    HW138378   3.265   3.399   8.085  1.3867 -1.4759  0.7952
 8914SOL    HW238379   3.219   3.290   8.171 -0.7500  0.3772  0.0808
 8915SOL     OW38380   1.402   0.889   2.886 -0.5465  0.3859  0.2959
 8915SOL    HW138381   1.310   0.911   2.902 -2.1038 -5.2804 -0.5979
 8915SOL    HW238382   1.430   0.874   2.976  1.2664 -1.1850 -0.5303
 8916SOL     OW38383   3.486   0.664   5.125  0.0923  1.0628  0.1393
 8916SOL    HW138384   3.406   0.711   5.148 -1.0614 -1.2300  0.7740
 8916SOL    HW238385   3.448   0.578   5.109  1.4377  0.3508  0.7571
 8917SOL     OW38386   3.979   2.429   6.742  0.3517  0.6375 -0.0581
 8917SOL    HW138387   4.037   2.457   6.671  0.4637  1.1839  0.2457
 8917SOL    HW238388   4.008   2.340   6.763  0.7928  0.3596 -1.7957
 8918SOL     OW38389   3.871   3.252   6.532  0.4191  0.3444  0.1535
 8918SOL    HW138390   3.903   3.342   6.534 -0.7737  0.7002  3.0686
 8918SOL    HW238391   3.886   3.224   6.622  0.7840 -3.0336 -0.9594
 8919SOL     OW38392   0.057   3.083   8.050  0.2448  0.0672 -0.3031
 8919SOL    HW138393   0.108   3.077   7.969 -0.6242 -0.7130 -0.7934
 8919SOL    HW238394   0.113   3.145   8.097 -1.2171  1.6831 -0.6972
 8920SOL     OW38395   0.907   3.272  16.000  0.1186  0.0713  0.0990
 8920SOL    HW138396   0.967   3.317  15.940  1.3420  1.4473  2.3385
 8920SOL    HW238397   0.832   3.320  15.964 -0.0828 -0.4330 -0.1559
 8921SOL     OW38398   2.176   1.418   5.160 -0.3429 -0.0151  0.5642
 8921SOL    HW138399   2.217   1.428   5.246 -0.0671  2.7353  0.1127
 8921SOL    HW238400   2.085   1.407   5.186 -0.4639  0.4601  0.3300
 8922SOL     OW38401   2.880   4.371   8.153 -0.4725 -0.1506 -0.2037
 8922SOL    HW138402   2.883   4.275   8.147  0.4161 -0.2199  1.3941
 8922SOL    HW238403   2.954   4.394   8.096 -0.6122 -3.0517 -1.5620
 8923SOL     OW38404   4.720   0.577   3.679 -0.2314 -0.1651 -0.0083
 8923SOL    HW138405   4.701   0.607   3.768  1.4940 -0.6343  0.5054
 8923SOL    HW238406   4.629   0.580   3.649 -0.3069 -0.7673  0.1627
 8924SOL     OW38407   3.144   3.741   8.241  0.7506 -0.3602 -0.3138
 8924SOL    HW138408   3.134   3.786   8.326 -2.1495 -1.1302 -0.2596
 8924SOL    HW238409   3.233   3.763   8.213  0.5132  0.1448 -0.6811
 8925SOL     OW38410   3.470   2.191   1.162  0.2107  0.7575 -0.6940
 8925SOL    HW138411   3.560   2.182   1.194 -0.7948 -2.3380  1.2742
 8925SOL    HW238412   3.492   2.188   1.069  0.4439  0.5789 -0.6332
 8926SOL     OW38413   3.567   4.014   9.113  0.5536 -0.3848 -0.8007
 8926SOL    HW138414   3.649   3.995   9.158  0.6889  0.3005 -0.7543
 8926SOL    HW238415   3.552   3.933   9.065 -0.3558 -0.0296 -1.1138
 8927SOL     OW38416   4.373   1.958   3.471 -0.5183  0.4023 -0.1376
 8927SOL    HW138417   4.377   1.885   3.532 -0.6587  0.9550  0.5373
 8927SOL    HW238418   4.346   1.917   3.389  1.3106 -0.9387 -0.0593
 8928SOL     OW38419   4.486   2.292   2.873 -0.7916  0.3131  0.4579
 8928SOL    HW138420   4.435   2.226   2.826  0.3487  0.3845 -0.8732
 8928SOL    HW238421   4.473   2.359   2.806  1.7782  0.1879 -0.1545
 8929SOL     OW38422   0.982   3.053   8.855 -0.6059 -0.2587 -0.1027
 8929SOL    HW138423   1.069   3.074   8.888 -0.8712  0.1302  0.3459
 8929SOL    HW238424   0.941   3.138   8.870  2.9889  1.2074  1.3203
 8930SOL     OW38425   0.617   1.506   7.031 -0.0876 -0.3640 -0.5208
 8930SOL    HW138426   0.543   1.472   7.082 -1.2124  0.0351 -1.8745
 8930SOL    HW238427   0.652   1.425   6.994 -0.1934  0.1406 -1.7215
 8931SOL     OW38428   2.670   1.699   4.760  0.0050 -0.1843 -0.9414
 8931SOL    HW138429   2.611   1.629   4.786  1.0747 -0.6618  0.2393
 8931SOL    HW238430   2.738   1.647   4.717  0.1788  0.5545 -1.5554
 8932SOL     OW38431   1.830   1.057   8.138 -0.1630  0.4036  0.2628
 8932SOL    HW138432   1.774   1.122   8.181 -0.3000 -0.1341  0.9099
 8932SOL    HW238433   1.903   1.045   8.200  0.4688 -1.0767 -0.7583
 8933SOL     OW38434   0.826   3.059   0.847 -0.1241  0.1440  0.2709
 8933SOL    HW138435   0.914   3.040   0.879  0.0645  2.2607  1.0072
 8933SOL    HW238436   0.778   2.977   0.858  0.5977 -0.1402  1.2550
 8934SOL     OW38437   0.075   1.612  17.697  0.0420 -0.3488  0.2036
 8934SOL    HW138438   0.061   1.635   0.034  0.1640  0.4453  0.0184
 8934SOL    HW238439   0.092   1.700  17.663 -2.0736 -0.5872 -1.4529
 8935SOL     OW38440   1.000   1.477   7.081  0.1175  0.0547 -0.0823
 8935SOL    HW138441   0.989   1.523   6.997  1.2913 -0.1403 -0.3410
 8935SOL    HW238442   0.908   1.472   7.109 -0.3321  1.4294 -1.3122
 8936SOL     OW38443   3.687   2.554  11.501  0.2752  0.4859  0.2353
 8936SOL    HW138444   3.643   2.610  11.564  0.8490  3.5352 -2.0684
 8936SOL    HW238445   3.725   2.625  11.449 -1.1133  0.5620 -0.6912
 8937SOL     OW38446   4.189   3.992   6.982  0.2140  0.3583  0.0044
 8937SOL    HW138447   4.205   3.975   7.075  0.3620  0.4782 -0.0003
 8937SOL    HW238448   4.158   4.082   6.995 -0.6385  0.2511 -1.2739
 8938SOL     OW38449   4.223   1.647   9.372  0.5684 -0.2859 -0.2511
 8938SOL    HW138450   4.262   1.630   9.286 -2.3570 -0.3515 -1.5850
 8938SOL    HW238451   4.149   1.585   9.378 -0.2377  0.7506  0.5573
 8939SOL     OW38452   0.838   0.643   6.408  0.4183  0.1554 -0.5264
 8939SOL    HW138453   0.810   0.553   6.392  2.2851 -0.5339  0.0388
 8939SOL    HW238454   0.861   0.639   6.501 -1.8321 -0.6915  0.0002
 8940SOL     OW38455   3.876   2.705   3.567 -0.3262  0.1293 -0.1575
 8940SOL    HW138456   3.908   2.702   3.477  0.9446  0.9827  0.2540
 8940SOL    HW238457   3.860   2.613   3.585 -2.6232  0.5022 -0.2390
 8941SOL     OW38458   4.640   2.160   7.825  0.3030  0.0937 -0.9202
 8941SOL    HW138459   4.635   2.182   7.918 -1.8377  0.0594 -1.0235
 8941SOL    HW238460   4.734   2.146   7.810  0.2485 -1.6668  0.3563
 8942SOL     OW38461   2.187   3.053   3.680 -0.5841 -0.4580  0.1660
 8942SOL    HW138462   2.125   3.111   3.725  1.1907  1.0112  0.7418
 8942SOL    HW238463   2.124   2.998   3.636 -1.0139  0.2962 -0.1596
 8943SOL     OW38464   2.142   3.829  11.212  0.0535  0.3774  0.3977
 8943SOL    HW138465   2.140   3.739  11.243  0.1437  0.5703  0.9603
 8943SOL    HW238466   2.058   3.856  11.248  0.3087  3.1616 -1.0723
 8944SOL     OW38467   0.103   2.648   6.094  0.6367  0.4691 -0.3327
 8944SOL    HW138468   0.192   2.645   6.058  0.4359  0.0838 -0.8018
 8944SOL    HW238469   0.129   2.668   6.184  0.3754  1.3154 -0.4431
 8945SOL     OW38470   1.830   3.759   4.716  0.5016 -0.0620 -0.3707
 8945SOL    HW138471   1.736   3.773   4.705  0.5816  1.2894  0.7486
 8945SOL    HW238472   1.868   3.771   4.629 -1.8708  0.6952 -1.2900
 8946SOL     OW38473   1.857   1.711  12.576  0.0948 -0.1771 -0.2392
 8946SOL    HW138474   1.853   1.719  12.480 -3.5467 -1.1500 -0.1507
 8946SOL    HW238475   1.934   1.659  12.597 -0.8727 -1.4417  0.1359
 8947SOL     OW38476   3.360   0.011   6.476  0.0742  0.2722  0.4032
 8947SOL    HW138477   3.434   4.725   6.421 -1.7007 -1.0216 -1.4125
 8947SOL    HW238478   3.279   4.715   6.438  0.9763 -0.9577 -0.3602
 8948SOL     OW38479   1.660   3.189  10.981 -0.9571  0.6625  0.4497
 8948SOL    HW138480   1.613   3.209  11.062  0.3037 -0.9339  1.5656
 8948SOL    HW238481   1.616   3.247  10.918  0.1560  1.3609  0.3192
 8949SOL     OW38482   2.692   2.738  10.318 -0.7800 -0.3530 -1.1568
 8949SOL    HW138483   2.745   2.732  10.238  1.8982 -0.2305  0.6237
 8949SOL    HW238484   2.661   2.647  10.312  0.7937 -0.8310 -2.1306
 8950SOL     OW38485   0.536   4.277   9.838 -0.0282  0.7940  0.2785
 8950SOL    HW138486   0.553   4.335   9.912 -2.9638  1.9956  0.0206
 8950SOL    HW238487   0.605   4.304   9.777  0.4803  1.0314  0.9565
 8951SOL     OW38488   3.171   4.543   7.900  1.1321  0.4880  0.0226
 8951SOL    HW138489   3.109   4.508   7.836  1.5296  0.9716 -0.6142
 8951SOL    HW238490   3.223   4.464   7.913  2.4013  1.3666  0.2906
 8952SOL     OW38491   3.727   2.447  15.661 -0.4043  0.2038 -0.5491
 8952SOL    HW138492   3.771   2.461  15.745  0.2603 -1.4861 -0.6160
 8952SOL    HW238493   3.792   2.481  15.600  0.4896 -0.9630 -0.2451
 8953SOL     OW38494   4.533   0.651   1.637 -0.9003  0.3168  0.0132
 8953SOL    HW138495   4.541   0.735   1.682  1.1448  0.4533 -0.6183
 8953SOL    HW238496   4.610   0.602   1.665 -1.3151  1.4483  3.1750
 8954SOL     OW38497   1.601   3.937  10.399 -0.0104  0.0294  0.2327
 8954SOL    HW138498   1.690   3.903  10.394  0.3679  0.7112  2.3670
 8954SOL    HW238499   1.560   3.862  10.354  0.0169  0.1008  0.0874
 8955SOL     OW38500   2.282   2.939  14.779 -0.4157  0.2170  0.2315
 8955SOL    HW138501   2.265   2.860  14.830  0.1409  1.6374  2.6260
 8955SOL    HW238502   2.198   2.953  14.734 -1.5579 -0.0737  2.2601
 8956SOL     OW38503   3.032   1.105   3.554 -0.6345 -0.5172 -0.3206
 8956SOL    HW138504   3.021   1.134   3.463 -4.1714 -1.9657 -0.3949
 8956SOL    HW238505   2.941   1.099   3.586 -0.0753  0.1831  1.3814
 8957SOL     OW38506   2.885   2.633   9.299 -0.2815 -0.1210 -0.3428
 8957SOL    HW138507   2.898   2.540   9.282 -0.9087 -0.3655  0.5093
 8957SOL    HW238508   2.974   2.658   9.323 -0.0406 -1.0236 -0.3229
 8958SOL     OW38509   3.521   0.457   7.470  0.2463 -0.1542  0.0736
 8958SOL    HW138510   3.584   0.525   7.448 -0.5898  0.8137  0.6792
 8958SOL    HW238511   3.579   0.381   7.481  0.7019 -0.0196 -1.5057
 8959SOL     OW38512   0.077   4.587  10.996 -0.1086  0.1649  0.0668
 8959SOL    HW138513   0.152   4.629  10.955 -0.6430  0.2992 -0.7862
 8959SOL    HW238514   0.057   4.530  10.921  0.3342 -0.7703  0.6631
 8960SOL     OW38515   3.384   2.719  15.244  0.4436  0.1631 -0.5376
 8960SOL    HW138516   3.414   2.791  15.188  0.2433 -1.0679 -2.2479
 8960SOL    HW238517   3.359   2.761  15.325 -1.7088  0.3647 -1.3086
 8961SOL     OW38518   1.226   1.940   6.505  0.4707  0.1589 -0.7569
 8961SOL    HW138519   1.292   2.004   6.532 -0.2638  0.4550  0.3587
 8961SOL    HW238520   1.220   1.883   6.582  2.2985  1.0671  0.0571
 8962SOL     OW38521   2.822   2.432   5.644  0.3294  0.5512 -0.3356
 8962SOL    HW138522   2.892   2.489   5.612  1.2263 -1.2239 -1.5362
 8962SOL    HW238523   2.764   2.434   5.568  0.0168  1.1573 -0.0849
 8963SOL     OW38524   0.513   3.596   6.992 -0.3253 -0.4470  0.0119
 8963SOL    HW138525   0.551   3.643   6.918 -0.4393  0.0820  0.2873
 8963SOL    HW238526   0.561   3.645   7.059 -1.1979  0.1585  0.2035
 8964SOL     OW38527   2.414   3.753  14.647  0.0287 -0.1722  0.4577
 8964SOL    HW138528   2.490   3.803  14.675  0.8936 -1.6652  0.7564
 8964SOL    HW238529   2.378   3.824  14.594 -0.5896  0.4168  1.6581
 8965SOL     OW38530   4.040   2.089   2.484  0.1937  0.3595 -0.9626
 8965SOL    HW138531   4.086   2.007   2.466 -2.7491 -1.6348  0.6344
 8965SOL    HW238532   3.969   2.062   2.543  0.5657 -0.2418 -0.7806
 8966SOL     OW38533   0.128   4.322   1.801 -0.4912  0.4459  0.0199
 8966SOL    HW138534   0.137   4.403   1.852 -0.1039 -0.4365  1.3465
 8966SOL    HW238535   0.069   4.275   1.859  1.3556 -0.0417  1.5050
 8967SOL     OW38536   2.233   2.250   8.687  0.0098 -0.0052  0.3745
 8967SOL    HW138537   2.143   2.279   8.706  0.6134  2.3393 -0.3101
 8967SOL    HW238538   2.284   2.318   8.730  0.3295  0.0935 -0.1551
 8968SOL     OW38539   2.814   3.436  12.983  0.0842 -0.0045 -0.0231
 8968SOL    HW138540   2.723   3.460  13.002 -0.5872 -0.8381 -2.1982
 8968SOL    HW238541   2.831   3.350  13.020  0.6579  0.3388  0.5040
 8969SOL     OW38542   3.338   2.938   1.460 -0.0096 -0.1612  0.1307
 8969SOL    HW138543   3.419   2.894   1.485  0.8291  1.2670 -0.0936
 8969SOL    HW238544   3.277   2.924   1.532  2.9498 -4.1249  1.8628
 8970SOL     OW38545   2.489   3.835  15.328  0.2592  0.3919 -0.7504
 8970SOL    HW138546   2.502   3.860  15.236 -2.0359 -1.2264 -1.5313
 8970SOL    HW238547   2.427   3.905  15.349  1.0232  1.3770 -1.7346
 8971SOL     OW38548   1.664   0.845   6.147 -0.5534 -0.0273 -0.4653
 8971SOL    HW138549   1.663   0.785   6.073 -2.8318 -1.6125  0.8279
 8971SOL    HW238550   1.753   0.881   6.141 -0.7302  0.3919 -0.5818
 8972SOL     OW38551   2.554   3.114   3.908  0.5884  0.9370  0.1327
 8972SOL    HW138552   2.529   3.109   3.815  1.3735  0.4875 -0.0537
 8972SOL    HW238553   2.469   3.128   3.949 -0.1553 -1.1969 -0.6487
 8973SOL     OW38554   0.068   3.154   7.557  0.0679 -0.6058 -0.1801
 8973SOL    HW138555   0.124   3.135   7.481 -1.0917  0.6415 -1.3412
 8973SOL    HW238556   0.140   3.186   7.611  1.0509 -0.5545 -1.5086
 8974SOL     OW38557   1.147   1.203   8.638 -0.2542 -0.2067 -0.4453
 8974SOL    HW138558   1.080   1.268   8.658  0.5711  0.4885  0.0492
 8974SOL    HW238559   1.196   1.193   8.720  1.0903  0.3775 -1.2025
 8975SOL     OW38560   0.408   1.332   6.455 -0.0520 -0.5288 -0.8033
 8975SOL    HW138561   0.371   1.327   6.543 -0.0657  1.1561 -0.7314
 8975SOL    HW238562   0.499   1.343   6.484 -0.3352  0.4302 -0.2829
 8976SOL     OW38563   2.127   0.781   9.594 -0.2674  0.2001  0.3542
 8976SOL    HW138564   2.053   0.755   9.540 -0.0173  2.6569 -1.1399
 8976SOL    HW238565   2.195   0.723   9.559 -0.2989  1.1958 -1.3562
 8977SOL     OW38566   2.263   2.361   3.604 -0.4214  0.5051 -0.1091
 8977SOL    HW138567   2.215   2.404   3.673  0.7267  0.3706  0.7789
 8977SOL    HW238568   2.199   2.296   3.573  0.4161  1.1102 -3.1598
 8978SOL     OW38569   1.889   4.618  13.473 -0.3779  0.1755  0.4688
 8978SOL    HW138570   1.877   4.712  13.461  1.5567  0.2069 -1.4158
 8978SOL    HW238571   1.800   4.583  13.473 -0.7545  1.1309 -1.2869
 8979SOL     OW38572   4.658   4.632  16.116  0.3073  0.1374 -0.3316
 8979SOL    HW138573   4.701   4.710  16.081  0.7856  0.9859  2.1780
 8979SOL    HW238574   4.571   4.650  16.081  0.3570  0.7987 -0.1308
 8980SOL     OW38575   0.201   1.992  16.495 -0.2267  0.1880 -0.0517
 8980SOL    HW138576   0.258   2.057  16.536  1.8918 -2.8374  1.8149
 8980SOL    HW238577   0.141   1.986  16.570 -1.4272  0.5911 -0.9960
 8981SOL     OW38578   3.681   4.358   7.144 -0.2111  0.3724  0.0123
 8981SOL    HW138579   3.716   4.382   7.058 -1.4388 -1.0684 -0.8937
 8981SOL    HW238580   3.761   4.367   7.196  1.1295 -1.5700 -1.7243
 8982SOL     OW38581   2.712   0.696   5.416 -0.1809  0.2628 -0.3171
 8982SOL    HW138582   2.715   0.604   5.443  2.3189  0.2730 -0.5681
 8982SOL    HW238583   2.757   0.681   5.333  1.8387  0.3926  0.7550
 8983SOL     OW38584   3.798   3.041   8.267 -0.6292  0.1576 -0.1828
 8983SOL    HW138585   3.892   3.056   8.281 -0.7793  2.6090 -1.6835
 8983SOL    HW238586   3.773   3.127   8.232  1.5798  0.4933 -0.9459
 8984SOL     OW38587   1.622   2.820  10.417  0.0975 -0.2029 -0.1925
 8984SOL    HW138588   1.679   2.875  10.471 -1.5654  0.8718  0.4496
 8984SOL    HW238589   1.546   2.817  10.474 -0.4910 -0.3873 -0.9742
 8985SOL     OW38590   0.008   2.781   5.857  0.2550 -0.0249 -0.7095
 8985SOL    HW138591   0.043   2.738   5.935 -1.3641 -1.9630 -1.0640
 8985SOL    HW238592   0.088   2.809   5.813  0.0560  1.2091 -0.2992
 8986SOL     OW38593   1.258   0.374   2.413 -0.7365 -0.4768 -0.3960
 8986SOL    HW138594   1.251   0.424   2.332  1.2857 -2.8048 -1.9704
 8986SOL    HW238595   1.219   0.291   2.387 -0.5398 -0.8483  0.5020
 8987SOL     OW38596   2.086   0.914   8.490  0.7238  0.1998  0.1323
 8987SOL    HW138597   2.146   0.850   8.528  0.2259  0.2619  1.0201
 8987SOL    HW238598   2.049   0.963   8.564 -0.1311 -0.0366 -0.1379
 8988SOL     OW38599   3.043   3.375   0.711  0.5019  0.4790  0.3353
 8988SOL    HW138600   3.097   3.421   0.647  1.0762 -1.8581 -0.8228
 8988SOL    HW238601   2.955   3.396   0.680  0.3628 -1.0276 -0.2692
 8989SOL     OW38602   3.799   1.773   1.417  0.5824 -0.4179  0.0601
 8989SOL    HW138603   3.737   1.799   1.485 -0.1777  0.8776 -1.1251
 8989SOL    HW238604   3.862   1.712   1.457  1.3889  0.1418 -0.3589
 8990SOL     OW38605   2.071   2.425   3.064 -0.7891  0.0165  0.0599
 8990SOL    HW138606   2.130   2.451   2.993  0.8976  0.9414  1.8221
 8990SOL    HW238607   1.992   2.394   3.019 -0.3105 -1.7756  0.4600
 8991SOL     OW38608   2.175   4.319   3.398  0.5116  0.0448 -0.8557
 8991SOL    HW138609   2.092   4.316   3.445  0.2079  1.8104 -1.2757
 8991SOL    HW238610   2.227   4.382   3.448  0.8281  0.4081 -1.6562
 8992SOL     OW38611   2.357   0.096   4.443  0.2562 -0.2741 -0.6069
 8992SOL    HW138612   2.290   0.052   4.391 -0.0947 -0.4050 -0.0447
 8992SOL    HW238613   2.437   0.074   4.396  0.7428 -1.2672  0.6774
 8993SOL     OW38614   4.492   2.467   3.592  0.4658 -0.6668  0.7200
 8993SOL    HW138615   4.498   2.399   3.525  0.1648 -0.2683  0.2883
 8993SOL    HW238616   4.509   2.418   3.673  3.9967  0.6666  0.7895
 8994SOL     OW38617   2.526   2.662   7.377 -0.0130  0.6953 -0.1099
 8994SOL    HW138618   2.608   2.692   7.414  0.2891 -0.6316  0.2859
 8994SOL    HW238619   2.496   2.746   7.342 -1.0351  0.6814  0.7351
 8995SOL     OW38620   2.417   2.743   4.201  0.1399 -0.3088 -0.2329
 8995SOL    HW138621   2.355   2.728   4.129 -3.2080  0.9277  2.4090
 8995SOL    HW238622   2.467   2.663   4.188 -0.1266 -0.1741 -2.0900
 8996SOL     OW38623   2.911   2.881   8.742 -0.0467  0.0986 -0.2764
 8996SOL    HW138624   2.881   2.908   8.829 -0.2586 -1.4785  0.1336
 8996SOL    HW238625   2.868   2.950   8.691 -0.2454  1.9764  2.4085
 8997SOL     OW38626   1.109   0.186   2.736  0.0185 -0.5466  0.7436
 8997SOL    HW138627   1.078   0.217   2.821 -1.7482  1.2478 -0.5371
 8997SOL    HW238628   1.049   0.114   2.716 -0.2018 -0.7197  2.0611
 8998SOL     OW38629   4.147   0.280  14.036  0.5674  0.1917  0.1701
 8998SOL    HW138630   4.115   0.228  14.110 -0.5268  0.3715 -0.1797
 8998SOL    HW238631   4.202   0.215  13.991  1.2281  0.4929  0.5426
 8999SOL     OW38632   2.911   0.374   5.891  0.0812 -0.3792 -0.2339
 8999SOL    HW138633   2.992   0.418   5.917 -0.1964  0.1819 -0.3207
 8999SOL    HW238634   2.858   0.451   5.873  0.4083 -0.7300 -2.8528
 9000SOL     OW38635   1.853   4.697   8.130  0.1328 -0.3114 -0.2340
 9000SOL    HW138636   1.777   4.644   8.157  0.9272 -1.6580 -0.6290
 9000SOL    HW238637   1.921   4.632   8.111 -0.7534 -0.7432 -1.9700
 9001SOL     OW38638   0.931   3.818   3.135  0.0045  0.6819 -0.1368
 9001SOL    HW138639   1.009   3.781   3.095  0.3692  1.5301 -0.2148
 9001SOL    HW238640   0.964   3.883   3.197 -0.0266 -0.7099  1.3250
 9002SOL     OW38641   3.825   4.053   9.907 -0.0399 -0.3405 -0.6526
 9002SOL    HW138642   3.782   3.968   9.913 -0.6363  0.0557  0.6189
 9002SOL    HW238643   3.797   4.089   9.991 -0.8508 -0.5050 -0.8486
 9003SOL     OW38644   3.717   2.707   6.562  0.3241  0.4570 -0.5451
 9003SOL    HW138645   3.754   2.780   6.612  1.3397 -0.8668  0.6421
 9003SOL    HW238646   3.799   2.662   6.541  0.1445 -1.1939  2.2995
 9004SOL     OW38647   1.917   2.455   7.342  0.3876 -0.1466 -0.4593
 9004SOL    HW138648   1.958   2.414   7.418 -1.5498 -0.0314  0.6237
 9004SOL    HW238649   1.868   2.523   7.388  1.0452  0.2794 -0.3801
 9005SOL     OW38650   4.603   1.398   8.482 -0.0930 -0.3884  0.0176
 9005SOL    HW138651   4.582   1.305   8.481 -0.9404 -0.1934 -1.0270
 9005SOL    HW238652   4.621   1.399   8.388  0.5012  2.6188  0.1681
 9006SOL     OW38653   0.398   1.880   2.620 -0.0359 -0.0310  0.8901
 9006SOL    HW138654   0.333   1.864   2.688 -0.2804 -0.9659  0.4349
 9006SOL    HW238655   0.455   1.813   2.658 -1.2597 -1.5671 -0.0063
 9007SOL     OW38656   4.397   3.324  12.450 -0.2818 -0.0731  0.1419
 9007SOL    HW138657   4.379   3.366  12.366  0.7552 -0.3970 -0.2441
 9007SOL    HW238658   4.479   3.280  12.426 -0.2478  0.3649 -0.5508
 9008SOL     OW38659   2.546   3.361   9.376  0.6774 -0.6397  0.1625
 9008SOL    HW138660   2.619   3.302   9.355  0.0465 -1.8962  1.4851
 9008SOL    HW238661   2.596   3.442   9.386  0.0677 -0.2574  0.0706
 9009SOL     OW38662   1.366   4.352  10.821  0.4593 -0.2558 -0.2422
 9009SOL    HW138663   1.369   4.368  10.726 -0.4922  0.0003 -0.2260
 9009SOL    HW238664   1.346   4.259  10.825  1.1422 -0.4563 -1.5297
 9010SOL     OW38665   0.121   2.202  15.999  0.0275  0.1021  0.7439
 9010SOL    HW138666   0.159   2.280  16.039  2.4471 -1.1272  0.8493
 9010SOL    HW238667   0.187   2.181  15.933 -1.4222 -0.5709 -0.4931
 9011SOL     OW38668   0.569   2.236   9.600  0.2546  0.4608 -0.2788
 9011SOL    HW138669   0.621   2.316   9.600 -1.3616  1.5207  1.5399
 9011SOL    HW238670   0.547   2.224   9.692  1.0159 -1.7522 -0.3881
 9012SOL     OW38671   3.895   2.345   5.250 -0.0988  0.6708  0.0596
 9012SOL    HW138672   3.927   2.278   5.311  0.5269 -0.3473 -1.3795
 9012SOL    HW238673   3.974   2.368   5.201 -0.4749  0.7531 -0.5090
 9013SOL     OW38674   3.377   0.762   6.901  0.0684  0.9013  0.3674
 9013SOL    HW138675   3.289   0.768   6.938  0.0514 -0.4217  0.5744
 9013SOL    HW238676   3.393   0.854   6.883  0.3481  0.6543 -0.6235
 9014SOL     OW38677   3.094   2.394   9.616 -0.3808  0.6849  0.5711
 9014SOL    HW138678   3.014   2.344   9.599  0.8273 -1.1601  0.2969
 9014SOL    HW238679   3.088   2.401   9.711 -0.1374  3.3950  0.4089
 9015SOL     OW38680   2.928   2.755   0.987 -0.1575  1.0472  0.5607
 9015SOL    HW138681   2.846   2.802   0.974 -1.1230 -0.7169  0.2779
 9015SOL    HW238682   2.975   2.833   1.016  1.3013  0.8718 -1.3658
 9016SOL     OW38683   4.351   2.017   8.834 -0.4028 -0.2094 -0.4839
 9016SOL    HW138684   4.370   1.923   8.845  1.2343  0.2248  0.4979
 9016SOL    HW238685   4.275   2.014   8.777 -0.5236  2.6611 -0.4522
 9017SOL     OW38686   1.824   2.736   2.731  0.5805 -0.0048 -0.0694
 9017SOL    HW138687   1.764   2.707   2.800  0.7544  0.6703  0.3648
 9017SOL    HW238688   1.786   2.820   2.706 -0.6609  0.1503  2.2729
 9018SOL     OW38689   3.111   0.983   7.375  0.2021  0.5092 -0.6445
 9018SOL    HW138690   3.097   1.026   7.460  0.2586  1.1956 -0.9856
 9018SOL    HW238691   3.080   0.894   7.394  1.0279  0.0704 -1.3457
 9019SOL     OW38692   2.770   0.047  11.066 -0.0872 -0.1120 -0.0945
 9019SOL    HW138693   2.844   4.730  11.092  0.7576 -0.1992 -2.7186
 9019SOL    HW238694   2.726   0.054  11.151 -0.3070 -0.1836 -0.2046
 9020SOL     OW38695   2.949   1.224   8.047  0.2305 -0.8159 -0.0500
 9020SOL    HW138696   2.976   1.151   8.102 -1.4627 -0.9010  0.6727
 9020SOL    HW238697   2.914   1.291   8.106  1.1796  0.4188 -0.8819
 9021SOL     OW38698   3.522   3.639   7.491  0.1510  0.4504 -0.3988
 9021SOL    HW138699   3.585   3.698   7.533 -0.2313  0.7800 -0.2852
 9021SOL    HW238700   3.546   3.653   7.400  1.1763  1.4727  0.0243
 9022SOL     OW38701   0.844   4.220   6.420  0.1777 -0.1612  0.4752
 9022SOL    HW138702   0.859   4.284   6.490 -0.9784  0.3230  0.2810
 9022SOL    HW238703   0.863   4.136   6.463  1.1720 -0.7601 -1.1414
 9023SOL     OW38704   0.440   0.447   0.332 -0.3718  0.5654 -0.6210
 9023SOL    HW138705   0.345   0.444   0.335 -0.3060 -2.0817 -1.3248
 9023SOL    HW238706   0.461   0.381   0.266  0.3090  0.6003 -0.4370
 9024SOL     OW38707   1.544   0.356   6.786 -0.3405 -0.0576  0.8873
 9024SOL    HW138708   1.623   0.305   6.770 -1.1649 -1.3291  0.9175
 9024SOL    HW238709   1.543   0.368   6.881 -2.7760 -2.0270  1.1161
 9025SOL     OW38710   1.612   3.810   3.338 -0.3882 -0.0474  0.1301
 9025SOL    HW138711   1.630   3.717   3.347  2.7341  0.5022 -0.4415
 9025SOL    HW238712   1.682   3.840   3.281  0.3425 -2.3181 -0.1316
 9026SOL     OW38713   3.603   1.641   3.065 -0.1152  0.0866 -0.2188
 9026SOL    HW138714   3.569   1.615   2.980  0.7964  2.0663 -1.1925
 9026SOL    HW238715   3.529   1.687   3.106  0.2344  1.0266 -0.6310
 9027SOL     OW38716   4.403   0.578   4.681 -0.0516  0.2840 -0.1630
 9027SOL    HW138717   4.317   0.561   4.644  0.3075 -1.8867  0.0095
 9027SOL    HW238718   4.420   0.510   4.746 -0.3262 -0.3865 -0.7869
 9028SOL     OW38719   1.418   2.649   2.413  0.7706 -0.2040 -0.2954
 9028SOL    HW138720   1.434   2.685   2.325 -0.4846 -1.0818 -0.8906
 9028SOL    HW238721   1.357   2.581   2.384  2.1508 -0.8340 -1.7623
 9029SOL     OW38722   3.402   1.037  11.787 -0.2426  0.1413  0.3348
 9029SOL    HW138723   3.486   1.080  11.770  0.5507 -1.6192 -0.2266
 9029SOL    HW238724   3.426   0.944  11.790  1.2738  0.5158 -0.0028
 9030SOL     OW38725   2.491   3.717   9.010 -0.4257  0.3492 -0.0028
 9030SOL    HW138726   2.421   3.781   8.995  0.3908  1.1454 -0.4446
 9030SOL    HW238727   2.460   3.676   9.090  0.5308  3.7150  2.1112
 9031SOL     OW38728   0.180   3.889   4.989 -0.3116 -0.4291 -0.4420
 9031SOL    HW138729   0.260   3.870   5.037 -0.9972 -1.6543  0.2027
 9031SOL    HW238730   0.166   3.974   5.029 -0.9742 -1.1867  0.9083
 9032SOL     OW38731   2.456   0.232   9.652  0.1386  0.0555  0.1134
 9032SOL    HW138732   2.372   0.252   9.613  0.6385 -0.6307 -1.3226
 9032SOL    HW238733   2.455   0.295   9.724 -1.5094  1.1364 -0.8552
 9033SOL     OW38734   3.272   0.063  13.785 -0.5779  0.3359 -0.1432
 9033SOL    HW138735   3.242   0.072  13.694  0.2284  3.7892 -0.0862
 9033SOL    HW238736   3.257   4.711  13.808  1.9163  0.1220  0.5678
 9034SOL     OW38737   4.410   2.205   5.742 -0.0762  0.5029  0.4950
 9034SOL    HW138738   4.433   2.297   5.725  1.5121  0.2207  1.0387
 9034SOL    HW238739   4.393   2.197   5.836  0.4875  2.1994  0.7561
 9035SOL     OW38740   2.147   2.154   5.075  0.3134 -0.5897  0.7414
 9035SOL    HW138741   2.090   2.218   5.031  0.7101  0.4293  1.7232
 9035SOL    HW238742   2.077   2.090   5.086  0.0487 -1.0335 -3.6226
 9036SOL     OW38743   2.537   0.901   5.421 -0.6100 -0.1303 -0.2701
 9036SOL    HW138744   2.598   0.828   5.413 -0.7458 -0.4998  2.1708
 9036SOL    HW238745   2.543   0.931   5.511  2.1297 -0.8226 -0.2299
 9037SOL     OW38746   2.425   4.306   5.926  0.1665  0.0612  0.4489
 9037SOL    HW138747   2.453   4.363   5.997  1.5430  0.2952 -0.2808
 9037SOL    HW238748   2.505   4.273   5.886  1.1626  0.5310  2.1061
 9038SOL     OW38749   3.174   1.179  17.103 -0.4238  0.2061  0.4005
 9038SOL    HW138750   3.143   1.122  17.033  1.3400 -1.9738  1.3914
 9038SOL    HW238751   3.232   1.246  17.066  1.4043 -1.0318  1.0318
 9039SOL     OW38752   2.455   0.453   2.891 -0.4524  0.4926  0.1714
 9039SOL    HW138753   2.362   0.442   2.874 -0.3636  0.1726 -0.1092
 9039SOL    HW238754   2.472   0.393   2.963 -0.0269  1.5772  0.9693
 9040SOL     OW38755   1.231   0.696   6.058 -0.4759 -0.0258 -0.0986
 9040SOL    HW138756   1.209   0.607   6.031  1.2819 -0.2095 -0.9402
 9040SOL    HW238757   1.315   0.674   6.098  0.7825  1.9456 -1.5783
 9041SOL     OW38758   1.697   3.489   6.079 -0.3632  0.1961  0.1137
 9041SOL    HW138759   1.708   3.445   5.995 -0.1618 -0.8225  0.6708
 9041SOL    HW238760   1.753   3.431   6.132  0.4528 -1.8890 -3.0165
 9042SOL     OW38761   4.081   2.891  16.040  0.1339 -0.0351  0.3118
 9042SOL    HW138762   4.080   2.945  16.119 -0.0396  1.6037 -0.8111
 9042SOL    HW238763   4.010   2.927  15.988  0.2886  1.4292  1.1281
 9043SOL     OW38764   4.249   0.781   1.693  0.1348 -0.7089  0.6504
 9043SOL    HW138765   4.338   0.767   1.725  0.8297  1.9248 -0.0820
 9043SOL    HW238766   4.259   0.756   1.601 -1.1921  0.9265  0.0642
 9044SOL     OW38767   0.780   3.849   4.792 -0.4162  0.2032 -0.1923
 9044SOL    HW138768   0.731   3.768   4.778 -2.2566  1.7330 -2.7753
 9044SOL    HW238769   0.774   3.849   4.887 -0.0710 -1.3281 -0.1770
 9045SOL     OW38770   0.932   4.450   2.838 -0.3849  0.4379 -0.1145
 9045SOL    HW138771   0.905   4.358   2.844  2.2215 -0.3178  0.2300
 9045SOL    HW238772   0.886   4.478   2.759 -2.6651 -2.3636  0.2366
 9046SOL     OW38773   4.161   3.765   4.995  0.5809 -0.5566  0.3334
 9046SOL    HW138774   4.249   3.728   5.006 -0.3270 -2.8326  0.0925
 9046SOL    HW238775   4.128   3.720   4.917  3.5636 -1.2082 -0.5708
 9047SOL     OW38776   1.879   1.136  15.613  0.4808 -0.9361 -0.0535
 9047SOL    HW138777   1.975   1.129  15.619  0.7285  0.9514 -1.6420
 9047SOL    HW238778   1.861   1.227  15.637  0.2244 -0.2989 -2.6861
 9048SOL     OW38779   4.314   1.354   1.287  0.8430  0.1567  0.3682
 9048SOL    HW138780   4.339   1.444   1.267  0.3489 -0.2517 -2.0783
 9048SOL    HW238781   4.397   1.312   1.310  2.5108  2.2789 -1.7459
 9049SOL     OW38782   0.661   0.271   7.865  0.3066  0.1291 -0.3183
 9049SOL    HW138783   0.664   0.287   7.959 -0.1704 -2.1219  0.0899
 9049SOL    HW238784   0.574   0.309   7.849 -0.5775 -1.8103 -0.1935
 9050SOL     OW38785   2.240   1.641   8.427 -0.0309 -0.6047  0.0338
 9050SOL    HW138786   2.294   1.619   8.503 -1.4978  0.5954  1.4136
 9050SOL    HW238787   2.290   1.604   8.354  0.1706 -0.0035 -0.1351
 9051SOL     OW38788   3.443   3.587   4.349  0.7356  0.2395 -0.1371
 9051SOL    HW138789   3.497   3.613   4.424  0.5720  0.0645  0.0382
 9051SOL    HW238790   3.378   3.657   4.344 -0.0734 -0.4512  0.7787
 9052SOL     OW38791   1.322   1.442   5.918 -0.0200  0.0072  0.3228
 9052SOL    HW138792   1.273   1.384   5.976 -0.0994  3.0815  3.3583
 9052SOL    HW238793   1.307   1.526   5.962 -0.2039  1.9804 -3.5436
 9053SOL     OW38794   3.655   2.341   7.346  0.1279  0.1753  0.2623
 9053SOL    HW138795   3.605   2.421   7.333  1.8566  1.3535  0.9535
 9053SOL    HW238796   3.708   2.340   7.266  1.4799 -1.1577  1.1857
 9054SOL     OW38797   1.330   1.914   9.667  0.0566 -0.2953 -0.4037
 9054SOL    HW138798   1.272   1.867   9.727 -1.1234  0.4006 -0.9970
 9054SOL    HW238799   1.273   1.916   9.591  0.5833  0.1381 -0.7912
 9055SOL     OW38800   2.337   2.986   7.448 -0.2752  0.1960  0.2683
 9055SOL    HW138801   2.287   2.936   7.383 -1.3157  1.0034  0.4538
 9055SOL    HW238802   2.425   2.991   7.411 -0.3040 -0.3801  0.1185
 9056SOL     OW38803   0.147   3.530   7.181 -0.2286  0.0588 -0.5762
 9056SOL    HW138804   0.163   3.624   7.184 -2.6177  0.4031  0.6506
 9056SOL    HW238805   0.124   3.508   7.271 -0.2183 -0.6706 -0.7475
 9057SOL     OW38806   3.052   0.630   7.205  0.0146  0.5758 -0.1185
 9057SOL    HW138807   3.100   0.553   7.236 -0.6333  0.1363 -0.2032
 9057SOL    HW238808   3.038   0.672   7.290 -1.0490  0.8502 -0.4268
 9058SOL     OW38809   4.095   3.425   9.553  0.5520  0.2040 -0.0409
 9058SOL    HW138810   4.014   3.397   9.512  0.9059 -0.2103 -0.4556
 9058SOL    HW238811   4.150   3.434   9.476 -0.9342 -0.6420 -1.1924
 9059SOL     OW38812   4.091   1.392   9.372  0.0399  0.2663  0.4601
 9059SOL    HW138813   4.154   1.330   9.409 -0.6854 -0.8830 -0.2243
 9059SOL    HW238814   4.094   1.366   9.280 -1.6089  1.7979 -0.0466
 9060SOL     OW38815   3.485   1.702   2.064  0.5942  0.3286 -0.0078
 9060SOL    HW138816   3.530   1.639   2.008 -0.2863 -1.4787  1.3165
 9060SOL    HW238817   3.548   1.774   2.063  1.4044 -0.4174 -2.6673
 9061SOL     OW38818   1.202   0.678   6.920  0.2163 -0.8192  0.2253
 9061SOL    HW138819   1.153   0.599   6.898  0.3388 -1.2138  1.3882
 9061SOL    HW238820   1.146   0.752   6.944  2.9065  0.5453  2.2680
 9062SOL     OW38821   3.772   1.645  12.375  0.0192 -0.2356 -0.0154
 9062SOL    HW138822   3.748   1.727  12.333  0.0187 -1.4560 -2.3849
 9062SOL    HW238823   3.694   1.622  12.426 -0.3234  3.8069  1.2359
 9063SOL     OW38824   1.195   0.729  12.037 -0.3485 -0.8807  0.2277
 9063SOL    HW138825   1.138   0.803  12.056  1.4076  1.4267 -3.4303
 9063SOL    HW238826   1.134   0.658  12.058 -0.4273 -1.7648 -2.9270
 9064SOL     OW38827   0.641   1.815   7.638  0.5875  0.0355 -0.3525
 9064SOL    HW138828   0.686   1.893   7.670  1.3810  0.2088 -1.9075
 9064SOL    HW238829   0.713   1.777   7.589  2.2773  0.6022  1.6877
 9065SOL     OW38830   0.365   0.067   1.673 -0.9992 -0.7236 -0.6054
 9065SOL    HW138831   0.346   4.716   1.647 -0.5121 -0.8238 -0.6093
 9065SOL    HW238832   0.298   0.095   1.736 -2.4448 -0.1667 -2.3782
 9066SOL     OW38833   4.086   3.599   2.375 -0.2989 -0.7766 -0.2610
 9066SOL    HW138834   4.178   3.626   2.368 -0.2633 -0.9149 -0.3288
 9066SOL    HW238835   4.033   3.678   2.368  0.8822 -0.1232 -1.9289
 9067SOL     OW38836   1.400   0.770   7.934  0.2051  0.1339 -0.2986
 9067SOL    HW138837   1.322   0.816   7.904  0.3567  0.0927 -0.7582
 9067SOL    HW238838   1.437   0.740   7.851  1.5059 -0.0486  0.3437
 9068SOL     OW38839   0.553   2.371  16.569 -0.2328 -0.2070 -0.0779
 9068SOL    HW138840   0.575   2.281  16.543 -0.8804  0.1725 -1.9068
 9068SOL    HW238841   0.637   2.417  16.567 -0.3452 -0.0745 -1.7698
 9069SOL     OW38842   2.343   1.185   5.466 -0.0636  0.0838 -0.7946
 9069SOL    HW138843   2.403   1.222   5.531 -0.8637  0.2615 -0.1645
 9069SOL    HW238844   2.298   1.266   5.445 -0.8411  0.4623  2.3082
 9070SOL     OW38845   0.782   0.087   1.446 -0.0231 -0.1608 -0.4355
 9070SOL    HW138846   0.731   0.137   1.383 -0.2328  0.9634  0.6094
 9070SOL    HW238847   0.720   0.083   1.520  0.0187  0.6076 -0.3549
 9071SOL     OW38848   0.144   4.289   1.540 -0.3212  0.1432  0.7241
 9071SOL    HW138849   0.088   4.360   1.573  0.5457  0.8687  0.6421
 9071SOL    HW238850   0.200   4.278   1.617 -0.0806  0.3409  0.5767
 9072SOL     OW38851   0.177   4.320   4.903  0.3843  0.1818 -0.5787
 9072SOL    HW138852   0.216   4.399   4.866 -0.5490  0.8794 -0.0701
 9072SOL    HW238853   0.090   4.330   4.864  0.3093  1.2697 -0.1156
 9073SOL     OW38854   2.868   1.122   7.821  0.3123  0.0536  0.2171
 9073SOL    HW138855   2.918   1.153   7.897  1.0128 -1.0342  0.2117
 9073SOL    HW238856   2.859   1.197   7.763 -2.2587  0.1190  0.7327
 9074SOL     OW38857   4.385   4.645   6.809  0.5035 -0.3972  0.2293
 9074SOL    HW138858   4.452   4.713   6.809 -0.4733  0.5530 -0.3244
 9074SOL    HW238859   4.381   4.635   6.714 -0.4799 -0.6307  0.2884
 9075SOL     OW38860   1.695   2.158  12.474  0.4569  0.0717  0.3195
 9075SOL    HW138861   1.683   2.087  12.537 -2.7684 -0.2346 -0.6084
 9075SOL    HW238862   1.737   2.109  12.403 -2.0405 -0.3657 -0.8816
 9076SOL     OW38863   3.537   2.525   7.639 -0.1821 -0.6054 -0.0707
 9076SOL    HW138864   3.492   2.451   7.598 -0.3956 -1.2153  1.2634
 9076SOL    HW238865   3.484   2.556   7.712 -2.3418 -1.3237 -1.3409
 9077SOL     OW38866   4.525   2.193  11.793 -0.3296 -0.2846  0.3477
 9077SOL    HW138867   4.495   2.283  11.787 -0.1091 -0.2929 -0.8035
 9077SOL    HW238868   4.452   2.155  11.841  0.1527 -0.1659  1.1727
 9078SOL     OW38869   0.462   4.524  11.355 -0.3337  0.5675 -0.2451
 9078SOL    HW138870   0.433   4.441  11.315  0.0677  0.8893 -1.2164
 9078SOL    HW238871   0.520   4.506  11.428  0.5504  0.8218 -0.8833
 9079SOL     OW38872   3.646   0.213   7.445  0.4900  0.3933  0.0681
 9079SOL    HW138873   3.656   0.125   7.481 -1.9497  0.3731  0.7406
 9079SOL    HW238874   3.644   0.191   7.351  0.9052 -0.1676  0.1937
 9080SOL     OW38875   0.087   0.523   9.159  0.7767  0.0747 -0.3224
 9080SOL    HW138876   0.057   0.440   9.194  0.8068  0.0188 -0.4305
 9080SOL    HW238877   0.033   0.588   9.204  0.0752 -0.3131 -0.6179
 9081SOL     OW38878   3.332   0.756  12.098  0.1005 -0.0250 -0.1817
 9081SOL    HW138879   3.384   0.836  12.093  0.4044 -0.1800  0.5609
 9081SOL    HW238880   3.357   0.721  12.183 -1.9041  0.0884  0.4474
 9082SOL     OW38881   0.469   1.077   2.878  0.2523 -0.0799 -0.0263
 9082SOL    HW138882   0.485   0.985   2.853 -0.4816 -0.2725  0.2317
 9082SOL    HW238883   0.376   1.082   2.855  0.5020 -0.4648 -1.1363
 9083SOL     OW38884   0.779   4.293  13.655 -0.2517 -0.2991  0.0535
 9083SOL    HW138885   0.769   4.244  13.736  0.1814  1.7887  1.3646
 9083SOL    HW238886   0.806   4.223  13.596  0.0032 -1.4741  1.5755
 9084SOL     OW38887   0.785   3.322  16.448 -0.5837  0.3342 -0.1501
 9084SOL    HW138888   0.840   3.299  16.524  0.2650  1.4411 -0.4373
 9084SOL    HW238889   0.735   3.241  16.437 -0.4778  0.3819 -0.9612
 9085SOL     OW38890   0.482   0.134   5.922 -0.2439  0.4959  0.3461
 9085SOL    HW138891   0.425   0.073   5.875  2.0988 -1.4258  0.0230
 9085SOL    HW238892   0.542   0.074   5.966 -0.2279 -1.5079 -2.4175
 9086SOL     OW38893   2.374   1.516   4.820  0.1530 -0.2756  0.7181
 9086SOL    HW138894   2.288   1.516   4.777  0.4259 -0.2236  0.1799
 9086SOL    HW238895   2.419   1.457   4.760  0.7166  0.2939  0.5838
 9087SOL     OW38896   2.397   3.353   8.964 -0.3228 -0.0571  0.1189
 9087SOL    HW138897   2.371   3.261   8.957 -0.1939 -0.1901  1.2389
 9087SOL    HW238898   2.491   3.333   8.974 -0.9349 -2.6025  0.7010
 9088SOL     OW38899   4.625   3.992   8.453 -0.4061 -0.1168  0.1131
 9088SOL    HW138900   4.617   3.904   8.490 -1.0946 -0.8781 -1.8680
 9088SOL    HW238901   4.593   4.048   8.524  1.3348 -0.0851  0.8817
 9089SOL     OW38902   3.090   0.914   1.776 -0.1393 -0.5776  0.1968
 9089SOL    HW138903   3.011   0.953   1.739  1.3249  0.6918 -1.5969
 9089SOL    HW238904   3.140   0.886   1.699  1.5291  0.1363  1.0021
 9090SOL     OW38905   0.558   1.110  13.250 -0.1142  0.4404 -0.2918
 9090SOL    HW138906   0.600   1.027  13.227 -1.5116 -0.0443 -1.1130
 9090SOL    HW238907   0.636   1.166  13.251  0.4682 -0.3858  1.7024
 9091SOL     OW38908   3.452   1.070   3.175  0.1705 -0.1812  0.0317
 9091SOL    HW138909   3.442   1.018   3.254  1.5465  1.1749  1.0929
 9091SOL    HW238910   3.470   1.008   3.105  0.2793  1.7276 -1.6431
 9092SOL     OW38911   4.154   1.446   9.097 -0.3814 -0.2195  0.6075
 9092SOL    HW138912   4.081   1.472   9.041  2.1942  3.5878 -0.9781
 9092SOL    HW238913   4.234   1.468   9.050 -2.8471  2.5410 -2.2352
 9093SOL     OW38914   3.019   2.202   1.275 -0.0938 -0.0451 -0.3206
 9093SOL    HW138915   2.950   2.260   1.307 -0.1706  0.1417 -0.8364
 9093SOL    HW238916   3.079   2.264   1.233  0.7633 -0.4121  0.3449
 9094SOL     OW38917   1.196   1.659  11.504 -0.0435  0.2546 -0.9630
 9094SOL    HW138918   1.220   1.751  11.499  1.6899 -0.2559 -1.7503
 9094SOL    HW238919   1.275   1.629  11.549 -0.4630 -2.0268 -1.7358
 9095SOL     OW38920   2.422   1.017   2.934 -0.5221  0.2865  0.2861
 9095SOL    HW138921   2.450   0.928   2.953 -1.5583 -0.0699  0.1234
 9095SOL    HW238922   2.379   1.036   3.018 -0.8728 -0.5730  0.2946
 9096SOL     OW38923   2.142   1.267  14.426 -0.3541 -0.0147  0.4608
 9096SOL    HW138924   2.229   1.241  14.456 -0.0785  0.8056  0.3915
 9096SOL    HW238925   2.100   1.182  14.417  0.1749 -0.0468 -1.4978
 9097SOL     OW38926   0.668   0.573  15.594 -0.0680 -0.4377  0.0947
 9097SOL    HW138927   0.739   0.521  15.555 -1.0730 -1.8299  0.1265
 9097SOL    HW238928   0.694   0.665  15.595 -1.1697 -0.0876 -2.2610
 9098SOL     OW38929   2.845   2.766  11.470 -0.2839  0.0574  0.3360
 9098SOL    HW138930   2.862   2.854  11.504  2.3119 -0.5419  0.6121
 9098SOL    HW238931   2.905   2.723  11.530  0.1524  0.5058  0.2279
 9099SOL     OW38932   4.715   3.519  15.624 -0.6698  0.2766  0.3600
 9099SOL    HW138933   4.665   3.551  15.699 -0.2921  1.4542  0.0999
 9099SOL    HW238934   0.061   3.492  15.660 -0.8766  0.0052  0.6503
 9100SOL     OW38935   2.844   2.199  15.255 -0.0204 -0.3360  0.8269
 9100SOL    HW138936   2.939   2.184  15.256  0.2019  1.0268 -0.1790
 9100SOL    HW238937   2.830   2.238  15.169 -1.6724 -1.1528  0.7309
 9101SOL     OW38938   2.203   2.371   4.135  0.6663  0.0569  0.6844
 9101SOL    HW138939   2.278   2.376   4.076  1.2725  1.1900  1.5498
 9101SOL    HW238940   2.145   2.315   4.084 -1.6388  1.2844  1.9544
 9102SOL     OW38941   0.999   0.400   5.232  0.2777 -0.5553  0.2478
 9102SOL    HW138942   1.087   0.435   5.249  0.1512  1.1310 -2.6639
 9102SOL    HW238943   0.993   0.347   5.312  0.2242 -0.6343  0.1914
 9103SOL     OW38944   3.910   4.094   7.566 -0.1074 -0.6672  0.2581
 9103SOL    HW138945   3.859   4.066   7.641  0.5754  1.5620  1.5422
 9103SOL    HW238946   3.978   4.027   7.556  0.9870  0.0976  2.6240
 9104SOL     OW38947   2.426   4.378   0.677 -0.2462  0.3159  0.0328
 9104SOL    HW138948   2.452   4.470   0.686 -0.3229  0.1543  1.8578
 9104SOL    HW238949   2.426   4.350   0.768  1.5190  0.4540  0.0900
 9105SOL     OW38950   0.263   4.444   5.918  0.0650 -0.5300  0.4153
 9105SOL    HW138951   0.208   4.387   5.865 -1.7838 -0.0029  1.7710
 9105SOL    HW238952   0.215   4.444   6.001  0.6312  2.1395  0.7379
 9106SOL     OW38953   3.057   3.656   3.484  0.7649 -0.2310  0.3375
 9106SOL    HW138954   3.122   3.642   3.552  0.8313  0.5091  0.4311
 9106SOL    HW238955   2.987   3.603   3.522 -1.8350 -0.8359 -5.2558
 9107SOL     OW38956   3.561   2.035   3.660  0.4451 -0.1030  0.0266
 9107SOL    HW138957   3.656   2.032   3.670  0.4685 -0.5784 -0.3462
 9107SOL    HW238958   3.533   2.004   3.746 -0.8212 -0.6151 -0.5642
 9108SOL     OW38959   0.249   4.151  12.375 -0.4047  0.1552 -0.2621
 9108SOL    HW138960   0.327   4.133  12.322 -1.3033 -0.2382 -1.4609
 9108SOL    HW238961   0.273   4.239  12.405  2.1380  0.0863 -2.0030
 9109SOL     OW38962   1.098   0.752   2.190  0.1750 -0.0834 -0.2017
 9109SOL    HW138963   1.190   0.764   2.213 -0.2078  1.2897  0.6172
 9109SOL    HW238964   1.081   0.660   2.210 -1.5886  0.0116 -1.2379
 9110SOL     OW38965   4.121   3.429   9.259  0.4381 -0.4142  0.0569
 9110SOL    HW138966   4.039   3.436   9.210 -1.1095  1.9281  3.0357
 9110SOL    HW238967   4.180   3.422   9.183 -0.8766  0.1551 -0.9981
 9111SOL     OW38968   2.977   4.174   5.289  0.1120  0.1917  0.6793
 9111SOL    HW138969   3.025   4.109   5.238 -0.0355  2.4949 -2.4371
 9111SOL    HW238970   3.023   4.196   5.369  0.9406 -3.2023  1.0879
 9112SOL     OW38971   1.256   0.586  12.933  0.9683  0.2604 -0.5133
 9112SOL    HW138972   1.170   0.543  12.936  0.8829  0.4375 -0.3834
 9112SOL    HW238973   1.277   0.580  12.840 -0.4280  0.1045 -0.8194
 9113SOL     OW38974   4.413   0.203   8.261  0.8680 -0.4426 -0.2301
 9113SOL    HW138975   4.478   0.149   8.307  0.7868  0.3568  0.8314
 9113SOL    HW238976   4.454   0.290   8.257 -0.2706  0.1717  1.5977
 9114SOL     OW38977   3.741   0.915  12.415  0.1256  0.2318 -0.0770
 9114SOL    HW138978   3.830   0.897  12.385 -0.1659 -1.6205  0.1515
 9114SOL    HW238979   3.727   0.846  12.481 -0.6793  0.5365  0.0631
 9115SOL     OW38980   3.860   2.907   6.685  0.5433 -0.4803 -0.6376
 9115SOL    HW138981   3.807   2.979   6.719  1.3089 -0.5777  0.7894
 9115SOL    HW238982   3.944   2.943   6.713  0.8827 -0.3914 -1.7920
 9116SOL     OW38983   2.735   4.418   7.857  0.0737 -0.1892 -0.0082
 9116SOL    HW138984   2.746   4.458   7.944 -1.2406  1.4202 -0.5794
 9116SOL    HW238985   2.824   4.421   7.821  0.5317 -3.9310  0.8480
 9117SOL     OW38986   4.283   3.311   8.990 -0.0567 -0.1096 -0.1365
 9117SOL    HW138987   4.295   3.230   9.040  1.0540  0.6324  0.7804
 9117SOL    HW238988   4.206   3.283   8.940  0.4544  0.2257 -1.0964
 9118SOL     OW38989   2.559   1.630   1.006  0.4165 -0.6716  0.1526
 9118SOL    HW138990   2.537   1.696   1.072  1.7385  0.7550 -0.8425
 9118SOL    HW238991   2.535   1.669   0.921  0.7968  0.7565  0.6919
 9119SOL     OW38992   1.234   0.249   0.586  0.2211  0.5048  0.3419
 9119SOL    HW138993   1.187   0.247   0.502 -0.1134 -0.9060  0.5615
 9119SOL    HW238994   1.298   0.317   0.569 -0.8696  1.8539  1.7117
 9120SOL     OW38995   0.706   2.271  15.618 -0.1001 -0.2269 -0.1846
 9120SOL    HW138996   0.625   2.229  15.589 -0.6111 -0.6231  1.8297
 9120SOL    HW238997   0.688   2.358  15.583  0.5492  0.8198  2.0629
 9121SOL     OW38998   3.311   3.511  15.158  0.3353  0.0072  0.2703
 9121SOL    HW138999   3.258   3.579  15.115 -0.9332 -1.7364 -0.9374
 9121SOL    HW239000   3.369   3.561  15.215 -0.7230 -2.7321  3.7428
 9122SOL     OW39001   1.723   0.447   0.397  0.6452 -0.0479 -0.7498
 9122SOL    HW139002   1.644   0.499   0.413  0.4766  0.3672 -2.8657
 9122SOL    HW239003   1.776   0.522   0.371  2.0508 -1.5838 -2.3660
 9123SOL     OW39004   2.894   0.438   4.665  0.2143 -0.1335 -0.2167
 9123SOL    HW139005   2.924   0.386   4.740  0.0151 -0.5531 -0.4285
 9123SOL    HW239006   2.976   0.464   4.623 -0.9003  0.7354 -1.8742
 9124SOL     OW39007   0.483   0.450   8.515  0.4749 -0.2778 -0.1900
 9124SOL    HW139008   0.530   0.367   8.523  0.0761 -0.3209  1.6081
 9124SOL    HW239009   0.553   0.515   8.514 -1.1154  1.4421 -0.9375
 9125SOL     OW39010   4.241   4.569   7.962 -0.3059 -0.4832  0.6597
 9125SOL    HW139011   4.248   4.645   8.021  0.6200  0.2341 -0.3729
 9125SOL    HW239012   4.326   4.527   7.954  0.1434  1.3013 -3.9937
 9126SOL     OW39013   2.819   4.697  13.994 -0.3374 -0.1699 -0.6963
 9126SOL    HW139014   2.735   0.001  13.981  0.5288  1.7463  0.1048
 9126SOL    HW239015   2.857   4.708  13.907  2.0289 -0.1403  0.3345
 9127SOL     OW39016   3.219   1.039  17.341 -0.0460  0.0205 -0.4110
 9127SOL    HW139017   3.140   0.985  17.348  0.3804 -0.4013  1.0081
 9127SOL    HW239018   3.187   1.100  17.274  2.0517  1.5694  0.0006
 9128SOL     OW39019   0.657   3.333  15.261  0.6445  0.1433  0.3329
 9128SOL    HW139020   0.651   3.379  15.344 -0.6423 -0.5983  0.6447
 9128SOL    HW239021   0.748   3.349  15.237  1.0190 -1.5850  0.5765
 9129SOL     OW39022   1.236   0.176   1.407  0.1258 -0.1936 -0.1712
 9129SOL    HW139023   1.188   0.142   1.331 -1.9096 -0.1321  1.1015
 9129SOL    HW239024   1.162   0.228   1.439  0.5833 -0.7142  1.7007
 9130SOL     OW39025   2.221   0.520   6.252 -0.5504 -0.4642 -0.3135
 9130SOL    HW139026   2.145   0.540   6.306  0.5451  1.6059  0.4523
 9130SOL    HW239027   2.280   0.589   6.281 -2.4360  1.2363 -0.5812
 9131SOL     OW39028   2.650   2.194   6.519  0.4050  0.2029 -0.8525
 9131SOL    HW139029   2.567   2.228   6.484  1.7658  1.5509 -2.7511
 9131SOL    HW239030   2.635   2.209   6.612 -0.5207  1.7560 -1.2407
 9132SOL     OW39031   2.196   2.928   0.429  0.4548  0.0781 -0.2013
 9132SOL    HW139032   2.173   3.016   0.458 -0.3916 -1.2421  3.1263
 9132SOL    HW239033   2.279   2.945   0.384  0.8554 -0.7106  0.2332
 9133SOL     OW39034   0.997   3.384  14.897 -0.2407  0.2340  0.5622
 9133SOL    HW139035   0.927   3.320  14.907 -0.3571  0.1539 -0.7536
 9133SOL    HW239036   1.073   3.329  14.878  0.0388  0.7567  0.1574
 9134SOL     OW39037   0.656   2.125   7.413 -0.2148 -0.1998 -0.2065
 9134SOL    HW139038   0.623   2.143   7.501  0.3343 -1.4639  0.2601
 9134SOL    HW239039   0.749   2.116   7.432 -1.1406 -0.9808  3.9366
 9135SOL     OW39040   3.150   4.410  13.186  0.2528  0.2671 -0.0450
 9135SOL    HW139041   3.066   4.454  13.197 -0.1381 -0.7590  1.0985
 9135SOL    HW239042   3.201   4.462  13.124  0.1052 -1.4564 -1.6295
 9136SOL     OW39043   0.824   2.880   0.139 -0.4212 -0.2819  0.0296
 9136SOL    HW139044   0.811   2.840   0.225 -2.3289 -0.2236 -0.2248
 9136SOL    HW239045   0.897   2.830   0.104 -0.4268 -1.9372  2.3849
 9137SOL     OW39046   1.633   0.262   0.225  0.5192 -0.2556  0.3422
 9137SOL    HW139047   1.668   0.318   0.294 -1.6846 -0.4561  1.6460
 9137SOL    HW239048   1.683   0.182   0.236  1.2636  0.2618  0.7236
 9138SOL     OW39049   2.465   0.452  14.107 -0.9813  0.0340  0.4848
 9138SOL    HW139050   2.548   0.437  14.061 -1.0236 -1.2388  0.8282
 9138SOL    HW239051   2.493   0.525  14.161  0.3533 -3.1131  4.0705
 9139SOL     OW39052   3.982   1.497   4.970  0.1622  0.2849  0.2577
 9139SOL    HW139053   3.963   1.563   5.036  2.0380 -0.5788  1.6926
 9139SOL    HW239054   4.078   1.495   4.962  0.3785 -1.1204  3.0484
 9140SOL     OW39055   4.268   4.260   7.677 -0.0443  0.2762 -0.5326
 9140SOL    HW139056   4.301   4.212   7.601 -0.6180 -0.5110 -0.2785
 9140SOL    HW239057   4.186   4.289   7.635  0.8605  1.9480 -1.1462
 9141SOL     OW39058   0.978   3.340   4.148 -0.1819  0.1958 -0.4717
 9141SOL    HW139059   1.002   3.427   4.181 -1.6355  0.1079  0.7819
 9141SOL    HW239060   1.026   3.276   4.201 -0.6354  0.4389  0.2277
 9142SOL     OW39061   4.214   0.544   2.826  0.5086  0.2942 -0.3718
 9142SOL    HW139062   4.259   0.511   2.748 -0.9438 -0.4985 -0.8627
 9142SOL    HW239063   4.151   0.473   2.829  0.6445  0.1743 -0.3347
 9143SOL     OW39064   1.886   2.777   7.343  0.1910  0.0688 -0.7640
 9143SOL    HW139065   1.889   2.724   7.423  0.0761 -0.8255 -1.3617
 9143SOL    HW239066   1.952   2.842   7.367  1.7788 -2.1034  0.7378
 9144SOL     OW39067   2.938   2.469  11.455 -0.2276  0.3909 -0.0256
 9144SOL    HW139068   2.900   2.557  11.455 -0.9562  0.0858  1.3450
 9144SOL    HW239069   3.017   2.472  11.401 -0.8969  0.8404 -0.9693
 9145SOL     OW39070   4.511   2.966   8.414 -0.0649 -0.4446  0.5320
 9145SOL    HW139071   4.559   3.000   8.490  2.0399 -1.8602 -0.1661
 9145SOL    HW239072   4.523   2.872   8.426 -3.4428 -0.8358  0.8604
 9146SOL     OW39073   1.433   0.213   4.366  0.2440  0.0929 -0.0815
 9146SOL    HW139074   1.522   0.177   4.361  0.7524  1.4011 -0.4997
 9146SOL    HW239075   1.431   0.260   4.449 -1.5611  1.3945 -0.8663
 9147SOL     OW39076   4.260   0.117   1.873 -0.2469  0.3120 -0.2421
 9147SOL    HW139077   4.169   0.146   1.868 -0.2488  0.2731 -0.4291
 9147SOL    HW239078   4.271   0.088   1.964  1.9283  1.1355 -0.2244
 9148SOL     OW39079   1.971   0.833  17.302  0.6788  0.5314 -0.1052
 9148SOL    HW139080   2.066   0.823  17.304  0.7991  1.7736  0.7842
 9148SOL    HW239081   1.957   0.906  17.363  0.1031  1.1311 -0.9649
 9149SOL     OW39082   2.062   4.622   7.794  0.2573  0.0544 -0.4779
 9149SOL    HW139083   2.089   4.562   7.864 -2.0377 -0.4203  0.0089
 9149SOL    HW239084   2.073   4.703   7.845 -0.6205 -0.8327  1.1281
 9150SOL     OW39085   4.441   1.355   4.465  0.3019 -0.1558 -0.4144
 9150SOL    HW139086   4.515   1.295   4.479 -0.6063 -1.2325 -0.2833
 9150SOL    HW239087   4.435   1.355   4.369 -3.6119 -1.0002 -0.1603
 9151SOL     OW39088   3.260   2.482   7.077 -0.2743  0.0167  0.0597
 9151SOL    HW139089   3.197   2.440   7.017 -0.7677  0.6623  0.1247
 9151SOL    HW239090   3.281   2.415   7.142  0.5019 -0.2995 -0.5173
 9152SOL     OW39091   2.043   2.821   2.864  0.5723  0.1547 -0.4105
 9152SOL    HW139092   1.974   2.762   2.833  0.1960  1.0161 -1.2096
 9152SOL    HW239093   1.993   2.898   2.890 -2.3249 -1.5468 -0.9760
 9153SOL     OW39094   0.935   1.103   6.119  0.0044 -0.3732  0.7743
 9153SOL    HW139095   0.945   1.010   6.140 -0.7640 -0.0163  2.7062
 9153SOL    HW239096   0.842   1.113   6.141 -0.0904  0.1008  0.1652
 9154SOL     OW39097   3.412   2.025   5.967 -0.3390 -0.3149 -0.4019
 9154SOL    HW139098   3.409   1.987   5.879 -1.5347  1.5544 -1.1724
 9154SOL    HW239099   3.336   1.984   6.009  0.4571 -0.1804  1.1833
 9155SOL     OW39100   0.567   3.948  16.839  0.0752 -0.1968  0.0415
 9155SOL    HW139101   0.652   3.988  16.821  0.6551 -1.2053  0.5325
 9155SOL    HW239102   0.558   3.882  16.770 -1.0930  1.2556 -1.1680
 9156SOL     OW39103   3.924   0.086  11.130  0.5608  0.6206 -0.2925
 9156SOL    HW139104   3.969   0.137  11.063  0.5562  0.6782 -0.2518
 9156SOL    HW239105   3.880   0.032  11.066 -0.3125  0.5788  0.3440
 9157SOL     OW39106   3.845   3.876   4.926  0.2257 -0.6202 -0.1415
 9157SOL    HW139107   3.762   3.830   4.926 -0.6543  0.9586  2.8110
 9157SOL    HW239108   3.864   3.894   5.019 -0.4410  1.8105 -0.4766
 9158SOL     OW39109   0.113   4.670   1.783  0.0224 -0.0373  0.0133
 9158SOL    HW139110   0.139   4.622   1.861 -0.6166 -2.3812 -1.2271
 9158SOL    HW239111   0.058   0.005   1.810 -0.0218 -1.0188  2.5913
 9159SOL     OW39112   4.656   2.691  17.620  0.0068 -0.5586  0.8401
 9159SOL    HW139113   4.649   2.687  17.715 -0.1276  0.3763  0.8689
 9159SOL    HW239114   4.642   2.602  17.588 -0.7647  0.4327 -1.5948
 9160SOL     OW39115   3.574   3.498   7.738  0.0123  0.2038 -0.3530
 9160SOL    HW139116   3.559   3.582   7.781  2.4646  0.4268  0.0616
 9160SOL    HW239117   3.560   3.523   7.646 -0.6902  0.5339 -0.1569
 9161SOL     OW39118   1.056   3.109   4.931 -0.0743 -0.2232  0.0506
 9161SOL    HW139119   1.020   3.091   4.844 -1.5049 -0.4635  0.6996
 9161SOL    HW239120   1.150   3.101   4.915 -0.1663  1.1813 -1.1319
 9162SOL     OW39121   3.603   1.993   0.451 -0.4936 -0.4266 -0.3479
 9162SOL    HW139122   3.642   2.052   0.386 -0.2078  0.9561  1.0760
 9162SOL    HW239123   3.519   1.993   0.406 -0.9815  0.5710  0.5773
 9163SOL     OW39124   2.333   0.064   8.819  0.1797 -0.1312 -0.5737
 9163SOL    HW139125   2.319   4.709   8.817  1.9440 -0.4114 -0.0881
 9163SOL    HW239126   2.270   0.073   8.890  1.4681  0.7559  0.4793
 9164SOL     OW39127   2.776   0.692   8.000 -0.0531  0.2780 -0.0272
 9164SOL    HW139128   2.775   0.598   8.018  0.0627  0.1332 -0.7615
 9164SOL    HW239129   2.865   0.715   8.027 -0.1847 -0.8893  1.3950
 9165SOL     OW39130   1.323   3.603   4.469 -0.3355  0.3574  0.1905
 9165SOL    HW139131   1.393   3.563   4.520  1.7081  1.3763 -1.8510
 9165SOL    HW239132   1.369   3.679   4.433  0.8689 -0.1932  0.5898
 9166SOL     OW39133   3.731   0.842   6.546  0.0067  0.2163  0.3436
 9166SOL    HW139134   3.794   0.861   6.476 -3.3927  3.9334 -1.6917
 9166SOL    HW239135   3.786   0.834   6.624 -0.1883 -0.1093  0.4452
 9167SOL     OW39136   2.927   2.091   2.262  0.2022  0.4658  0.0260
 9167SOL    HW139137   2.999   2.027   2.254 -0.4385 -0.3382  0.6715
 9167SOL    HW239138   2.938   2.143   2.182  0.1562 -0.0089 -0.2952
 9168SOL     OW39139   2.383   3.254   1.902  0.0720  0.5311  0.3518
 9168SOL    HW139140   2.304   3.247   1.848  0.0944 -1.1379  0.5538
 9168SOL    HW239141   2.374   3.347   1.923 -2.2671  0.7846 -1.6529
 9169SOL     OW39142   2.157   4.372   2.932  0.1699 -0.2804  0.6451
 9169SOL    HW139143   2.137   4.449   2.877 -0.6901 -1.2168 -0.3442
 9169SOL    HW239144   2.130   4.411   3.015 -0.8545  0.0750  0.1541
 9170SOL     OW39145   1.070   0.546   5.015 -0.1590  0.2725  0.3496
 9170SOL    HW139146   1.040   0.489   5.085 -0.2429 -1.1227 -0.8219
 9170SOL    HW239147   1.062   0.495   4.935 -2.8337 -0.8657  1.3657
 9171SOL     OW39148   2.655   3.816   8.413 -0.1636 -0.3354  0.0188
 9171SOL    HW139149   2.724   3.754   8.437  1.5470  1.6689  0.2146
 9171SOL    HW239150   2.606   3.762   8.351 -1.2075 -0.9595  1.3849
 9172SOL     OW39151   2.849   3.107   6.267  0.2946  0.7391 -0.4648
 9172SOL    HW139152   2.788   3.107   6.193  0.7340 -2.5077 -0.8010
 9172SOL    HW239153   2.784   3.093   6.336  1.4197 -1.8698  0.0409
 9173SOL     OW39154   0.359   2.393   6.001  0.1554 -0.0359  0.6943
 9173SOL    HW139155   0.298   2.418   5.930  0.5054  0.7634  0.6773
 9173SOL    HW239156   0.418   2.467   5.998 -1.5270  1.2351 -1.6081
 9174SOL     OW39157   2.028   2.638  12.054 -0.0652 -0.4539  0.4391
 9174SOL    HW139158   2.057   2.638  11.963 -0.8214  1.0523  0.2013
 9174SOL    HW239159   2.113   2.658  12.092 -1.1714  1.0656  2.1063
 9175SOL     OW39160   0.711   3.744   6.327 -0.3510 -0.5720  0.2737
 9175SOL    HW139161   0.787   3.771   6.380  0.4503  1.2499 -1.7714
 9175SOL    HW239162   0.746   3.665   6.287 -0.5774 -1.2545  1.4435
 9176SOL     OW39163   1.140   0.632  11.087 -0.1679 -0.0281  0.0942
 9176SOL    HW139164   1.116   0.573  11.158 -0.5278  3.9440  3.3180
 9176SOL    HW239165   1.230   0.600  11.075 -0.1625  0.1614 -0.3779
 9177SOL     OW39166   0.842   2.958  16.704 -0.5663 -0.5426  0.3359
 9177SOL    HW139167   0.919   2.919  16.661  0.1031  0.9219  0.2082
 9177SOL    HW239168   0.853   2.948  16.798  1.7862  0.4187  0.1769
 9178SOL     OW39169   3.153   1.816   5.063 -0.3403 -0.2242  0.7734
 9178SOL    HW139170   3.095   1.812   5.138 -2.2336 -0.5789 -0.6943
 9178SOL    HW239171   3.230   1.779   5.105  1.8863  3.4690 -0.0977
 9179SOL     OW39172   4.346   2.547   2.919 -0.3291 -0.2092  0.1592
 9179SOL    HW139173   4.315   2.478   2.860  2.0622 -1.0984 -0.0698
 9179SOL    HW239174   4.267   2.601   2.919  0.3086  0.7242 -0.6788
 9180SOL     OW39175   0.967   1.900   2.754 -0.1364  0.1599  0.5440
 9180SOL    HW139176   0.986   1.865   2.842 -1.8020 -1.1702  0.3655
 9180SOL    HW239177   1.024   1.977   2.751 -0.4652  0.3730 -0.0964
 9181SOL     OW39178   3.200   3.849   7.617  0.0784 -0.5585 -0.1158
 9181SOL    HW139179   3.280   3.895   7.590  0.6276 -1.6140 -0.2962
 9181SOL    HW239180   3.176   3.809   7.533  2.1686 -0.9943 -0.5047
 9182SOL     OW39181   3.842   0.562  15.889 -0.4693 -0.0455  0.3145
 9182SOL    HW139182   3.917   0.616  15.913 -0.1783 -0.7924  1.0707
 9182SOL    HW239183   3.809   0.529  15.973  0.2256 -2.5828 -0.4074
 9183SOL     OW39184   4.175   1.870   4.799  0.0970 -0.4840  0.1765
 9183SOL    HW139185   4.224   1.792   4.826 -1.0912 -1.2256  0.2204
 9183SOL    HW239186   4.238   1.938   4.823 -1.0587  0.2922  1.0383
 9184SOL     OW39187   2.683   0.879   4.008  0.8318  0.6104 -0.2103
 9184SOL    HW139188   2.666   0.944   4.077  1.5219  0.2488  0.3015
 9184SOL    HW239189   2.776   0.896   3.991  1.6116 -2.8440  0.7305
 9185SOL     OW39190   3.303   1.004   6.832  0.0315  0.8583 -0.2312
 9185SOL    HW139191   3.339   1.067   6.770 -1.9939  1.2056 -1.0528
 9185SOL    HW239192   3.291   1.063   6.907 -2.1374 -0.8706  0.8001
 9186SOL     OW39193   2.521   0.454   6.039 -0.0122  0.1663  0.7371
 9186SOL    HW139194   2.518   0.426   6.130  0.4987 -0.6371  0.5063
 9186SOL    HW239195   2.508   0.374   5.988 -0.9870  2.3467 -2.4470
 9187SOL     OW39196   2.498   2.159   4.561 -0.2749 -0.3973 -0.1637
 9187SOL    HW139197   2.407   2.137   4.543 -0.2439 -0.7972  0.1599
 9187SOL    HW239198   2.510   2.111   4.644 -0.4126  0.3309  0.2808
 9188SOL     OW39199   1.482   4.376   2.648 -0.1016 -0.0807 -0.2026
 9188SOL    HW139200   1.430   4.372   2.728 -1.4537  0.6326 -1.0449
 9188SOL    HW239201   1.455   4.467   2.632  0.4613  0.5170  2.2907
 9189SOL     OW39202   1.961   3.503   8.631  0.3083  0.7875  0.0546
 9189SOL    HW139203   2.025   3.433   8.622  1.4493  1.9146 -0.6521
 9189SOL    HW239204   1.878   3.470   8.594  0.7002  1.9003 -1.8263
 9190SOL     OW39205   0.722   4.264   9.628 -0.2513 -0.1091  0.0238
 9190SOL    HW139206   0.791   4.200   9.645 -1.1966 -1.4875 -1.3352
 9190SOL    HW239207   0.678   4.229   9.550 -1.3555 -1.0320  1.0622
 9191SOL     OW39208   4.727   4.031   1.186  0.1550  0.3756  0.0202
 9191SOL    HW139209   0.012   4.053   1.275  3.7178 -0.0374 -0.8221
 9191SOL    HW239210   4.717   4.121   1.154 -1.8909  0.1730  0.1232
 9192SOL     OW39211   3.969   0.143   5.885 -0.0211  0.3884  0.3129
 9192SOL    HW139212   3.903   0.088   5.926  0.2711  0.8387  1.3951
 9192SOL    HW239213   4.002   0.078   5.823 -0.6206 -2.5234  3.0171
 9193SOL     OW39214   0.935   1.404   8.441  0.0247  0.3114  0.0632
 9193SOL    HW139215   0.928   1.334   8.375 -1.5578 -0.1031  0.6846
 9193SOL    HW239216   0.929   1.480   8.383 -0.9428 -0.5281 -0.9411
 9194SOL     OW39217   1.371   3.940   3.344 -0.6055  0.3768  0.3270
 9194SOL    HW139218   1.427   3.863   3.338  0.4613  1.3036 -1.7726
 9194SOL    HW239219   1.409   3.988   3.270 -0.1369 -1.2798 -0.4993
 9195SOL     OW39220   3.754   3.363   7.913 -0.2145 -0.1244  0.0886
 9195SOL    HW139221   3.695   3.419   7.862  2.4665 -0.0470 -2.8925
 9195SOL    HW239222   3.738   3.273   7.882 -0.4908 -0.1593  0.3297
 9196SOL     OW39223   2.020   4.630   6.646  0.0773  0.3842 -0.1902
 9196SOL    HW139224   1.994   4.629   6.738 -1.5212  1.6194 -0.6115
 9196SOL    HW239225   1.948   4.586   6.601  1.0993  0.1346 -1.5699
 9197SOL     OW39226   4.060   2.579   8.713 -0.3495  0.1202  0.0133
 9197SOL    HW139227   4.093   2.643   8.650  0.1521 -0.2084 -0.0640
 9197SOL    HW239228   3.971   2.612   8.718 -0.5632 -0.4900  0.2505
 9198SOL     OW39229   3.750   0.763   5.303  0.4662  0.0567  0.3907
 9198SOL    HW139230   3.682   0.721   5.251 -0.1844  0.1786  1.1388
 9198SOL    HW239231   3.825   0.752   5.245 -0.0016 -1.0316 -0.0035
 9199SOL     OW39232   1.939   0.579  14.104 -0.4800 -0.6723  0.4969
 9199SOL    HW139233   1.876   0.633  14.056  0.2056 -0.1415  0.1941
 9199SOL    HW239234   1.935   0.489  14.072 -1.1697  0.2354 -1.9070
 9200SOL     OW39235   1.559   0.941   5.063  0.1893  0.1731 -0.3662
 9200SOL    HW139236   1.628   0.963   5.000 -0.4452  0.0146 -1.1217
 9200SOL    HW239237   1.487   0.926   5.000  1.2607 -0.6977 -1.3882
 9201SOL     OW39238   0.468   1.638  16.090  0.1137  0.2663 -0.7353
 9201SOL    HW139239   0.376   1.614  16.098  0.2966 -0.4105 -0.6526
 9201SOL    HW239240   0.502   1.595  16.168  0.0737  1.1067 -0.2500
 9202SOL     OW39241   2.135   3.857   7.239  0.2572  0.3136 -0.8089
 9202SOL    HW139242   2.046   3.890   7.228  0.2844 -0.0136 -1.9957
 9202SOL    HW239243   2.191   3.927   7.205  0.1794  1.3794  1.2365
 9203SOL     OW39244   0.422   3.607   6.344  0.1568  0.3520  0.1101
 9203SOL    HW139245   0.348   3.557   6.378 -0.7449  1.2744 -0.4595
 9203SOL    HW239246   0.498   3.551   6.353  0.9525  1.5100  0.6631
 9204SOL     OW39247   4.553   1.129   8.462 -0.2008  0.3810 -0.2105
 9204SOL    HW139248   4.562   1.043   8.503  4.1240  1.5538  1.2704
 9204SOL    HW239249   4.624   1.137   8.399 -0.5137 -1.4465 -0.8042
 9205SOL     OW39250   0.570   4.530   6.083  0.3225 -0.3768  0.2956
 9205SOL    HW139251   0.565   4.519   5.988 -0.5441  0.7741  0.2030
 9205SOL    HW239252   0.479   4.518   6.110  0.5490 -2.0303  0.3031
 9206SOL     OW39253   0.421   4.369   3.349 -0.3510  0.5214  0.1385
 9206SOL    HW139254   0.326   4.361   3.362  0.0371 -1.7704  1.5626
 9206SOL    HW239255   0.423   4.420   3.268 -4.1841 -0.9610 -0.9056
 9207SOL     OW39256   2.132   0.232   5.366  0.6361 -0.0970  0.2949
 9207SOL    HW139257   2.128   0.137   5.377  0.5097 -0.3698 -2.0433
 9207SOL    HW239258   2.212   0.232   5.313  1.3153  1.9296  1.3012
 9208SOL     OW39259   0.412   0.382   7.835  0.2555  0.3928  0.0864
 9208SOL    HW139260   0.340   0.360   7.894  1.7757 -0.6102  1.5748
 9208SOL    HW239261   0.426   0.471   7.866 -1.3701  0.6705  0.0272
 9209SOL     OW39262   3.314   3.633   9.996  0.1898 -0.2035  0.5945
 9209SOL    HW139263   3.290   3.718  10.033 -0.2245 -0.8577  1.8272
 9209SOL    HW239264   3.232   3.598   9.960  0.0830  2.0270 -1.3674
 9210SOL     OW39265   2.993   2.181   2.000  0.1544 -0.0630  0.2165
 9210SOL    HW139266   3.067   2.170   1.940 -0.7242  3.1433 -1.4979
 9210SOL    HW239267   2.968   2.273   1.990 -4.1268 -1.0436  1.9878
 9211SOL     OW39268   3.337   1.046   1.879 -0.2909 -0.4479 -0.4522
 9211SOL    HW139269   3.356   1.109   1.810 -2.0398  0.6666  0.1058
 9211SOL    HW239270   3.249   1.013   1.862 -0.1891 -0.5537 -0.7710
 9212SOL     OW39271   2.682   3.933   7.445  0.0884  0.1634 -0.1725
 9212SOL    HW139272   2.677   3.844   7.411  0.0729 -0.8312  2.3756
 9212SOL    HW239273   2.727   3.918   7.529 -0.2035  1.8280  0.2688
 9213SOL     OW39274   3.018   4.163   4.872 -0.1387 -0.1538 -0.0657
 9213SOL    HW139275   3.045   4.111   4.797  2.3545  1.8990 -0.5897
 9213SOL    HW239276   3.104   4.193   4.903  1.0021 -1.4473 -2.0145
 9214SOL     OW39277   3.856   3.588   9.286  0.0056 -0.6206  0.2095
 9214SOL    HW139278   3.851   3.523   9.356 -0.5620 -1.1794 -0.3432
 9214SOL    HW239279   3.798   3.553   9.218 -0.6808 -0.5891  0.7691
 9215SOL     OW39280   1.483   3.231   6.134 -0.0319  0.2987  0.1249
 9215SOL    HW139281   1.469   3.255   6.042  0.2153  0.7205  0.1966
 9215SOL    HW239282   1.530   3.148   6.139 -2.0008 -0.9740 -2.6942
 9216SOL     OW39283   4.323   3.662   3.534  0.6014 -0.2305 -0.1699
 9216SOL    HW139284   4.301   3.659   3.440  1.5572  3.9071 -0.5182
 9216SOL    HW239285   4.311   3.567   3.545 -0.6236  0.1115  1.4527
 9217SOL     OW39286   1.115   2.467   2.618  0.4598 -0.0801 -0.2974
 9217SOL    HW139287   1.201   2.464   2.576  0.3191 -1.3530 -0.4830
 9217SOL    HW239288   1.084   2.557   2.607 -2.1958 -1.0691 -0.8359
 9218SOL     OW39289   4.722   4.556   3.478 -0.7309  1.2236  0.1267
 9218SOL    HW139290   4.631   4.565   3.448 -1.3558 -1.2149  1.2809
 9218SOL    HW239291   4.733   4.634   3.533 -3.1814  1.0253  0.9210
 9219SOL     OW39292   0.810   0.932  16.382  0.4707 -0.0673  0.4906
 9219SOL    HW139293   0.820   0.838  16.369  0.1295 -0.1545  0.8512
 9219SOL    HW239294   0.763   0.958  16.303  1.3583 -0.9699 -0.3200
 9220SOL     OW39295   4.393   3.168   4.239 -0.6441 -0.3647  0.1629
 9220SOL    HW139296   4.324   3.211   4.188 -0.6806  1.1164  1.4338
 9220SOL    HW239297   4.368   3.076   4.231 -1.5059 -0.1359  0.1804
 9221SOL     OW39298   4.291   3.134  16.468  0.1593 -0.0904  0.6486
 9221SOL    HW139299   4.340   3.052  16.467 -1.1368 -0.9022  4.0654
 9221SOL    HW239300   4.203   3.103  16.486 -0.2826  1.8862  1.9311
 9222SOL     OW39301   1.372   4.553   6.178 -0.3206 -0.2466  0.3643
 9222SOL    HW139302   1.377   4.560   6.083 -0.3384 -0.7219  0.3294
 9222SOL    HW239303   1.345   4.642   6.201 -2.7934 -0.7813 -0.4766
 9223SOL     OW39304   4.552   3.035   2.629 -0.6663  0.1609 -0.5819
 9223SOL    HW139305   4.542   2.974   2.556 -3.7556  0.7786 -0.6730
 9223SOL    HW239306   4.601   3.104   2.584  0.3952  0.6735  1.3475
 9224SOL     OW39307   0.765   2.750   5.092  0.4574 -0.2183  0.3176
 9224SOL    HW139308   0.823   2.681   5.059  1.0312 -0.2940  1.4587
 9224SOL    HW239309   0.773   2.753   5.188 -0.6400 -1.9190  0.4638
 9225SOL     OW39310   0.175   2.128   4.701  0.8255  0.5369 -0.2651
 9225SOL    HW139311   0.111   2.166   4.640 -0.3759  2.5383  2.2677
 9225SOL    HW239312   0.248   2.185   4.675 -0.3232  2.1022 -0.0470
 9226SOL     OW39313   1.612   0.838   1.665 -0.0772 -0.2280  0.2789
 9226SOL    HW139314   1.673   0.911   1.653 -0.5354 -0.1993 -1.8818
 9226SOL    HW239315   1.575   0.865   1.749 -0.3724  1.4601 -0.3797
 9227SOL     OW39316   1.835   2.705  14.742  0.1366  0.0688 -0.3494
 9227SOL    HW139317   1.757   2.714  14.796 -1.0869 -1.0960 -1.9448
 9227SOL    HW239318   1.828   2.777  14.679  2.3804  0.6116 -0.0120
 9228SOL     OW39319   2.785   2.696   9.047  0.2006 -0.7446  0.4197
 9228SOL    HW139320   2.792   2.792   9.052 -2.0277 -0.5564 -0.1623
 9228SOL    HW239321   2.850   2.662   9.107 -1.0471 -0.0653  2.1524
 9229SOL     OW39322   4.123   2.563   5.533  1.3901  0.4975 -0.2550
 9229SOL    HW139323   4.209   2.555   5.492  1.3070  1.7358 -0.6983
 9229SOL    HW239324   4.095   2.476   5.562  1.5917  0.9523  1.3286
 9230SOL     OW39325   4.044   4.191   6.430  0.1881 -0.2222 -0.7729
 9230SOL    HW139326   4.070   4.267   6.379  0.0396  0.6121  0.3790
 9230SOL    HW239327   4.062   4.119   6.370 -1.6063  0.3677 -2.0106
 9231SOL     OW39328   2.440   0.876   6.874 -0.1189  0.0593 -0.1363
 9231SOL    HW139329   2.434   0.842   6.785  0.6586 -2.1874  0.6541
 9231SOL    HW239330   2.521   0.927   6.867  0.1014 -0.2874 -0.0968
 9232SOL     OW39331   0.865   1.185   9.311  0.2676  0.0992  0.2190
 9232SOL    HW139332   0.871   1.277   9.336 -2.4499 -0.0581  1.4429
 9232SOL    HW239333   0.832   1.145   9.392  1.8198 -1.0505  0.2943
 9233SOL     OW39334   3.317   3.795  15.579  0.2273  0.1876 -0.2704
 9233SOL    HW139335   3.364   3.858  15.524 -1.4786  0.4383 -1.4320
 9233SOL    HW239336   3.246   3.850  15.610  0.4064  1.1542 -1.5887
 9234SOL     OW39337   0.267   4.287   7.112 -0.0544 -0.2435 -0.2503
 9234SOL    HW139338   0.261   4.327   7.199  1.8031 -1.1610  0.2838
 9234SOL    HW239339   0.199   4.222   7.130  0.6838 -1.0290 -0.3272
 9235SOL     OW39340   2.269   0.298  14.015 -0.1720 -0.0645 -0.0335
 9235SOL    HW139341   2.201   0.360  13.991  0.2575  0.5515  0.3516
 9235SOL    HW239342   2.340   0.344  14.060  1.1637 -2.0156 -0.1193
 9236SOL     OW39343   4.188   1.676   5.567 -0.1971 -0.4447 -0.3259
 9236SOL    HW139344   4.242   1.610   5.524  0.6822  0.6118 -0.8368
 9236SOL    HW239345   4.184   1.741   5.497 -1.4091 -2.3456 -2.0341
 9237SOL     OW39346   3.216   3.462   5.932 -0.5688  0.1991 -0.4419
 9237SOL    HW139347   3.166   3.499   5.859  0.8941  0.4335 -1.3204
 9237SOL    HW239348   3.298   3.502   5.903 -0.1453 -0.3428  0.0146
 9238SOL     OW39349   4.729   0.328  13.584  0.5509  0.0593 -0.1770
 9238SOL    HW139350   0.017   0.305  13.495 -0.1597 -2.2914  0.2140
 9238SOL    HW239351   0.022   0.418  13.595  1.5925 -0.4554  0.9741
 9239SOL     OW39352   3.284   2.618  16.993  0.3398 -0.1272 -0.1016
 9239SOL    HW139353   3.288   2.557  17.067 -1.9989  0.7537  0.7229
 9239SOL    HW239354   3.363   2.661  17.024  0.3752 -0.2831  0.0249
 9240SOL     OW39355   2.414   2.320   2.249 -0.3334 -0.9833  0.7075
 9240SOL    HW139356   2.454   2.379   2.184  2.7842 -1.8292  1.8710
 9240SOL    HW239357   2.463   2.340   2.328  0.5967  1.4008 -0.4596
 9241SOL     OW39358   3.469   1.459   8.994  0.9277 -0.0214 -0.1536
 9241SOL    HW139359   3.500   1.369   9.003 -0.2920 -0.2644  1.5497
 9241SOL    HW239360   3.552   1.507   9.001  0.9048  0.2445 -1.7257
 9242SOL     OW39361   1.976   0.668   8.371 -0.3135  0.4278 -0.4035
 9242SOL    HW139362   1.962   0.680   8.277 -1.4594  2.1190 -0.0209
 9242SOL    HW239363   1.938   0.753   8.394 -1.1471 -0.7163  2.3470
 9243SOL     OW39364   0.680   1.810   6.619 -0.3082 -0.3660  0.0697
 9243SOL    HW139365   0.629   1.786   6.697 -1.2541 -1.2614 -0.8190
 9243SOL    HW239366   0.622   1.806   6.543 -0.7937 -0.0260  0.4189
 9244SOL     OW39367   2.257   2.615   4.597  0.3317  0.3672 -0.1097
 9244SOL    HW139368   2.192   2.603   4.527 -0.0270 -0.6943  0.4047
 9244SOL    HW239369   2.213   2.578   4.673 -0.0774  0.1603 -0.4457
 9245SOL     OW39370   2.041   3.597   1.825  0.5009  0.2571  0.2979
 9245SOL    HW139371   2.033   3.538   1.751  0.6339  0.6166 -0.0007
 9245SOL    HW239372   2.078   3.675   1.784 -2.1301  0.7739 -1.1183
 9246SOL     OW39373   0.699   3.081   8.953  0.1555 -0.5398 -0.1754
 9246SOL    HW139374   0.750   3.026   8.894 -2.5021 -1.7124 -1.3599
 9246SOL    HW239375   0.734   3.059   9.040 -0.6261  0.7930  0.4669
 9247SOL     OW39376   1.809   0.153   0.555 -0.7012 -0.3847 -0.6060
 9247SOL    HW139377   1.783   0.187   0.469 -0.8804  0.4949 -0.1982
 9247SOL    HW239378   1.885   0.208   0.574 -1.1877  0.0439  0.0712
 9248SOL     OW39379   4.322   3.753   6.736 -0.7018  0.4403 -0.3210
 9248SOL    HW139380   4.377   3.810   6.790 -1.6727  0.0907  1.0444
 9248SOL    HW239381   4.382   3.682   6.715  2.2230  2.3676  1.3603
 9249SOL     OW39382   3.336   1.130   5.704  0.2262  0.5624  0.1460
 9249SOL    HW139383   3.279   1.174   5.641 -1.8356  2.5911  3.4376
 9249SOL    HW239384   3.295   1.044   5.698  0.0442  0.8010 -2.1259
 9250SOL     OW39385   1.238   2.169   5.472  0.0368 -0.2372 -0.0240
 9250SOL    HW139386   1.192   2.107   5.414 -0.3016 -0.5133  0.5439
 9250SOL    HW239387   1.185   2.178   5.551  0.7985  0.1061  0.4377
 9251SOL     OW39388   1.404   1.894   6.224  0.3093 -0.3286  0.8621
 9251SOL    HW139389   1.432   1.803   6.230 -0.9301 -0.7626 -0.0943
 9251SOL    HW239390   1.421   1.933   6.310  0.0036 -1.1092  1.2749
 9252SOL     OW39391   0.113   0.470  12.092  0.1920 -0.3447 -0.0070
 9252SOL    HW139392   0.086   0.414  12.019 -0.4024  0.6574 -0.5642
 9252SOL    HW239393   0.205   0.493  12.077 -0.0639  1.7630  1.5717
 9253SOL     OW39394   0.413   3.788  17.536  0.9785 -0.1017  0.0932
 9253SOL    HW139395   0.448   3.709  17.494  0.6850  0.7452 -1.7513
 9253SOL    HW239396   0.494   3.825  17.570  0.3845 -0.1989  1.6261
 9254SOL     OW39397   0.826   0.096  16.921  0.3590  0.5990  0.5026
 9254SOL    HW139398   0.732   0.077  16.912  0.5653 -0.5849  0.9663
 9254SOL    HW239399   0.853   0.049  17.000 -0.8249  1.6137  1.5219
 9255SOL     OW39400   0.246   3.932   3.268 -0.5316  0.3612  0.0248
 9255SOL    HW139401   0.183   3.874   3.226 -0.8635  2.7946 -2.7833
 9255SOL    HW239402   0.331   3.894   3.250 -0.3823  0.7038  0.0159
 9256SOL     OW39403   3.364   2.556   6.046 -0.3375  0.4650  0.0481
 9256SOL    HW139404   3.270   2.544   6.040 -0.1465 -1.3451  0.7548
 9256SOL    HW239405   3.396   2.487   5.988  1.2051 -0.6495  2.1867
 9257SOL     OW39406   3.619   3.618   3.716 -0.1575  0.7779 -0.2436
 9257SOL    HW139407   3.659   3.651   3.636 -2.3057  1.2614 -1.1033
 9257SOL    HW239408   3.578   3.539   3.683  1.8678  0.2887 -1.5766
 9258SOL     OW39409   0.208   3.941   8.471 -0.0087  0.0484  0.2266
 9258SOL    HW139410   0.218   3.849   8.498 -0.5706 -0.1003 -0.0803
 9258SOL    HW239411   0.170   3.980   8.549  0.2812  2.3187 -0.7614
 9259SOL     OW39412   4.647   0.213  12.151  0.5516  0.5530 -0.3565
 9259SOL    HW139413   4.623   0.304  12.139  0.2238  0.5430  0.2225
 9259SOL    HW239414   4.583   0.175  12.091  1.6708  1.4522 -2.0872
 9260SOL     OW39415   4.488   1.159   4.241  0.4018  0.2064  0.1488
 9260SOL    HW139416   4.499   1.065   4.235  0.6207  0.1678  1.1325
 9260SOL    HW239417   4.402   1.161   4.199 -0.2198  0.1243  1.4255
 9261SOL     OW39418   1.453   2.936   8.097 -0.1170 -0.7459 -0.2654
 9261SOL    HW139419   1.468   2.996   8.025 -0.8374 -0.7393 -0.4110
 9261SOL    HW239420   1.459   2.996   8.172  2.6851 -2.4655  0.8518
 9262SOL     OW39421   0.902   3.008   9.634 -0.2866  0.2560 -0.1352
 9262SOL    HW139422   0.952   2.978   9.710 -2.1142 -5.1460 -1.0722
 9262SOL    HW239423   0.820   3.031   9.677 -1.8273 -1.0000 -2.4167
 9263SOL     OW39424   4.665   4.676   4.440 -0.2651 -0.0217  0.2106
 9263SOL    HW139425   4.614   4.649   4.517 -1.3963  1.6717  0.0482
 9263SOL    HW239426   4.735   4.718   4.489  1.5316 -2.3664 -0.3759
 9264SOL     OW39427   4.002   2.490   7.005  0.5447 -0.0317  0.3354
 9264SOL    HW139428   3.989   2.487   6.910 -2.8004  1.2540  0.7613
 9264SOL    HW239429   3.993   2.583   7.026  4.0862  0.3463  0.2019
 9265SOL     OW39430   0.239   4.222   2.670  0.1331 -0.7392 -0.2760
 9265SOL    HW139431   0.240   4.212   2.765 -3.6777 -0.3526 -0.2241
 9265SOL    HW239432   0.324   4.181   2.651 -0.5469 -2.2999  0.0839
 9266SOL     OW39433   3.265   2.490  17.226  0.1871 -0.0475  0.0056
 9266SOL    HW139434   3.177   2.458  17.243 -0.4124  1.4368 -0.2961
 9266SOL    HW239435   3.314   2.447  17.297 -0.1544 -0.1463  0.1810
 9267SOL     OW39436   2.251   0.176  12.947  0.2655  0.4661  0.5494
 9267SOL    HW139437   2.241   0.130  13.030  0.2668 -0.2353  0.1637
 9267SOL    HW239438   2.160   0.170  12.919  0.5179 -0.5841 -0.0421
 9268SOL     OW39439   4.124   0.983   2.377 -0.2865 -0.8771  0.0315
 9268SOL    HW139440   4.144   0.947   2.291 -1.5121  1.1166 -1.0690
 9268SOL    HW239441   4.183   0.940   2.439 -0.8638  0.2864  1.3803
 9269SOL     OW39442   2.767   4.341   4.062  0.1632 -0.4765 -0.2668
 9269SOL    HW139443   2.762   4.325   3.968 -0.0342  1.0909 -0.5148
 9269SOL    HW239444   2.795   4.432   4.066 -2.6666  0.3752 -0.1329
 9270SOL     OW39445   2.676   3.724   4.557 -0.6402 -0.0117  0.1147
 9270SOL    HW139446   2.672   3.632   4.530 -2.3827  0.5292 -1.4718
 9270SOL    HW239447   2.617   3.722   4.632  0.7602  0.9795  1.2413
 9271SOL     OW39448   4.241   4.733   5.981  0.0597  0.4315  0.5070
 9271SOL    HW139449   4.181   0.033   5.918  0.2594 -0.3825 -0.1874
 9271SOL    HW239450   4.309   4.702   5.921  2.9801  0.6834  3.6703
 9272SOL     OW39451   4.468   2.708  15.037  0.0947 -0.0866 -0.3595
 9272SOL    HW139452   4.445   2.683  14.947 -0.2645 -1.6513  0.1857
 9272SOL    HW239453   4.459   2.803  15.030 -2.4026 -0.4402 -1.9550
 9273SOL     OW39454   1.209   2.137   2.907 -0.0270  0.6104 -0.0249
 9273SOL    HW139455   1.269   2.175   2.842  1.3545 -0.8295  0.4026
 9273SOL    HW239456   1.136   2.192   2.880 -0.2546 -0.0342 -0.7431
 9274SOL     OW39457   3.544   3.843  15.013  0.0495  0.1378  0.4935
 9274SOL    HW139458   3.455   3.819  15.040  1.3953 -0.4606  4.5117
 9274SOL    HW239459   3.504   3.918  14.971  1.3867  0.8780  0.5351
 9275SOL     OW39460   3.611   2.468   6.379 -0.1803  0.1688  0.3941
 9275SOL    HW139461   3.631   2.529   6.449  0.0820  0.3676  0.1437
 9275SOL    HW239462   3.641   2.512   6.300 -0.7259  0.7151  0.4913
 9276SOL     OW39463   1.977   1.350   0.444  0.0526  0.1403 -0.2680
 9276SOL    HW139464   1.923   1.333   0.367 -0.0820  0.5141 -0.2556
 9276SOL    HW239465   1.907   1.383   0.501 -0.1493 -2.1380  0.8106
 9277SOL     OW39466   4.401   3.430   4.870  0.1014 -0.0179 -0.2125
 9277SOL    HW139467   4.389   3.392   4.957  0.0273  0.7602  0.1163
 9277SOL    HW239468   4.470   3.381   4.827  0.2418 -0.8311  0.9520
 9278SOL     OW39469   4.061   1.418   5.224  0.0313 -0.0600 -0.1960
 9278SOL    HW139470   3.987   1.372   5.184 -1.6797  0.8620  1.9090
 9278SOL    HW239471   4.121   1.413   5.149 -2.2986  0.8829 -2.1048
 9279SOL     OW39472   1.331   3.116  15.447  0.3884  0.1630  0.1598
 9279SOL    HW139473   1.298   3.144  15.532 -2.5381  0.1119 -0.9732
 9279SOL    HW239474   1.268   3.046  15.431 -2.1184  2.2116  1.1296
 9280SOL     OW39475   0.730   0.438   4.127 -0.4504 -0.2738 -0.2777
 9280SOL    HW139476   0.708   0.442   4.034 -0.1947  2.0338 -0.2395
 9280SOL    HW239477   0.826   0.434   4.127 -0.4842 -0.9866  1.6129
 9281SOL     OW39478   0.936   0.275   7.621  0.2515  0.6957 -0.6871
 9281SOL    HW139479   0.879   0.252   7.548 -2.1860  0.5194  1.2789
 9281SOL    HW239480   0.906   0.208   7.683  0.2187  1.6354  0.3205
 9282SOL     OW39481   1.846   2.503   4.772  0.0589 -0.4617  0.3293
 9282SOL    HW139482   1.906   2.443   4.728 -1.1400 -1.1709 -0.3427
 9282SOL    HW239483   1.833   2.555   4.692  1.1774  0.4313  0.7173
 9283SOL     OW39484   2.145   2.027   2.382 -0.3988  0.6838 -0.5532
 9283SOL    HW139485   2.165   2.120   2.394 -1.0942  0.5421  1.5259
 9283SOL    HW239486   2.184   2.013   2.295 -0.5063 -2.9361 -0.0194
 9284SOL     OW39487   3.881   0.374   6.863  0.3137 -0.1003  0.7470
 9284SOL    HW139488   3.958   0.385   6.806  0.4072  0.6306  1.0117
 9284SOL    HW239489   3.853   0.286   6.838 -0.2639 -0.1749  1.7040
 9285SOL     OW39490   1.902   0.650   7.791  0.3056  0.0134  0.0925
 9285SOL    HW139491   1.997   0.642   7.799  0.0171 -3.0495  0.3937
 9285SOL    HW239492   1.892   0.720   7.855 -2.6586 -1.3563  1.1537
 9286SOL     OW39493   1.391   3.802   0.497  0.0689 -0.3683  0.0230
 9286SOL    HW139494   1.410   3.747   0.421  0.3004 -0.4546  0.1431
 9286SOL    HW239495   1.466   3.780   0.553 -0.8899 -1.4557  0.8710
 9287SOL     OW39496   1.805   3.661   5.100  0.2591 -0.0509  0.2412
 9287SOL    HW139497   1.810   3.748   5.139 -0.3906 -0.1034  0.4420
 9287SOL    HW239498   1.870   3.665   5.030 -1.0467 -1.0792 -1.0431
 9288SOL     OW39499   1.406   4.466   2.369 -0.4300 -0.5029 -0.0812
 9288SOL    HW139500   1.443   4.431   2.288 -0.2630 -0.7430  0.0983
 9288SOL    HW239501   1.379   4.386   2.414 -0.1763 -1.6239 -1.9262
 9289SOL     OW39502   3.603   0.444   5.524 -0.4005  0.1457  0.2052
 9289SOL    HW139503   3.692   0.468   5.547 -0.8235 -0.6805  2.7265
 9289SOL    HW239504   3.562   0.530   5.517  1.4194  1.0290  0.7156
 9290SOL     OW39505   0.246   2.730   3.739 -0.4940 -0.0662 -0.8821
 9290SOL    HW139506   0.329   2.696   3.771 -1.5810 -0.4365  1.5623
 9290SOL    HW239507   0.179   2.682   3.789  1.1985 -1.1840  0.3120
 9291SOL     OW39508   0.081   3.588  10.453  0.2640  0.3901  0.4821
 9291SOL    HW139509   4.730   3.592  10.422  0.2015 -0.7221  0.5255
 9291SOL    HW239510   0.123   3.544  10.379  0.1006  2.4016 -0.8160
 9292SOL     OW39511   4.086   1.626   3.695 -0.0020  0.4192  0.3192
 9292SOL    HW139512   4.085   1.672   3.779  2.1328 -1.7451  1.5126
 9292SOL    HW239513   4.113   1.694   3.633  1.0251  1.9927  2.5219
 9293SOL     OW39514   4.550   2.963   7.044  0.3349  0.3049 -0.2433
 9293SOL    HW139515   4.601   3.028   7.091 -0.2845  0.8967 -0.3971
 9293SOL    HW239516   4.513   2.914   7.117 -0.2014 -2.4313 -2.3678
 9294SOL     OW39517   1.352   1.677   6.886 -0.0806  0.2776  0.1480
 9294SOL    HW139518   1.333   1.636   6.970 -1.2690  0.2837 -0.1195
 9294SOL    HW239519   1.426   1.622   6.858 -0.7661 -1.2901  1.4399
 9295SOL     OW39520   0.013   1.475   5.331 -0.3156 -0.0012  0.0901
 9295SOL    HW139521   4.723   1.553   5.379  0.9501  1.9236 -2.2742
 9295SOL    HW239522   4.719   1.405   5.387  0.4126 -0.4947 -0.0910
 9296SOL     OW39523   3.179   3.502   9.036  0.5489 -0.2107 -0.1581
 9296SOL    HW139524   3.111   3.485   8.971  1.2541 -2.4099 -0.3330
 9296SOL    HW239525   3.202   3.590   9.007  3.7369  0.1500  3.4473
 9297SOL     OW39526   0.870   4.559   1.421  0.0744  0.1152 -0.2705
 9297SOL    HW139527   0.917   4.532   1.342  1.8737 -1.1210  1.1992
 9297SOL    HW239528   0.888   4.653   1.429  0.0860  0.2732 -2.1370
 9298SOL     OW39529   2.123   3.818   3.267 -0.1145 -0.0562  0.2357
 9298SOL    HW139530   2.154   3.729   3.282  0.2266 -0.1580 -1.0518
 9298SOL    HW239531   2.210   3.860   3.266 -0.5614  0.8608  0.2692
 9299SOL     OW39532   2.873   2.164   3.780 -0.5657  0.1110  0.8046
 9299SOL    HW139533   2.919   2.215   3.713  1.7116  0.1351  2.3777
 9299SOL    HW239534   2.934   2.091   3.783  0.1348  0.5697 -2.2427
 9300SOL     OW39535   0.706   1.450   9.010 -0.0185  0.3127 -0.2770
 9300SOL    HW139536   0.731   1.524   8.955  2.2783  0.2062  0.6119
 9300SOL    HW239537   0.791   1.407   9.011  0.2199  0.7717 -1.7388
 9301SOL     OW39538   4.675   1.052  12.310  0.0761  0.3855 -0.0527
 9301SOL    HW139539   4.653   0.960  12.327 -0.4737  0.8240  1.5709
 9301SOL    HW239540   4.597   1.095  12.344  0.2651 -0.0147  0.8677
 9302SOL     OW39541   0.853   4.122   2.642  0.8230  0.0964 -0.0046
 9302SOL    HW139542   0.792   4.178   2.691  2.8552  1.3932  1.0398
 9302SOL    HW239543   0.924   4.182   2.619  0.4574  0.4482 -0.2066
 9303SOL     OW39544   1.284   2.553   9.219 -0.2851 -0.0611  0.3867
 9303SOL    HW139545   1.219   2.487   9.245  1.1570 -2.0885 -1.1806
 9303SOL    HW239546   1.246   2.638   9.240 -0.2466 -0.1444  0.8026
 9304SOL     OW39547   1.590   1.338  11.403  0.1869  0.3641 -0.0403
 9304SOL    HW139548   1.633   1.332  11.318  4.0958 -2.6724  2.1293
 9304SOL    HW239549   1.572   1.246  11.424  0.8257  0.3944  0.6144
 9305SOL     OW39550   1.795   3.077   6.373  0.2547  0.3806  0.0223
 9305SOL    HW139551   1.757   3.012   6.314 -1.9303  1.1125  0.6272
 9305SOL    HW239552   1.886   3.049   6.385  0.6435  1.9293  0.7068
 9306SOL     OW39553   3.544   2.785   6.083  0.3953  0.0287 -0.4524
 9306SOL    HW139554   3.471   2.724   6.084 -1.8866  2.7584 -0.0310
 9306SOL    HW239555   3.560   2.794   5.989 -0.3909  0.4331 -0.5535
 9307SOL     OW39556   1.788   4.459   6.689 -0.2847 -0.3878 -0.0389
 9307SOL    HW139557   1.784   4.406   6.768  1.9265  0.2385  0.4795
 9307SOL    HW239558   1.706   4.507   6.705 -0.4462 -1.2935  1.8048
 9308SOL     OW39559   2.774   1.757   7.592 -0.1182 -0.1462 -0.5322
 9308SOL    HW139560   2.811   1.735   7.677  1.6592  0.9405 -1.0431
 9308SOL    HW239561   2.810   1.690   7.534 -1.4624 -0.3379 -1.1646
 9309SOL     OW39562   1.898   0.645   9.002  0.3225 -0.9077  0.6987
 9309SOL    HW139563   1.897   0.728   9.048  1.1985 -1.1171  1.0801
 9309SOL    HW239564   1.863   0.592   9.074  0.4280  1.3631  2.3946
 9310SOL     OW39565   0.943   2.976   2.782 -0.0187 -0.5671 -0.1300
 9310SOL    HW139566   0.862   2.992   2.734  1.2908  1.6088 -1.5674
 9310SOL    HW239567   1.004   2.982   2.708  2.0037  0.0890  1.5852
 9311SOL     OW39568   3.459   0.856   9.120  0.3646  0.1175 -0.5033
 9311SOL    HW139569   3.420   0.894   9.041  0.4420 -0.3735 -0.7767
 9311SOL    HW239570   3.527   0.916   9.149 -0.5953  0.8114  0.3178
 9312SOL     OW39571   4.338   4.557   2.907 -0.5366  0.3126  0.1235
 9312SOL    HW139572   4.246   4.585   2.908 -0.7415 -0.4012  0.5970
 9312SOL    HW239573   4.388   4.639   2.908  0.3167 -0.2186  0.1367
 9313SOL     OW39574   1.944   2.318   2.563  0.2780 -0.0826  0.1507
 9313SOL    HW139575   1.922   2.225   2.569  0.2421 -0.0140  1.0930
 9313SOL    HW239576   2.028   2.314   2.519 -0.0109 -0.7404 -0.3352
 9314SOL     OW39577   3.400   1.520   7.434  0.7159 -0.8324  0.6917
 9314SOL    HW139578   3.438   1.552   7.352  0.5185 -0.3970  0.7688
 9314SOL    HW239579   3.475   1.546   7.487  1.0762  0.5234 -0.4674
 9315SOL     OW39580   4.273   2.818   9.783  0.6928 -0.1782 -0.1422
 9315SOL    HW139581   4.291   2.897   9.833 -0.8190  0.5704 -0.7864
 9315SOL    HW239582   4.251   2.854   9.697  0.0656  1.9357  0.9169
 9316SOL     OW39583   4.615   3.801   4.258  0.5197 -0.5520  0.1328
 9316SOL    HW139584   4.640   3.745   4.331  0.3959 -3.2318 -1.8761
 9316SOL    HW239585   4.525   3.810   4.287  0.3467 -0.7221 -0.3598
 9317SOL     OW39586   0.870   4.615  15.720 -0.5809  0.0594  0.6142
 9317SOL    HW139587   0.866   4.703  15.682  3.2977  0.0184  0.1741
 9317SOL    HW239588   0.818   4.629  15.799  2.2216  0.5317  2.3566
 9318SOL     OW39589   3.823   4.109   4.050 -0.3048 -0.2223 -0.2420
 9318SOL    HW139590   3.837   4.197   4.015  1.0011 -0.7152 -0.9268
 9318SOL    HW239591   3.728   4.120   4.059 -0.4985 -0.1058 -2.5334
 9319SOL     OW39592   0.885   4.634   4.561  0.1773 -0.4992 -0.5442
 9319SOL    HW139593   0.863   4.642   4.654 -1.2255  2.0319 -1.1047
 9319SOL    HW239594   0.819   4.687   4.517  0.7676 -0.4314 -1.3568
 9320SOL     OW39595   1.059   4.254  13.375  0.0275  0.3864  0.2186
 9320SOL    HW139596   0.992   4.193  13.406  1.3272 -0.4669  1.3180
 9320SOL    HW239597   1.136   4.237  13.428  0.7221  0.4959 -0.7436
 9321SOL     OW39598   2.598   3.411   8.458 -0.0212  0.0048 -0.9742
 9321SOL    HW139599   2.585   3.389   8.365  2.7897 -0.3117 -1.2808
 9321SOL    HW239600   2.677   3.464   8.450 -0.7437  0.7321 -3.3915
 9322SOL     OW39601   2.905   4.588   3.855 -0.2553 -0.1814  0.1959
 9322SOL    HW139602   2.905   4.642   3.934 -2.3561 -0.5477  0.4574
 9322SOL    HW239603   2.809   4.585   3.852 -0.2650  1.8643 -0.9558
 9323SOL     OW39604   1.951   4.401   1.867 -0.4837  0.0370 -0.2345
 9323SOL    HW139605   1.923   4.337   1.933  1.7450 -1.6930 -0.9539
 9323SOL    HW239606   1.871   4.439   1.832 -1.3540  1.2355  3.0268
 9324SOL     OW39607   0.287   0.535   6.703 -0.2355 -0.2610  0.6240
 9324SOL    HW139608   0.223   0.569   6.640  1.1602  1.3084  0.0684
 9324SOL    HW239609   0.331   0.486   6.634  0.1142  1.7693 -0.6146
 9325SOL     OW39610   0.285   2.326   1.122 -0.3990  0.5054  0.9352
 9325SOL    HW139611   0.298   2.231   1.133 -0.1799  0.7163  2.5558
 9325SOL    HW239612   0.249   2.359   1.204 -1.1932  0.3414  0.6544
 9326SOL     OW39613   1.088   1.159   4.856 -0.3393  0.5264  0.0420
 9326SOL    HW139614   0.999   1.167   4.891 -0.3167 -0.2286  0.2749
 9326SOL    HW239615   1.076   1.089   4.793 -0.6486 -0.6349  1.3755
 9327SOL     OW39616   4.470   1.845   2.506 -0.3350  0.0489 -0.2325
 9327SOL    HW139617   4.393   1.900   2.521  0.7081  1.4581 -0.0827
 9327SOL    HW239618   4.440   1.756   2.489 -2.9798  0.3854  2.6462
 9328SOL     OW39619   1.339   1.157   4.958  0.5872  0.4708  0.2773
 9328SOL    HW139620   1.250   1.171   4.926 -0.0229 -1.7605  0.9548
 9328SOL    HW239621   1.370   1.069   4.936 -0.9508 -0.0137  0.0488
 9329SOL     OW39622   3.772   2.866   6.257 -0.1061  0.4228 -0.4807
 9329SOL    HW139623   3.852   2.856   6.205 -0.3246 -1.2706 -0.4862
 9329SOL    HW239624   3.709   2.816   6.205 -1.1208  2.6342 -1.3874
 9330SOL     OW39625   1.890   2.255  13.470 -1.1203  0.1064 -0.3969
 9330SOL    HW139626   1.881   2.338  13.423 -0.9079  1.0206  1.1665
 9330SOL    HW239627   1.982   2.246  13.493 -0.5954  0.0527 -2.5280
 9331SOL     OW39628   2.757   2.413   8.571 -0.6567  0.6425  0.3968
 9331SOL    HW139629   2.702   2.390   8.646 -0.0000  0.4964  0.8302
 9331SOL    HW239630   2.729   2.501   8.547  1.4107  1.0636 -0.4584
 9332SOL     OW39631   3.475   2.522   2.608 -0.0934  0.3452 -0.0187
 9332SOL    HW139632   3.543   2.455   2.600 -0.1421  0.5165 -1.8597
 9332SOL    HW239633   3.515   2.574   2.678 -0.3587  0.3823  0.1037
 9333SOL     OW39634   1.030   2.024  15.117 -0.0693 -0.3204  0.3251
 9333SOL    HW139635   1.043   2.117  15.100  1.0415 -0.2366  1.5611
 9333SOL    HW239636   1.024   1.981  15.032 -1.9825  0.6127  0.0105
 9334SOL     OW39637   1.696   3.114   9.797 -0.0447  0.0269 -0.2202
 9334SOL    HW139638   1.628   3.085   9.736  0.7582 -0.9996 -0.6356
 9334SOL    HW239639   1.740   3.165   9.729 -0.1696 -0.7038 -0.8481
 9335SOL     OW39640   3.078   3.050   5.768  0.7893  0.3176 -0.9525
 9335SOL    HW139641   3.141   2.978   5.777  0.5786  0.4132  1.2284
 9335SOL    HW239642   3.061   3.075   5.859 -0.1116  2.0400 -1.5991
 9336SOL     OW39643   1.764   2.813   9.574 -0.2228 -0.0891 -0.1695
 9336SOL    HW139644   1.685   2.792   9.625  0.7816 -1.2390  0.9065
 9336SOL    HW239645   1.750   2.906   9.559 -0.1558 -0.0854 -0.2051
 9337SOL     OW39646   3.633   0.790   6.931  0.1975  0.2564 -0.6464
 9337SOL    HW139647   3.551   0.745   6.907 -0.2361  0.9369 -0.4592
 9337SOL    HW239648   3.611   0.883   6.942 -0.1212 -0.0987  1.6084
 9338SOL     OW39649   3.878   3.813   2.804  0.3693  0.4405 -0.4460
 9338SOL    HW139650   3.899   3.773   2.888 -0.2653 -1.6965 -1.2920
 9338SOL    HW239651   3.945   3.773   2.747  0.9445 -0.6173  0.9686
 9339SOL     OW39652   0.265   3.731   9.241  0.4582  0.0312 -0.1852
 9339SOL    HW139653   0.284   3.803   9.180  0.8214  1.4225  1.5894
 9339SOL    HW239654   0.307   3.748   9.325 -0.1971  0.5657  0.0399
 9340SOL     OW39655   0.118   2.291  16.646 -0.1818 -0.2125 -0.1810
 9340SOL    HW139656   0.152   2.367  16.692 -2.2723 -0.1950  1.3328
 9340SOL    HW239657   0.195   2.234  16.641 -0.7328 -0.6541 -3.6444
 9341SOL     OW39658   1.278   1.910   7.035 -0.3617 -0.3215 -0.1080
 9341SOL    HW139659   1.289   1.846   6.965 -1.0545 -0.8809  0.3008
 9341SOL    HW239660   1.337   1.891   7.109  0.5336 -0.6580 -0.9052
 9342SOL     OW39661   1.902   0.788   9.435 -0.1098  0.2927 -0.0741
 9342SOL    HW139662   1.815   0.795   9.396 -0.1773  1.7628  0.3149
 9342SOL    HW239663   1.929   0.872   9.397 -1.2480  1.2430  1.1969
 9343SOL     OW39664   0.584   2.238  12.890  0.2574  0.6404  0.2811
 9343SOL    HW139665   0.615   2.218  12.802 -0.3830 -0.7269  0.3712
 9343SOL    HW239666   0.496   2.202  12.888 -0.0367  1.2901  1.3507
 9344SOL     OW39667   1.019   2.877   3.119  0.1160  0.0330 -0.4143
 9344SOL    HW139668   1.090   2.936   3.148 -1.0504 -0.1914  2.9097
 9344SOL    HW239669   1.016   2.834   3.205 -0.5367 -0.8332 -0.8779
 9345SOL     OW39670   1.999   1.661   5.287 -0.2744 -0.0066 -0.1464
 9345SOL    HW139671   1.912   1.700   5.292 -0.1335  0.6734 -3.2011
 9345SOL    HW239672   1.976   1.571   5.267  1.1947 -0.7043  1.3488
 9346SOL     OW39673   3.228   3.505   3.695 -0.0722 -0.6608 -0.4199
 9346SOL    HW139674   3.163   3.435   3.709 -0.4668 -0.3544 -0.7031
 9346SOL    HW239675   3.283   3.472   3.624 -0.8578  2.2864 -2.3866
 9347SOL     OW39676   3.620   1.067   5.116  0.0965  0.3993 -0.3111
 9347SOL    HW139677   3.660   1.138   5.166  0.9857 -1.3144  1.4281
 9347SOL    HW239678   3.696   1.032   5.068 -1.7718 -2.3887 -1.2165
 9348SOL     OW39679   0.011   0.829  16.284  0.2223 -0.2808  0.4599
 9348SOL    HW139680   4.689   0.895  16.250 -1.0628 -0.9860  1.3828
 9348SOL    HW239681   4.716   0.785  16.362  0.3302 -1.6211 -0.2492
 9349SOL     OW39682   0.819   3.971   9.813  0.4175  0.3058 -0.1031
 9349SOL    HW139683   0.886   3.943   9.750 -3.6061 -2.5056 -3.1233
 9349SOL    HW239684   0.865   4.049   9.844  0.5190  0.6674 -1.1672
 9350SOL     OW39685   1.502   1.218   3.906  0.0312 -0.1386  0.1693
 9350SOL    HW139686   1.438   1.285   3.931 -0.0586 -1.1338  2.6046
 9350SOL    HW239687   1.455   1.149   3.859  0.0746  0.6286 -0.9996
 9351SOL     OW39688   1.111   3.560   3.017 -0.1120 -0.3348  0.3461
 9351SOL    HW139689   1.194   3.598   3.047 -0.4381 -0.1059  0.9440
 9351SOL    HW239690   1.052   3.557   3.091 -0.1111  0.9356  0.3917
 9352SOL     OW39691   2.507   4.282   7.321 -0.9154  0.0652 -0.3683
 9352SOL    HW139692   2.435   4.277   7.383 -0.3128  0.9988  0.4023
 9352SOL    HW239693   2.588   4.249   7.361 -0.7860  2.0092  0.9948
 9353SOL     OW39694   0.466   2.557   3.962 -0.2666  0.3433 -0.2563
 9353SOL    HW139695   0.515   2.580   3.883 -0.9508  3.9519  0.3745
 9353SOL    HW239696   0.442   2.468   3.940 -3.3438  0.8982  0.8634
 9354SOL     OW39697   1.904   0.974   2.435  0.3988 -0.4525  0.0833
 9354SOL    HW139698   1.879   1.015   2.352  0.6569  1.5408  1.0010
 9354SOL    HW239699   1.853   1.036   2.487  0.4591 -1.5059  1.4065
 9355SOL     OW39700   4.404   1.580   2.378  0.4614  0.4822 -1.0615
 9355SOL    HW139701   4.453   1.498   2.379  1.1285  0.8855 -0.3239
 9355SOL    HW239702   4.315   1.558   2.407  0.8384  2.4767  1.7065
 9356SOL     OW39703   0.752   1.505   4.484 -0.5543 -0.0520 -0.1132
 9356SOL    HW139704   0.778   1.413   4.489  1.8342  0.5419 -1.8016
 9356SOL    HW239705   0.822   1.545   4.534 -0.7096  2.2670 -1.7537
 9357SOL     OW39706   0.451   4.590   8.313 -0.7200  0.3532 -0.2850
 9357SOL    HW139707   0.533   4.542   8.324 -0.2973  0.6016 -2.3340
 9357SOL    HW239708   0.446   4.657   8.382  0.0395  1.4020 -1.2357
 9358SOL     OW39709   3.097   0.078   7.007 -0.3163  0.5171 -0.4267
 9358SOL    HW139710   3.065   0.157   7.051  2.0740  1.3881 -0.2373
 9358SOL    HW239711   3.024   0.020   7.028 -0.2000  0.4331 -0.2532
 9359SOL     OW39712   2.827   2.565   9.665 -0.0750 -0.5162  0.5160
 9359SOL    HW139713   2.868   2.588   9.748  1.9329  0.6586 -0.8120
 9359SOL    HW239714   2.848   2.474   9.645  1.7259 -0.9329  4.1568
 9360SOL     OW39715   2.510   1.534   3.448 -0.1674  0.2124 -0.7606
 9360SOL    HW139716   2.503   1.591   3.525  0.7380  0.7878 -1.1133
 9360SOL    HW239717   2.525   1.601   3.381 -0.2252  0.6848 -0.3024
 9361SOL     OW39718   2.367   0.313  14.325  0.0549 -0.1115 -0.3548
 9361SOL    HW139719   2.399   0.347  14.242  0.4389  0.6387  0.1053
 9361SOL    HW239720   2.442   0.262  14.356  0.7790  0.3529 -1.3698
 9362SOL     OW39721   3.641   0.985  11.417 -0.5033  0.2124  0.1516
 9362SOL    HW139722   3.667   0.959  11.505 -1.5159 -0.1954  0.3297
 9362SOL    HW239723   3.687   0.917  11.367 -2.6982 -0.6852 -0.6601
 9363SOL     OW39724   0.415   4.401   3.848  0.3870 -0.3707  0.1804
 9363SOL    HW139725   0.338   4.432   3.800  0.6400 -0.4893 -0.3028
 9363SOL    HW239726   0.440   4.326   3.795  2.9633  1.3913 -1.1182
 9364SOL     OW39727   3.367   4.427  12.294 -0.4624 -0.0125 -0.1392
 9364SOL    HW139728   3.377   4.355  12.232 -0.4098 -1.7049  1.8620
 9364SOL    HW239729   3.324   4.391  12.372  0.8589 -0.8016  0.2250
 9365SOL     OW39730   1.070   4.688  12.010  0.5070 -0.0445 -0.4130
 9365SOL    HW139731   1.123   4.608  12.015  0.0257 -0.2988  0.4293
 9365SOL    HW239732   1.026   4.682  12.094  1.7271  2.1552  0.3712
 9366SOL     OW39733   2.078   2.191  16.371 -0.1308  0.2510  0.1113
 9366SOL    HW139734   2.145   2.159  16.432 -0.7778 -0.7957  0.2752
 9366SOL    HW239735   2.046   2.101  16.360 -0.1897  0.1767  0.8351
 9367SOL     OW39736   2.940   4.111   8.229 -0.0272  0.1757 -0.2271
 9367SOL    HW139737   2.857   4.078   8.195 -0.2622 -1.6443  2.1207
 9367SOL    HW239738   3.002   4.083   8.162  1.4583 -0.2316  1.3156
 9368SOL     OW39739   3.922   4.248   5.255  0.7047  0.1002  0.0756
 9368SOL    HW139740   3.937   4.220   5.164 -1.1672  0.1816 -0.2541
 9368SOL    HW239741   3.882   4.168   5.288  1.2123  0.3587  1.3087
 9369SOL     OW39742   1.063   3.590   4.245 -0.1139  0.4670 -0.5130
 9369SOL    HW139743   1.108   3.627   4.321 -0.3632 -1.4895  0.6073
 9369SOL    HW239744   1.045   3.667   4.191 -0.4115  1.4146  0.9240
 9370SOL     OW39745   2.934   3.244  17.543  0.0719 -0.6139  0.0144
 9370SOL    HW139746   2.891   3.328  17.525  0.3219  0.2301  3.2546
 9370SOL    HW239747   3.005   3.278  17.598 -0.5093 -0.9862  0.9998
 9371SOL     OW39748   1.915   3.403   1.603 -0.2063 -0.0211  0.4930
 9371SOL    HW139749   1.907   3.391   1.508  1.0504 -0.3982  0.4450
 9371SOL    HW239750   1.856   3.332   1.631  1.9002 -2.6793 -1.8354
 9372SOL     OW39751   3.939   2.416   7.750  0.2591  0.7473  0.1770
 9372SOL    HW139752   4.023   2.389   7.712  0.7009  0.2123  1.5671
 9372SOL    HW239753   3.946   2.507   7.720  0.4668  1.3824  2.1433
 9373SOL     OW39754   2.879   2.079   3.429 -0.3589 -0.0113 -0.1515
 9373SOL    HW139755   2.920   2.108   3.348 -0.8102  3.7736  1.0054
 9373SOL    HW239756   2.944   2.116   3.489 -1.6526  0.9835  0.6360
 9374SOL     OW39757   2.228   2.725   3.688  0.0373 -0.0413  0.2143
 9374SOL    HW139758   2.228   2.819   3.667  0.2700  0.4717  2.5836
 9374SOL    HW239759   2.311   2.699   3.649 -0.1594  1.1430 -1.0235
 9375SOL     OW39760   0.299   2.146  11.532 -0.4093 -0.5085 -0.0147
 9375SOL    HW139761   0.358   2.096  11.476 -1.2026 -1.4772  0.0157
 9375SOL    HW239762   0.217   2.113  11.495 -0.4125  0.6194 -1.0465
 9376SOL     OW39763   2.661   2.815  11.822  0.2995  0.0081  0.1869
 9376SOL    HW139764   2.751   2.847  11.824 -0.3526  1.7932  1.2466
 9376SOL    HW239765   2.671   2.720  11.812  0.1365 -0.0221  0.3018
 9377SOL     OW39766   1.217   0.178  13.736  0.1866  0.3252  0.1531
 9377SOL    HW139767   1.295   0.177  13.791  1.0087  3.0784 -0.9628
 9377SOL    HW239768   1.214   0.083  13.722  0.3506  0.2043  0.9889
 9378SOL     OW39769   0.025   1.115   1.435  0.0223 -0.1395 -0.1917
 9378SOL    HW139770   0.074   1.117   1.353  1.1747  1.3858  0.5289
 9378SOL    HW239771   0.043   1.023   1.455  1.6908  0.6336  1.8827
 9379SOL     OW39772   4.558   0.358  16.700  0.3709  0.0364 -0.1434
 9379SOL    HW139773   4.514   0.442  16.685  0.0675 -0.8522 -4.1959
 9379SOL    HW239774   4.563   0.375  16.794  2.2555 -0.3655 -0.1657
 9380SOL     OW39775   0.833   1.851   8.810  0.1290  0.0652  0.0904
 9380SOL    HW139776   0.898   1.782   8.796 -1.4872 -1.6069  0.7976
 9380SOL    HW239777   0.793   1.862   8.724 -1.5682  2.8051  1.2087
 9381SOL     OW39778   3.853   0.721   8.667  0.5040 -0.0399 -0.0294
 9381SOL    HW139779   3.796   0.771   8.608 -2.4881 -1.1794  1.8512
 9381SOL    HW239780   3.793   0.711   8.741  0.9753 -1.2374  0.2003
 9382SOL     OW39781   2.057   4.327   7.317 -0.3360  0.3937  0.0918
 9382SOL    HW139782   2.117   4.372   7.376  0.5715 -2.0742  1.0853
 9382SOL    HW239783   2.073   4.240   7.354  0.6371  1.0888  1.2924
 9383SOL     OW39784   0.367   1.170  13.050  0.3316  0.9458 -0.0473
 9383SOL    HW139785   0.284   1.124  13.062 -1.0114  2.9334 -1.8233
 9383SOL    HW239786   0.419   1.142  13.126 -0.1822 -1.1762 -0.4912
 9384SOL     OW39787   0.538   0.347  14.654 -0.0599  0.6663 -0.7509
 9384SOL    HW139788   0.499   0.303  14.729  0.2686  0.7773 -0.5151
 9384SOL    HW239789   0.623   0.304  14.663  0.3396  1.6623  0.1998
 9385SOL     OW39790   0.389   4.194   3.667 -0.0032  0.1622 -0.0017
 9385SOL    HW139791   0.335   4.159   3.738 -0.7659  1.4959  0.0767
 9385SOL    HW239792   0.333   4.166   3.595  0.3009 -1.6902  0.4832
 9386SOL     OW39793   1.585   3.297   2.053  0.1971 -0.5419 -0.2091
 9386SOL    HW139794   1.578   3.312   2.147 -1.3659 -0.1035 -0.3995
 9386SOL    HW239795   1.662   3.240   2.052  0.5644 -0.0434 -0.3056
 9387SOL     OW39796   0.501   3.994   4.620  0.1254  0.0573 -0.3724
 9387SOL    HW139797   0.484   3.943   4.540 -0.1746 -0.6564  0.1434
 9387SOL    HW239798   0.593   4.011   4.600  0.3431 -0.1566  0.4570
 9388SOL     OW39799   4.589   4.344   6.748 -0.1908 -0.1927 -0.4516
 9388SOL    HW139800   4.558   4.292   6.673 -1.7615 -0.9865  0.7397
 9388SOL    HW239801   4.641   4.282   6.799  0.5130 -0.7850 -1.8772
 9389SOL     OW39802   2.559   1.488   3.864 -0.2784 -0.0966 -0.4655
 9389SOL    HW139803   2.607   1.435   3.801 -2.2653 -0.0449 -2.0373
 9389SOL    HW239804   2.631   1.541   3.899 -0.4380  0.3488 -0.8109
 9390SOL     OW39805   3.251   2.277   7.923 -0.0676  0.1699 -0.5021
 9390SOL    HW139806   3.228   2.289   8.015  0.9516 -5.3212  0.4734
 9390SOL    HW239807   3.324   2.336   7.902 -0.3730  1.0216  0.8305
 9391SOL     OW39808   1.566   3.520   1.918 -0.2122 -0.2012 -0.4143
 9391SOL    HW139809   1.573   3.429   1.947 -1.8454  0.3772  1.7576
 9391SOL    HW239810   1.657   3.551   1.921 -0.2225  0.1145 -2.9180
 9392SOL     OW39811   4.454   4.706   1.281  0.3761  0.6452  0.2209
 9392SOL    HW139812   4.497   4.715   1.196 -1.4223  0.4258 -0.7141
 9392SOL    HW239813   4.371   4.673   1.244 -0.0202  1.3331  0.5098
 9393SOL     OW39814   4.707   1.398  15.783  0.4536 -0.4406  0.1983
 9393SOL    HW139815   4.671   1.483  15.806  0.4968 -0.5223  0.5660
 9393SOL    HW239816   0.039   1.414  15.720 -0.0591 -1.6448 -0.6879
 9394SOL     OW39817   3.770   4.733   8.528  0.1534 -0.4092  0.0393
 9394SOL    HW139818   3.820   4.656   8.557  0.9928  0.2830  0.4466
 9394SOL    HW239819   3.679   4.703   8.537  0.3857 -1.1263  0.0628
 9395SOL     OW39820   4.227   1.041   1.810  0.1009  0.2575  0.0727
 9395SOL    HW139821   4.313   1.052   1.851 -1.6923  1.7212  3.4377
 9395SOL    HW239822   4.233   0.962   1.757 -0.2109  0.9028 -0.9081
 9396SOL     OW39823   0.427   4.019   6.916 -0.1578 -0.2739 -0.5288
 9396SOL    HW139824   0.377   3.937   6.916  0.4792 -0.6595  0.1831
 9396SOL    HW239825   0.371   4.070   6.856  1.5313 -0.7022 -2.4618
 9397SOL     OW39826   0.023   4.521   1.589 -0.2429 -0.3279  0.3813
 9397SOL    HW139827   4.679   4.567   1.572  0.0588  0.3510  0.7457
 9397SOL    HW239828   0.051   4.590   1.650 -0.6936 -2.5348  3.0619
 9398SOL     OW39829   1.020   2.724   2.590 -0.4876 -0.1513 -0.1085
 9398SOL    HW139830   1.060   2.810   2.577 -0.2777 -0.0280  1.3686
 9398SOL    HW239831   0.995   2.731   2.682 -2.8035  0.2101 -0.7691
 9399SOL     OW39832   0.630   2.993   8.681  0.3393  0.0815  0.5386
 9399SOL    HW139833   0.547   2.994   8.633  1.6745  1.0161 -1.6925
 9399SOL    HW239834   0.606   2.955   8.766 -3.7861  1.3005 -0.0804
 9400SOL     OW39835   0.097   2.413  12.021 -0.5069  0.4974  0.2163
 9400SOL    HW139836   0.153   2.363  12.080 -0.6575  0.0515 -0.0214
 9400SOL    HW239837   0.162   2.459  11.967 -0.8513  0.9993  0.2288
 9401SOL     OW39838   0.371   1.481   4.166 -0.7817  0.9656  0.3189
 9401SOL    HW139839   0.365   1.461   4.072 -1.0027 -2.0889  0.9958
 9401SOL    HW239840   0.432   1.554   4.153  0.8600 -0.3760  0.4660
 9402SOL     OW39841   3.819   2.664   8.754 -0.2120  0.1648 -0.3255
 9402SOL    HW139842   3.787   2.685   8.842  1.6432 -0.1175  0.4091
 9402SOL    HW239843   3.805   2.752   8.719  2.9710  0.8881  0.2357
 9403SOL     OW39844   3.466   1.885   9.563  0.0878  0.2217  0.2092
 9403SOL    HW139845   3.418   1.811   9.601  2.1075 -0.9358  0.4682
 9403SOL    HW239846   3.543   1.847   9.521  1.4649  0.5395  2.4359
 9404SOL     OW39847   2.372   4.050   5.584 -0.1833  0.6755 -0.0533
 9404SOL    HW139848   2.446   3.993   5.603 -0.7093  0.9992  2.8837
 9404SOL    HW239849   2.329   4.004   5.512 -0.4833  0.2525  0.3958
 9405SOL     OW39850   1.318   0.340   3.331  0.3930  0.2164 -0.2305
 9405SOL    HW139851   1.396   0.334   3.386  0.8722  0.1970 -0.9120
 9405SOL    HW239852   1.251   0.286   3.373  0.2905  1.1067  0.7572
 9406SOL     OW39853   0.241   1.868  15.982  0.2526 -0.2055 -0.2819
 9406SOL    HW139854   0.323   1.872  15.933  1.0189 -2.7374  0.7701
 9406SOL    HW239855   0.215   1.776  15.974  0.4820 -0.0716 -2.3365
 9407SOL     OW39856   2.263   2.467  10.362  0.1582 -0.1230  0.3641
 9407SOL    HW139857   2.221   2.433  10.440  2.4280  2.3689  2.6752
 9407SOL    HW239858   2.234   2.558  10.364 -0.2838 -0.2187 -2.2345
 9408SOL     OW39859   0.217   1.036  11.050 -0.0992  0.2911 -0.7327
 9408SOL    HW139860   0.153   1.081  11.104  1.6982  0.1248  1.5626
 9408SOL    HW239861   0.254   0.973  11.113 -0.1542  1.3905  0.3887
 9409SOL     OW39862   3.594   4.156   8.669 -0.1146  0.5095 -0.0128
 9409SOL    HW139863   3.627   4.109   8.746 -0.2265  1.3831  0.5679
 9409SOL    HW239864   3.644   4.117   8.598 -1.3362 -1.1950  0.0540
 9410SOL     OW39865   3.718   2.325   5.750 -0.3095 -0.7269 -0.2384
 9410SOL    HW139866   3.747   2.416   5.755  1.3047 -1.2106 -0.7920
 9410SOL    HW239867   3.649   2.330   5.816  0.1758  1.9109  0.0524
 9411SOL     OW39868   4.177   3.285   6.496 -0.2545 -0.0453  0.8671
 9411SOL    HW139869   4.212   3.202   6.527 -0.5297 -0.4313  0.1401
 9411SOL    HW239870   4.122   3.258   6.423 -2.1866  0.3222  2.1860
 9412SOL     OW39871   4.233   1.261  10.360 -0.0338  0.1044 -0.7042
 9412SOL    HW139872   4.289   1.187  10.336  0.0246  0.3478 -1.3117
 9412SOL    HW239873   4.181   1.222  10.430 -0.5157  1.4875 -0.3034
 9413SOL     OW39874   2.509   1.468   2.384 -0.0076 -0.0578  0.8416
 9413SOL    HW139875   2.450   1.489   2.311  1.6204  0.4786 -0.3362
 9413SOL    HW239876   2.534   1.559   2.403  1.4961 -0.0961 -0.9519
 9414SOL     OW39877   0.181   2.099  17.470  0.4560  0.0813  0.0006
 9414SOL    HW139878   0.267   2.139  17.455  0.4919  0.0871  0.2278
 9414SOL    HW239879   0.119   2.152  17.419 -0.6361 -1.1757  0.0282
 9415SOL     OW39880   2.103   2.897   7.601 -0.0209  0.0495 -0.3051
 9415SOL    HW139881   2.087   2.944   7.683 -1.1644 -0.2430 -0.3635
 9415SOL    HW239882   2.156   2.958   7.549 -1.5391  0.5340 -1.2876
 9416SOL     OW39883   0.436   1.276   4.661  0.7851 -0.2820  0.6757
 9416SOL    HW139884   0.377   1.339   4.702 -0.6902 -1.2748  0.0642
 9416SOL    HW239885   0.419   1.283   4.567 -0.1857  1.8521  1.0121
 9417SOL     OW39886   2.809   3.903   8.692  0.5177  0.0350  0.0260
 9417SOL    HW139887   2.746   3.895   8.764  0.3393  1.1304 -0.0055
 9417SOL    HW239888   2.831   3.996   8.691  1.5272 -0.2144 -1.0570
 9418SOL     OW39889   1.170   2.427   1.872  0.1350  0.5082  0.0556
 9418SOL    HW139890   1.164   2.432   1.777  1.0816 -1.6873 -0.1139
 9418SOL    HW239891   1.230   2.353   1.882  0.3260  0.5135 -1.0361
 9419SOL     OW39892   0.635   4.549   8.589 -0.1043 -0.8889  0.6842
 9419SOL    HW139893   0.593   4.626   8.627 -0.7514 -0.7693 -0.2858
 9419SOL    HW239894   0.689   4.518   8.662 -0.1950  0.3179  1.2646
 9420SOL     OW39895   4.141   0.214   3.182 -0.3498 -0.3204  0.7179
 9420SOL    HW139896   4.057   0.207   3.228 -0.6896  1.5376  0.3778
 9420SOL    HW239897   4.142   0.309   3.174 -1.8670 -0.3477  0.1482
 9421SOL     OW39898   2.961   1.684   2.374  0.1387  0.5134  0.3989
 9421SOL    HW139899   2.872   1.707   2.346 -0.7463 -1.8731  1.2765
 9421SOL    HW239900   2.991   1.768   2.408  1.9869 -0.0385  0.1149
 9422SOL     OW39901   4.365   2.412  11.822  0.2509  0.7022  0.2849
 9422SOL    HW139902   4.292   2.420  11.760 -0.3488 -0.6687  0.8144
 9422SOL    HW239903   4.314   2.431  11.901  1.5986 -2.8770  1.9607
 9423SOL     OW39904   0.172   1.607  15.904 -0.3377 -0.2587 -0.0604
 9423SOL    HW139905   0.161   1.578  15.814 -4.0405 -1.7945  0.9000
 9423SOL    HW239906   0.182   1.521  15.944 -1.6984 -0.3909 -0.0141
 9424SOL     OW39907   0.554   3.085   2.729  0.0736  0.2563  0.2274
 9424SOL    HW139908   0.545   3.073   2.823 -0.0444  1.2495  0.3397
 9424SOL    HW239909   0.522   3.001   2.695  1.0524  0.0741 -0.2571
 9425SOL     OW39910   2.070   3.384   2.040  0.0156  0.1611 -0.1304
 9425SOL    HW139911   2.069   3.361   1.946 -1.9257  0.8839 -0.2753
 9425SOL    HW239912   2.076   3.304   2.092 -1.2839  1.4439  1.9521
 9426SOL     OW39913   1.163   3.014   6.440  0.4746 -0.4025  0.0185
 9426SOL    HW139914   1.164   3.066   6.520 -0.3983 -0.6036  0.1636
 9426SOL    HW239915   1.091   2.951   6.450 -1.6379  2.0717  0.4735
 9427SOL     OW39916   0.842   0.424   5.883 -0.1089  0.3564  0.3714
 9427SOL    HW139917   0.785   0.501   5.884  1.4525  1.5045  2.5395
 9427SOL    HW239918   0.893   0.448   5.961  0.0896 -0.3620  0.4611
 9428SOL     OW39919   2.511   0.984   9.111  0.6303  0.4513  0.8393
 9428SOL    HW139920   2.452   0.965   9.185  1.2669  0.0761  1.2430
 9428SOL    HW239921   2.579   1.040   9.148 -0.6586  3.2372 -0.9841
 9429SOL     OW39922   3.017   1.359  16.920 -0.0831 -0.6895  0.1522
 9429SOL    HW139923   2.986   1.315  16.999  0.4308 -3.4039 -1.1404
 9429SOL    HW239924   2.988   1.307  16.845 -3.2847  0.4851  0.5820
 9430SOL     OW39925   3.972   2.279   8.049 -0.1545 -0.1321 -0.7639
 9430SOL    HW139926   4.018   2.306   7.970 -0.5411 -0.7644 -1.2061
 9430SOL    HW239927   3.924   2.359   8.071 -1.0372 -0.3335 -1.9030
 9431SOL     OW39928   2.396   2.335   9.301 -0.3708 -0.3452  0.4232
 9431SOL    HW139929   2.488   2.326   9.275 -0.6515 -2.7565  0.2620
 9431SOL    HW239930   2.395   2.424   9.337  0.5196  0.3497 -1.2705
 9432SOL     OW39931   0.721   2.363   2.708  0.4662  0.1162 -0.4698
 9432SOL    HW139932   0.692   2.276   2.737 -1.3514  0.3709 -1.5568
 9432SOL    HW239933   0.668   2.421   2.761 -0.9992 -0.6826 -1.0533
 9433SOL     OW39934   3.295   2.937   9.806  1.0350  0.2310 -0.2488
 9433SOL    HW139935   3.293   2.953   9.901 -0.9018 -2.9149  0.2104
 9433SOL    HW239936   3.284   2.842   9.812 -0.4126  0.4103 -0.1993
 9434SOL     OW39937   0.042   1.451   6.188  0.4116  0.1441  0.7291
 9434SOL    HW139938   0.134   1.427   6.173  0.1236  0.1163 -1.0501
 9434SOL    HW239939   0.019   1.428   6.278  0.9784  0.5451  0.9725
 9435SOL     OW39940   3.495   4.536   3.680 -0.8062 -0.0624  0.9626
 9435SOL    HW139941   3.566   4.485   3.643 -1.7582  0.3169 -1.3828
 9435SOL    HW239942   3.534   4.620   3.706 -2.0412  0.3988  1.3474
 9436SOL     OW39943   1.741   3.734   5.496  0.5024 -0.0622 -0.8967
 9436SOL    HW139944   1.648   3.715   5.490  0.8408 -1.6582 -0.9957
 9436SOL    HW239945   1.744   3.787   5.576 -0.0804 -1.7890  0.2665
 9437SOL     OW39946   1.434   0.781  12.605  0.3681  0.0289 -0.3596
 9437SOL    HW139947   1.433   0.766  12.511 -0.8574 -4.4333  0.3538
 9437SOL    HW239948   1.427   0.876  12.608 -2.9135 -0.2636  1.1653
 9438SOL     OW39949   3.228   2.834   5.367 -0.0896 -0.6066 -0.5292
 9438SOL    HW139950   3.166   2.830   5.294  0.5448 -1.0077 -1.0482
 9438SOL    HW239951   3.299   2.879   5.321  0.6249 -0.7111  0.4688
 9439SOL     OW39952   2.371   0.351   4.471  0.3084 -0.0961 -0.3897
 9439SOL    HW139953   2.388   0.260   4.450 -0.8588  0.0094 -1.8178
 9439SOL    HW239954   2.287   0.344   4.517  0.4918 -0.4631 -0.1101
 9440SOL     OW39955   1.212   3.886  15.265  0.5092 -0.1759  0.3782
 9440SOL    HW139956   1.221   3.934  15.183 -2.2615  0.9873  0.7560
 9440SOL    HW239957   1.180   3.799  15.242 -1.1189  0.4211  0.3961
 9441SOL     OW39958   3.580   0.943   4.471 -0.3345  0.4303  0.0086
 9441SOL    HW139959   3.544   0.900   4.393 -0.0981 -0.4372  0.3726
 9441SOL    HW239960   3.551   1.033   4.458  1.8064  0.8878 -1.6017
 9442SOL     OW39961   3.924   3.103   7.291 -0.1791  0.5608 -0.1927
 9442SOL    HW139962   3.980   3.181   7.299  0.9718 -0.3135  0.3246
 9442SOL    HW239963   3.932   3.090   7.196  2.3426 -0.5581  0.1780
 9443SOL     OW39964   1.045   0.147   1.898  0.0297  0.6895  0.3589
 9443SOL    HW139965   1.047   0.052   1.906 -1.3611  0.6610  0.2287
 9443SOL    HW239966   0.957   0.163   1.866  0.7809  3.5112 -0.3756
 9444SOL     OW39967   3.287   2.715   2.539 -0.4676 -0.3484 -0.2348
 9444SOL    HW139968   3.353   2.645   2.541 -0.9657 -0.8125 -0.0348
 9444SOL    HW239969   3.338   2.789   2.506 -0.7894  0.5868  1.4006
 9445SOL     OW39970   4.566   2.626   3.836 -0.2709  0.4955 -0.0555
 9445SOL    HW139971   4.576   2.718   3.857  1.3721  0.0496  1.1004
 9445SOL    HW239972   4.473   2.626   3.857  0.2687  1.1846  2.2904
 9446SOL     OW39973   3.039   2.365   5.810 -0.0406  0.0742 -0.0525
 9446SOL    HW139974   2.963   2.408   5.772 -0.8554 -0.5525  0.8661
 9446SOL    HW239975   3.021   2.271   5.799  0.4660  0.1899 -1.8741
 9447SOL     OW39976   0.461   0.847  11.722  0.5938  0.6602 -0.2635
 9447SOL    HW139977   0.500   0.902  11.790  0.5249 -0.3057  0.5451
 9447SOL    HW239978   0.539   0.836  11.666  1.1321 -0.4412  0.7067
 9448SOL     OW39979   1.492   4.467   7.294 -0.1312  0.9126  0.1090
 9448SOL    HW139980   1.485   4.561   7.279  0.2500  0.7114 -1.3173
 9448SOL    HW239981   1.402   4.442   7.272  0.1912  0.2886 -0.4990
 9449SOL     OW39982   2.858   3.085   1.840 -0.1972 -0.4161  0.3095
 9449SOL    HW139983   2.771   3.068   1.876  0.5588 -0.6370  2.0226
 9449SOL    HW239984   2.878   2.996   1.809  0.3583 -1.1118  2.6488
 9450SOL     OW39985   2.936   2.043   6.910 -0.0011  0.0456 -0.3844
 9450SOL    HW139986   2.894   2.025   6.826  0.2888 -1.0136 -0.3060
 9450SOL    HW239987   3.015   2.077   6.867  1.3810 -0.5277  1.7111
 9451SOL     OW39988   0.410   2.525   9.281 -0.2260  0.2429  0.6093
 9451SOL    HW139989   0.383   2.497   9.194  1.3227  0.5029  0.0374
 9451SOL    HW239990   0.500   2.493   9.273 -0.6009 -0.4288 -1.0302
 9452SOL     OW39991   3.339   3.931   5.986  0.0169 -0.3604 -0.2759
 9452SOL    HW139992   3.311   4.006   6.040 -0.1571 -1.0906  0.6500
 9452SOL    HW239993   3.406   3.963   5.926  1.7395  1.4398  2.6063
 9453SOL     OW39994   2.103   1.371   8.305 -0.2855 -0.0146 -0.4356
 9453SOL    HW139995   2.073   1.286   8.273  0.3906 -0.7574  0.9037
 9453SOL    HW239996   2.050   1.422   8.244 -0.6874 -0.1011 -0.1632
 9454SOL     OW39997   0.876   4.266  12.930 -0.3925  0.5409 -0.4782
 9454SOL    HW139998   0.923   4.183  12.921 -1.0299  0.1007  0.2815
 9454SOL    HW239999   0.932   4.312  12.992 -1.4845 -0.3269  1.1519
 9455SOL     OW40000   1.954   4.141   9.050 -0.3620  0.1559  0.1620
 9455SOL    HW140001   2.017   4.068   9.047 -0.3594  0.0470  2.5672
 9455SOL    HW240002   1.880   4.111   8.998 -0.7874 -0.5989  1.1961
 9456SOL     OW40003   4.551   4.079  16.297  0.0784  0.2321  0.1356
 9456SOL    HW140004   4.532   4.128  16.377  0.8565 -1.6482  1.4560
 9456SOL    HW240005   4.469   4.072  16.247 -0.3473  1.0526  0.7221
 9457SOL     OW40006   1.693   0.294   5.422 -0.4519 -0.4860 -0.2558
 9457SOL    HW140007   1.776   0.256   5.451  0.2549 -0.1984 -1.9319
 9457SOL    HW240008   1.657   0.342   5.497 -0.3506 -1.8677  0.6988
 9458SOL     OW40009   4.479   2.846  16.401 -0.0142  0.1737 -0.3898
 9458SOL    HW140010   4.388   2.821  16.382  1.1819 -3.0782 -1.9492
 9458SOL    HW240011   4.458   2.889  16.484  1.0496  0.8162 -0.4596
 9459SOL     OW40012   1.514   0.743  14.116 -0.1357 -0.1593  0.0862
 9459SOL    HW140013   1.485   0.657  14.146 -1.6647 -1.0223 -3.9486
 9459SOL    HW240014   1.447   0.800  14.153 -1.0702 -1.5734  0.5601
 9460SOL     OW40015   4.290   3.002   7.943  0.1089  0.0157 -0.2835
 9460SOL    HW140016   4.364   3.063   7.953  0.8142 -1.4905  3.6176
 9460SOL    HW240017   4.293   2.960   8.029  0.3350  0.0311 -0.2836
 9461SOL     OW40018   4.150   0.548   5.064  0.0011 -0.5750 -0.5285
 9461SOL    HW140019   4.164   0.608   4.990  0.2875  0.7195  0.5853
 9461SOL    HW240020   4.097   0.474   5.035 -0.2777 -1.5021  2.4041
 9462SOL     OW40021   1.531   4.485  15.051 -0.4859 -0.2136 -0.1416
 9462SOL    HW140022   1.619   4.497  15.086 -0.6146  1.1517 -0.2537
 9462SOL    HW240023   1.545   4.434  14.971  2.6989 -0.8934  0.8816
 9463SOL     OW40024   2.713   1.156   9.256  0.5340 -0.7537 -0.1148
 9463SOL    HW140025   2.724   1.084   9.317  0.6231  1.5357  2.5796
 9463SOL    HW240026   2.640   1.196   9.305  0.2639 -0.3431 -0.8470
 9464SOL     OW40027   4.467   1.100   7.878  0.6805  0.2626 -0.2751
 9464SOL    HW140028   4.546   1.107   7.825  0.6897  4.1372  0.2953
 9464SOL    HW240029   4.486   1.183   7.922 -1.1514  0.4764  0.1030
 9465SOL     OW40030   2.222   1.480   2.995  0.5265  0.4055 -0.6799
 9465SOL    HW140031   2.224   1.418   2.923 -1.5052  1.9004 -2.0085
 9465SOL    HW240032   2.131   1.475   3.026  0.4872 -0.2304 -0.8979
 9466SOL     OW40033   4.423   4.257   9.150  0.2726 -0.1889  0.6628
 9466SOL    HW140034   4.358   4.317   9.187  0.6047 -0.6158  1.9459
 9466SOL    HW240035   4.440   4.183   9.209 -0.8666  0.0001  1.2310
 9467SOL     OW40036   3.220   4.563   6.042  0.4812  0.2689  0.1846
 9467SOL    HW140037   3.297   4.526   6.085 -0.1617  0.9781  1.9563
 9467SOL    HW240038   3.228   4.657   6.059  1.9182  0.6082 -2.3304
 9468SOL     OW40039   2.430   3.167   3.656  0.9097  0.0058  0.4131
 9468SOL    HW140040   2.397   3.249   3.693  0.2606  0.8251 -1.9334
 9468SOL    HW240041   2.349   3.118   3.642  0.1353  0.9761  1.5137
 9469SOL     OW40042   0.952   1.941   0.672  0.2103 -0.3462  0.2472
 9469SOL    HW140043   0.861   1.954   0.645  0.8637  2.3075 -0.7055
 9469SOL    HW240044   0.966   1.860   0.624 -0.9584 -1.6771  2.1900
 9470SOL     OW40045   2.151   2.421   4.882  0.2578  0.2417 -0.1413
 9470SOL    HW140046   2.139   2.394   4.791 -0.9681 -0.2464  0.1698
 9470SOL    HW240047   2.246   2.434   4.879  0.1337  0.9513 -1.1349
 9471SOL     OW40048   4.478   3.402   5.571 -0.7510 -0.7030 -0.2628
 9471SOL    HW140049   4.454   3.494   5.567 -1.0741 -0.8397 -1.3813
 9471SOL    HW240050   4.428   3.372   5.647  0.1125 -1.6436 -0.0577
 9472SOL     OW40051   2.256   2.821  16.487 -0.0664 -0.3734 -0.9286
 9472SOL    HW140052   2.351   2.830  16.487  0.1469 -2.6089 -2.4678
 9472SOL    HW240053   2.226   2.878  16.416 -0.3935  0.8861  0.2365
 9473SOL     OW40054   4.549   0.675   3.904 -0.6408  0.3132  0.3655
 9473SOL    HW140055   4.510   0.761   3.916 -2.5196 -0.5879  0.8030
 9473SOL    HW240056   4.606   0.674   3.981 -0.2040  0.4768  0.0417
 9474SOL     OW40057   1.090   0.445   6.889  0.4885  0.4065 -0.0124
 9474SOL    HW140058   1.077   0.424   6.982  1.0238 -1.0626 -0.2698
 9474SOL    HW240059   1.162   0.388   6.861  0.3595  0.5584 -0.6415
 9475SOL     OW40060   0.425   0.216  14.840 -0.8076  0.2133  0.1535
 9475SOL    HW140061   0.485   0.200  14.913 -0.5646 -1.0407 -0.3281
 9475SOL    HW240062   0.342   0.191  14.880 -0.8867  1.6204  0.8844
 9476SOL     OW40063   1.716   0.355  11.613 -0.0414 -0.3705  0.5132
 9476SOL    HW140064   1.774   0.328  11.683 -1.6457 -0.5313  1.7723
 9476SOL    HW240065   1.662   0.412  11.668 -0.3161 -2.2964  2.2294
 9477SOL     OW40066   2.670   3.207   4.838 -0.1853  0.2819  0.0896
 9477SOL    HW140067   2.626   3.261   4.773 -0.1519  0.1747 -0.0216
 9477SOL    HW240068   2.594   3.193   4.894 -0.2774 -0.9485 -0.3479
 9478SOL     OW40069   4.468   1.338   6.689 -0.4372 -0.4801  0.3376
 9478SOL    HW140070   4.410   1.331   6.614  0.9733 -0.4967 -0.7537
 9478SOL    HW240071   4.423   1.391   6.754  3.3531  1.7390  1.1819
 9479SOL     OW40072   0.157   4.301   8.598 -0.6531  0.2751 -0.1717
 9479SOL    HW140073   0.140   4.228   8.657 -1.3736  0.6867  0.1280
 9479SOL    HW240074   0.139   4.379   8.650  1.4964 -0.8871  2.3296
 9480SOL     OW40075   1.014   2.862   6.046 -0.1068  0.4279  0.2830
 9480SOL    HW140076   0.961   2.893   6.119 -0.8012  0.4491 -0.2194
 9480SOL    HW240077   1.004   2.927   5.976  1.1979 -0.8750 -1.1092
 9481SOL     OW40078   0.149   0.513   4.337 -0.6021  0.7407  0.0327
 9481SOL    HW140079   0.204   0.458   4.281 -1.2590  1.0647 -0.9160
 9481SOL    HW240080   0.181   0.602   4.319 -1.2875  1.4719  2.4046
 9482SOL     OW40081   1.789   2.865  15.591 -0.0822  0.0122  0.7361
 9482SOL    HW140082   1.822   2.845  15.678  2.1131  1.3473  0.2355
 9482SOL    HW240083   1.876   2.894  15.562 -0.3839  0.5952  0.4059
 9483SOL     OW40084   3.589   3.516   8.285 -0.4612 -0.4035  0.0476
 9483SOL    HW140085   3.622   3.573   8.354  2.6309 -1.3924 -0.6243
 9483SOL    HW240086   3.519   3.474   8.335 -1.9228 -0.0954 -1.7351
 9484SOL     OW40087   0.183   0.276  12.523  0.4413 -0.1516  0.6753
 9484SOL    HW140088   0.194   0.201  12.465 -0.5463 -1.1421  1.7912
 9484SOL    HW240089   0.139   0.337  12.464  0.6790 -1.0787 -0.4692
 9485SOL     OW40090   3.841   1.273   3.548 -0.2003 -0.2615  0.1181
 9485SOL    HW140091   3.928   1.305   3.573 -0.6130 -0.5132  1.8842
 9485SOL    HW240092   3.817   1.224   3.627  1.5097 -0.7405  0.3345
 9486SOL     OW40093   3.924   2.516  15.494 -0.2323 -0.0111  0.2922
 9486SOL    HW140094   3.980   2.459  15.441 -3.0245 -2.0910 -0.4021
 9486SOL    HW240095   3.990   2.556  15.551  0.4150 -0.0583 -0.4246
 9487SOL     OW40096   4.562   3.993   7.446  0.2780 -0.1505 -0.1006
 9487SOL    HW140097   4.601   3.953   7.523 -1.5135  0.9080  1.3743
 9487SOL    HW240098   4.614   4.073   7.440  0.8460 -0.3866  2.0199
 9488SOL     OW40099   4.486   2.959  14.751 -0.3240  0.0575 -0.9325
 9488SOL    HW140100   4.473   2.865  14.740 -1.4322  0.1118 -0.1020
 9488SOL    HW240101   4.528   2.980  14.668 -0.7215 -0.5204 -1.2804
 9489SOL     OW40102   2.417   2.459   4.402 -0.0397  0.5841 -0.2620
 9489SOL    HW140103   2.387   2.509   4.477 -0.0407 -1.1554  0.9066
 9489SOL    HW240104   2.341   2.460   4.343  0.6163 -0.3624 -1.1330
 9490SOL     OW40105   0.045   4.556   7.826 -0.1525  0.1796  0.0784
 9490SOL    HW140106   0.013   4.541   7.914  1.7143  0.5734  0.8334
 9490SOL    HW240107   4.733   4.626   7.785 -2.3306 -0.8454  1.0974
 9491SOL     OW40108   0.999   3.041   2.060 -0.5527 -0.5234  0.3248
 9491SOL    HW140109   1.058   3.079   2.124 -0.1779 -0.6167  0.0315
 9491SOL    HW240110   1.062   2.978   2.023 -1.8761 -2.5869  1.5427
 9492SOL     OW40111   0.542   3.358   8.705 -0.8302  0.2550  0.4486
 9492SOL    HW140112   0.477   3.340   8.773 -1.7387 -0.8370 -0.7035
 9492SOL    HW240113   0.534   3.450   8.679  4.1988  1.1688  2.1957
 9493SOL     OW40114   0.441   2.567   3.020  0.0231 -0.5740  0.0100
 9493SOL    HW140115   0.490   2.641   2.986  2.3922 -2.2061 -0.1464
 9493SOL    HW240116   0.368   2.615   3.060  1.3536  1.6501 -0.2418
 9494SOL     OW40117   2.419   2.864   5.876  0.1090 -0.0726 -0.9448
 9494SOL    HW140118   2.489   2.834   5.934 -0.7622 -2.3073 -1.0476
 9494SOL    HW240119   2.435   2.829   5.789  2.2643 -3.5779  0.8858
 9495SOL     OW40120   3.541   0.911   3.710 -0.4524 -0.1506  0.1018
 9495SOL    HW140121   3.483   0.987   3.718 -0.6230 -0.1276 -1.3968
 9495SOL    HW240122   3.591   0.913   3.792 -0.2514  1.6880 -0.0690
 9496SOL     OW40123   1.836   0.333   8.755  0.7152  0.4683  0.1078
 9496SOL    HW140124   1.811   0.296   8.839  1.5313 -2.9034 -1.1027
 9496SOL    HW240125   1.890   0.409   8.775 -1.9249  2.4190 -0.2020
 9497SOL     OW40126   4.676   1.327   6.852 -0.2317  0.2107 -0.0173
 9497SOL    HW140127   4.673   1.418   6.881  2.4511 -1.0576  4.2631
 9497SOL    HW240128   4.613   1.338   6.781  0.7609  2.2253 -0.5759
 9498SOL     OW40129   2.195   3.261   5.753  0.2286 -0.0610  0.4511
 9498SOL    HW140130   2.196   3.175   5.795  2.0902 -0.8528 -1.2075
 9498SOL    HW240131   2.171   3.314   5.829 -1.9002 -0.5578  0.1208
 9499SOL     OW40132   2.179   1.123   7.780  0.4356  0.2642  0.4268
 9499SOL    HW140133   2.203   1.210   7.812  0.5348  0.4644 -0.1835
 9499SOL    HW240134   2.086   1.134   7.760  0.6751 -0.6163 -1.2025
 9500SOL     OW40135   2.253   2.654   3.954 -0.0317  0.5118 -0.1309
 9500SOL    HW140136   2.306   2.575   3.947 -1.3851 -0.3930 -0.2337
 9500SOL    HW240137   2.240   2.684   3.864  0.1386  0.9167 -0.0248
 9501SOL     OW40138   0.274   1.219   2.345 -0.0789  0.0029 -0.2763
 9501SOL    HW140139   0.318   1.302   2.329  0.0415  0.1965  1.0360
 9501SOL    HW240140   0.341   1.157   2.315  1.9899  2.8557 -1.4869
 9502SOL     OW40141   0.290   1.291   5.735 -0.1825 -0.5191  0.7855
 9502SOL    HW140142   0.364   1.238   5.767 -0.5917 -1.1565  0.6807
 9502SOL    HW240143   0.219   1.264   5.794 -2.7759 -0.7005 -2.4161
 9503SOL     OW40144   0.847   4.450   2.040 -0.3688  0.7393  0.2324
 9503SOL    HW140145   0.887   4.449   2.127 -0.0375  0.6793  0.0784
 9503SOL    HW240146   0.912   4.404   1.987  0.2564  0.0601  1.5833
 9504SOL     OW40147   0.899   4.440   5.435 -0.6578  0.1320  0.0239
 9504SOL    HW140148   0.951   4.466   5.511  3.3218  0.5395 -2.8238
 9504SOL    HW240149   0.814   4.470   5.466 -0.3927 -1.8487  2.6918
 9505SOL     OW40150   3.951   2.724   2.133 -0.4848 -0.3085 -0.0062
 9505SOL    HW140151   3.861   2.747   2.112 -0.0835  1.3654  0.0501
 9505SOL    HW240152   4.007   2.783   2.081 -0.7181 -0.0267  0.0629
 9506SOL     OW40153   1.434   3.726  11.920  0.2052 -0.1388 -0.0094
 9506SOL    HW140154   1.482   3.643  11.922  1.5246  0.6351  0.5823
 9506SOL    HW240155   1.433   3.734  11.825  1.8738 -0.4159 -0.0472
 9507SOL     OW40156   1.008   0.432   2.254 -0.7747  0.1878  0.7219
 9507SOL    HW140157   1.045   0.346   2.273 -0.9616 -0.1582 -0.4614
 9507SOL    HW240158   0.943   0.421   2.184  2.8760  0.2470 -2.6870
 9508SOL     OW40159   0.421   4.691   2.139  0.2178 -0.2204  0.2931
 9508SOL    HW140160   0.360   4.622   2.112 -0.0186 -0.8728  2.5021
 9508SOL    HW240161   0.503   4.655   2.107  0.6245  0.1420  0.9265
 9509SOL     OW40162   2.614   4.240  16.239  0.1971  0.0006  0.0223
 9509SOL    HW140163   2.620   4.291  16.320  1.3445 -1.1538  0.6665
 9509SOL    HW240164   2.563   4.290  16.175 -0.3025  0.6116  0.8955
 9510SOL     OW40165   0.930   1.449  12.816  0.3892 -0.2439  0.2198
 9510SOL    HW140166   0.841   1.422  12.839 -0.5240  0.6612 -2.2837
 9510SOL    HW240167   0.943   1.386  12.745  2.3691  0.2500  0.1532
 9511SOL     OW40168   3.990   3.890   2.334 -0.3524  0.3230 -0.1696
 9511SOL    HW140169   3.993   3.917   2.242  0.6056  0.4229 -0.1059
 9511SOL    HW240170   3.900   3.859   2.340  0.2760 -1.8054 -1.3779
 9512SOL     OW40171   1.614   0.584   9.421 -0.0899 -0.0961 -0.0350
 9512SOL    HW140172   1.631   0.674   9.393 -1.3225  0.3212  0.5677
 9512SOL    HW240173   1.528   0.572   9.381 -0.7247  1.8004  0.7598
 9513SOL     OW40174   3.557   2.600   5.373 -0.7424  0.2674 -0.0374
 9513SOL    HW140175   3.618   2.629   5.304 -2.3221  1.0801 -1.0952
 9513SOL    HW240176   3.582   2.673   5.430  0.1002  0.2726 -0.4080
 9514SOL     OW40177   4.702   0.918  14.508 -0.5617 -0.5074 -0.0187
 9514SOL    HW140178   4.661   0.834  14.485 -0.8084 -0.5556  0.5965
 9514SOL    HW240179   4.685   0.963  14.425  1.7939  0.0398 -0.1890
 9515SOL     OW40180   1.527   1.144  17.698 -0.5143 -0.7472 -0.2333
 9515SOL    HW140181   1.515   1.135   0.037  1.3011 -1.3036 -0.0481
 9515SOL    HW240182   1.443   1.188  17.684 -0.3082 -0.1681  0.3640
 9516SOL     OW40183   3.950   4.379  12.584 -0.1401  0.6911  0.0427
 9516SOL    HW140184   4.001   4.459  12.596  1.6278 -0.2150 -1.4237
 9516SOL    HW240185   3.921   4.405  12.497  0.5769 -0.2950 -0.4875
 9517SOL     OW40186   3.322   4.556  13.030 -0.3025 -0.0505 -0.1519
 9517SOL    HW140187   3.400   4.568  12.975 -0.5160  1.0667 -0.2087
 9517SOL    HW240188   3.264   4.607  12.974  0.5217  1.7932  0.6733
 9518SOL     OW40189   2.292   1.271   6.477 -0.2411 -0.0449  0.6298
 9518SOL    HW140190   2.306   1.186   6.518 -0.2862 -0.9553 -1.2263
 9518SOL    HW240191   2.237   1.247   6.402  1.5061  0.4227 -0.7789
 9519SOL     OW40192   0.724   2.854   3.674  0.5693 -0.9195  0.4028
 9519SOL    HW140193   0.777   2.874   3.751  0.9827  0.0525 -0.1409
 9519SOL    HW240194   0.782   2.851   3.598  2.4805  2.8406  1.7347
 9520SOL     OW40195   3.883   0.812   0.373  0.3412  0.5521 -0.1292
 9520SOL    HW140196   3.876   0.905   0.396  0.5515  0.7340 -0.8023
 9520SOL    HW240197   3.965   0.805   0.421 -0.1833 -0.6485  0.5787
 9521SOL     OW40198   3.832   3.765  16.024  0.3570  0.4452 -0.3638
 9521SOL    HW140199   3.820   3.824  15.950 -0.4456  0.2974 -0.3533
 9521SOL    HW240200   3.783   3.822  16.084  1.3774 -0.2171  1.0811
 9522SOL     OW40201   2.376   2.441   5.439 -0.1613  0.7858  0.3339
 9522SOL    HW140202   2.300   2.397   5.399 -0.3295  1.7808 -0.4560
 9522SOL    HW240203   2.391   2.511   5.376 -0.2195 -0.0839 -0.6533
 9523SOL     OW40204   0.658   0.016   7.214 -0.7082 -0.2096  0.3290
 9523SOL    HW140205   0.636   4.675   7.168 -0.3348  2.3133 -4.2967
 9523SOL    HW240206   0.571   0.055   7.215 -0.4913  0.2977 -0.6229
 9524SOL     OW40207   0.518   2.329   6.525  0.4022  0.3921 -0.3773
 9524SOL    HW140208   0.516   2.326   6.429 -0.1949  1.5204 -0.4010
 9524SOL    HW240209   0.554   2.244   6.549  0.8843  0.5058 -0.6813
 9525SOL     OW40210   3.245   1.619   2.988 -0.1090 -0.0359  0.3491
 9525SOL    HW140211   3.234   1.705   3.028  0.5329 -0.0520  0.5583
 9525SOL    HW240212   3.275   1.631   2.898 -0.0805  0.1142  0.3792
 9526SOL     OW40213   3.555   3.763   3.982 -0.1582  0.2132 -0.5745
 9526SOL    HW140214   3.581   3.707   3.909 -0.6323 -0.6117 -0.1159
 9526SOL    HW240215   3.464   3.738   4.000 -0.3256  0.1487 -1.5305
 9527SOL     OW40216   4.682   0.993   3.893 -0.1086 -0.0574  0.3978
 9527SOL    HW140217   4.588   1.010   3.895 -0.0459  0.5175 -1.7033
 9527SOL    HW240218   4.690   0.942   3.813 -0.1578  0.1124  0.2851
 9528SOL     OW40219   0.472   0.117  16.539  0.0729  0.7655  0.3635
 9528SOL    HW140220   0.457   0.107  16.446  0.3085  0.9154  0.3087
 9528SOL    HW240221   0.419   0.194  16.560  0.2824  0.8981  0.4101
 9529SOL     OW40222   4.584   1.699   6.379  0.7886  0.7923 -0.2407
 9529SOL    HW140223   4.653   1.648   6.422 -0.0342 -0.1926 -0.0912
 9529SOL    HW240224   4.562   1.648   6.301  0.5959 -2.2847  1.8103
 9530SOL     OW40225   2.741   1.323   6.896  0.0024  0.2394 -0.3500
 9530SOL    HW140226   2.730   1.387   6.826 -1.9277 -0.4301 -0.6479
 9530SOL    HW240227   2.664   1.269   6.881  0.8679 -1.3373  0.9019
 9531SOL     OW40228   2.033   2.352   8.343 -0.1449  0.1162 -0.2253
 9531SOL    HW140229   2.124   2.378   8.359  0.0779 -0.5912 -0.3619
 9531SOL    HW240230   1.980   2.381   8.418 -0.1848  0.0864 -0.2420
 9532SOL     OW40231   0.364   4.155   6.140  0.2916  0.3848 -0.2555
 9532SOL    HW140232   0.432   4.156   6.207 -0.0661  0.0219  0.1157
 9532SOL    HW240233   0.416   4.136   6.062  1.1704  0.8121  0.2322
 9533SOL     OW40234   0.069   3.080   5.776 -0.4592 -0.8118 -0.1668
 9533SOL    HW140235   0.021   3.009   5.732  2.7348 -2.4936 -0.9281
 9533SOL    HW240236   0.150   3.088   5.725 -0.4067 -2.8359 -0.4182
 9534SOL     OW40237   0.769   4.489  16.435 -0.3946 -0.5642 -0.0463
 9534SOL    HW140238   0.812   4.445  16.362 -0.8096  1.8386 -1.7462
 9534SOL    HW240239   0.787   4.580  16.412 -0.7738 -0.7324 -0.9976
 9535SOL     OW40240   0.379   2.343  11.695  0.0196  0.5399  0.5155
 9535SOL    HW140241   0.349   2.266  11.646 -1.5777 -0.3422  2.8376
 9535SOL    HW240242   0.447   2.366  11.632  0.7890 -0.1392  1.0890
 9536SOL     OW40243   4.351   4.000  16.142 -0.1940  0.5610 -0.0072
 9536SOL    HW140244   4.386   3.912  16.127 -0.0508  1.0882 -2.6545
 9536SOL    HW240245   4.291   4.000  16.068 -0.3156 -0.6145  0.0818
 9537SOL     OW40246   0.750   1.064   5.752 -0.6903 -0.8012  0.4204
 9537SOL    HW140247   0.838   1.097   5.738 -1.4746  0.7084 -1.0023
 9537SOL    HW240248   0.766   1.004   5.824  1.3040  0.1484  0.7496
 9538SOL     OW40249   4.461   2.487   6.019  0.4549  0.1335  0.0362
 9538SOL    HW140250   4.485   2.395   6.008 -1.2051 -0.6271  2.8150
 9538SOL    HW240251   4.429   2.502   5.930 -2.9150  0.3926  1.3033
 9539SOL     OW40252   1.581   1.940   4.261 -0.1892  0.9248  0.2560
 9539SOL    HW140253   1.615   1.983   4.339  1.8001  0.1652 -0.1895
 9539SOL    HW240254   1.605   1.849   4.281 -2.1824  0.4412  0.4074
 9540SOL     OW40255   0.112   1.030   3.294  0.2743 -0.0384  0.1691
 9540SOL    HW140256   0.100   0.943   3.332 -0.5438 -0.0859 -0.2033
 9540SOL    HW240257   0.035   1.047   3.240 -0.0869 -0.0463  0.6813
 9541SOL     OW40258   1.908   2.566   7.087 -0.0911  0.6905  0.2351
 9541SOL    HW140259   1.888   2.522   7.169  0.7808 -0.4748 -0.1608
 9541SOL    HW240260   1.916   2.653   7.125  1.5467  1.1067 -1.0462
 9542SOL     OW40261   3.523   3.889   5.192  0.0245  0.3593  0.2393
 9542SOL    HW140262   3.563   3.801   5.189 -0.5310  0.0573  2.1086
 9542SOL    HW240263   3.449   3.865   5.136  0.6875 -2.5020  0.5671
 9543SOL     OW40264   3.453   3.924  10.214  0.2703 -0.5213  0.1845
 9543SOL    HW140265   3.502   3.940  10.295  0.0876  2.1757 -0.2513
 9543SOL    HW240266   3.366   3.925  10.255 -0.4314 -0.6415 -1.3203
 9544SOL     OW40267   3.075   1.419  17.263 -0.1298 -0.2474 -0.1484
 9544SOL    HW140268   2.984   1.449  17.272  1.4977  4.3533  0.8893
 9544SOL    HW240269   3.058   1.346  17.204 -0.0490  0.1672 -0.6840
 9545SOL     OW40270   2.015   0.004   7.566  0.3515  0.4454 -0.3406
 9545SOL    HW140271   2.106   4.727   7.541 -0.1606 -2.5864 -0.3021
 9545SOL    HW240272   2.014   4.710   7.655  1.2066  1.9398  0.2263
 9546SOL     OW40273   4.404   1.824   9.160  0.0073 -0.4583  0.3698
 9546SOL    HW140274   4.362   1.857   9.239  0.2080  1.3453 -0.2674
 9546SOL    HW240275   4.470   1.768   9.200  0.5453  1.3145  1.9502
 9547SOL     OW40276   2.362   0.403   3.926  0.0848 -0.2411  0.0055
 9547SOL    HW140277   2.380   0.359   3.842 -1.6688 -0.9041 -0.0268
 9547SOL    HW240278   2.432   0.466   3.938  0.5407 -0.4625 -1.4246
 9548SOL     OW40279   0.749   2.035   7.814 -0.1753 -0.3095 -0.1975
 9548SOL    HW140280   0.842   2.053   7.802 -0.1431  1.9782  3.5932
 9548SOL    HW240281   0.719   2.123   7.835  1.7395  0.7940 -2.0416
 9549SOL     OW40282   3.474   2.096  12.819 -0.7408 -0.4812 -0.1033
 9549SOL    HW140283   3.454   2.137  12.902  0.7099  0.6946 -0.3406
 9549SOL    HW240284   3.436   2.159  12.758 -1.9777 -1.3338 -0.2157
 9550SOL     OW40285   0.879   2.140   9.258  0.0606 -0.1856 -0.6364
 9550SOL    HW140286   0.878   2.133   9.162  2.1164 -2.7145 -0.4862
 9550SOL    HW240287   0.791   2.164   9.286  0.5221 -0.5592  1.1091
 9551SOL     OW40288   4.517   3.732   2.786 -0.5491  0.0274 -0.0896
 9551SOL    HW140289   4.598   3.733   2.735 -0.4084  0.6298  0.1394
 9551SOL    HW240290   4.469   3.652   2.766 -2.5910  1.3231 -0.4323
 9552SOL     OW40291   2.004   4.524   8.331 -0.2170 -0.0755 -0.3673
 9552SOL    HW140292   2.041   4.610   8.350  0.1212  0.1351 -2.0028
 9552SOL    HW240293   2.076   4.464   8.354  0.3610  0.7686  0.0179
 9553SOL     OW40294   2.163   1.241   3.251 -0.1798  1.0884  0.1845
 9553SOL    HW140295   2.070   1.259   3.268 -0.6851  0.9625 -2.4136
 9553SOL    HW240296   2.207   1.307   3.305 -2.0608  0.6499  2.2837
 9554SOL     OW40297   3.149   3.220   7.005  0.3810  0.1946  0.5151
 9554SOL    HW140298   3.189   3.238   6.920 -1.2346  0.6277 -0.1555
 9554SOL    HW240299   3.169   3.303   7.048  0.8562 -0.2079  1.0670
 9555SOL     OW40300   1.483   4.049   4.993  0.1129  0.2338 -0.2611
 9555SOL    HW140301   1.518   4.061   4.905 -1.2895 -0.3959 -0.9091
 9555SOL    HW240302   1.425   4.125   4.995 -1.8459 -1.3182  1.1521
 9556SOL     OW40303   3.988   2.973   2.828 -0.1549  0.2470  0.1473
 9556SOL    HW140304   4.041   2.964   2.748 -0.4083 -1.8960  0.2093
 9556SOL    HW240305   4.050   2.923   2.881 -0.5965  1.4900  1.8123
 9557SOL     OW40306   4.149   4.035   7.787  0.2723 -0.4459  0.5382
 9557SOL    HW140307   4.112   4.083   7.861 -0.6081 -0.4865  0.1149
 9557SOL    HW240308   4.190   4.102   7.732  0.8774 -1.0149  0.2939
 9558SOL     OW40309   1.139   4.612   9.595 -0.0760 -0.5554  0.4068
 9558SOL    HW140310   1.138   4.679   9.664 -1.6103 -1.2508  1.0713
 9558SOL    HW240311   1.111   4.670   9.524 -2.5500 -0.8049  1.1535
 9559SOL     OW40312   1.043   1.702   0.622  0.0565 -0.4331  0.5819
 9559SOL    HW140313   1.130   1.686   0.586 -0.3321  0.9514 -0.9779
 9559SOL    HW240314   1.027   1.625   0.677  0.9016 -1.0316 -0.0097
 9560SOL     OW40315   3.531   4.632   5.733  0.1988  0.0517 -0.1959
 9560SOL    HW140316   3.562   4.585   5.810  0.1845 -1.8606 -1.3627
 9560SOL    HW240317   3.600   4.698   5.734 -0.1411  0.4250 -1.5827
 9561SOL     OW40318   4.687   2.797   5.558  0.2673 -0.2562 -0.2957
 9561SOL    HW140319   4.677   2.762   5.646  0.2300  0.6262  0.0539
 9561SOL    HW240320   4.737   2.725   5.519 -0.5980 -1.7276  1.3481
 9562SOL     OW40321   1.058   3.893   8.702  0.2455  0.3605 -0.0921
 9562SOL    HW140322   0.998   3.892   8.777 -0.0520  1.0360 -0.3284
 9562SOL    HW240323   1.009   3.835   8.644  1.5291 -3.0651  2.2257
 9563SOL     OW40324   2.556   1.835  15.055  0.0947  0.0748 -0.8469
 9563SOL    HW140325   2.504   1.889  15.114 -0.2421  0.3844 -1.4189
 9563SOL    HW240326   2.514   1.843  14.969  0.0889 -0.4050 -0.8883
 9564SOL     OW40327   1.413   3.641   8.009 -0.0279 -0.0971  0.1209
 9564SOL    HW140328   1.317   3.640   8.005  0.0595  1.4878 -2.0714
 9564SOL    HW240329   1.434   3.594   7.928  2.0170  1.2309 -0.1184
 9565SOL     OW40330   0.402   4.520   1.628  0.3474 -0.2223 -0.3138
 9565SOL    HW140331   0.492   4.485   1.626  0.5710  0.3527 -0.1940
 9565SOL    HW240332   0.354   4.454   1.678  0.0950 -0.5252 -0.9571
 9566SOL     OW40333   0.443   3.069  10.900 -0.4098 -0.5036  0.5446
 9566SOL    HW140334   0.500   3.111  10.835 -0.3357  0.4366  1.2075
 9566SOL    HW240335   0.435   3.142  10.963  0.0914 -0.2335  0.2900
 9567SOL     OW40336   0.208   1.392  17.591  0.4728 -0.1246  0.6174
 9567SOL    HW140337   0.292   1.405  17.634  0.6902 -3.6008  1.2321
 9567SOL    HW240338   0.154   1.457  17.637 -0.7948  0.3123 -1.4666
 9568SOL     OW40339   1.640   4.440   5.874  0.3679 -0.1532  0.1527
 9568SOL    HW140340   1.651   4.402   5.787  0.8815 -1.1046  0.6282
 9568SOL    HW240341   1.552   4.478   5.870 -0.6397 -2.4560  0.6984
 9569SOL     OW40342   0.614   1.498  17.382 -0.3146 -0.7078 -0.1151
 9569SOL    HW140343   0.526   1.480  17.349 -0.2416  0.7050 -1.0810
 9569SOL    HW240344   0.670   1.427  17.350 -1.4304 -1.6316 -0.0063
   4.73926   4.73926  17.75481
